Lattice                                 
           1
     4.208883    2.430000    0.000000
    -4.208883    2.430000    0.000000
     0.000000    0.000000   15.000000
   B    C 
     4    11
Direct configuration=     1
   0.00415361  0.00267210  0.12034134
   0.35695335  0.00285503  0.09748893
   0.00423858  0.35550699  0.09749256
   0.65142295  0.65006557  0.09747688
   0.32808646  0.32671938  0.10030508
   0.68027775  0.00278085  0.10027562
   0.00416530  0.67883808  0.10026559
   0.08333267  0.41666633  0.33646667
   0.24999967  0.24999933  0.33646667
   0.08333267  0.91666633  0.33646667
   0.24999967  0.74999933  0.33646667
   0.58333267  0.41666633  0.33646667
   0.74999967  0.24999933  0.33646667
   0.58333267  0.91666633  0.33646667
   0.74999967  0.74999933  0.33646667
Direct configuration=     2
   0.00414129  0.00266728  0.11903185
   0.35560083  0.00283194  0.09783914
   0.00413972  0.35436062  0.09790085
   0.65269440  0.65117705  0.09787151
   0.32451678  0.32291570  0.10030210
   0.68422800  0.00285659  0.10032778
   0.00417114  0.68245288  0.10027924
   0.08331689  0.41677803  0.33646401
   0.25017251  0.25025844  0.33656224
   0.08349668  0.91679892  0.33645346
   0.25029940  0.74995791  0.33643743
   0.58328686  0.41664635  0.33642241
   0.74993406  0.25000488  0.33646216
   0.58308959  0.91661387  0.33653800
   0.74953917  0.74978020  0.33648718
Direct configuration=     3
   0.00414745  0.00266969  0.11968604
   0.35627652  0.00284348  0.09766418
   0.00418911  0.35493332  0.09769688
   0.65205922  0.65062178  0.09767436
   0.32630010  0.32481592  0.10030359
   0.68225455  0.00281875  0.10030172
   0.00416822  0.68064701  0.10027242
   0.08332477  0.41672223  0.33646534
   0.25008616  0.25012900  0.33651449
   0.08341474  0.91673268  0.33646006
   0.25014966  0.74997860  0.33645203
   0.58330974  0.41665633  0.33644452
   0.74996684  0.25000211  0.33646441
   0.58321103  0.91664008  0.33650236
   0.74976922  0.74988968  0.33647693
Direct configuration=     4
   0.00414587  0.00269448  0.11855862
   0.35675925  0.00281218  0.09798538
   0.00415707  0.35538141  0.09807547
   0.65167829  0.65006910  0.09803854
   0.32647576  0.32482040  0.10026757
   0.68221527  0.00285580  0.10031711
   0.00418036  0.68051976  0.10025179
   0.08328869  0.41665833  0.33646966
   0.24988806  0.24998514  0.33658859
   0.08321671  0.91664328  0.33646123
   0.24983396  0.75006494  0.33642967
   0.58331381  0.41668058  0.33641823
   0.74996720  0.25002945  0.33646027
   0.58339892  0.91674990  0.33656319
   0.75010810  0.75013592  0.33649400
Direct configuration=     5
   0.00414145  0.00276406  0.11539456
   0.35811403  0.00272434  0.09888679
   0.00406717  0.35663894  0.09913798
   0.65060924  0.64851803  0.09906061
   0.32696875  0.32483298  0.10016650
   0.68210502  0.00295979  0.10036030
   0.00421444  0.68016261  0.10019390
   0.08318742  0.41647901  0.33648178
   0.24933210  0.24958140  0.33679653
   0.08266095  0.91639238  0.33646454
   0.24894795  0.75030722  0.33636692
   0.58332521  0.41674863  0.33634447
   0.74996823  0.25010617  0.33644866
   0.58392622  0.91705812  0.33673389
   0.75105916  0.75082698  0.33654190
Direct configuration=     6
   0.00414500  0.00276816  0.11505562
   0.35823474  0.00271435  0.09896761
   0.00406988  0.35674025  0.09923227
   0.65051924  0.64838777  0.09915146
   0.32705045  0.32488143  0.10017446
   0.68204558  0.00295663  0.10038103
   0.00422136  0.68009198  0.10020587
   0.08318493  0.41653612  0.33648433
   0.24940300  0.24964956  0.33680998
   0.08273689  0.91647349  0.33646816
   0.24908054  0.75028710  0.33636489
   0.58329731  0.41676680  0.33634304
   0.74995435  0.25011081  0.33644886
   0.58380638  0.91701802  0.33674572
   0.75087768  0.75071820  0.33654604
Direct configuration=     7
   0.00415565  0.00278047  0.11403878
   0.35859688  0.00268438  0.09921008
   0.00407801  0.35704417  0.09951513
   0.65024924  0.64799700  0.09942403
   0.32729556  0.32502678  0.10019834
   0.68186726  0.00294714  0.10044322
   0.00424213  0.67988008  0.10024179
   0.08317748  0.41670743  0.33649195
   0.24961570  0.24985405  0.33685031
   0.08296471  0.91671681  0.33647903
   0.24947832  0.75022673  0.33635879
   0.58321361  0.41682128  0.33633874
   0.74991271  0.25012474  0.33644948
   0.58344685  0.91689773  0.33678121
   0.75033322  0.75039187  0.33655846
Direct configuration=     8
   0.00417694  0.00280509  0.11200511
   0.35932117  0.00262442  0.09969502
   0.00409427  0.35765201  0.10008085
   0.64970924  0.64721547  0.09996917
   0.32778577  0.32531749  0.10024610
   0.68151062  0.00292818  0.10056760
   0.00428366  0.67945629  0.10031364
   0.08316256  0.41705006  0.33650721
   0.25004110  0.25026303  0.33693096
   0.08342036  0.91720345  0.33650076
   0.25027388  0.75010598  0.33634659
   0.58304621  0.41693026  0.33633014
   0.74982944  0.25015260  0.33645071
   0.58272780  0.91665714  0.33685218
   0.74924432  0.74973921  0.33658329
Direct configuration=     9
   0.00419907  0.00279259  0.11130513
   0.35937755  0.00260220  0.09980844
   0.00413635  0.35766495  0.10020590
   0.64969711  0.64716645  0.10009106
   0.32787067  0.32539279  0.10033007
   0.68143004  0.00287611  0.10066604
   0.00431041  0.67937586  0.10040248
   0.08315680  0.41702942  0.33651613
   0.25003928  0.25038952  0.33692730
   0.08340180  0.91713576  0.33651769
   0.25025067  0.75013836  0.33636056
   0.58304547  0.41687264  0.33634951
   0.74977009  0.25017673  0.33645762
   0.58274585  0.91668470  0.33685208
   0.74919617  0.74980259  0.33658932
Direct configuration=    10
   0.00426545  0.00275508  0.10920519
   0.35954670  0.00253554  0.10014871
   0.00426259  0.35770379  0.10058108
   0.64966072  0.64701941  0.10045672
   0.32812536  0.32561869  0.10058200
   0.68118829  0.00271991  0.10096136
   0.00439067  0.67913457  0.10066900
   0.08313953  0.41696752  0.33654290
   0.25003380  0.25076897  0.33691630
   0.08334614  0.91693269  0.33656849
   0.25018103  0.75023550  0.33640246
   0.58304327  0.41669978  0.33640760
   0.74959206  0.25024911  0.33647834
   0.58280000  0.91676738  0.33685180
   0.74905170  0.74999274  0.33660740
Direct configuration=    11
   0.00439822  0.00268007  0.10500530
   0.35988499  0.00240222  0.10082923
   0.00451508  0.35778147  0.10133143
   0.64958795  0.64672532  0.10118805
   0.32863475  0.32607051  0.10108585
   0.68070481  0.00240750  0.10155200
   0.00455118  0.67865199  0.10120205
   0.08310499  0.41684371  0.33659643
   0.25002286  0.25152787  0.33689431
   0.08323481  0.91652655  0.33667007
   0.25004176  0.75042977  0.33648627
   0.58303887  0.41635405  0.33652379
   0.74923600  0.25039387  0.33651979
   0.58290830  0.91693276  0.33685122
   0.74876278  0.75037302  0.33664355
Direct configuration=    12
   0.00443252  0.00264877  0.10412686
   0.35988713  0.00237488  0.10096946
   0.00456979  0.35775125  0.10147477
   0.64962030  0.64673635  0.10133065
   0.32865121  0.32608049  0.10120279
   0.68070914  0.00234328  0.10167777
   0.00458778  0.67861751  0.10132285
   0.08302549  0.41690572  0.33660686
   0.24990106  0.25125461  0.33688261
   0.08311919  0.91665298  0.33669099
   0.24990539  0.75041127  0.33651258
   0.58300225  0.41653163  0.33655249
   0.74930960  0.25036932  0.33653397
   0.58292746  0.91702738  0.33684180
   0.74897903  0.75039523  0.33665289
Direct configuration=    13
   0.00450035  0.00258688  0.10238954
   0.35989136  0.00232080  0.10124680
   0.00467798  0.35769149  0.10175824
   0.64968429  0.64675817  0.10161266
   0.32868377  0.32610025  0.10143407
   0.68071770  0.00221628  0.10192650
   0.00466017  0.67854933  0.10156177
   0.08286825  0.41702834  0.33662748
   0.24966019  0.25071417  0.33685947
   0.08289052  0.91690302  0.33673236
   0.24963571  0.75037468  0.33656464
   0.58292983  0.41688283  0.33660925
   0.74945515  0.25032076  0.33656201
   0.58296535  0.91721453  0.33682317
   0.74940670  0.75043914  0.33667134
Direct configuration=    14
   0.00452281  0.00256639  0.10181431
   0.35989276  0.00230290  0.10133862
   0.00471380  0.35767170  0.10185210
   0.64970548  0.64676539  0.10170604
   0.32869455  0.32610679  0.10151065
   0.68072054  0.00217423  0.10200885
   0.00468414  0.67852675  0.10164088
   0.08281619  0.41706894  0.33663431
   0.24958044  0.25053523  0.33685181
   0.08281481  0.91698581  0.33674606
   0.24954642  0.75036257  0.33658187
   0.58290585  0.41699912  0.33662805
   0.74950334  0.25030468  0.33657130
   0.58297789  0.91727650  0.33681701
   0.74954831  0.75045369  0.33667745
Direct configuration=    15
   0.00452906  0.00254663  0.10183279
   0.35982722  0.00230447  0.10135250
   0.00470444  0.35762142  0.10184802
   0.64974955  0.64683949  0.10170713
   0.32857757  0.32598044  0.10150584
   0.68087075  0.00219488  0.10198838
   0.00468365  0.67861902  0.10163266
   0.08284775  0.41707260  0.33663278
   0.24956413  0.25047706  0.33684918
   0.08286923  0.91705797  0.33674150
   0.24958086  0.75040333  0.33659078
   0.58288781  0.41703396  0.33662841
   0.74951914  0.25036244  0.33657881
   0.58290524  0.91716437  0.33680928
   0.74951093  0.75042258  0.33668126
Direct configuration=    16
   0.00454031  0.00251112  0.10186598
   0.35970946  0.00230730  0.10137743
   0.00468761  0.35753107  0.10184069
   0.64982874  0.64697262  0.10170909
   0.32836739  0.32575345  0.10149718
   0.68114063  0.00223198  0.10195160
   0.00468275  0.67878479  0.10161790
   0.08290446  0.41707917  0.33663002
   0.24953483  0.25037256  0.33684445
   0.08296702  0.91718761  0.33673331
   0.24964272  0.75047657  0.33660679
   0.58285539  0.41709657  0.33662907
   0.74954752  0.25046622  0.33659232
   0.58277472  0.91696292  0.33679539
   0.74944377  0.75036670  0.33668811
Direct configuration=    17
   0.00455020  0.00248707  0.10186973
   0.35969361  0.00230775  0.10139795
   0.00468011  0.35750138  0.10183648
   0.64983300  0.64700982  0.10171190
   0.32833045  0.32570736  0.10149571
   0.68120429  0.00225348  0.10192788
   0.00468321  0.67880851  0.10161166
   0.08289728  0.41708618  0.33663026
   0.24954099  0.25039661  0.33683945
   0.08293015  0.91715432  0.33672967
   0.24961116  0.75045733  0.33661697
   0.58285138  0.41708749  0.33663184
   0.74953371  0.25043301  0.33660080
   0.58281125  0.91702357  0.33678757
   0.74947654  0.75038677  0.33669146
Direct configuration=    18
   0.00456537  0.00245017  0.10187549
   0.35966928  0.00230844  0.10142945
   0.00466859  0.35745580  0.10183001
   0.64983954  0.64706690  0.10171620
   0.32827377  0.32563663  0.10149345
   0.68130199  0.00228646  0.10189148
   0.00468391  0.67884491  0.10160207
   0.08288625  0.41709695  0.33663064
   0.24955045  0.25043353  0.33683178
   0.08287357  0.91710323  0.33672408
   0.24956272  0.75042780  0.33663259
   0.58284523  0.41707357  0.33663609
   0.74951250  0.25038204  0.33661381
   0.58286733  0.91711665  0.33677559
   0.74952685  0.75041758  0.33669661
Direct configuration=    19
   0.00458078  0.00241941  0.10187603
   0.35969255  0.00230920  0.10145724
   0.00466253  0.35743731  0.10182161
   0.64981366  0.64707869  0.10171803
   0.32829260  0.32564604  0.10149491
   0.68130737  0.00230984  0.10185899
   0.00468463  0.67881906  0.10159636
   0.08287004  0.41709192  0.33663358
   0.24954191  0.25043946  0.33682398
   0.08287792  0.91711002  0.33672143
   0.24956913  0.75043640  0.33664409
   0.58285271  0.41707313  0.33664180
   0.74951418  0.25039701  0.33662363
   0.58285905  0.91711274  0.33676850
   0.74950826  0.75042045  0.33669914
Direct configuration=    20
   0.00462699  0.00232713  0.10187767
   0.35976238  0.00231149  0.10154063
   0.00464435  0.35738183  0.10179641
   0.64973604  0.64711405  0.10172351
   0.32834911  0.32567425  0.10149930
   0.68132350  0.00237997  0.10176150
   0.00468679  0.67874149  0.10157921
   0.08282142  0.41707681  0.33664239
   0.24951628  0.25045725  0.33680061
   0.08289097  0.91713037  0.33671348
   0.24958836  0.75046222  0.33667858
   0.58287518  0.41707180  0.33665894
   0.74951923  0.25044193  0.33665310
   0.58283423  0.91710101  0.33674725
   0.74945250  0.75042906  0.33670674
Direct configuration=    21
   0.00464564  0.00230294  0.10187113
   0.35979580  0.00231467  0.10156241
   0.00464956  0.35736799  0.10177873
   0.64972000  0.64710931  0.10171688
   0.32836548  0.32568777  0.10151093
   0.68131925  0.00237988  0.10173035
   0.00468877  0.67871596  0.10158212
   0.08286420  0.41712047  0.33665116
   0.24952492  0.25043730  0.33679441
   0.08288011  0.91715971  0.33671620
   0.24956778  0.75045905  0.33668292
   0.58282444  0.41710768  0.33666739
   0.74949944  0.25042518  0.33665842
   0.58281057  0.91709640  0.33675128
   0.74947138  0.75041636  0.33670500
Direct configuration=    22
   0.00464772  0.00230024  0.10187040
   0.35979953  0.00231502  0.10156484
   0.00465014  0.35736645  0.10177676
   0.64971821  0.64710878  0.10171614
   0.32836731  0.32568927  0.10151223
   0.68131878  0.00237986  0.10172687
   0.00468899  0.67871311  0.10158244
   0.08286897  0.41712534  0.33665214
   0.24952589  0.25043508  0.33679372
   0.08287889  0.91716299  0.33671650
   0.24956549  0.75045870  0.33668340
   0.58281877  0.41711169  0.33666833
   0.74949723  0.25042331  0.33665902
   0.58280792  0.91709589  0.33675173
   0.74947349  0.75041494  0.33670480
Direct configuration=    23
   0.00466419  0.00228567  0.10185932
   0.35982156  0.00231737  0.10157647
   0.00466235  0.35735577  0.10175626
   0.64972235  0.64709934  0.10170450
   0.32836644  0.32568711  0.10152862
   0.68132691  0.00236220  0.10170279
   0.00469328  0.67870325  0.10159075
   0.08286714  0.41712582  0.33666189
   0.24951529  0.25044868  0.33679264
   0.08286798  0.91716003  0.33672135
   0.24954856  0.75047505  0.33668323
   0.58280822  0.41711220  0.33667539
   0.74948598  0.25043769  0.33666170
   0.58280417  0.91709637  0.33676206
   0.74947291  0.75043411  0.33670236
Direct configuration=    24
   0.00469419  0.00225915  0.10183915
   0.35986167  0.00232164  0.10159764
   0.00468458  0.35733631  0.10171892
   0.64972988  0.64708216  0.10168331
   0.32836486  0.32568318  0.10155845
   0.68134171  0.00233002  0.10165893
   0.00470111  0.67868530  0.10160587
   0.08286380  0.41712670  0.33667966
   0.24949599  0.25047344  0.33679068
   0.08284810  0.91715465  0.33673017
   0.24951774  0.75050482  0.33668292
   0.58278901  0.41711313  0.33668825
   0.74946551  0.25046387  0.33666658
   0.58279732  0.91709725  0.33678088
   0.74947186  0.75046903  0.33669792
Direct configuration=    25
   0.00470639  0.00224922  0.10182827
   0.35987275  0.00231932  0.10160374
   0.00469521  0.35732782  0.10170324
   0.64974110  0.64707362  0.10167356
   0.32836483  0.32567448  0.10157091
   0.68135427  0.00231387  0.10164044
   0.00470839  0.67867871  0.10161226
   0.08283518  0.41713495  0.33668544
   0.24948588  0.25047731  0.33679435
   0.08284314  0.91717118  0.33673277
   0.24952227  0.75050313  0.33668471
   0.58279435  0.41712420  0.33669150
   0.74946516  0.25046845  0.33667082
   0.58278815  0.91711775  0.33678827
   0.74945029  0.75046665  0.33669907
Direct configuration=    26
   0.00472367  0.00223515  0.10181286
   0.35988844  0.00231604  0.10161238
   0.00471027  0.35731580  0.10168104
   0.64975699  0.64706152  0.10165976
   0.32836477  0.32566216  0.10158856
   0.68137206  0.00229101  0.10161425
   0.00471869  0.67866938  0.10162131
   0.08279465  0.41714663  0.33669361
   0.24947155  0.25048280  0.33679954
   0.08283610  0.91719457  0.33673645
   0.24952868  0.75050072  0.33668724
   0.58280192  0.41713988  0.33669611
   0.74946466  0.25047494  0.33667682
   0.58277516  0.91714679  0.33679872
   0.74941974  0.75046328  0.33670068
Direct configuration=    27
   0.00472053  0.00223771  0.10181567
   0.35988559  0.00231663  0.10161081
   0.00470753  0.35731799  0.10168508
   0.64975410  0.64706372  0.10166227
   0.32836478  0.32566440  0.10158535
   0.68136883  0.00229517  0.10161901
   0.00471682  0.67867108  0.10161966
   0.08280202  0.41714450  0.33669212
   0.24947415  0.25048180  0.33679860
   0.08283738  0.91719032  0.33673578
   0.24952751  0.75050116  0.33668678
   0.58280054  0.41713703  0.33669527
   0.74946475  0.25047376  0.33667573
   0.58277753  0.91714151  0.33679682
   0.74942529  0.75046389  0.33670039
Direct configuration=    28
   0.00472337  0.00223587  0.10180962
   0.35988458  0.00230834  0.10160890
   0.00471196  0.35731450  0.10168255
   0.64976480  0.64705746  0.10165977
   0.32837318  0.32565706  0.10158654
   0.68137503  0.00228986  0.10161297
   0.00472493  0.67866638  0.10161958
   0.08280155  0.41715194  0.33669139
   0.24947269  0.25048943  0.33680540
   0.08283280  0.91719444  0.33673518
   0.24952317  0.75050498  0.33669077
   0.58279179  0.41714166  0.33669374
   0.74945725  0.25047599  0.33668026
   0.58277120  0.91714555  0.33679730
   0.74941904  0.75046721  0.33670537
Direct configuration=    29
   0.00473190  0.00223034  0.10179148
   0.35988155  0.00228348  0.10160315
   0.00472527  0.35730402  0.10167498
   0.64979689  0.64703869  0.10165226
   0.32839837  0.32563504  0.10159013
   0.68139366  0.00227394  0.10159485
   0.00474927  0.67865228  0.10161931
   0.08280015  0.41717424  0.33668918
   0.24946831  0.25051231  0.33682579
   0.08281905  0.91720680  0.33673339
   0.24951013  0.75051646  0.33670277
   0.58276555  0.41715555  0.33668914
   0.74943474  0.25048269  0.33669386
   0.58275222  0.91715767  0.33679875
   0.74940028  0.75047716  0.33672030
Direct configuration=    30
   0.00474894  0.00221929  0.10175519
   0.35987550  0.00223374  0.10159165
   0.00475188  0.35728307  0.10165983
   0.64986107  0.64700115  0.10163724
   0.32844875  0.32559099  0.10159730
   0.68143090  0.00224211  0.10155860
   0.00479795  0.67862408  0.10161878
   0.08279735  0.41721884  0.33668477
   0.24945954  0.25055806  0.33686657
   0.08279156  0.91723152  0.33672982
   0.24948407  0.75053940  0.33672676
   0.58271308  0.41718333  0.33667996
   0.74938974  0.25049610  0.33672106
   0.58271425  0.91718193  0.33680165
   0.74936277  0.75049706  0.33675017
Direct configuration=    31
   0.00473774  0.00222655  0.10177903
   0.35987947  0.00226642  0.10159921
   0.00473439  0.35729683  0.10166978
   0.64981890  0.64702582  0.10164711
   0.32841564  0.32561994  0.10159259
   0.68140643  0.00226303  0.10158241
   0.00476596  0.67864261  0.10161913
   0.08279919  0.41718954  0.33668767
   0.24946530  0.25052800  0.33683977
   0.08280962  0.91721528  0.33673217
   0.24950119  0.75052432  0.33671099
   0.58274756  0.41716508  0.33668599
   0.74941931  0.25048729  0.33670319
   0.58273920  0.91716599  0.33679975
   0.74938742  0.75048398  0.33673054
Direct configuration=    32
   0.00474185  0.00222444  0.10177119
   0.35988382  0.00225444  0.10159500
   0.00474170  0.35729016  0.10166918
   0.64983101  0.64701578  0.10164530
   0.32842811  0.32561080  0.10159079
   0.68141025  0.00225668  0.10157639
   0.00477625  0.67863770  0.10161668
   0.08278612  0.41718873  0.33668957
   0.24945027  0.25052779  0.33684534
   0.08280185  0.91722142  0.33673493
   0.24949080  0.75053520  0.33671407
   0.58274706  0.41717078  0.33668765
   0.74941722  0.25050120  0.33670618
   0.58273519  0.91716999  0.33680237
   0.74938584  0.75049555  0.33673470
Direct configuration=    33
   0.00475416  0.00221812  0.10174767
   0.35989685  0.00221849  0.10158238
   0.00476361  0.35727013  0.10166736
   0.64986733  0.64698567  0.10163987
   0.32846549  0.32558338  0.10158541
   0.68142171  0.00223763  0.10155831
   0.00480711  0.67862299  0.10160934
   0.08274692  0.41718631  0.33669525
   0.24940516  0.25052718  0.33686203
   0.08277856  0.91723984  0.33674323
   0.24945962  0.75056783  0.33672329
   0.58274556  0.41718790  0.33669263
   0.74941097  0.25054294  0.33671517
   0.58272316  0.91718200  0.33681022
   0.74938111  0.75053026  0.33674717
Direct configuration=    34
   0.00475899  0.00221564  0.10173843
   0.35990197  0.00220438  0.10157743
   0.00477221  0.35726227  0.10166665
   0.64988160  0.64697385  0.10163774
   0.32848017  0.32557261  0.10158329
   0.68142621  0.00223015  0.10155122
   0.00481923  0.67861721  0.10160645
   0.08273153  0.41718536  0.33669748
   0.24938745  0.25052694  0.33686858
   0.08276941  0.91724708  0.33674649
   0.24944737  0.75058064  0.33672691
   0.58274498  0.41719462  0.33669458
   0.74940851  0.25055932  0.33671870
   0.58271843  0.91718671  0.33681331
   0.74937925  0.75054389  0.33675207
Direct configuration=    35
   0.00476350  0.00221289  0.10173145
   0.35990738  0.00219451  0.10157334
   0.00477946  0.35725635  0.10166665
   0.64989102  0.64696505  0.10163644
   0.32848992  0.32556443  0.10158061
   0.68143076  0.00222408  0.10154678
   0.00482754  0.67861254  0.10160357
   0.08272492  0.41719247  0.33670053
   0.24938181  0.25053199  0.33687175
   0.08276284  0.91725373  0.33675042
   0.24944142  0.75058484  0.33672875
   0.58273863  0.41720143  0.33669777
   0.74940248  0.25056341  0.33672018
   0.58271243  0.91719449  0.33681650
   0.74937323  0.75054846  0.33675459
Direct configuration=    36
   0.00477701  0.00220465  0.10171052
   0.35992360  0.00216491  0.10156108
   0.00480119  0.35723859  0.10166665
   0.64991929  0.64693864  0.10163256
   0.32851918  0.32553989  0.10157257
   0.68144440  0.00220587  0.10153347
   0.00485246  0.67859853  0.10159491
   0.08270508  0.41721378  0.33670968
   0.24936488  0.25054713  0.33688123
   0.08274312  0.91727368  0.33676220
   0.24942354  0.75059744  0.33673428
   0.58271961  0.41722189  0.33670733
   0.74938438  0.25057565  0.33672463
   0.58269441  0.91721782  0.33682606
   0.74935516  0.75056218  0.33676217
Direct configuration=    37
   0.00480403  0.00218818  0.10166864
   0.35995604  0.00210571  0.10153656
   0.00484467  0.35720309  0.10166666
   0.64997583  0.64688583  0.10162478
   0.32857770  0.32549081  0.10155648
   0.68147169  0.00216944  0.10150686
   0.00490232  0.67857051  0.10157759
   0.08266539  0.41725641  0.33672796
   0.24933102  0.25057743  0.33690021
   0.08270368  0.91731358  0.33678577
   0.24938780  0.75062263  0.33674533
   0.58268157  0.41726281  0.33672645
   0.74934819  0.25060015  0.33673352
   0.58265838  0.91726448  0.33684520
   0.74931903  0.75058962  0.33677731
Direct configuration=    38
   0.00485808  0.00215523  0.10158489
   0.36002093  0.00198730  0.10148752
   0.00493162  0.35713207  0.10166667
   0.65008892  0.64678021  0.10160922
   0.32869473  0.32539264  0.10152431
   0.68152625  0.00209658  0.10145364
   0.00500202  0.67851447  0.10154296
   0.08258602  0.41734168  0.33676454
   0.24926329  0.25063802  0.33693817
   0.08262481  0.91739337  0.33683290
   0.24931631  0.75067301  0.33676744
   0.58260548  0.41734465  0.33676470
   0.74927581  0.25064913  0.33675131
   0.58258632  0.91735781  0.33688347
   0.74924676  0.75064450  0.33680760
Direct configuration=    39
   0.00488487  0.00213890  0.10154338
   0.36005309  0.00192860  0.10146321
   0.00497472  0.35709687  0.10166668
   0.65014498  0.64672785  0.10160151
   0.32875274  0.32534397  0.10150836
   0.68155331  0.00206047  0.10142725
   0.00505145  0.67848669  0.10152579
   0.08254667  0.41738394  0.33678267
   0.24922972  0.25066805  0.33695698
   0.08258571  0.91743293  0.33685627
   0.24928087  0.75069799  0.33677840
   0.58256776  0.41738521  0.33678366
   0.74923993  0.25067341  0.33676013
   0.58255060  0.91740407  0.33690244
   0.74921093  0.75067171  0.33682261
Direct configuration=    40
   0.00489601  0.00213011  0.10152976
   0.36006263  0.00191210  0.10145564
   0.00498943  0.35708708  0.10166585
   0.65016176  0.64671278  0.10159857
   0.32876797  0.32532823  0.10150293
   0.68156766  0.00204711  0.10141997
   0.00506610  0.67847524  0.10152020
   0.08253858  0.41739457  0.33678853
   0.24922025  0.25068533  0.33696248
   0.08257520  0.91744122  0.33686351
   0.24926999  0.75071175  0.33678263
   0.58255352  0.41739342  0.33679002
   0.74922522  0.25068603  0.33676357
   0.58253719  0.91741129  0.33690809
   0.74919585  0.75068439  0.33682761
Direct configuration=    41
   0.00492940  0.00210375  0.10148891
   0.36009124  0.00186261  0.10143294
   0.00503356  0.35705774  0.10166339
   0.65021212  0.64666755  0.10158974
   0.32881364  0.32528102  0.10148662
   0.68161072  0.00200704  0.10139811
   0.00511005  0.67844090  0.10150343
   0.08251429  0.41742644  0.33680610
   0.24919185  0.25073715  0.33697896
   0.08254367  0.91746610  0.33688523
   0.24923735  0.75075303  0.33679530
   0.58251080  0.41741804  0.33680909
   0.74918109  0.25072390  0.33677389
   0.58249697  0.91743296  0.33692503
   0.74915059  0.75072243  0.33684259
Direct configuration=    42
   0.00499620  0.00205103  0.10140720
   0.36014845  0.00176363  0.10138753
   0.00512181  0.35699905  0.10165847
   0.65031283  0.64657709  0.10157209
   0.32890499  0.32518660  0.10145399
   0.68169685  0.00192691  0.10135439
   0.00519795  0.67837220  0.10146989
   0.08246573  0.41749019  0.33684124
   0.24913504  0.25084080  0.33701194
   0.08248061  0.91751586  0.33692868
   0.24917207  0.75083558  0.33682065
   0.58242536  0.41746728  0.33684725
   0.74909285  0.25079962  0.33679453
   0.58241652  0.91747630  0.33695893
   0.74906009  0.75079851  0.33687257
Direct configuration=    43
   0.00512978  0.00194558  0.10124380
   0.36026288  0.00156568  0.10129672
   0.00529833  0.35688168  0.10164861
   0.65051424  0.64639619  0.10153679
   0.32908768  0.32499775  0.10138875
   0.68186910  0.00176664  0.10126696
   0.00537374  0.67823480  0.10140280
   0.08236859  0.41761769  0.33691153
   0.24902143  0.25104810  0.33707788
   0.08235449  0.91761537  0.33701557
   0.24904152  0.75100070  0.33687134
   0.58225448  0.41756576  0.33692355
   0.74891635  0.25095107  0.33683581
   0.58225561  0.91756298  0.33702672
   0.74887908  0.75095067  0.33693252
Direct configuration=    44
   0.00503026  0.00202414  0.10136553
   0.36017763  0.00171315  0.10136437
   0.00516682  0.35696912  0.10165595
   0.65036419  0.64653096  0.10156309
   0.32895158  0.32513844  0.10143736
   0.68174077  0.00188604  0.10133210
   0.00524277  0.67833716  0.10145278
   0.08244096  0.41752271  0.33685916
   0.24910607  0.25089367  0.33702875
   0.08244845  0.91754123  0.33695083
   0.24913878  0.75087769  0.33683357
   0.58238179  0.41749239  0.33686670
   0.74904784  0.25083824  0.33680505
   0.58237548  0.91749841  0.33697621
   0.74901393  0.75083731  0.33688786
Direct configuration=    45
   0.00506760  0.00198784  0.10133322
   0.36020401  0.00168653  0.10134940
   0.00520345  0.35694740  0.10164857
   0.65039568  0.64650316  0.10155339
   0.32897568  0.32510687  0.10142425
   0.68178663  0.00184879  0.10132058
   0.00527171  0.67830124  0.10144009
   0.08240883  0.41754699  0.33687088
   0.24907116  0.25091246  0.33704102
   0.08241969  0.91757190  0.33696381
   0.24910826  0.75090716  0.33684825
   0.58235654  0.41752207  0.33688016
   0.74902276  0.25087006  0.33681802
   0.58234639  0.91752273  0.33698583
   0.74898896  0.75086547  0.33690185
Direct configuration=    46
   0.00517963  0.00187896  0.10123628
   0.36028314  0.00160667  0.10130448
   0.00531333  0.35688222  0.10162642
   0.65049014  0.64641975  0.10152431
   0.32904798  0.32501213  0.10138492
   0.68192418  0.00173703  0.10128604
   0.00535850  0.67819347  0.10140203
   0.08231244  0.41761985  0.33690603
   0.24896642  0.25096884  0.33707783
   0.08233343  0.91766390  0.33700273
   0.24901669  0.75099559  0.33689228
   0.58228078  0.41761111  0.33692054
   0.74894750  0.25096551  0.33685691
   0.58225912  0.91759569  0.33701469
   0.74891404  0.75094996  0.33694385
Direct configuration=    47
   0.00540369  0.00166118  0.10104239
   0.36044141  0.00144695  0.10121463
   0.00553308  0.35675187  0.10158211
   0.65067907  0.64625292  0.10146616
   0.32919258  0.32482267  0.10130627
   0.68219930  0.00151351  0.10121695
   0.00553209  0.67797792  0.10132590
   0.08211967  0.41776557  0.33697634
   0.24875694  0.25108161  0.33715144
   0.08216091  0.91784789  0.33708057
   0.24883355  0.75117244  0.33698035
   0.58212928  0.41778919  0.33700130
   0.74879698  0.25115641  0.33693471
   0.58208457  0.91774161  0.33707239
   0.74876421  0.75111893  0.33702784
Direct configuration=    48
   0.00547935  0.00158708  0.10098334
   0.36053274  0.00140544  0.10119353
   0.00559899  0.35667982  0.10156047
   0.65072423  0.64620018  0.10144489
   0.32924550  0.32478400  0.10128180
   0.68224684  0.00144993  0.10120183
   0.00558473  0.67791464  0.10130296
   0.08206867  0.41782923  0.33699724
   0.24871863  0.25114690  0.33717274
   0.08210085  0.91789272  0.33710035
   0.24877987  0.75120808  0.33700966
   0.58206673  0.41783952  0.33702441
   0.74873580  0.25118524  0.33696256
   0.58203649  0.91781451  0.33708971
   0.74870790  0.75116338  0.33705386
Direct configuration=    49
   0.00570636  0.00136479  0.10080618
   0.36080674  0.00128090  0.10113021
   0.00579670  0.35646368  0.10149556
   0.65085972  0.64604194  0.10138107
   0.32940426  0.32466801  0.10120837
   0.68238946  0.00125920  0.10115645
   0.00574266  0.67772479  0.10123417
   0.08191566  0.41802020  0.33705993
   0.24860373  0.25134278  0.33723665
   0.08192065  0.91802719  0.33715969
   0.24861882  0.75131502  0.33709759
   0.58187909  0.41799051  0.33709374
   0.74855226  0.25127173  0.33704612
   0.58189227  0.91803321  0.33714166
   0.74853896  0.75129673  0.33713193
Direct configuration=    50
   0.00616036  0.00092020  0.10045187
   0.36135474  0.00103183  0.10100358
   0.00619213  0.35603140  0.10136574
   0.65113070  0.64572546  0.10125345
   0.32972177  0.32443602  0.10106152
   0.68267469  0.00087775  0.10106571
   0.00605852  0.67734510  0.10109658
   0.08160964  0.41840213  0.33718533
   0.24837391  0.25173453  0.33736447
   0.08156026  0.91829613  0.33727837
   0.24829673  0.75152888  0.33727345
   0.58150382  0.41829248  0.33723241