  15  15   0   4
  0.2050571E+02  0.4866000E-09  0.4866000E-09  0.1500000E-08  0.5000000E-15
  1.000000000000000E-004
  CAR 
 Lattice                                 
     10.25043910    -21.64079617  301     -0.36969215      1.00000000
    -21.641  0.0000E+00  0.0000E+00  0.0000E+00  0.0000E+00
    -21.534  0.0000E+00  0.0000E+00  0.0000E+00  0.0000E+00
    -21.428  0.0000E+00  0.0000E+00  0.0000E+00  0.0000E+00
    -21.322  0.0000E+00  0.0000E+00  0.0000E+00  0.0000E+00
    -21.216  0.0000E+00  0.0000E+00  0.0000E+00  0.0000E+00
    -21.109  0.0000E+00  0.0000E+00  0.0000E+00  0.0000E+00
    -21.003  0.0000E+00  0.0000E+00  0.0000E+00  0.0000E+00
    -20.897  0.0000E+00  0.0000E+00  0.0000E+00  0.0000E+00
    -20.790  0.0000E+00  0.0000E+00  0.0000E+00  0.0000E+00
    -20.684  0.8674E-15  0.8674E-15  0.9221E-16  0.9221E-16
    -20.578  0.1376E-10  0.1376E-10  0.1463E-11  0.1463E-11
    -20.471  0.2676E-07  0.2676E-07  0.2847E-08  0.2847E-08
    -20.365  0.7005E-05  0.7005E-05  0.7475E-06  0.7475E-06
    -20.259  0.2752E-03  0.2752E-03  0.3000E-04  0.3000E-04
    -20.153  0.1987E-02  0.1987E-02  0.2412E-03  0.2412E-03
    -20.046  0.4172E-02  0.4172E-02  0.6848E-03  0.6848E-03
    -19.940  0.4554E-02  0.4554E-02  0.1169E-02  0.1169E-02
    -19.834  0.4958E-02  0.4958E-02  0.1696E-02  0.1696E-02
    -19.727  0.4194E-02  0.4194E-02  0.2142E-02  0.2142E-02
    -19.621  0.5413E-02  0.5413E-02  0.2717E-02  0.2717E-02
    -19.515  0.4222E-02  0.4222E-02  0.3166E-02  0.3166E-02
    -19.408  0.4327E-02  0.4327E-02  0.3626E-02  0.3626E-02
    -19.302  0.6024E-02  0.6024E-02  0.4266E-02  0.4266E-02
    -19.196  0.3792E-02  0.3792E-02  0.4670E-02  0.4670E-02
    -19.089  0.3979E-02  0.3979E-02  0.5093E-02  0.5093E-02
    -18.983  0.6158E-02  0.6158E-02  0.5747E-02  0.5747E-02
    -18.877  0.5179E-02  0.5179E-02  0.6298E-02  0.6298E-02
    -18.771  0.2939E-02  0.2939E-02  0.6610E-02  0.6610E-02
    -18.664  0.4559E-02  0.4559E-02  0.7095E-02  0.7095E-02
    -18.558  0.6908E-02  0.6908E-02  0.7829E-02  0.7829E-02
    -18.452  0.4519E-02  0.4519E-02  0.8310E-02  0.8310E-02
    -18.345  0.3776E-02  0.3776E-02  0.8711E-02  0.8711E-02
    -18.239  0.3085E-02  0.3085E-02  0.9039E-02  0.9039E-02
    -18.133  0.6826E-02  0.6826E-02  0.9765E-02  0.9765E-02
    -18.026  0.6490E-02  0.6490E-02  0.1045E-01  0.1045E-01
    -17.920  0.3434E-02  0.3434E-02  0.1082E-01  0.1082E-01
    -17.814  0.3398E-02  0.3398E-02  0.1118E-01  0.1118E-01
    -17.708  0.4182E-02  0.4182E-02  0.1163E-01  0.1163E-01
    -17.601  0.6428E-02  0.6428E-02  0.1231E-01  0.1231E-01
    -17.495  0.6678E-02  0.6678E-02  0.1302E-01  0.1302E-01
    -17.389  0.5527E-02  0.5527E-02  0.1361E-01  0.1361E-01
    -17.282  0.6545E-02  0.6545E-02  0.1430E-01  0.1430E-01
    -17.176  0.1063E-01  0.1063E-01  0.1543E-01  0.1543E-01
    -17.070  0.1487E-01  0.1487E-01  0.1701E-01  0.1701E-01
    -16.963  0.1573E-01  0.1573E-01  0.1868E-01  0.1868E-01
    -16.857  0.1741E-01  0.1741E-01  0.2054E-01  0.2054E-01
    -16.751  0.2108E-01  0.2108E-01  0.2278E-01  0.2278E-01
    -16.645  0.1557E-01  0.1557E-01  0.2443E-01  0.2443E-01
    -16.538  0.4951E-02  0.4951E-02  0.2496E-01  0.2496E-01
    -16.432  0.7867E-02  0.7867E-02  0.2579E-01  0.2579E-01
    -16.326  0.7725E-02  0.7725E-02  0.2662E-01  0.2662E-01
    -16.219  0.4513E-02  0.4513E-02  0.2710E-01  0.2710E-01
    -16.113  0.4099E-02  0.4099E-02  0.2753E-01  0.2753E-01
    -16.007  0.3985E-02  0.3985E-02  0.2795E-01  0.2795E-01
    -15.900  0.3639E-02  0.3639E-02  0.2834E-01  0.2834E-01
    -15.794  0.4133E-02  0.4133E-02  0.2878E-01  0.2878E-01
    -15.688  0.8611E-02  0.8611E-02  0.2970E-01  0.2970E-01
    -15.581  0.7497E-02  0.7497E-02  0.3049E-01  0.3049E-01
    -15.475  0.3814E-02  0.3814E-02  0.3090E-01  0.3090E-01
    -15.369  0.3856E-02  0.3856E-02  0.3131E-01  0.3131E-01
    -15.263  0.3549E-02  0.3549E-02  0.3169E-01  0.3169E-01
    -15.156  0.4839E-02  0.4839E-02  0.3220E-01  0.3220E-01
    -15.050  0.6539E-02  0.6539E-02  0.3290E-01  0.3290E-01
    -14.944  0.1125E-01  0.1125E-01  0.3409E-01  0.3409E-01
    -14.837  0.1667E-01  0.1667E-01  0.3586E-01  0.3586E-01
    -14.731  0.1839E-01  0.1839E-01  0.3782E-01  0.3782E-01
    -14.625  0.1718E-01  0.1718E-01  0.3964E-01  0.3964E-01
    -14.518  0.1016E-01  0.1016E-01  0.4072E-01  0.4072E-01
    -14.412  0.8414E-02  0.8414E-02  0.4162E-01  0.4162E-01
    -14.306  0.1645E-01  0.1645E-01  0.4337E-01  0.4337E-01
    -14.200  0.1422E-01  0.1422E-01  0.4488E-01  0.4488E-01
    -14.093  0.1030E-01  0.1030E-01  0.4597E-01  0.4597E-01
    -13.987  0.1077E-01  0.1077E-01  0.4712E-01  0.4712E-01
    -13.881  0.1290E-01  0.1290E-01  0.4849E-01  0.4849E-01
    -13.774  0.2017E-01  0.2017E-01  0.5063E-01  0.5063E-01
    -13.668  0.2007E-01  0.2007E-01  0.5277E-01  0.5277E-01
    -13.562  0.1777E-01  0.1777E-01  0.5466E-01  0.5466E-01
    -13.455  0.1042E-01  0.1042E-01  0.5576E-01  0.5576E-01
    -13.349  0.6652E-02  0.6652E-02  0.5647E-01  0.5647E-01
    -13.243  0.3404E-02  0.3404E-02  0.5683E-01  0.5683E-01
    -13.136  0.4403E-02  0.4403E-02  0.5730E-01  0.5730E-01
    -13.030  0.7229E-02  0.7229E-02  0.5807E-01  0.5807E-01
    -12.924  0.6561E-02  0.6561E-02  0.5877E-01  0.5877E-01
    -12.818  0.4959E-02  0.4959E-02  0.5929E-01  0.5929E-01
    -12.711  0.7392E-02  0.7392E-02  0.6008E-01  0.6008E-01
    -12.605  0.6810E-02  0.6810E-02  0.6080E-01  0.6080E-01
    -12.499  0.5515E-02  0.5515E-02  0.6139E-01  0.6139E-01
    -12.392  0.5250E-02  0.5250E-02  0.6195E-01  0.6195E-01
    -12.286  0.3227E-02  0.3227E-02  0.6229E-01  0.6229E-01
    -12.180  0.7217E-02  0.7217E-02  0.6306E-01  0.6306E-01
    -12.073  0.7603E-02  0.7603E-02  0.6387E-01  0.6387E-01
    -11.967  0.2876E-02  0.2876E-02  0.6417E-01  0.6417E-01
    -11.861  0.3483E-02  0.3483E-02  0.6454E-01  0.6454E-01
    -11.755  0.3594E-02  0.3594E-02  0.6492E-01  0.6492E-01
    -11.648  0.6733E-02  0.6733E-02  0.6564E-01  0.6564E-01
    -11.542  0.6217E-02  0.6217E-02  0.6630E-01  0.6630E-01
    -11.436  0.3211E-02  0.3211E-02  0.6664E-01  0.6664E-01
    -11.329  0.2201E-02  0.2201E-02  0.6688E-01  0.6688E-01
    -11.223  0.4913E-02  0.4913E-02  0.6740E-01  0.6740E-01
    -11.117  0.5799E-02  0.5799E-02  0.6802E-01  0.6802E-01
    -11.010  0.4985E-02  0.4985E-02  0.6855E-01  0.6855E-01
    -10.904  0.7627E-02  0.7627E-02  0.6936E-01  0.6936E-01
    -10.798  0.5753E-02  0.5753E-02  0.6997E-01  0.6997E-01
    -10.691  0.2552E-02  0.2552E-02  0.7024E-01  0.7024E-01
    -10.585  0.8135E-02  0.8135E-02  0.7110E-01  0.7110E-01
    -10.479  0.1314E-01  0.1314E-01  0.7250E-01  0.7250E-01
    -10.373  0.1519E-01  0.1519E-01  0.7412E-01  0.7412E-01
    -10.266  0.1382E-01  0.1382E-01  0.7558E-01  0.7558E-01
    -10.160  0.1474E-01  0.1474E-01  0.7715E-01  0.7715E-01
    -10.054  0.1879E-01  0.1879E-01  0.7915E-01  0.7915E-01
     -9.947  0.1907E-01  0.1907E-01  0.8118E-01  0.8118E-01
     -9.841  0.9568E-02  0.9568E-02  0.8219E-01  0.8219E-01
     -9.735  0.6425E-02  0.6425E-02  0.8288E-01  0.8288E-01
     -9.628  0.1457E-01  0.1457E-01  0.8443E-01  0.8443E-01
     -9.522  0.1639E-01  0.1639E-01  0.8617E-01  0.8617E-01
     -9.416  0.1641E-01  0.1641E-01  0.8791E-01  0.8791E-01
     -9.310  0.1446E-01  0.1446E-01  0.8945E-01  0.8945E-01
     -9.203  0.1406E-01  0.1406E-01  0.9094E-01  0.9094E-01
     -9.097  0.1114E-01  0.1114E-01  0.9213E-01  0.9213E-01
     -8.991  0.8885E-02  0.8885E-02  0.9307E-01  0.9307E-01
     -8.884  0.1479E-01  0.1479E-01  0.9464E-01  0.9464E-01
     -8.778  0.1949E-01  0.1949E-01  0.9672E-01  0.9672E-01
     -8.672  0.1562E-01  0.1562E-01  0.9838E-01  0.9838E-01
     -8.565  0.7725E-02  0.7725E-02  0.9920E-01  0.9920E-01
     -8.459  0.1163E-01  0.1163E-01  0.1004E+00  0.1004E+00
     -8.353  0.2016E-01  0.2016E-01  0.1026E+00  0.1026E+00
     -8.246  0.1729E-01  0.1729E-01  0.1044E+00  0.1044E+00
     -8.140  0.1212E-01  0.1212E-01  0.1057E+00  0.1057E+00
     -8.034  0.1652E-01  0.1652E-01  0.1075E+00  0.1075E+00
     -7.928  0.2590E-01  0.2590E-01  0.1102E+00  0.1102E+00
     -7.821  0.2532E-01  0.2532E-01  0.1129E+00  0.1129E+00
     -7.715  0.1822E-01  0.1822E-01  0.1148E+00  0.1148E+00
     -7.609  0.1040E-01  0.1040E-01  0.1159E+00  0.1159E+00
     -7.502  0.9306E-02  0.9306E-02  0.1169E+00  0.1169E+00
     -7.396  0.1834E-01  0.1834E-01  0.1189E+00  0.1189E+00
     -7.290  0.1831E-01  0.1831E-01  0.1208E+00  0.1208E+00
     -7.183  0.1219E-01  0.1219E-01  0.1221E+00  0.1221E+00
     -7.077  0.1026E-01  0.1026E-01  0.1232E+00  0.1232E+00
     -6.971  0.1649E-01  0.1649E-01  0.1250E+00  0.1250E+00
     -6.865  0.1916E-01  0.1916E-01  0.1270E+00  0.1270E+00
     -6.758  0.2144E-01  0.2144E-01  0.1293E+00  0.1293E+00
     -6.652  0.1996E-01  0.1996E-01  0.1314E+00  0.1314E+00
     -6.546  0.1640E-01  0.1640E-01  0.1332E+00  0.1332E+00
     -6.439  0.2037E-01  0.2037E-01  0.1353E+00  0.1353E+00
     -6.333  0.1807E-01  0.1807E-01  0.1372E+00  0.1372E+00
     -6.227  0.1994E-01  0.1994E-01  0.1394E+00  0.1394E+00
     -6.120  0.2638E-01  0.2638E-01  0.1422E+00  0.1422E+00
     -6.014  0.2126E-01  0.2126E-01  0.1444E+00  0.1444E+00
     -5.908  0.3172E-01  0.3172E-01  0.1478E+00  0.1478E+00
     -5.801  0.3022E-01  0.3022E-01  0.1510E+00  0.1510E+00
     -5.695  0.1640E-01  0.1640E-01  0.1527E+00  0.1527E+00
     -5.589  0.1740E-01  0.1740E-01  0.1546E+00  0.1546E+00
     -5.483  0.3270E-01  0.3270E-01  0.1581E+00  0.1581E+00
     -5.376  0.3771E-01  0.3771E-01  0.1621E+00  0.1621E+00
     -5.270  0.2311E-01  0.2311E-01  0.1645E+00  0.1645E+00
     -5.164  0.1579E-01  0.1579E-01  0.1662E+00  0.1662E+00
     -5.057  0.1125E-01  0.1125E-01  0.1674E+00  0.1674E+00
     -4.951  0.1217E-01  0.1217E-01  0.1687E+00  0.1687E+00
     -4.845  0.1385E-01  0.1385E-01  0.1702E+00  0.1702E+00
     -4.738  0.9770E-02  0.9770E-02  0.1712E+00  0.1712E+00
     -4.632  0.7215E-02  0.7215E-02  0.1720E+00  0.1720E+00
     -4.526  0.1019E-01  0.1019E-01  0.1731E+00  0.1731E+00
     -4.420  0.1869E-01  0.1869E-01  0.1751E+00  0.1751E+00
     -4.313  0.2125E-01  0.2125E-01  0.1773E+00  0.1773E+00
     -4.207  0.1900E-01  0.1900E-01  0.1793E+00  0.1793E+00
     -4.101  0.1881E-01  0.1881E-01  0.1813E+00  0.1813E+00
     -3.994  0.2191E-01  0.2191E-01  0.1837E+00  0.1837E+00
     -3.888  0.2277E-01  0.2277E-01  0.1861E+00  0.1861E+00
     -3.782  0.1819E-01  0.1819E-01  0.1880E+00  0.1880E+00
     -3.675  0.1866E-01  0.1866E-01  0.1900E+00  0.1900E+00
     -3.569  0.2075E-01  0.2075E-01  0.1922E+00  0.1922E+00
     -3.463  0.1588E-01  0.1588E-01  0.1939E+00  0.1939E+00
     -3.356  0.1344E-01  0.1344E-01  0.1953E+00  0.1953E+00
     -3.250  0.1251E-01  0.1251E-01  0.1967E+00  0.1967E+00
     -3.144  0.1700E-01  0.1700E-01  0.1985E+00  0.1985E+00
     -3.038  0.1863E-01  0.1863E-01  0.2004E+00  0.2004E+00
     -2.931  0.1210E-01  0.1210E-01  0.2017E+00  0.2017E+00
     -2.825  0.1185E-01  0.1185E-01  0.2030E+00  0.2030E+00
     -2.719  0.7786E-02  0.7786E-02  0.2038E+00  0.2038E+00
     -2.612  0.9820E-02  0.9820E-02  0.2049E+00  0.2049E+00
     -2.506  0.1936E-01  0.1936E-01  0.2069E+00  0.2069E+00
     -2.400  0.1504E-01  0.1504E-01  0.2085E+00  0.2085E+00
     -2.293  0.4424E-02  0.4424E-02  0.2090E+00  0.2090E+00
     -2.187  0.4961E-02  0.4961E-02  0.2095E+00  0.2095E+00
     -2.081  0.1020E-01  0.1020E-01  0.2106E+00  0.2106E+00
     -1.975  0.1024E-01  0.1024E-01  0.2117E+00  0.2117E+00
     -1.868  0.1136E-01  0.1136E-01  0.2129E+00  0.2129E+00
     -1.762  0.1151E-01  0.1151E-01  0.2141E+00  0.2141E+00
     -1.656  0.9526E-02  0.9526E-02  0.2151E+00  0.2151E+00
     -1.549  0.7222E-02  0.7222E-02  0.2159E+00  0.2159E+00
     -1.443  0.4422E-02  0.4422E-02  0.2164E+00  0.2164E+00
     -1.337  0.3990E-02  0.3990E-02  0.2168E+00  0.2168E+00
     -1.230  0.4039E-02  0.4039E-02  0.2172E+00  0.2172E+00
     -1.124  0.4049E-02  0.4049E-02  0.2177E+00  0.2177E+00
     -1.018  0.5823E-02  0.5823E-02  0.2183E+00  0.2183E+00
     -0.911  0.2802E-02  0.2802E-02  0.2186E+00  0.2186E+00
     -0.805  0.5886E-03  0.5886E-03  0.2186E+00  0.2186E+00
     -0.699  0.7398E-04  0.7398E-04  0.2186E+00  0.2186E+00
     -0.593  0.3617E-05  0.3617E-05  0.2186E+00  0.2186E+00
     -0.486  0.1002E-03  0.1002E-03  0.2187E+00  0.2187E+00
     -0.380  0.8010E-03  0.8010E-03  0.2187E+00  0.2187E+00
     -0.274  0.9595E-03  0.9595E-03  0.2188E+00  0.2188E+00
     -0.167  0.1746E-03  0.1746E-03  0.2189E+00  0.2189E+00
     -0.061  0.4369E-05  0.4369E-05  0.2189E+00  0.2189E+00
      0.045  0.5874E-06  0.5874E-06  0.2189E+00  0.2189E+00
      0.152  0.7755E-04  0.7755E-04  0.2189E+00  0.2189E+00
      0.258  0.1343E-02  0.1343E-02  0.2190E+00  0.2190E+00
      0.364  0.3353E-02  0.3353E-02  0.2194E+00  0.2194E+00
      0.470  0.1416E-02  0.1416E-02  0.2195E+00  0.2195E+00
      0.577  0.1410E-02  0.1410E-02  0.2197E+00  0.2197E+00
      0.683  0.3689E-02  0.3689E-02  0.2201E+00  0.2201E+00
      0.789  0.6210E-02  0.6210E-02  0.2207E+00  0.2207E+00
      0.896  0.1353E-01  0.1353E-01  0.2222E+00  0.2222E+00
      1.002  0.2603E-01  0.2603E-01  0.2249E+00  0.2249E+00
      1.108  0.1554E-01  0.1554E-01  0.2266E+00  0.2266E+00
      1.215  0.3967E-02  0.3967E-02  0.2270E+00  0.2270E+00
      1.321  0.3567E-02  0.3567E-02  0.2274E+00  0.2274E+00
      1.427  0.8911E-02  0.8911E-02  0.2283E+00  0.2283E+00
      1.534  0.1605E-01  0.1605E-01  0.2300E+00  0.2300E+00
      1.640  0.2031E-01  0.2031E-01  0.2322E+00  0.2322E+00
      1.746  0.1290E-01  0.1290E-01  0.2336E+00  0.2336E+00
      1.852  0.6233E-02  0.6233E-02  0.2342E+00  0.2342E+00
      1.959  0.8768E-02  0.8768E-02  0.2352E+00  0.2352E+00
      2.065  0.9296E-02  0.9296E-02  0.2361E+00  0.2361E+00
      2.171  0.6959E-02  0.6959E-02  0.2369E+00  0.2369E+00
      2.278  0.9060E-02  0.9060E-02  0.2378E+00  0.2378E+00
      2.384  0.7339E-02  0.7339E-02  0.2386E+00  0.2386E+00
      2.490  0.1154E-01  0.1154E-01  0.2399E+00  0.2399E+00
      2.597  0.1003E-01  0.1003E-01  0.2409E+00  0.2409E+00
      2.703  0.5596E-02  0.5596E-02  0.2415E+00  0.2415E+00
      2.809  0.5022E-02  0.5022E-02  0.2420E+00  0.2420E+00
      2.915  0.1032E-01  0.1032E-01  0.2431E+00  0.2431E+00
      3.022  0.1124E-01  0.1124E-01  0.2443E+00  0.2443E+00
      3.128  0.8137E-02  0.8137E-02  0.2452E+00  0.2452E+00
      3.234  0.1057E-01  0.1057E-01  0.2463E+00  0.2463E+00
      3.341  0.1080E-01  0.1080E-01  0.2475E+00  0.2475E+00
      3.447  0.1164E-01  0.1164E-01  0.2487E+00  0.2487E+00
      3.553  0.1911E-01  0.1911E-01  0.2507E+00  0.2507E+00
      3.660  0.2590E-01  0.2590E-01  0.2535E+00  0.2535E+00
      3.766  0.2457E-01  0.2457E-01  0.2561E+00  0.2561E+00
      3.872  0.2144E-01  0.2144E-01  0.2584E+00  0.2584E+00
      3.978  0.2500E-01  0.2500E-01  0.2610E+00  0.2610E+00
      4.085  0.2447E-01  0.2447E-01  0.2636E+00  0.2636E+00
      4.191  0.2377E-01  0.2377E-01  0.2662E+00  0.2662E+00
      4.297  0.2437E-01  0.2437E-01  0.2688E+00  0.2688E+00
      4.404  0.2202E-01  0.2202E-01  0.2711E+00  0.2711E+00
      4.510  0.2126E-01  0.2126E-01  0.2734E+00  0.2734E+00
      4.616  0.2179E-01  0.2179E-01  0.2757E+00  0.2757E+00
      4.723  0.2736E-01  0.2736E-01  0.2786E+00  0.2786E+00
      4.829  0.2345E-01  0.2345E-01  0.2811E+00  0.2811E+00
      4.935  0.2144E-01  0.2144E-01  0.2834E+00  0.2834E+00
      5.042  0.2557E-01  0.2557E-01  0.2861E+00  0.2861E+00
      5.148  0.2820E-01  0.2820E-01  0.2891E+00  0.2891E+00
      5.254  0.2571E-01  0.2571E-01  0.2918E+00  0.2918E+00
      5.360  0.2165E-01  0.2165E-01  0.2941E+00  0.2941E+00
      5.467  0.2426E-01  0.2426E-01  0.2967E+00  0.2967E+00
      5.573  0.2299E-01  0.2299E-01  0.2991E+00  0.2991E+00
      5.679  0.1827E-01  0.1827E-01  0.3011E+00  0.3011E+00
      5.786  0.2247E-01  0.2247E-01  0.3035E+00  0.3035E+00
      5.892  0.2082E-01  0.2082E-01  0.3057E+00  0.3057E+00
      5.998  0.2088E-01  0.2088E-01  0.3079E+00  0.3079E+00
      6.105  0.1699E-01  0.1699E-01  0.3097E+00  0.3097E+00
      6.211  0.2017E-01  0.2017E-01  0.3119E+00  0.3119E+00
      6.317  0.2172E-01  0.2172E-01  0.3142E+00  0.3142E+00
      6.423  0.2278E-01  0.2278E-01  0.3166E+00  0.3166E+00
      6.530  0.2707E-01  0.2707E-01  0.3195E+00  0.3195E+00
      6.636  0.2887E-01  0.2887E-01  0.3225E+00  0.3225E+00
      6.742  0.3109E-01  0.3109E-01  0.3258E+00  0.3258E+00
      6.849  0.2616E-01  0.2616E-01  0.3286E+00  0.3286E+00
      6.955  0.2691E-01  0.2691E-01  0.3315E+00  0.3315E+00
      7.061  0.2240E-01  0.2240E-01  0.3339E+00  0.3339E+00
      7.168  0.2187E-01  0.2187E-01  0.3362E+00  0.3362E+00
      7.274  0.1999E-01  0.1999E-01  0.3383E+00  0.3383E+00
      7.380  0.1961E-01  0.1961E-01  0.3404E+00  0.3404E+00
      7.487  0.2595E-01  0.2595E-01  0.3432E+00  0.3432E+00
      7.593  0.2615E-01  0.2615E-01  0.3459E+00  0.3459E+00
      7.699  0.3462E-01  0.3462E-01  0.3496E+00  0.3496E+00
      7.805  0.3072E-01  0.3072E-01  0.3529E+00  0.3529E+00
      7.912  0.2528E-01  0.2528E-01  0.3556E+00  0.3556E+00
      8.018  0.3402E-01  0.3402E-01  0.3592E+00  0.3592E+00
      8.124  0.3862E-01  0.3861E-01  0.3633E+00  0.3633E+00
      8.231  0.3714E-01  0.3714E-01  0.3672E+00  0.3672E+00
      8.337  0.3308E-01  0.3308E-01  0.3708E+00  0.3708E+00
      8.443  0.2090E-01  0.2090E-01  0.3730E+00  0.3730E+00
      8.550  0.9822E-02  0.9822E-02  0.3740E+00  0.3740E+00
      8.656  0.3690E-02  0.3690E-02  0.3744E+00  0.3744E+00
      8.762  0.2870E-02  0.2870E-02  0.3747E+00  0.3747E+00
      8.868  0.2166E-02  0.2166E-02  0.3749E+00  0.3749E+00
      8.975  0.5130E-03  0.5130E-03  0.3750E+00  0.3750E+00
      9.081  0.2084E-04  0.2084E-04  0.3750E+00  0.3750E+00
      9.187  0.1097E-06  0.1097E-06  0.3750E+00  0.3750E+00
      9.294  0.6733E-10  0.6733E-10  0.3750E+00  0.3750E+00
      9.400  0.4602E-14  0.4602E-14  0.3750E+00  0.3750E+00
      9.506  0.0000E+00  0.0000E+00  0.3750E+00  0.3750E+00
      9.613  0.0000E+00  0.0000E+00  0.3750E+00  0.3750E+00
      9.719  0.0000E+00  0.0000E+00  0.3750E+00  0.3750E+00
      9.825  0.0000E+00  0.0000E+00  0.3750E+00  0.3750E+00
      9.932  0.0000E+00  0.0000E+00  0.3750E+00  0.3750E+00
     10.038  0.0000E+00  0.0000E+00  0.3750E+00  0.3750E+00
     10.144  0.0000E+00  0.0000E+00  0.3750E+00  0.3750E+00
     10.250  0.0000E+00  0.0000E+00  0.3750E+00  0.3750E+00
