Lattice                                 
           1
     4.214080    2.433000    0.000000
    -4.214080    2.433000    0.000000
     0.000000    0.000000   15.000000
   B    C 
     4    11
Direct configuration=     1
   0.00415361  0.00267210  0.12034134
   0.35695335  0.00285503  0.09748893
   0.00423858  0.35550699  0.09749256
   0.65142295  0.65006557  0.09747688
   0.32808646  0.32671938  0.10030508
   0.68027775  0.00278085  0.10027562
   0.00416530  0.67883808  0.10026559
   0.11111044  0.38888856  0.33726667
   0.27777744  0.22222156  0.33726667
   0.11111044  0.88888856  0.33726667
   0.27777744  0.72222156  0.33726667
   0.61111044  0.38888856  0.33726667
   0.77777744  0.22222156  0.33726667
   0.61111044  0.88888856  0.33726667
   0.77777744  0.72222156  0.33726667
Direct configuration=     2
   0.00416625  0.00269169  0.11892942
   0.35559638  0.00279405  0.09785667
   0.00419104  0.35438164  0.09791383
   0.65266882  0.65120294  0.09788414
   0.32438571  0.32285686  0.10031492
   0.68424799  0.00279415  0.10032960
   0.00422432  0.68255901  0.10028437
   0.11103756  0.38899064  0.33728130
   0.27791109  0.22234007  0.33735646
   0.11129719  0.88902394  0.33729357
   0.27796954  0.72221898  0.33720652
   0.61107280  0.38883685  0.33720151
   0.77773849  0.22227071  0.33729057
   0.61092595  0.88883605  0.33734453
   0.77741642  0.72208086  0.33729191
Direct configuration=     3
   0.00416017  0.00268227  0.11960869
   0.35624922  0.00282339  0.09767976
   0.00421391  0.35492304  0.09771116
   0.65206943  0.65065575  0.09768821
   0.32616614  0.32471511  0.10031019
   0.68233791  0.00278775  0.10030363
   0.00419592  0.68076887  0.10027533
   0.11107262  0.38894153  0.33727426
   0.27784679  0.22228305  0.33731326
   0.11120735  0.88895881  0.33728063
   0.27787713  0.72222022  0.33723546
   0.61109091  0.38886173  0.33723286
   0.77775723  0.22224706  0.33727907
   0.61101471  0.88886131  0.33730707
   0.77759011  0.72214855  0.33727977
Direct configuration=     4
   0.00416806  0.00271775  0.11835208
   0.35676687  0.00275972  0.09802631
   0.00421103  0.35543768  0.09811169
   0.65161850  0.65007218  0.09807408
   0.32636243  0.32478584  0.10028368
   0.68223393  0.00278342  0.10031913
   0.00424038  0.68061954  0.10025741
   0.11109643  0.38887887  0.33729198
   0.27767673  0.22224815  0.33738831
   0.11097608  0.88885770  0.33731143
   0.27765528  0.72226790  0.33719363
   0.61108661  0.38892574  0.33718988
   0.77773474  0.22222501  0.33730109
   0.61115077  0.88897215  0.33737367
   0.77787171  0.72232681  0.33730497
Direct configuration=     5
   0.00419175  0.00282419  0.11458225
   0.35831982  0.00256871  0.09906596
   0.00420239  0.35698159  0.09931329
   0.65026570  0.64832146  0.09923169
   0.32695131  0.32499800  0.10020414
   0.68192200  0.00277043  0.10036562
   0.00437376  0.68017155  0.10020366
   0.11116785  0.38869091  0.33734515
   0.27716655  0.22214342  0.33761345
   0.11028226  0.88855439  0.33740383
   0.27698974  0.72241094  0.33706815
   0.61107369  0.38911777  0.33706095
   0.77766728  0.22215884  0.33736717
   0.61155894  0.88930466  0.33757346
   0.77871651  0.72286159  0.33738057
Direct configuration=     6
   0.00419895  0.00282755  0.11403614
   0.35847844  0.00254968  0.09918111
   0.00421704  0.35711191  0.09944398
   0.65014702  0.64815943  0.09935803
   0.32708661  0.32510165  0.10023411
   0.68180530  0.00275429  0.10040888
   0.00438605  0.68005132  0.10023677
   0.11108813  0.38882057  0.33735250
   0.27733411  0.22218605  0.33762865
   0.11054867  0.88876042  0.33741558
   0.27722813  0.72239236  0.33706964
   0.61102701  0.38908926  0.33706324
   0.77766851  0.22223235  0.33737430
   0.61133094  0.88918254  0.33758716
   0.77830466  0.72265906  0.33738924
Direct configuration=     7
   0.00422055  0.00283765  0.11239781
   0.35895428  0.00249258  0.09952654
   0.00426098  0.35750288  0.09983605
   0.64979096  0.64767333  0.09973706
   0.32749251  0.32541259  0.10032400
   0.68145523  0.00270588  0.10053867
   0.00442294  0.67969063  0.10033610
   0.11084895  0.38920954  0.33737455
   0.27783676  0.22231393  0.33767424
   0.11134789  0.88937853  0.33745085
   0.27794329  0.72233665  0.33707411
   0.61088696  0.38900371  0.33707013
   0.77767220  0.22245289  0.33739570
   0.61064692  0.88881620  0.33762828
   0.77706913  0.72205146  0.33741526
Direct configuration=     8
   0.00423763  0.00281793  0.11179627
   0.35896671  0.00248591  0.09960228
   0.00429738  0.35746741  0.09991439
   0.64982112  0.64768282  0.09981436
   0.32758735  0.32550439  0.10041966
   0.68136414  0.00266983  0.10063966
   0.00442906  0.67959481  0.10043357
   0.11085326  0.38919682  0.33738209
   0.27784471  0.22242795  0.33766404
   0.11131805  0.88931574  0.33745972
   0.27794553  0.72235985  0.33710681
   0.61088226  0.38896100  0.33710493
   0.77761525  0.22245219  0.33740017
   0.61064286  0.88885328  0.33761965
   0.77704425  0.72208852  0.33742172
Direct configuration=     9
   0.00428886  0.00275880  0.10999163
   0.35900400  0.00246590  0.09982950
   0.00440658  0.35736101  0.10014939
   0.64991163  0.64771128  0.10004628
   0.32787185  0.32577977  0.10070666
   0.68109087  0.00256171  0.10094266
   0.00444745  0.67930735  0.10072598
   0.11086617  0.38915865  0.33740470
   0.27786853  0.22277001  0.33763346
   0.11122851  0.88912737  0.33748636
   0.27795224  0.72242947  0.33720492
   0.61086817  0.38883287  0.33720935
   0.77744440  0.22245007  0.33741359
   0.61063066  0.88896451  0.33759373
   0.77696963  0.72219970  0.33744112
Direct configuration=    10
   0.00439132  0.00264053  0.10638236
   0.35907859  0.00242587  0.10028394
   0.00462498  0.35714820  0.10061940
   0.65009264  0.64776820  0.10051012
   0.32844086  0.32633053  0.10128065
   0.68054432  0.00234546  0.10154865
   0.00448421  0.67873242  0.10131079
   0.11089199  0.38908231  0.33744994
   0.27791618  0.22345412  0.33757229
   0.11104944  0.88875063  0.33753962
   0.27796567  0.72256870  0.33740114
   0.61083999  0.38857661  0.33741818
   0.77710271  0.22244583  0.33744043
   0.61060626  0.88918697  0.33754191
   0.77682039  0.72242206  0.33747991
Direct configuration=    11
   0.00442459  0.00260555  0.10556250
   0.35910942  0.00242021  0.10040805
   0.00466424  0.35715256  0.10073740
   0.65008657  0.64774955  0.10062968
   0.32846151  0.32633625  0.10139647
   0.68056159  0.00231157  0.10166440
   0.00450287  0.67868099  0.10142818
   0.11083154  0.38912665  0.33746013
   0.27772273  0.22309678  0.33756031
   0.11091250  0.88891251  0.33754995
   0.27775872  0.72252319  0.33744756
   0.61081822  0.38882211  0.33746429
   0.77722394  0.22243050  0.33744955
   0.61069370  0.88925104  0.33753024
   0.77707742  0.72245897  0.33749063
Direct configuration=    12
   0.00447086  0.00255693  0.10442266
   0.35915228  0.00241233  0.10058059
   0.00471881  0.35715863  0.10090145
   0.65007813  0.64772363  0.10079591
   0.32849022  0.32634419  0.10155748
   0.68058561  0.00226445  0.10182534
   0.00452881  0.67860948  0.10159139
   0.11074750  0.38918829  0.33747430
   0.27745378  0.22259998  0.33754364
   0.11072210  0.88913758  0.33756431
   0.27747100  0.72245992  0.33751210
   0.61078795  0.38916343  0.33752840
   0.77739248  0.22240918  0.33746222
   0.61081526  0.88934013  0.33751400
   0.77743478  0.72251029  0.33750554
Direct configuration=    13
   0.00448002  0.00254811  0.10438122
   0.35920562  0.00241197  0.10062904
   0.00470251  0.35723517  0.10093819
   0.64999932  0.64765664  0.10083634
   0.32837483  0.32620701  0.10152821
   0.68074084  0.00228760  0.10178649
   0.00454353  0.67870406  0.10156145
   0.11074559  0.38918280  0.33747561
   0.27743393  0.22252511  0.33755189
   0.11077202  0.88919922  0.33756349
   0.27746536  0.72250666  0.33750899
   0.61076831  0.38917734  0.33752129
   0.77742492  0.22248698  0.33746779
   0.61077722  0.88923287  0.33752002
   0.77741553  0.72251691  0.33750930
Direct configuration=    14
   0.00450753  0.00252167  0.10425692
   0.35936565  0.00241088  0.10077441
   0.00465362  0.35746478  0.10104842
   0.64976291  0.64745567  0.10095764
   0.32802866  0.32579547  0.10144038
   0.68120653  0.00235705  0.10166993
   0.00458770  0.67898781  0.10147164
   0.11073987  0.38916635  0.33747956
   0.27737438  0.22230048  0.33757661
   0.11092175  0.88938413  0.33756106
   0.27744845  0.72264689  0.33749967
   0.61070939  0.38921905  0.33749999
   0.77752224  0.22272036  0.33748450
   0.61066310  0.88891109  0.33753807
   0.77735776  0.72253676  0.33752056
Direct configuration=    15
   0.00451338  0.00250095  0.10420613
   0.35950715  0.00240586  0.10086000
   0.00462673  0.35757237  0.10110905
   0.64962275  0.64732625  0.10102605
   0.32797140  0.32570198  0.10138478
   0.68130768  0.00239405  0.10159212
   0.00460791  0.67905340  0.10141455
   0.11076421  0.38919928  0.33748399
   0.27741270  0.22244910  0.33759220
   0.11082716  0.88928583  0.33756100
   0.27744827  0.72258123  0.33749028
   0.61071675  0.38920187  0.33748613
   0.77743701  0.22258475  0.33749412
   0.61070411  0.88909690  0.33755284
   0.77738237  0.72252461  0.33752609
Direct configuration=    16
   0.00451785  0.00248514  0.10416740
   0.35961502  0.00240204  0.10092526
   0.00460623  0.35765438  0.10115527
   0.64951590  0.64722759  0.10107821
   0.32792774  0.32563071  0.10134239
   0.68138479  0.00242226  0.10153281
   0.00462331  0.67910341  0.10137102
   0.11078276  0.38922439  0.33748736
   0.27744191  0.22256240  0.33760409
   0.11075504  0.88921090  0.33756095
   0.27744812  0.72253117  0.33748312
   0.61072236  0.38918878  0.33747556
   0.77737203  0.22248136  0.33750146
   0.61073538  0.88923855  0.33756411
   0.77740112  0.72251536  0.33753031
Direct configuration=    17
   0.00451633  0.00247026  0.10413386
   0.35967350  0.00239766  0.10096189
   0.00460191  0.35764313  0.10117532
   0.64949697  0.64720092  0.10110337
   0.32802433  0.32571468  0.10132526
   0.68128861  0.00242758  0.10149884
   0.00462596  0.67903925  0.10135277
   0.11073414  0.38920325  0.33749246
   0.27742305  0.22255539  0.33761088
   0.11076827  0.88922628  0.33756336
   0.27745310  0.72254586  0.33747761
   0.61073904  0.38918055  0.33747150
   0.77739927  0.22252165  0.33750583
   0.61073501  0.88921936  0.33757461
   0.77737005  0.72253261  0.33753177
Direct configuration=    18
   0.00451516  0.00245868  0.10410777
   0.35971899  0.00239425  0.10099038
   0.00459856  0.35763438  0.10119091
   0.64948225  0.64718018  0.10112295
   0.32809947  0.32578000  0.10131193
   0.68121380  0.00243173  0.10147242
   0.00462801  0.67898935  0.10133857
   0.11069633  0.38918680  0.33749642
   0.27740837  0.22254995  0.33761617
   0.11077856  0.88923825  0.33756524
   0.27745697  0.72255729  0.33747333
   0.61075202  0.38917415  0.33746835
   0.77742046  0.22255298  0.33750922
   0.61073473  0.88920443  0.33758277
   0.77734589  0.72254604  0.33753291
Direct configuration=    19
   0.00452236  0.00244943  0.10406670
   0.35968997  0.00239382  0.10100959
   0.00460313  0.35758218  0.10119572
   0.64953066  0.64721812  0.10113219
   0.32813114  0.32580413  0.10131240
   0.68119249  0.00242576  0.10145655
   0.00462912  0.67895782  0.10133789
   0.11072761  0.38921636  0.33750148
   0.27740690  0.22252648  0.33762047
   0.11077540  0.88926218  0.33756820
   0.27744049  0.72256215  0.33747159
   0.61072347  0.38920125  0.33746854
   0.77740248  0.22254697  0.33751305
   0.61071473  0.88919671  0.33759074
   0.77735960  0.72253508  0.33753421
Direct configuration=    20
   0.00453240  0.00243653  0.10400945
   0.35964952  0.00239322  0.10103638
   0.00460951  0.35750940  0.10120241
   0.64959815  0.64727102  0.10114508
   0.32817529  0.32583777  0.10131307
   0.68116279  0.00241743  0.10143443
   0.00463067  0.67891385  0.10133694
   0.11077123  0.38925758  0.33750852
   0.27740483  0.22249377  0.33762648
   0.11077101  0.88929555  0.33757233
   0.27741752  0.72256892  0.33746917
   0.61068367  0.38923904  0.33746880
   0.77737742  0.22253861  0.33751839
   0.61068684  0.88918595  0.33760185
   0.77737871  0.72251981  0.33753602
Direct configuration=    21
   0.00454023  0.00243078  0.10397382
   0.35962690  0.00239261  0.10104797
   0.00461456  0.35747819  0.10120383
   0.64963092  0.64729502  0.10114961
   0.32818165  0.32583749  0.10131671
   0.68116769  0.00241146  0.10142573
   0.00463298  0.67890156  0.10133971
   0.11076347  0.38925348  0.33751212
   0.27740054  0.22250969  0.33762965
   0.11076340  0.88928903  0.33757448
   0.27741357  0.72257719  0.33746954
   0.61068169  0.38923453  0.33746991
   0.77737277  0.22254636  0.33752173
   0.61068536  0.88918972  0.33760690
   0.77737382  0.72253135  0.33753762
Direct configuration=    22
   0.00456372  0.00241354  0.10386695
   0.35955905  0.00239078  0.10108273
   0.00462973  0.35738453  0.10120808
   0.64972924  0.64736704  0.10116321
   0.32820076  0.32583664  0.10132763
   0.68118241  0.00239353  0.10139961
   0.00463990  0.67886468  0.10134800
   0.11074018  0.38924119  0.33752292
   0.27738766  0.22255744  0.33763919
   0.11074058  0.88926947  0.33758093
   0.27740170  0.72260203  0.33747065
   0.61067575  0.38922099  0.33747321
   0.77735881  0.22256961  0.33753176
   0.61068093  0.88920101  0.33762205
   0.77735914  0.72256595  0.33754241
Direct configuration=    23
   0.00461069  0.00237905  0.10365320
   0.35942334  0.00238712  0.10115226
   0.00466008  0.35719723  0.10121657
   0.64992587  0.64751107  0.10119039
   0.32823897  0.32583495  0.10134947
   0.68121184  0.00235768  0.10134737
   0.00465376  0.67879093  0.10136459
   0.11069360  0.38921662  0.33754451
   0.27736190  0.22265296  0.33765825
   0.11069495  0.88923035  0.33759384
   0.27737797  0.72265169  0.33747287
   0.61066386  0.38919392  0.33747983
   0.77733089  0.22261611  0.33755180
   0.61067206  0.88922360  0.33765235
   0.77732979  0.72263516  0.33755201
Direct configuration=    24
   0.00458415  0.00239854  0.10377398
   0.35950002  0.00238919  0.10111298
   0.00464293  0.35730306  0.10121177
   0.64981476  0.64742969  0.10117503
   0.32821738  0.32583591  0.10133713
   0.68119521  0.00237794  0.10137689
   0.00464593  0.67883260  0.10135522
   0.11071992  0.38923051  0.33753231
   0.27737646  0.22259899  0.33764748
   0.11072073  0.88925245  0.33758655
   0.27739138  0.72262363  0.33747161
   0.61067057  0.38920922  0.33747609
   0.77734666  0.22258983  0.33754048
   0.61067707  0.88921084  0.33763523
   0.77734638  0.72259606  0.33754659
Direct configuration=    25
   0.00459700  0.00239038  0.10371044
   0.35950835  0.00238416  0.10112668
   0.00465250  0.35729497  0.10121282
   0.64982396  0.64742240  0.10117993
   0.32822219  0.32582606  0.10134580
   0.68120878  0.00236808  0.10136813
   0.00465375  0.67882271  0.10136268
   0.11068953  0.38924042  0.33753721
   0.27736467  0.22259972  0.33765246
   0.11071639  0.88927117  0.33758974
   0.27739065  0.72261621  0.33747585
   0.61067571  0.38922121  0.33747963
   0.77734827  0.22259157  0.33754656
   0.61067436  0.88923488  0.33764072
   0.77732346  0.72259450  0.33755067
Direct configuration=    26
   0.00463556  0.00236592  0.10351982
   0.35953334  0.00236909  0.10116779
   0.00468122  0.35727067  0.10121598
   0.64985154  0.64740054  0.10119464
   0.32823665  0.32579651  0.10137181
   0.68124947  0.00233851  0.10134185
   0.00467720  0.67879303  0.10138508
   0.11059836  0.38927015  0.33755193
   0.27732929  0.22260194  0.33766741
   0.11070335  0.88932732  0.33759933
   0.27738845  0.72259395  0.33748855
   0.61069110  0.38925719  0.33749026
   0.77735311  0.22259676  0.33756481
   0.61066623  0.88930702  0.33765718
   0.77725471  0.72258984  0.33756290
Direct configuration=    27
   0.00471267  0.00231700  0.10313860
   0.35958331  0.00233895  0.10125001
   0.00473866  0.35722209  0.10122228
   0.64990670  0.64735683  0.10122406
   0.32826555  0.32573741  0.10142382
   0.68133085  0.00227937  0.10128929
   0.00472411  0.67873366  0.10142986
   0.11041603  0.38932961  0.33758137
   0.27725854  0.22260636  0.33769729
   0.11067726  0.88943962  0.33761851
   0.27738404  0.72254944  0.33751395
   0.61072189  0.38932915  0.33751150
   0.77736277  0.22260715  0.33760131
   0.61064996  0.88945130  0.33769010
   0.77711720  0.72258051  0.33758736
Direct configuration=    28
   0.00467101  0.00234343  0.10334456
   0.35955631  0.00235523  0.10120559
   0.00470763  0.35724834  0.10121887
   0.64987690  0.64738045  0.10120817
   0.32824994  0.32576934  0.10139572
   0.68128688  0.00231132  0.10131769
   0.00469877  0.67876574  0.10140567
   0.11051453  0.38929749  0.33756547
   0.27729676  0.22260397  0.33768115
   0.11069135  0.88937895  0.33760815
   0.27738642  0.72257349  0.33750023
   0.61070526  0.38929027  0.33750002
   0.77735755  0.22260154  0.33758159
   0.61065875  0.88937335  0.33767232
   0.77719149  0.72258555  0.33757415
Direct configuration=    29
   0.00467958  0.00233695  0.10329535
   0.35957599  0.00234950  0.10121451
   0.00471498  0.35725235  0.10122035
   0.64987253  0.64736268  0.10121190
   0.32825565  0.32576228  0.10140194
   0.68129485  0.00230414  0.10131257
   0.00470591  0.67876013  0.10141112
   0.11051234  0.38930310  0.33756903
   0.27729108  0.22261035  0.33768469
   0.11068481  0.88938328  0.33761074
   0.27737898  0.72258206  0.33750434
   0.61069605  0.38929528  0.33750343
   0.77734908  0.22260851  0.33758609
   0.61065056  0.88937535  0.33767575
   0.77718716  0.72259248  0.33757755
Direct configuration=    30
   0.00470531  0.00231750  0.10314772
   0.35963501  0.00233230  0.10124124
   0.00473702  0.35726440  0.10122477
   0.64985940  0.64730938  0.10122310
   0.32827279  0.32574110  0.10142058
   0.68131877  0.00228261  0.10129721
   0.00472734  0.67874333  0.10142748
   0.11050578  0.38931993  0.33757972
   0.27727403  0.22262951  0.33769531
   0.11066517  0.88939625  0.33761851
   0.27735667  0.72260778  0.33751666
   0.61066843  0.38931030  0.33751364
   0.77732367  0.22262944  0.33759956
   0.61062600  0.88938135  0.33768606
   0.77717417  0.72261327  0.33758778
Direct configuration=    31
   0.00475677  0.00227860  0.10285246
   0.35975305  0.00229790  0.10129472
   0.00478110  0.35728849  0.10123361
   0.64983315  0.64720279  0.10124549
   0.32830707  0.32569874  0.10145786
   0.68136660  0.00223953  0.10126649
   0.00477021  0.67870971  0.10146021
   0.11049264  0.38935359  0.33760110
   0.27723994  0.22266781  0.33771655
   0.11062589  0.88942221  0.33763406
   0.27731204  0.72265923  0.33754131
   0.61061320  0.38934034  0.33753406
   0.77727285  0.22267129  0.33762652
   0.61057687  0.88939336  0.33770668
   0.77714818  0.72265484  0.33760823
Direct configuration=    32
   0.00485968  0.00220081  0.10226195
   0.35998914  0.00222911  0.10140167
   0.00486927  0.35733667  0.10125129
   0.64978065  0.64698959  0.10129028
   0.32837563  0.32561402  0.10153242
   0.68146227  0.00215339  0.10120506
   0.00485593  0.67864249  0.10152566
   0.11046637  0.38942091  0.33764386
   0.27717174  0.22274442  0.33775903
   0.11054733  0.88947413  0.33766514
   0.27722279  0.72276212  0.33759061
   0.61050274  0.38940043  0.33757491
   0.77717121  0.22275499  0.33768043
   0.61047862  0.88941736  0.33774791
   0.77709620  0.72273800  0.33764912
Direct configuration=    33
   0.00490224  0.00216864  0.10201770
   0.36008678  0.00220065  0.10144591
   0.00490574  0.35735660  0.10125860
   0.64975893  0.64690142  0.10130881
   0.32840398  0.32557898  0.10156326
   0.68150184  0.00211776  0.10117965
   0.00489139  0.67861468  0.10155273
   0.11045550  0.38944875  0.33766155
   0.27714354  0.22277610  0.33777660
   0.11051483  0.88949561  0.33767800
   0.27718587  0.72280468  0.33761100
   0.61045706  0.38942529  0.33759180
   0.77712917  0.22278962  0.33770273
   0.61043798  0.88942729  0.33776496
   0.77707471  0.72277239  0.33766604
Direct configuration=    34
   0.00490283  0.00215004  0.10193028
   0.36009524  0.00217350  0.10145248
   0.00491763  0.35732861  0.10128318
   0.64978959  0.64690067  0.10132771
   0.32842108  0.32555499  0.10155266
   0.68152104  0.00210960  0.10118040
   0.00491260  0.67862472  0.10154328
   0.11045561  0.38946121  0.33766956
   0.27712542  0.22278512  0.33777939
   0.11048544  0.88949908  0.33768888
   0.27715357  0.72281538  0.33761994
   0.61043529  0.38944529  0.33760536
   0.77711297  0.22279382  0.33770486
   0.61043385  0.88944602  0.33776945
   0.77708739  0.72279040  0.33767190
Direct configuration=    35
   0.00490459  0.00209425  0.10166801
   0.36012063  0.00209203  0.10147217
   0.00495330  0.35724463  0.10135691
   0.64988157  0.64689842  0.10138442
   0.32847237  0.32548303  0.10152087
   0.68157863  0.00208512  0.10118266
   0.00497626  0.67865481  0.10151495
   0.11045593  0.38949856  0.33769361
   0.27707108  0.22281218  0.33778775
   0.11039727  0.88950950  0.33772153
   0.27705666  0.72284749  0.33764677
   0.61036999  0.38950532  0.33764605
   0.77706438  0.22280645  0.33771124
   0.61042146  0.88950220  0.33778293
   0.77712545  0.72284444  0.33768947
Direct configuration=    36
   0.00490812  0.00198267  0.10114346
   0.36017140  0.00192910  0.10151156
   0.00502465  0.35707667  0.10150437
   0.65006553  0.64689393  0.10149784
   0.32857495  0.32533912  0.10145728
   0.68169381  0.00203617  0.10118719
   0.00510357  0.67871500  0.10145827
   0.11045658  0.38957326  0.33774170
   0.27696238  0.22286630  0.33780447
   0.11022091  0.88953035  0.33778683
   0.27686285  0.72291170  0.33770044
   0.61023938  0.38962537  0.33772743
   0.77696719  0.22283169  0.33772400
   0.61039668  0.88961458  0.33780988
   0.77720156  0.72295253  0.33772462
Direct configuration=    37
   0.00490567  0.00206013  0.10150762
   0.36013615  0.00204221  0.10148421
   0.00497512  0.35719327  0.10140199
   0.64993782  0.64689705  0.10141910
   0.32850373  0.32543903  0.10150142
   0.68161385  0.00207015  0.10118405
   0.00501519  0.67867322  0.10149762
   0.11045613  0.38952140  0.33770832
   0.27703784  0.22282873  0.33779286
   0.11034334  0.88951588  0.33774150
   0.27699740  0.72286712  0.33766318
   0.61033005  0.38954203  0.33767093
   0.77703466  0.22281417  0.33771514
   0.61041389  0.88953657  0.33779117
   0.77714872  0.72287749  0.33770022
Direct configuration=    38
   0.00491196  0.00205171  0.10144697
   0.36013615  0.00202498  0.10148617
   0.00498575  0.35717845  0.10142136
   0.64995694  0.64689330  0.10143303
   0.32852068  0.32542660  0.10149121
   0.68162470  0.00206429  0.10118802
   0.00503128  0.67866489  0.10148869
   0.11043563  0.38952918  0.33771321
   0.27702923  0.22283714  0.33779592
   0.11034459  0.88953218  0.33774907
   0.27699947  0.72287711  0.33766990
   0.61032622  0.38954619  0.33767972
   0.77702799  0.22283003  0.33771696
   0.61039773  0.88953953  0.33779381
   0.77712123  0.72288285  0.33770530
Direct configuration=    39
   0.00493082  0.00202645  0.10126504
   0.36013614  0.00197328  0.10149205
   0.00501765  0.35713398  0.10147944
   0.65001430  0.64688205  0.10147481
   0.32857154  0.32538934  0.10146056
   0.68165725  0.00204669  0.10119994
   0.00507958  0.67863993  0.10146190
   0.11037412  0.38955250  0.33772789
   0.27700340  0.22286238  0.33780508
   0.11034834  0.88958111  0.33777179
   0.27700568  0.72290708  0.33769005
   0.61031471  0.38955870  0.33770609
   0.77700799  0.22287762  0.33772242
   0.61034927  0.88954841  0.33780173
   0.77703877  0.72289893  0.33772055
Direct configuration=    40
   0.00496854  0.00197591  0.10090117
   0.36013613  0.00186989  0.10150380
   0.00508144  0.35704504  0.10159561
   0.65012902  0.64685955  0.10155838
   0.32867324  0.32531480  0.10139925
   0.68172236  0.00201149  0.10122378
   0.00517617  0.67858999  0.10140832
   0.11025110  0.38959916  0.33775724
   0.27695174  0.22291285  0.33782342
   0.11035584  0.88967896  0.33781722
   0.27701811  0.72296702  0.33773034
   0.61029169  0.38958370  0.33775883
   0.77696799  0.22297281  0.33773333
   0.61025235  0.88956619  0.33781757
   0.77687385  0.72293109  0.33775106
Direct configuration=    41
   0.00496085  0.00198622  0.10097538
   0.36013613  0.00189097  0.10150141
   0.00506843  0.35706318  0.10157192
   0.65010563  0.64686414  0.10154134
   0.32865250  0.32533000  0.10141176
   0.68170908  0.00201866  0.10121892
   0.00515647  0.67860018  0.10141925
   0.11027619  0.38958965  0.33775126
   0.27696228  0.22290256  0.33781968
   0.11035431  0.88965900  0.33780796
   0.27701557  0.72295480  0.33772212
   0.61029638  0.38957860  0.33774808
   0.77697615  0.22295340  0.33773110
   0.61027212  0.88956256  0.33781434
   0.77690748  0.72292453  0.33774484
Direct configuration=    42
   0.00498802  0.00199138  0.10092362
   0.36013880  0.00188882  0.10149659
   0.00508703  0.35707337  0.10158466
   0.65010299  0.64683848  0.10154874
   0.32867277  0.32533254  0.10140355
   0.68171095  0.00200662  0.10123287
   0.00516776  0.67855194  0.10141282
   0.11027096  0.38960235  0.33775231
   0.27695922  0.22292329  0.33782865
   0.11033800  0.88965864  0.33781145
   0.27700606  0.72295966  0.33772838
   0.61028373  0.38958599  0.33774910
   0.77695827  0.22294913  0.33773707
   0.61026474  0.88958486  0.33781645
   0.77690026  0.72293137  0.33775307
Direct configuration=    43
   0.00506721  0.00200643  0.10077276
   0.36014659  0.00188254  0.10148256
   0.00514123  0.35710309  0.10162177
   0.65009528  0.64676368  0.10157033
   0.32873187  0.32533992  0.10137963
   0.68171641  0.00197153  0.10127355
   0.00520066  0.67841132  0.10139410
   0.11025570  0.38963939  0.33775538
   0.27695031  0.22298373  0.33785478
   0.11029047  0.88965757  0.33782163
   0.27697835  0.72297383  0.33774661
   0.61024685  0.38960752  0.33775206
   0.77690616  0.22293671  0.33775446
   0.61024322  0.88964986  0.33782260
   0.77687923  0.72295133  0.33777709
Direct configuration=    44
   0.00508806  0.00199740  0.10072636
   0.36017176  0.00188439  0.10147256
   0.00516285  0.35709615  0.10162527
   0.65010556  0.64674406  0.10156994
   0.32873225  0.32533152  0.10137439
   0.68172685  0.00194645  0.10129756
   0.00520192  0.67839881  0.10139099
   0.11024644  0.38964097  0.33775618
   0.27692287  0.22297141  0.33786720
   0.11027955  0.88967595  0.33782379
   0.27695268  0.72299206  0.33774980
   0.61023548  0.38962410  0.33774827
   0.77690713  0.22296623  0.33776290
   0.61023472  0.88963813  0.33782827
   0.77688143  0.72297081  0.33778584
Direct configuration=    45
   0.00511951  0.00198376  0.10065636
   0.36020974  0.00188718  0.10145747
   0.00519547  0.35708569  0.10163054
   0.65012108  0.64671444  0.10156934
   0.32873282  0.32531885  0.10136649
   0.68174260  0.00190862  0.10133379
   0.00520382  0.67837994  0.10138631
   0.11023248  0.38964335  0.33775737
   0.27688146  0.22295283  0.33788595
   0.11026307  0.88970368  0.33782705
   0.27691396  0.72301957  0.33775460
   0.61021833  0.38964912  0.33774256
   0.77690860  0.22301078  0.33777563
   0.61022189  0.88962043  0.33783682
   0.77688473  0.72300020  0.33779905
Direct configuration=    46
   0.00512730  0.00195225  0.10061302
   0.36025140  0.00188324  0.10144739
   0.00521357  0.35705591  0.10162675
   0.65015039  0.64670847  0.10156406
   0.32872609  0.32529957  0.10136132
   0.68176536  0.00187731  0.10136207
   0.00520362  0.67840192  0.10138339
   0.11021511  0.38966719  0.33776261
   0.27688289  0.22297810  0.33789617
   0.11025190  0.88971695  0.33783192
   0.27691667  0.72302319  0.33775344
   0.61020276  0.38965858  0.33774078
   0.77688590  0.22300604  0.33778299
   0.61020044  0.88965038  0.33784885
   0.77685617  0.72299935  0.33780457
Direct configuration=    47
   0.00513099  0.00193732  0.10059248
   0.36027115  0.00188137  0.10144260
   0.00522215  0.35704179  0.10162495
   0.65016428  0.64670565  0.10156156
   0.32872290  0.32529043  0.10135886
   0.68177615  0.00186247  0.10137548
   0.00520352  0.67841234  0.10138201
   0.11020688  0.38967849  0.33776509
   0.27688356  0.22299007  0.33790102
   0.11024660  0.88972324  0.33783422
   0.27691796  0.72302490  0.33775289
   0.61019538  0.38966306  0.33773993
   0.77687513  0.22300379  0.33778648
   0.61019028  0.88966457  0.33785455
   0.77684263  0.72299895  0.33780719
Direct configuration=    48
   0.00513761  0.00192135  0.10058245
   0.36028223  0.00187393  0.10144362
   0.00522390  0.35703229  0.10161965
   0.65017179  0.64670184  0.10155851
   0.32873675  0.32528675  0.10135446
   0.68178709  0.00185791  0.10138184
   0.00521424  0.67840193  0.10137819
   0.11019899  0.38967883  0.33777147
   0.27687626  0.22301228  0.33789995
   0.11023766  0.88971716  0.33783863
   0.27690926  0.72303530  0.33775068
   0.61019208  0.38966136  0.33774429
   0.77686257  0.22301099  0.33778724
   0.61018836  0.88967415  0.33786271
   0.77683077  0.72301238  0.33780565
Direct configuration=    49
   0.00514331  0.00190762  0.10057382
   0.36029176  0.00186753  0.10144448
   0.00522540  0.35702411  0.10161509
   0.65017824  0.64669856  0.10155589
   0.32874867  0.32528359  0.10135067
   0.68179650  0.00185398  0.10138730
   0.00522347  0.67839297  0.10137490
   0.11019220  0.38967912  0.33777697
   0.27686997  0.22303138  0.33789903
   0.11022997  0.88971193  0.33784242
   0.27690178  0.72304424  0.33774879
   0.61018925  0.38965990  0.33774805
   0.77685177  0.22301718  0.33778789
   0.61018670  0.88968239  0.33786972
   0.77682056  0.72302393  0.33780433
Direct configuration=    50
   0.00515090  0.00189881  0.10056881
   0.36029778  0.00186137  0.10144638
   0.00522724  0.35701685  0.10161102
   0.65018235  0.64669437  0.10155388
   0.32875915  0.32527919  0.10134696
   0.68180461  0.00185248  0.10138966
   0.00523339  0.67838267  0.10137146
   0.11018523  0.38968597  0.33778106
   0.27686288  0.22303132  0.33789825
   0.11022345  0.88972112  0.33784487
   0.27689535  0.72304805  0.33774843
   0.61018256  0.38966850  0.33775127