  15  15   0   4
  0.2028716E+02  0.4840000E-09  0.4840000E-09  0.1500000E-08  0.5000000E-15
  1.000000000000000E-004
  CAR 
 Lattice                                 
     10.35527578    -21.71425682  301     -0.30794146      1.00000000
    -21.714  0.0000E+00  0.0000E+00  0.0000E+00  0.0000E+00
    -21.607  0.0000E+00  0.0000E+00  0.0000E+00  0.0000E+00
    -21.500  0.0000E+00  0.0000E+00  0.0000E+00  0.0000E+00
    -21.394  0.0000E+00  0.0000E+00  0.0000E+00  0.0000E+00
    -21.287  0.0000E+00  0.0000E+00  0.0000E+00  0.0000E+00
    -21.180  0.0000E+00  0.0000E+00  0.0000E+00  0.0000E+00
    -21.073  0.0000E+00  0.0000E+00  0.0000E+00  0.0000E+00
    -20.966  0.0000E+00  0.0000E+00  0.0000E+00  0.0000E+00
    -20.859  0.0000E+00  0.0000E+00  0.0000E+00  0.0000E+00
    -20.752  0.6505E-15  0.6505E-15  0.6953E-16  0.6953E-16
    -20.645  0.1142E-10  0.1142E-10  0.1221E-11  0.1221E-11
    -20.538  0.2397E-07  0.2397E-07  0.2564E-08  0.2564E-08
    -20.431  0.6616E-05  0.6616E-05  0.7098E-06  0.7098E-06
    -20.325  0.2686E-03  0.2686E-03  0.2943E-04  0.2943E-04
    -20.218  0.1967E-02  0.1967E-02  0.2397E-03  0.2397E-03
    -20.111  0.4141E-02  0.4141E-02  0.6823E-03  0.6823E-03
    -20.004  0.4505E-02  0.4505E-02  0.1164E-02  0.1164E-02
    -19.897  0.4926E-02  0.4926E-02  0.1690E-02  0.1690E-02
    -19.790  0.4138E-02  0.4138E-02  0.2133E-02  0.2133E-02
    -19.683  0.5367E-02  0.5367E-02  0.2707E-02  0.2707E-02
    -19.576  0.4214E-02  0.4214E-02  0.3157E-02  0.3157E-02
    -19.469  0.4221E-02  0.4221E-02  0.3608E-02  0.3608E-02
    -19.362  0.6000E-02  0.6000E-02  0.4250E-02  0.4250E-02
    -19.256  0.3824E-02  0.3824E-02  0.4658E-02  0.4658E-02
    -19.149  0.3836E-02  0.3836E-02  0.5068E-02  0.5068E-02
    -19.042  0.6093E-02  0.6093E-02  0.5720E-02  0.5720E-02
    -18.935  0.5219E-02  0.5219E-02  0.6278E-02  0.6278E-02
    -18.828  0.2973E-02  0.2973E-02  0.6595E-02  0.6595E-02
    -18.721  0.4290E-02  0.4290E-02  0.7054E-02  0.7054E-02
    -18.614  0.6911E-02  0.6911E-02  0.7793E-02  0.7793E-02
    -18.507  0.4587E-02  0.4587E-02  0.8283E-02  0.8283E-02
    -18.400  0.3800E-02  0.3800E-02  0.8689E-02  0.8689E-02
    -18.294  0.2938E-02  0.2938E-02  0.9003E-02  0.9003E-02
    -18.187  0.6532E-02  0.6532E-02  0.9702E-02  0.9702E-02
    -18.080  0.6655E-02  0.6655E-02  0.1041E-01  0.1041E-01
    -17.973  0.3583E-02  0.3583E-02  0.1080E-01  0.1080E-01
    -17.866  0.3239E-02  0.3239E-02  0.1114E-01  0.1114E-01
    -17.759  0.4072E-02  0.4072E-02  0.1158E-01  0.1158E-01
    -17.652  0.6118E-02  0.6118E-02  0.1223E-01  0.1223E-01
    -17.545  0.6801E-02  0.6801E-02  0.1296E-01  0.1296E-01
    -17.438  0.5578E-02  0.5578E-02  0.1355E-01  0.1355E-01
    -17.331  0.6522E-02  0.6522E-02  0.1425E-01  0.1425E-01
    -17.225  0.1003E-01  0.1003E-01  0.1532E-01  0.1532E-01
    -17.118  0.1448E-01  0.1448E-01  0.1687E-01  0.1687E-01
    -17.011  0.1560E-01  0.1560E-01  0.1854E-01  0.1854E-01
    -16.904  0.1699E-01  0.1699E-01  0.2036E-01  0.2036E-01
    -16.797  0.2070E-01  0.2070E-01  0.2257E-01  0.2257E-01
    -16.690  0.1661E-01  0.1661E-01  0.2434E-01  0.2434E-01
    -16.583  0.5125E-02  0.5125E-02  0.2489E-01  0.2489E-01
    -16.476  0.6982E-02  0.6982E-02  0.2564E-01  0.2564E-01
    -16.369  0.8311E-02  0.8311E-02  0.2653E-01  0.2653E-01
    -16.262  0.4603E-02  0.4603E-02  0.2702E-01  0.2702E-01
    -16.156  0.4166E-02  0.4166E-02  0.2746E-01  0.2746E-01
    -16.049  0.3826E-02  0.3826E-02  0.2787E-01  0.2787E-01
    -15.942  0.3868E-02  0.3868E-02  0.2829E-01  0.2829E-01
    -15.835  0.3506E-02  0.3506E-02  0.2866E-01  0.2866E-01
    -15.728  0.7821E-02  0.7821E-02  0.2950E-01  0.2950E-01
    -15.621  0.8269E-02  0.8269E-02  0.3038E-01  0.3038E-01
    -15.514  0.4025E-02  0.4025E-02  0.3081E-01  0.3081E-01
    -15.407  0.3857E-02  0.3857E-02  0.3122E-01  0.3122E-01
    -15.300  0.3321E-02  0.3321E-02  0.3158E-01  0.3158E-01
    -15.193  0.4517E-02  0.4517E-02  0.3206E-01  0.3206E-01
    -15.087  0.6048E-02  0.6048E-02  0.3271E-01  0.3271E-01
    -14.980  0.1042E-01  0.1042E-01  0.3382E-01  0.3382E-01
    -14.873  0.1680E-01  0.1680E-01  0.3562E-01  0.3562E-01
    -14.766  0.1832E-01  0.1832E-01  0.3757E-01  0.3757E-01
    -14.659  0.1738E-01  0.1738E-01  0.3943E-01  0.3943E-01
    -14.552  0.1154E-01  0.1154E-01  0.4067E-01  0.4067E-01
    -14.445  0.7533E-02  0.7533E-02  0.4147E-01  0.4147E-01
    -14.338  0.1411E-01  0.1411E-01  0.4298E-01  0.4298E-01
    -14.231  0.1581E-01  0.1581E-01  0.4467E-01  0.4467E-01
    -14.124  0.1145E-01  0.1145E-01  0.4589E-01  0.4589E-01
    -14.018  0.1080E-01  0.1080E-01  0.4705E-01  0.4705E-01
    -13.911  0.1218E-01  0.1218E-01  0.4835E-01  0.4835E-01
    -13.804  0.1940E-01  0.1940E-01  0.5042E-01  0.5042E-01
    -13.697  0.1984E-01  0.1984E-01  0.5254E-01  0.5254E-01
    -13.590  0.1820E-01  0.1820E-01  0.5449E-01  0.5449E-01
    -13.483  0.1152E-01  0.1152E-01  0.5572E-01  0.5572E-01
    -13.376  0.6892E-02  0.6892E-02  0.5646E-01  0.5646E-01
    -13.269  0.3268E-02  0.3268E-02  0.5681E-01  0.5681E-01
    -13.162  0.3921E-02  0.3921E-02  0.5723E-01  0.5723E-01
    -13.055  0.6656E-02  0.6656E-02  0.5794E-01  0.5794E-01
    -12.949  0.7023E-02  0.7023E-02  0.5869E-01  0.5869E-01
    -12.842  0.4810E-02  0.4810E-02  0.5920E-01  0.5920E-01
    -12.735  0.6508E-02  0.6508E-02  0.5990E-01  0.5990E-01
    -12.628  0.7075E-02  0.7075E-02  0.6066E-01  0.6066E-01
    -12.521  0.5662E-02  0.5662E-02  0.6126E-01  0.6126E-01
    -12.414  0.5410E-02  0.5410E-02  0.6184E-01  0.6184E-01
    -12.307  0.3432E-02  0.3432E-02  0.6221E-01  0.6221E-01
    -12.200  0.5993E-02  0.5993E-02  0.6285E-01  0.6285E-01
    -12.093  0.8136E-02  0.8136E-02  0.6372E-01  0.6372E-01
    -11.986  0.3621E-02  0.3621E-02  0.6410E-01  0.6410E-01
    -11.880  0.3298E-02  0.3298E-02  0.6446E-01  0.6446E-01
    -11.773  0.3369E-02  0.3369E-02  0.6482E-01  0.6482E-01
    -11.666  0.5614E-02  0.5614E-02  0.6542E-01  0.6542E-01
    -11.559  0.6896E-02  0.6896E-02  0.6615E-01  0.6615E-01
    -11.452  0.4124E-02  0.4124E-02  0.6659E-01  0.6659E-01
    -11.345  0.1798E-02  0.1798E-02  0.6679E-01  0.6679E-01
    -11.238  0.4542E-02  0.4542E-02  0.6727E-01  0.6727E-01
    -11.131  0.5821E-02  0.5821E-02  0.6789E-01  0.6789E-01
    -11.024  0.5286E-02  0.5286E-02  0.6846E-01  0.6846E-01
    -10.918  0.7627E-02  0.7627E-02  0.6927E-01  0.6927E-01
    -10.811  0.6264E-02  0.6264E-02  0.6994E-01  0.6994E-01
    -10.704  0.2507E-02  0.2507E-02  0.7021E-01  0.7021E-01
    -10.597  0.7774E-02  0.7774E-02  0.7104E-01  0.7104E-01
    -10.490  0.1247E-01  0.1247E-01  0.7238E-01  0.7238E-01
    -10.383  0.1534E-01  0.1534E-01  0.7401E-01  0.7401E-01
    -10.276  0.1526E-01  0.1526E-01  0.7565E-01  0.7565E-01
    -10.169  0.1452E-01  0.1452E-01  0.7720E-01  0.7720E-01
    -10.062  0.1766E-01  0.1766E-01  0.7909E-01  0.7909E-01
     -9.955  0.1851E-01  0.1851E-01  0.8106E-01  0.8106E-01
     -9.849  0.9915E-02  0.9915E-02  0.8212E-01  0.8212E-01
     -9.742  0.7003E-02  0.7003E-02  0.8287E-01  0.8287E-01
     -9.635  0.1391E-01  0.1391E-01  0.8436E-01  0.8436E-01
     -9.528  0.1507E-01  0.1507E-01  0.8597E-01  0.8597E-01
     -9.421  0.1628E-01  0.1628E-01  0.8771E-01  0.8771E-01
     -9.314  0.1592E-01  0.1592E-01  0.8941E-01  0.8941E-01
     -9.207  0.1420E-01  0.1420E-01  0.9093E-01  0.9093E-01
     -9.100  0.1047E-01  0.1047E-01  0.9205E-01  0.9205E-01
     -8.993  0.7142E-02  0.7142E-02  0.9281E-01  0.9281E-01
     -8.886  0.1538E-01  0.1538E-01  0.9446E-01  0.9446E-01
     -8.780  0.2101E-01  0.2101E-01  0.9670E-01  0.9670E-01
     -8.673  0.1543E-01  0.1543E-01  0.9835E-01  0.9835E-01
     -8.566  0.7687E-02  0.7687E-02  0.9918E-01  0.9918E-01
     -8.459  0.1043E-01  0.1043E-01  0.1003E+00  0.1003E+00
     -8.352  0.2068E-01  0.2068E-01  0.1025E+00  0.1025E+00
     -8.245  0.1928E-01  0.1928E-01  0.1046E+00  0.1046E+00
     -8.138  0.1152E-01  0.1152E-01  0.1058E+00  0.1058E+00
     -8.031  0.1595E-01  0.1595E-01  0.1075E+00  0.1075E+00
     -7.924  0.2463E-01  0.2463E-01  0.1101E+00  0.1101E+00
     -7.817  0.2430E-01  0.2430E-01  0.1127E+00  0.1127E+00
     -7.711  0.2087E-01  0.2087E-01  0.1150E+00  0.1150E+00
     -7.604  0.1036E-01  0.1036E-01  0.1161E+00  0.1161E+00
     -7.497  0.8099E-02  0.8099E-02  0.1169E+00  0.1169E+00
     -7.390  0.1857E-01  0.1857E-01  0.1189E+00  0.1189E+00
     -7.283  0.1786E-01  0.1786E-01  0.1208E+00  0.1208E+00
     -7.176  0.1174E-01  0.1174E-01  0.1221E+00  0.1221E+00
     -7.069  0.1145E-01  0.1145E-01  0.1233E+00  0.1233E+00
     -6.962  0.1696E-01  0.1696E-01  0.1251E+00  0.1251E+00
     -6.855  0.1776E-01  0.1776E-01  0.1270E+00  0.1270E+00
     -6.748  0.1932E-01  0.1932E-01  0.1291E+00  0.1291E+00
     -6.642  0.2135E-01  0.2135E-01  0.1314E+00  0.1314E+00
     -6.535  0.1906E-01  0.1906E-01  0.1334E+00  0.1334E+00
     -6.428  0.2036E-01  0.2036E-01  0.1356E+00  0.1356E+00
     -6.321  0.1689E-01  0.1689E-01  0.1374E+00  0.1374E+00
     -6.214  0.1790E-01  0.1790E-01  0.1393E+00  0.1393E+00
     -6.107  0.2598E-01  0.2598E-01  0.1421E+00  0.1421E+00
     -6.000  0.2317E-01  0.2317E-01  0.1446E+00  0.1446E+00
     -5.893  0.3117E-01  0.3117E-01  0.1479E+00  0.1479E+00
     -5.786  0.2813E-01  0.2813E-01  0.1509E+00  0.1509E+00
     -5.679  0.1639E-01  0.1639E-01  0.1526E+00  0.1526E+00
     -5.573  0.1889E-01  0.1889E-01  0.1547E+00  0.1547E+00
     -5.466  0.3255E-01  0.3255E-01  0.1581E+00  0.1581E+00
     -5.359  0.3521E-01  0.3521E-01  0.1619E+00  0.1619E+00
     -5.252  0.2379E-01  0.2379E-01  0.1644E+00  0.1644E+00
     -5.145  0.1711E-01  0.1711E-01  0.1663E+00  0.1663E+00
     -5.038  0.1031E-01  0.1031E-01  0.1674E+00  0.1674E+00
     -4.931  0.9843E-02  0.9843E-02  0.1684E+00  0.1684E+00
     -4.824  0.1438E-01  0.1438E-01  0.1700E+00  0.1700E+00
     -4.717  0.1160E-01  0.1160E-01  0.1712E+00  0.1712E+00
     -4.611  0.8301E-02  0.8301E-02  0.1721E+00  0.1721E+00
     -4.504  0.8759E-02  0.8759E-02  0.1730E+00  0.1730E+00
     -4.397  0.1530E-01  0.1530E-01  0.1747E+00  0.1747E+00
     -4.290  0.2254E-01  0.2254E-01  0.1771E+00  0.1771E+00
     -4.183  0.1855E-01  0.1855E-01  0.1791E+00  0.1791E+00
     -4.076  0.1894E-01  0.1894E-01  0.1811E+00  0.1811E+00
     -3.969  0.2205E-01  0.2205E-01  0.1834E+00  0.1834E+00
     -3.862  0.2444E-01  0.2444E-01  0.1861E+00  0.1861E+00
     -3.755  0.1842E-01  0.1842E-01  0.1880E+00  0.1880E+00
     -3.648  0.1796E-01  0.1796E-01  0.1899E+00  0.1899E+00
     -3.542  0.2020E-01  0.2020E-01  0.1921E+00  0.1921E+00
     -3.435  0.1591E-01  0.1591E-01  0.1938E+00  0.1938E+00
     -3.328  0.1378E-01  0.1378E-01  0.1953E+00  0.1953E+00
     -3.221  0.1323E-01  0.1323E-01  0.1967E+00  0.1967E+00
     -3.114  0.1738E-01  0.1738E-01  0.1985E+00  0.1985E+00
     -3.007  0.1814E-01  0.1814E-01  0.2005E+00  0.2005E+00
     -2.900  0.1188E-01  0.1188E-01  0.2018E+00  0.2018E+00
     -2.793  0.1199E-01  0.1200E-01  0.2030E+00  0.2030E+00
     -2.686  0.7461E-02  0.7461E-02  0.2038E+00  0.2038E+00
     -2.579  0.1002E-01  0.1002E-01  0.2049E+00  0.2049E+00
     -2.473  0.1945E-01  0.1945E-01  0.2070E+00  0.2070E+00
     -2.366  0.1451E-01  0.1451E-01  0.2085E+00  0.2085E+00
     -2.259  0.3989E-02  0.3989E-02  0.2090E+00  0.2090E+00
     -2.152  0.4706E-02  0.4707E-02  0.2095E+00  0.2095E+00
     -2.045  0.1035E-01  0.1035E-01  0.2106E+00  0.2106E+00
     -1.938  0.1013E-01  0.1013E-01  0.2117E+00  0.2117E+00
     -1.831  0.1109E-01  0.1109E-01  0.2128E+00  0.2128E+00
     -1.724  0.1147E-01  0.1147E-01  0.2141E+00  0.2141E+00
     -1.617  0.9611E-02  0.9611E-02  0.2151E+00  0.2151E+00
     -1.510  0.7195E-02  0.7195E-02  0.2159E+00  0.2159E+00
     -1.404  0.4482E-02  0.4482E-02  0.2163E+00  0.2163E+00
     -1.297  0.3946E-02  0.3946E-02  0.2168E+00  0.2168E+00
     -1.190  0.4054E-02  0.4053E-02  0.2172E+00  0.2172E+00
     -1.083  0.3809E-02  0.3809E-02  0.2176E+00  0.2176E+00
     -0.976  0.5839E-02  0.5839E-02  0.2182E+00  0.2182E+00
     -0.869  0.3091E-02  0.3091E-02  0.2186E+00  0.2186E+00
     -0.762  0.6595E-03  0.6595E-03  0.2186E+00  0.2186E+00
     -0.655  0.7457E-04  0.7457E-04  0.2186E+00  0.2186E+00
     -0.548  0.2254E-05  0.2253E-05  0.2186E+00  0.2186E+00
     -0.441  0.6034E-04  0.6034E-04  0.2186E+00  0.2186E+00
     -0.335  0.6574E-03  0.6574E-03  0.2187E+00  0.2187E+00
     -0.228  0.1049E-02  0.1049E-02  0.2188E+00  0.2188E+00
     -0.121  0.2538E-03  0.2538E-03  0.2189E+00  0.2189E+00
     -0.014  0.8507E-05  0.8507E-05  0.2189E+00  0.2189E+00
      0.093  0.1844E-06  0.1844E-06  0.2189E+00  0.2189E+00
      0.200  0.3279E-04  0.3279E-04  0.2189E+00  0.2189E+00
      0.307  0.8801E-03  0.8801E-03  0.2190E+00  0.2190E+00
      0.414  0.3245E-02  0.3245E-02  0.2193E+00  0.2193E+00
      0.521  0.1852E-02  0.1852E-02  0.2195E+00  0.2195E+00
      0.628  0.1097E-02  0.1097E-02  0.2196E+00  0.2196E+00
      0.734  0.3308E-02  0.3308E-02  0.2200E+00  0.2200E+00
      0.841  0.5196E-02  0.5196E-02  0.2205E+00  0.2205E+00
      0.948  0.8862E-02  0.8862E-02  0.2215E+00  0.2215E+00
      1.055  0.2450E-01  0.2450E-01  0.2241E+00  0.2241E+00
      1.162  0.2193E-01  0.2193E-01  0.2264E+00  0.2264E+00
      1.269  0.5539E-02  0.5538E-02  0.2270E+00  0.2270E+00
      1.376  0.3898E-02  0.3898E-02  0.2274E+00  0.2274E+00
      1.483  0.7905E-02  0.7905E-02  0.2283E+00  0.2283E+00
      1.590  0.1228E-01  0.1228E-01  0.2296E+00  0.2296E+00
      1.697  0.1870E-01  0.1870E-01  0.2316E+00  0.2316E+00
      1.803  0.1609E-01  0.1609E-01  0.2333E+00  0.2333E+00
      1.910  0.7024E-02  0.7024E-02  0.2341E+00  0.2341E+00
      2.017  0.6365E-02  0.6365E-02  0.2348E+00  0.2348E+00
      2.124  0.1002E-01  0.1003E-01  0.2358E+00  0.2358E+00
      2.231  0.7440E-02  0.7440E-02  0.2366E+00  0.2366E+00
      2.338  0.8014E-02  0.8014E-02  0.2375E+00  0.2375E+00
      2.445  0.7505E-02  0.7505E-02  0.2383E+00  0.2383E+00
      2.552  0.9669E-02  0.9669E-02  0.2393E+00  0.2393E+00
      2.659  0.1159E-01  0.1159E-01  0.2406E+00  0.2406E+00
      2.765  0.7207E-02  0.7207E-02  0.2413E+00  0.2413E+00
      2.872  0.4590E-02  0.4587E-02  0.2418E+00  0.2418E+00
      2.979  0.8572E-02  0.8567E-02  0.2427E+00  0.2427E+00
      3.086  0.1216E-01  0.1215E-01  0.2440E+00  0.2440E+00
      3.193  0.9775E-02  0.9776E-02  0.2451E+00  0.2451E+00
      3.300  0.1001E-01  0.1001E-01  0.2461E+00  0.2461E+00
      3.407  0.9811E-02  0.9814E-02  0.2472E+00  0.2472E+00
      3.514  0.1036E-01  0.1036E-01  0.2483E+00  0.2483E+00
      3.621  0.1632E-01  0.1631E-01  0.2500E+00  0.2500E+00
      3.728  0.2074E-01  0.2075E-01  0.2523E+00  0.2523E+00
      3.834  0.2381E-01  0.2380E-01  0.2548E+00  0.2548E+00
      3.941  0.2250E-01  0.2250E-01  0.2572E+00  0.2572E+00
      4.048  0.2300E-01  0.2300E-01  0.2597E+00  0.2597E+00
      4.155  0.2363E-01  0.2364E-01  0.2622E+00  0.2622E+00
      4.262  0.2640E-01  0.2640E-01  0.2650E+00  0.2650E+00
      4.369  0.2439E-01  0.2439E-01  0.2676E+00  0.2676E+00
      4.476  0.2397E-01  0.2396E-01  0.2702E+00  0.2702E+00
      4.583  0.2240E-01  0.2239E-01  0.2726E+00  0.2726E+00
      4.690  0.2165E-01  0.2164E-01  0.2749E+00  0.2749E+00
      4.797  0.2628E-01  0.2627E-01  0.2777E+00  0.2777E+00
      4.903  0.2439E-01  0.2440E-01  0.2803E+00  0.2803E+00
      5.010  0.2233E-01  0.2232E-01  0.2827E+00  0.2827E+00
      5.117  0.2552E-01  0.2552E-01  0.2854E+00  0.2854E+00
      5.224  0.2597E-01  0.2597E-01  0.2882E+00  0.2882E+00
      5.331  0.2313E-01  0.2313E-01  0.2907E+00  0.2907E+00
      5.438  0.2169E-01  0.2171E-01  0.2930E+00  0.2930E+00
      5.545  0.2001E-01  0.2000E-01  0.2951E+00  0.2951E+00
      5.652  0.2722E-01  0.2721E-01  0.2980E+00  0.2980E+00
      5.759  0.2618E-01  0.2617E-01  0.3008E+00  0.3008E+00
      5.866  0.2260E-01  0.2263E-01  0.3033E+00  0.3033E+00
      5.972  0.1871E-01  0.1872E-01  0.3053E+00  0.3053E+00
      6.079  0.2013E-01  0.2013E-01  0.3074E+00  0.3074E+00
      6.186  0.1525E-01  0.1524E-01  0.3090E+00  0.3090E+00
      6.293  0.1843E-01  0.1840E-01  0.3110E+00  0.3110E+00
      6.400  0.2349E-01  0.2351E-01  0.3135E+00  0.3135E+00
      6.507  0.2396E-01  0.2397E-01  0.3161E+00  0.3161E+00
      6.614  0.2370E-01  0.2370E-01  0.3186E+00  0.3186E+00
      6.721  0.2670E-01  0.2667E-01  0.3215E+00  0.3215E+00
      6.828  0.3321E-01  0.3320E-01  0.3250E+00  0.3250E+00
      6.935  0.2718E-01  0.2721E-01  0.3279E+00  0.3279E+00
      7.041  0.2553E-01  0.2552E-01  0.3307E+00  0.3307E+00
      7.148  0.2722E-01  0.2722E-01  0.3336E+00  0.3336E+00
      7.255  0.2130E-01  0.2132E-01  0.3358E+00  0.3358E+00
      7.362  0.1806E-01  0.1806E-01  0.3378E+00  0.3378E+00
      7.469  0.2160E-01  0.2155E-01  0.3401E+00  0.3401E+00
      7.576  0.2286E-01  0.2288E-01  0.3425E+00  0.3425E+00
      7.683  0.2311E-01  0.2311E-01  0.3450E+00  0.3450E+00
      7.790  0.2832E-01  0.2831E-01  0.3480E+00  0.3480E+00
      7.897  0.3347E-01  0.3348E-01  0.3516E+00  0.3516E+00
      8.004  0.2872E-01  0.2871E-01  0.3547E+00  0.3547E+00
      8.110  0.3136E-01  0.3134E-01  0.3580E+00  0.3580E+00
      8.217  0.3264E-01  0.3268E-01  0.3615E+00  0.3615E+00
      8.324  0.3015E-01  0.3016E-01  0.3647E+00  0.3647E+00
      8.431  0.3842E-01  0.3841E-01  0.3688E+00  0.3688E+00
      8.538  0.2971E-01  0.2975E-01  0.3720E+00  0.3720E+00
      8.645  0.1447E-01  0.1448E-01  0.3736E+00  0.3736E+00
      8.752  0.6692E-02  0.6698E-02  0.3743E+00  0.3743E+00
      8.859  0.3427E-02  0.3429E-02  0.3746E+00  0.3746E+00
      8.966  0.2689E-02  0.2689E-02  0.3749E+00  0.3749E+00
      9.072  0.5723E-03  0.5723E-03  0.3750E+00  0.3750E+00
      9.179  0.2105E-04  0.2104E-04  0.3750E+00  0.3750E+00
      9.286  0.1032E-06  0.1031E-06  0.3750E+00  0.3750E+00
      9.393  0.5867E-10  0.5861E-10  0.3750E+00  0.3750E+00
      9.500  0.3641E-14  0.3636E-14  0.3750E+00  0.3750E+00
      9.607  0.0000E+00  0.0000E+00  0.3750E+00  0.3750E+00
      9.714  0.0000E+00  0.0000E+00  0.3750E+00  0.3750E+00
      9.821  0.0000E+00  0.0000E+00  0.3750E+00  0.3750E+00
      9.928  0.0000E+00  0.0000E+00  0.3750E+00  0.3750E+00
     10.035  0.0000E+00  0.0000E+00  0.3750E+00  0.3750E+00
     10.141  0.0000E+00  0.0000E+00  0.3750E+00  0.3750E+00
     10.248  0.0000E+00  0.0000E+00  0.3750E+00  0.3750E+00
     10.355  0.0000E+00  0.0000E+00  0.3750E+00  0.3750E+00
