Lattice                                 
           1
     4.191563    2.420000    0.000000
    -4.191563    2.420000    0.000000
     0.000000    0.000000   15.000000
   B    C 
     4    11
Direct configuration=     1
   0.00415361  0.00267210  0.12034134
   0.35695335  0.00285503  0.09748893
   0.00423858  0.35550699  0.09749256
   0.65142295  0.65006557  0.09747688
   0.32808646  0.32671938  0.10030508
   0.68027775  0.00278085  0.10027562
   0.00416530  0.67883808  0.10026559
   0.99999933  0.49999967  0.33373333
   0.16666633  0.33333267  0.33373333
   0.99999933  0.99999967  0.33373333
   0.16666633  0.83333267  0.33373333
   0.49999933  0.49999967  0.33373333
   0.66666633  0.33333267  0.33373333
   0.49999933  0.99999967  0.33373333
   0.66666633  0.83333267  0.33373333
Direct configuration=     2
   0.00418088  0.00275361  0.11926768
   0.35588569  0.00303172  0.09782149
   0.00395888  0.35421602  0.09782360
   0.65270707  0.65108932  0.09781288
   0.32482572  0.32311470  0.10029534
   0.68384347  0.00310534  0.10027374
   0.00388657  0.68212117  0.10026640
   0.00012702  0.49997650  0.33374204
   0.16687382  0.33394546  0.33380110
   0.99999916  0.99999362  0.33363227
   0.16706414  0.83312379  0.33380397
   0.50003870  0.50016297  0.33374491
   0.66666623  0.33333786  0.33368489
   0.49985120  0.99987109  0.33374157
   0.66605211  0.83292415  0.33380078
Direct configuration=     3
   0.00416616  0.00270961  0.11984726
   0.35646203  0.00293634  0.09764197
   0.00410987  0.35491290  0.09764490
   0.65201389  0.65053669  0.09763150
   0.32658591  0.32506055  0.10030060
   0.68191865  0.00293018  0.10027476
   0.00403703  0.68034892  0.10026596
   0.00005809  0.49998901  0.33373734
   0.16676182  0.33361467  0.33376452
   0.99999925  0.99999688  0.33368683
   0.16684940  0.83323654  0.33376584
   0.50001745  0.50007482  0.33373866
   0.66666629  0.33333506  0.33371104
   0.49993116  0.99994050  0.33373712
   0.66638368  0.83314467  0.33376437
Direct configuration=     4
   0.00418036  0.00276632  0.11896318
   0.35689438  0.00305046  0.09793808
   0.00391248  0.35520480  0.09793949
   0.65173703  0.65007377  0.09793095
   0.32667798  0.32493539  0.10026245
   0.68202231  0.00312216  0.10024426
   0.00385837  0.68027548  0.10023754
  -0.00008194  0.50000918  0.33375671
   0.16662272  0.33315510  0.33380885
   0.99999998  0.00000279  0.33362792
   0.16654152  0.83338307  0.33381235
   0.49998635  0.49990688  0.33376019
   0.66666940  0.33333222  0.33366624
   0.50008886  0.00008225  0.33375607
   0.66685084  0.83346745  0.33380837
Direct configuration=     5
   0.00419879  0.00283989  0.11781648
   0.35745517  0.00319848  0.09832216
   0.00365646  0.35558341  0.09832159
   0.65137792  0.64947335  0.09831935
   0.32679741  0.32477305  0.10021297
   0.68215677  0.00337116  0.10020472
   0.00362665  0.68018024  0.10020069
  -0.00026357  0.50003535  0.33378184
   0.16644231  0.33255901  0.33386635
   0.00000093  0.00001046  0.33355152
   0.16614218  0.83357312  0.33387267
   0.49994601  0.49968906  0.33378811
   0.66667344  0.33332855  0.33360814
   0.50029341  0.00026610  0.33378065
   0.66745678  0.83388612  0.33386544
Direct configuration=     6
   0.00420120  0.00285036  0.11758110
   0.35756176  0.00321724  0.09839149
   0.00362180  0.35566713  0.09839057
   0.65129897  0.64936074  0.09838942
   0.32686113  0.32480297  0.10021213
   0.68212300  0.00339874  0.10020575
   0.00359842  0.68012055  0.10020219
  -0.00023102  0.50003280  0.33378753
   0.16645842  0.33263272  0.33387464
   0.00000222  0.00000998  0.33354312
   0.16619721  0.83355598  0.33388137
   0.49995205  0.49972533  0.33379420
   0.66667297  0.33332935  0.33359926
   0.50026043  0.00023476  0.33378624
   0.66738210  0.83382869  0.33387366
Direct configuration=     7
   0.00420842  0.00288180  0.11687494
   0.35788154  0.00327352  0.09859948
   0.00351783  0.35591830  0.09859752
   0.65106210  0.64902292  0.09859964
   0.32705232  0.32489270  0.10020962
   0.68202167  0.00348149  0.10020887
   0.00351373  0.67994147  0.10020668
  -0.00013340  0.50002512  0.33380460
   0.16650675  0.33285388  0.33389952
   0.00000610  0.00000854  0.33351791
   0.16636230  0.83350455  0.33390748
   0.49997019  0.49983413  0.33381247
   0.66667156  0.33333176  0.33357262
   0.50016149  0.00014075  0.33380301
   0.66715808  0.83365641  0.33389831
Direct configuration=     8
   0.00422287  0.00294467  0.11546263
   0.35852108  0.00338606  0.09901545
   0.00330988  0.35642063  0.09901142
   0.65058837  0.64834727  0.09902009
   0.32743468  0.32507217  0.10020459
   0.68181901  0.00364698  0.10021510
   0.00334435  0.67958333  0.10021568
   0.00006185  0.50000977  0.33383874
   0.16660342  0.33329619  0.33394927
   0.00001386  0.00000566  0.33346749
   0.16669247  0.83340170  0.33395970
   0.50000646  0.50005173  0.33384901
   0.66666873  0.33333659  0.33351935
   0.49996360 -0.00004727  0.33383654
   0.66671003  0.83331185  0.33394761
Direct configuration=     9
   0.00425176  0.00307041  0.11263800
   0.35980018  0.00361116  0.09984741
   0.00289398  0.35742529  0.09983923
   0.64964091  0.64699598  0.09986098
   0.32819941  0.32543110  0.10019454
   0.68141369  0.00397796  0.10022755
   0.00300559  0.67886705  0.10023367
   0.00045236  0.49997907  0.33390702
   0.16679675  0.33418082  0.33404878
   0.00002936 -0.00000009  0.33336665
   0.16735282  0.83319598  0.33406414
   0.50007901  0.50048693  0.33392209
   0.66666308  0.33334624  0.33341280
   0.49956783 -0.00042332  0.33390361
   0.66581394  0.83262274  0.33404621
Direct configuration=    10
   0.00423309  0.00298916  0.11446327
   0.35897363  0.00346571  0.09930980
   0.00316273  0.35677608  0.09930431
   0.65025316  0.64786918  0.09931760
   0.32770524  0.32519916  0.10020103
   0.68167560  0.00376408  0.10021950
   0.00322449  0.67932991  0.10022204
   0.00020001  0.49999891  0.33386289
   0.16667182  0.33360918  0.33398448
   0.00001934  0.00000363  0.33343181
   0.16692611  0.83332891  0.33399665
   0.50003213  0.50020570  0.33387487
   0.66666673  0.33334000  0.33348165
   0.49982358 -0.00018032  0.33386027
   0.66639299  0.83306804  0.33398249
Direct configuration=    11
   0.00423042  0.00298085  0.11393906
   0.35896301  0.00343342  0.09939308
   0.00320496  0.35680689  0.09938742
   0.65022932  0.64787944  0.09940128
   0.32773454  0.32530705  0.10027042
   0.68157080  0.00367957  0.10029136
   0.00328820  0.67930180  0.10029428
   0.00012852  0.50000896  0.33387433
   0.16672639  0.33361385  0.33398060
   0.00001192  0.00000306  0.33346235
   0.16689134  0.83328425  0.33399247
   0.50001513  0.50012825  0.33388590
   0.66667352  0.33334091  0.33348996
   0.49989423 -0.00011489  0.33387158
   0.66639837  0.83311391  0.33397858
Direct configuration=    12
   0.00422239  0.00295592  0.11236645
   0.35893116  0.00333654  0.09964292
   0.00333166  0.35689934  0.09963677
   0.65015779  0.64791023  0.09965234
   0.32782243  0.32563074  0.10047857
   0.68125638  0.00342606  0.10050691
   0.00347931  0.67921748  0.10051097
  -0.00008596  0.50003911  0.33390863
   0.16689011  0.33362788  0.33396896
  -0.00001033  0.00000134  0.33355397
   0.16678705  0.83315028  0.33397992
   0.49996411  0.49989590  0.33391898
   0.66669387  0.33334363  0.33351490
   0.50010618  0.00008140  0.33390551
   0.66641452  0.83325149  0.33396685
Direct configuration=    13
   0.00420634  0.00290607  0.10922122
   0.35886744  0.00314280  0.10014259
   0.00358505  0.35708423  0.10013547
   0.65001474  0.64797180  0.10015445
   0.32799820  0.32627811  0.10089487
   0.68062755  0.00291903  0.10093803
   0.00386153  0.67904882  0.10094436
  -0.00051492  0.50009941  0.33397723
   0.16721756  0.33365593  0.33394570
  -0.00005484 -0.00000211  0.33373722
   0.16657846  0.83288232  0.33395482
   0.49986208  0.49943120  0.33398515
   0.66673457  0.33334908  0.33356478
   0.50053010  0.00047398  0.33397338
   0.66644682  0.83352667  0.33394339
Direct configuration=    14
   0.00420461  0.00289369  0.10842892
   0.35885463  0.00308427  0.10025413
   0.00368037  0.35713823  0.10024735
   0.64994684  0.64799385  0.10026569
   0.32797159  0.32636944  0.10101208
   0.68053457  0.00281369  0.10105694
   0.00395746  0.67905093  0.10106334
  -0.00027687  0.50002887  0.33398106
   0.16694275  0.33352551  0.33394563
  -0.00000997  0.00000617  0.33379052
   0.16665249  0.83311402  0.33395374
   0.49997860  0.49971525  0.33398775
   0.66670123  0.33334565  0.33360495
   0.50029080  0.00028071  0.33397712
   0.66653156  0.83340706  0.33394346
Direct configuration=    15
   0.00420227  0.00287691  0.10735561
   0.35883728  0.00300498  0.10040522
   0.00380951  0.35721138  0.10039891
   0.64985485  0.64802371  0.10041638
   0.32793554  0.32649317  0.10117087
   0.68040862  0.00267099  0.10121802
   0.00408742  0.67905379  0.10122453
   0.00004560  0.49993331  0.33398625
   0.16657048  0.33334885  0.33394554
   0.00005081  0.00001739  0.33386272
   0.16675278  0.83342789  0.33395226
   0.50013645  0.50010004  0.33399126
   0.66665606  0.33334101  0.33365938
   0.49996664  0.00001888  0.33398218
   0.66664635  0.83324503  0.33394355
Direct configuration=    16
   0.00420179  0.00287198  0.10718168
   0.35889296  0.00299923  0.10043289
   0.00383520  0.35726587  0.10042726
   0.64977173  0.64797797  0.10044302
   0.32788612  0.32641930  0.10119022
   0.68047776  0.00272020  0.10123515
   0.00406667  0.67907837  0.10124110
   0.00008509  0.49998289  0.33397224
   0.16662616  0.33337251  0.33395767
   0.00002866  0.00001321  0.33387137
   0.16676032  0.83339835  0.33396385
   0.50006082  0.50010541  0.33397664
   0.66668021  0.33334563  0.33369535
   0.49993624 -0.00004558  0.33396837
   0.66665093  0.83326199  0.33395587
Direct configuration=    17
   0.00420079  0.00286169  0.10681844
   0.35900924  0.00298722  0.10049067
   0.00388887  0.35737967  0.10048646
   0.64959815  0.64788243  0.10049864
   0.32778291  0.32626505  0.10123064
   0.68062216  0.00282297  0.10127093
   0.00402333  0.67912970  0.10127571
   0.00016755  0.50008644  0.33394297
   0.16674246  0.33342192  0.33398300
  -0.00001758  0.00000448  0.33388944
   0.16677607  0.83333667  0.33398804
   0.49990285  0.50011663  0.33394612
   0.66673063  0.33335529  0.33377049
   0.49987274 -0.00018020  0.33393952
   0.66666049  0.83329739  0.33398161
Direct configuration=    18
   0.00418941  0.00283169  0.10660668
   0.35912056  0.00298945  0.10053357
   0.00390943  0.35748202  0.10053063
   0.64945631  0.64778579  0.10053936
   0.32776634  0.32617102  0.10124009
   0.68072151  0.00293561  0.10127485
   0.00395677  0.67913007  0.10127842
   0.00008835  0.50005519  0.33392577
   0.16673592  0.33342530  0.33400095
   0.00001376  0.00001089  0.33390244
   0.16673063  0.83330739  0.33400522
   0.49997260  0.50004624  0.33392803
   0.66669758  0.33334980  0.33382400
   0.49998116 -0.00006272  0.33392272
   0.66662033  0.83330959  0.33399994
Direct configuration=    19
   0.00418184  0.00281173  0.10646579
   0.35919463  0.00299094  0.10056212
   0.00392311  0.35755011  0.10056002
   0.64936194  0.64772149  0.10056645
   0.32775531  0.32610847  0.10124638
   0.68078760  0.00301054  0.10127746
   0.00391249  0.67913032  0.10128023
   0.00003566  0.50003441  0.33391432
   0.16673156  0.33342755  0.33401290
   0.00003461  0.00001516  0.33391109
   0.16670041  0.83328790  0.33401665
   0.50001900  0.49999941  0.33391600
   0.66667559  0.33334615  0.33385959
   0.50005329  0.00001544  0.33391154
   0.66659362  0.83331770  0.33401213
Direct configuration=    20
   0.00416515  0.00277329  0.10636129
   0.35923562  0.00300188  0.10059148
   0.00391526  0.35758570  0.10059017
   0.64932154  0.64768627  0.10059413
   0.32781951  0.32612263  0.10123727
   0.68078910  0.00306721  0.10126345
   0.00386640  0.67908411  0.10126518
   0.00000768  0.49997818  0.33392224
   0.16668500  0.33340857  0.33401412
   0.00002789  0.00001434  0.33392568
   0.16674568  0.83334610  0.33401773
   0.50006703  0.50003377  0.33392375
   0.66668373  0.33334715  0.33387276
   0.50000983  0.00003406  0.33391980
   0.66662124  0.83328408  0.33401360
Direct configuration=    21
   0.00415257  0.00274429  0.10628245
   0.35926655  0.00301014  0.10061362
   0.00390933  0.35761254  0.10061292
   0.64929106  0.64765969  0.10061502
   0.32786795  0.32613331  0.10123041
   0.68079022  0.00310996  0.10125287
   0.00383163  0.67904924  0.10125384
  -0.00001343  0.49993577  0.33392822
   0.16664986  0.33339425  0.33401504
   0.00002283  0.00001372  0.33393669
   0.16677984  0.83339001  0.33401855
   0.50010326  0.50005969  0.33392959
   0.66668987  0.33334790  0.33388269
   0.49997704  0.00004810  0.33392604
   0.66664208  0.83325872  0.33401471
Direct configuration=    22
   0.00413948  0.00271364  0.10617100
   0.35926973  0.00303146  0.10064551
   0.00389241  0.35760044  0.10064567
   0.64930183  0.64766175  0.10064492
   0.32792464  0.32615626  0.10121534
   0.68077809  0.00314675  0.10123146
   0.00379756  0.67900555  0.10123112
   0.00003350  0.49997844  0.33394897
   0.16667424  0.33339832  0.33401282
   0.00001756  0.00001259  0.33395448
   0.16676985  0.83337313  0.33401644
   0.50005484  0.50006828  0.33395047
   0.66669700  0.33334960  0.33388454
   0.49996298 -0.00000400  0.33394717
   0.66664696  0.83327511  0.33401276
Direct configuration=    23
   0.00412442  0.00267836  0.10604269
   0.35927339  0.00305601  0.10068222
   0.00387292  0.35758650  0.10068337
   0.64931422  0.64766411  0.10067935
   0.32798992  0.32618269  0.10119799
   0.68076411  0.00318911  0.10120681
   0.00375833  0.67895526  0.10120497
   0.00008752  0.50002758  0.33397287
   0.16670232  0.33340301  0.33401026
   0.00001150  0.00001128  0.33397496
   0.16675833  0.83335369  0.33401400
   0.49999910  0.50007817  0.33397451
   0.66670520  0.33335156  0.33388667
   0.49994680 -0.00006398  0.33397150
   0.66665258  0.83329399  0.33401051
Direct configuration=    24
   0.00413245  0.00269447  0.10592628
   0.35923839  0.00308106  0.10070383
   0.00386072  0.35752242  0.10070566
   0.64936696  0.64770216  0.10069921
   0.32795166  0.32616162  0.10118906
   0.68077204  0.00317880  0.10119161
   0.00376853  0.67896760  0.10118849
   0.00006674  0.50003285  0.33399391
   0.16670824  0.33340877  0.33401699
   0.00003371  0.00001623  0.33398337
   0.16671878  0.83332268  0.33402105
   0.50002006  0.50003592  0.33399603
   0.66668365  0.33334894  0.33388699
   0.50001584 -0.00001612  0.33399278
   0.66662289  0.83330993  0.33401740
Direct configuration=    25
   0.00413665  0.00270291  0.10586530
   0.35922005  0.00309418  0.10071515
   0.00385434  0.35748886  0.10071734
   0.64939459  0.64772209  0.10070961
   0.32793162  0.32615058  0.10118439
   0.68077620  0.00317339  0.10118365
   0.00377388  0.67897406  0.10117986
   0.00005585  0.50003562  0.33400493
   0.16671134  0.33341179  0.33402052
   0.00004535  0.00001882  0.33398778
   0.16669806  0.83330643  0.33402474
   0.50003105  0.50001379  0.33400730
   0.66667236  0.33334757  0.33388716
   0.50005201  0.00000895  0.33400393
   0.66660734  0.83331829  0.33402101
Direct configuration=    26
   0.00415114  0.00273559  0.10573854
   0.35919376  0.00310886  0.10072531
   0.00384642  0.35744244  0.10072790
   0.64943326  0.64774462  0.10071848
   0.32787867  0.32614537  0.10118331
   0.68076403  0.00312629  0.10117694
   0.00381208  0.67899806  0.10117202
   0.00001490  0.49999365  0.33402134
   0.16670192  0.33341500  0.33403913
   0.00002897  0.00001662  0.33398751
   0.16674604  0.83333903  0.33404374
   0.50005382  0.50002790  0.33402435
   0.66669134  0.33335057  0.33389393
   0.50001875  0.00003006  0.33402047
   0.66662557  0.83329329  0.33403969
Direct configuration=    27
   0.00416343  0.00276329  0.10563108
   0.35917148  0.00312130  0.10073393
   0.00383971  0.35740309  0.10073686
   0.64946604  0.64776373  0.10072600
   0.32783379  0.32614095  0.10118240
   0.68075372  0.00308636  0.10117125
   0.00384446  0.67901839  0.10116538
  -0.00001981  0.49995807  0.33403524
   0.16669394  0.33341772  0.33405490
   0.00001508  0.00001476  0.33398728
   0.16678671  0.83336667  0.33405985
   0.50007312  0.50003986  0.33403880
   0.66670743  0.33335311  0.33389967
   0.49999055  0.00004796  0.33403450
   0.66664102  0.83327209  0.33405552
Direct configuration=    28
   0.00416765  0.00277570  0.10552359
   0.35917585  0.00311903  0.10073615
   0.00383429  0.35741028  0.10073917
   0.64946485  0.64775136  0.10072761
   0.32783061  0.32617302  0.10118498
   0.68071803  0.00304187  0.10117016
   0.00387422  0.67902139  0.10116360
   0.00000991  0.49997290  0.33404609
   0.16669192  0.33341464  0.33407439
   0.00001683  0.00001491  0.33398670
   0.16678507  0.83336930  0.33407956
   0.50006117  0.50005488  0.33405008
   0.66670743  0.33335341  0.33391023
   0.49997796  0.00002077  0.33404536
   0.66664487  0.83327388  0.33407499
Direct configuration=    29
   0.00418033  0.00281292  0.10520111
   0.35918895  0.00311221  0.10074282
   0.00381802  0.35743185  0.10074608
   0.64946131  0.64771425  0.10073246
   0.32782106  0.32626924  0.10119270
   0.68061096  0.00290839  0.10116690
   0.00396349  0.67903038  0.10115826
   0.00009908  0.50001740  0.33407863
   0.16668588  0.33340542  0.33413286
   0.00002208  0.00001536  0.33398496
   0.16678015  0.83337721  0.33413870
   0.50002532  0.50009995  0.33408392
   0.66670743  0.33335430  0.33394191
   0.49994018 -0.00006080  0.33407795
   0.66665642  0.83327925  0.33413342
Direct configuration=    30
   0.00418528  0.00282746  0.10507516
   0.35919407  0.00310954  0.10074542
   0.00381167  0.35744027  0.10074879
   0.64945992  0.64769976  0.10073435
   0.32781733  0.32630683  0.10119571
   0.68056915  0.00285627  0.10116563
   0.00399835  0.67903389  0.10115617
   0.00013391  0.50003477  0.33409134
   0.16668352  0.33340181  0.33415569
   0.00002413  0.00001554  0.33398428
   0.16677823  0.83338030  0.33416179
   0.50001132  0.50011755  0.33409713
   0.66670743  0.33335465  0.33395428
   0.49992542 -0.00009266  0.33409068
   0.66666093  0.83328135  0.33415624
Direct configuration=    31
   0.00418069  0.00282282  0.10494281
   0.35921283  0.00309540  0.10074711
   0.00380713  0.35747640  0.10075039
   0.64943855  0.64767272  0.10073580
   0.32783436  0.32633409  0.10119684
   0.68054493  0.00283221  0.10116381
   0.00400816  0.67903464  0.10115382
   0.00011463  0.50003955  0.33410692
   0.16669348  0.33340091  0.33417527
   0.00003388  0.00001862  0.33399426
   0.16675245  0.83336113  0.33418137
   0.50001791  0.50008659  0.33411293
   0.66669979  0.33335448  0.33396942
   0.49996839 -0.00006125  0.33410619
   0.66665350  0.83329903  0.33417573
Direct configuration=    32
   0.00417070  0.00281273  0.10465489
   0.35925363  0.00306464  0.10075079
   0.00379724  0.35755500  0.10075387
   0.64939204  0.64761390  0.10073897
   0.32787140  0.32639342  0.10119927
   0.68049225  0.00277988  0.10115984
   0.00402948  0.67903626  0.10114870
   0.00007269  0.50004995  0.33414081
   0.16671516  0.33339894  0.33421785
   0.00005508  0.00002531  0.33401596
   0.16669637  0.83331942  0.33422396
   0.50003224  0.50001923  0.33414731
   0.66668316  0.33335410  0.33400236
   0.50006188  0.00000706  0.33413993
   0.66663735  0.83333749  0.33421815
Direct configuration=    33
   0.00416179  0.00279992  0.10449460
   0.35927343  0.00304283  0.10075530
   0.00379879  0.35759589  0.10075811
   0.64935988  0.64759082  0.10074390
   0.32787969  0.32636378  0.10119297
   0.68052258  0.00281184  0.10115263
   0.00399877  0.67904330  0.10114136
   0.00002915  0.50001602  0.33416467
   0.16671970  0.33341139  0.33423264
   0.00004222  0.00002429  0.33404738
   0.16673369  0.83333476  0.33423834
   0.50005101  0.50001983  0.33417096
   0.66669922  0.33335715  0.33402338
   0.50004694  0.00003604  0.33416364
   0.66664380  0.83331948  0.33423279
Direct configuration=    34
   0.00414379  0.00277403  0.10417058
   0.35931347  0.00299874  0.10076441
   0.00380194  0.35767856  0.10076668
   0.64929486  0.64754417  0.10075385
   0.32789645  0.32630386  0.10118023
   0.68058389  0.00287645  0.10113804
   0.00393668  0.67905753  0.10112651
  -0.00005886  0.49994742  0.33421291
   0.16672887  0.33343656  0.33426253
   0.00001623  0.00002221  0.33411091
   0.16680913  0.83336578  0.33426742
   0.50008896  0.50002103  0.33421877
   0.66673168  0.33336331  0.33406589
   0.50001676  0.00009462  0.33421155
   0.66665682  0.83328307  0.33426239
Direct configuration=    35
   0.00414140  0.00277348  0.10400254
   0.35932115  0.00298425  0.10077295
   0.00381048  0.35769289  0.10077489
   0.64926720  0.64753657  0.10076323
   0.32789281  0.32624481  0.10116550
   0.68063583  0.00294121  0.10112452
   0.00388912  0.67905184  0.10111327
  -0.00000208  0.49997099  0.33423859
   0.16671675  0.33343254  0.33427576
   0.00002888  0.00002392  0.33415272
   0.16679898  0.83336819  0.33428002
   0.50008198  0.50004796  0.33424395
   0.66672207  0.33336231  0.33409224
   0.50000515  0.00005353  0.33423702
   0.66665095  0.83328283  0.33427547
Direct configuration=    36
   0.00413698  0.00277246  0.10369155
   0.35933538  0.00295743  0.10078873
   0.00382629  0.35771941  0.10079006
   0.64921602  0.64752250  0.10078059
   0.32788605  0.32613553  0.10113824
   0.68073195  0.00306109  0.10109950
   0.00380111  0.67904130  0.10108876
   0.00010301  0.50001462  0.33428612
   0.16669432  0.33342511  0.33430026
   0.00005230  0.00002709  0.33423010
   0.16678019  0.83337264  0.33430335
   0.50006908  0.50009781  0.33429054
   0.66670426  0.33336047  0.33414101
   0.49998366 -0.00002251  0.33428416
   0.66664007  0.83328239  0.33429968
Direct configuration=    37
   0.00413635  0.00277231  0.10364740
   0.35933740  0.00295363  0.10079098
   0.00382853  0.35772317  0.10079222
   0.64920875  0.64752051  0.10078306
   0.32788510  0.32612001  0.10113438
   0.68074559  0.00307811  0.10109595
   0.00378861  0.67903980  0.10108528
   0.00011793  0.50002082  0.33429287
   0.16669113  0.33342405  0.33430373
   0.00005563  0.00002754  0.33424108
   0.16677753  0.83337328  0.33430666
   0.50006725  0.50010488  0.33429715
   0.66670174  0.33336021  0.33414793
   0.49998060 -0.00003331  0.33429086
   0.66663852  0.83328232  0.33430312
Direct configuration=    38
   0.00414022  0.00278007  0.10348948
   0.35932630  0.00295910  0.10080355
   0.00383968  0.35769935  0.10080449
   0.64919968  0.64753140  0.10079677
   0.32790178  0.32610805  0.10110979
   0.68075091  0.00312635  0.10107532
   0.00375839  0.67899482  0.10106543
   0.00010644  0.50004321  0.33431191
   0.16671459  0.33340789  0.33432347
   0.00005276  0.00002873  0.33427736
   0.16674761  0.83335600  0.33432586
   0.50004248  0.50007358  0.33431561
   0.66670808  0.33336257  0.33418115
   0.50000955 -0.00002423  0.33430971
   0.66666217  0.83332044  0.33432275
Direct configuration=    39
   0.00414427  0.00278816  0.10332467
   0.35931471  0.00296482  0.10081667
   0.00385132  0.35767449  0.10081730
   0.64919021  0.64754277  0.10081109
   0.32791920  0.32609556  0.10108413
   0.68075646  0.00317670  0.10105379
   0.00372684  0.67894788  0.10104471
   0.00009445  0.50006658  0.33433179
   0.16673908  0.33339102  0.33434406
   0.00004977  0.00002997  0.33431523
   0.16671639  0.83333798  0.33434591
   0.50001663  0.50004090  0.33433488
   0.66671471  0.33336503  0.33421582
   0.50003975 -0.00001476  0.33432939
   0.66668685  0.83336023  0.33434323
Direct configuration=    40
   0.00414013  0.00277468  0.10317699
   0.35929099  0.00298319  0.10082994
   0.00385773  0.35763800  0.10083032
   0.64920760  0.64756876  0.10082562
   0.32795082  0.32614652  0.10105398
   0.68070939  0.00316766  0.10102994
   0.00373270  0.67890302  0.10102208
   0.00004947  0.50001837  0.33434510
   0.16672713  0.33340904  0.33437240
   0.00004605  0.00003058  0.33433899
   0.16675945  0.83335994  0.33437409
   0.50005981  0.50004815  0.33434777
   0.66672225  0.33336679  0.33425132
   0.50002913  0.00002657  0.33434260
   0.66667803  0.83332605  0.33437153
Direct configuration=    41
   0.00413773  0.00276686  0.10309129
   0.35927723  0.00299385  0.10083764
   0.00386144  0.35761682  0.10083788
   0.64921769  0.64758385  0.10083405
   0.32796918  0.32617609  0.10103649
   0.68068208  0.00316242  0.10101610
   0.00373610  0.67887699  0.10100896
   0.00002336  0.49999040  0.33435283
   0.16672019  0.33341950  0.33438884
   0.00004389  0.00003093  0.33435277
   0.16678443  0.83337269  0.33439044
   0.50008486  0.50005236  0.33435525
   0.66672662  0.33336781  0.33427191
   0.50002296  0.00005055  0.33435027
   0.66667290  0.83330622  0.33438795
Direct configuration=    42
   0.00412511  0.00273547  0.10298856
   0.35926306  0.00301228  0.10084367
   0.00385726  0.35759897  0.10084381
   0.64924699  0.64760504  0.10084093
   0.32796336  0.32622302  0.10101460
   0.68064230  0.00310349  0.10100033
   0.00377264  0.67889182  0.10099441
   0.00007220  0.50001225  0.33436428
   0.16671460  0.33342867  0.33441313
   0.00005753  0.00003257  0.33436126
   0.16677845  0.83336700  0.33441510
   0.50008063  0.50007204  0.33436665
   0.66671506  0.33336640  0.33429189
   0.50001949  0.00001831  0.33436175
   0.66665200  0.83330000  0.33441231
Direct configuration=    43
   0.00411867  0.00271946  0.10293619
   0.35925583  0.00302168  0.10084674
   0.00385513  0.35758987  0.10084683
   0.64926193  0.64761584  0.10084443
   0.32796040  0.32624695  0.10100344
   0.68062202  0.00307345  0.10099229
   0.00379127  0.67889938  0.10098699
   0.00009710  0.50002339  0.33437011
   0.16671174  0.33343335  0.33442551
   0.00006448  0.00003341  0.33436558
   0.16677539  0.83336410  0.33442767
   0.50007847  0.50008207  0.33437247
   0.66670916  0.33336569  0.33430207
   0.50001773  0.00000187  0.33436760
   0.66664134  0.83329683  0.33442473
Direct configuration=    44
   0.00411263  0.00270496  0.10285199
   0.35926686  0.00303908  0.10084557
   0.00384534  0.35759135  0.10084570
   0.64926979  0.64760988  0.10084375
   0.32791722  0.32625956  0.10098845
   0.68060813  0.00301298  0.10098303
   0.00383542  0.67894262  0.10097886
   0.00008487  0.50004222  0.33438718
   0.16673401  0.33341222  0.33444365
   0.00005124  0.00003257  0.33437119
   0.16676017  0.83335942  0.33444651
   0.50004501  0.50006112  0.33438977
   0.66672521  0.33336901  0.33430915
   0.50002394 -0.00000102  0.33438483
   0.66668083  0.83333137  0.33444303
Direct configuration=    45
   0.00411117  0.00270147  0.10283170
   0.35926952  0.00304327  0.10084528
   0.00384298  0.35759171  0.10084542
   0.64927168  0.64760844  0.10084358
   0.32790681  0.32626260  0.10098483
   0.68060478  0.00299840  0.10098080
   0.00384606  0.67895304  0.10097691
   0.00008192  0.50004676  0.33439129
   0.16673938  0.33340713  0.33444803
   0.00004805  0.00003237  0.33437254
   0.16675650  0.83335829  0.33445105
   0.50003694  0.50005607  0.33439394
   0.66672908  0.33336981  0.33431086
   0.50002544 -0.00000172  0.33438898
   0.66669035  0.83333969  0.33444745
Direct configuration=    46
   0.00411523  0.00271227  0.10275289
   0.35930153  0.00305518  0.10083811
   0.00383203  0.35760860  0.10083839
   0.64924863  0.64757378  0.10083656
   0.32786125  0.32625573  0.10097377
   0.68060367  0.00296149  0.10097503
   0.00388020  0.67898534  0.10097219
   0.00006310  0.50002417  0.33441438
   0.16672438  0.33340675  0.33446199
   0.00005386  0.00003449  0.33438054
   0.16676480  0.83337025  0.33446582
   0.50006559  0.50005656  0.33441737
   0.66672611  0.33336997  0.33431170
   0.50003234  0.00002429  0.33441228
   0.66668795  0.83332845  0.33446164
Direct configuration=    47
   0.00411733  0.00271786  0.10271204
   0.35931812  0.00306136  0.10083438
   0.00382636  0.35761736  0.10083474
   0.64923668  0.64755581  0.10083293
   0.32783763  0.32625217  0.10096804
   0.68060310  0.00294236  0.10097204
   0.00389789  0.67900208  0.10096974
   0.00005335  0.50001246  0.33442635
   0.16671661  0.33340656  0.33446923
   0.00005686  0.00003559  0.33438469
   0.16676910  0.83337645  0.33447348
   0.50008045  0.50005682  0.33442952
   0.66672456  0.33337006  0.33431214
   0.50003592  0.00003777  0.33442435
   0.66668671  0.83332263  0.33446900
Direct configuration=    48
   0.00412153  0.00272906  0.10263033
   0.35935131  0.00307371  0.10082694
   0.00381502  0.35763486  0.10082745
   0.64921278  0.64751987  0.10082565
   0.32779039  0.32624505  0.10095657
   0.68060195  0.00290410  0.10096605
   0.00393328  0.67903557  0.10096486
   0.00003383  0.49998904  0.33445029
   0.16670107  0.33340616  0.33448371
   0.00006288  0.00003778  0.33439298
   0.16677771  0.83338885  0.33448879
   0.50011015  0.50005733  0.33445381
   0.66672147  0.33337022  0.33431301
   0.50004308  0.00006474  0.33444851
   0.66668422  0.83331098  0.33448372
Direct configuration=    49
   0.00411810  0.00271991  0.10269708
   0.35932420  0.00306362  0.10083302
   0.00382428  0.35762056  0.10083340
   0.64923230  0.64754923  0.10083159
   0.32782898  0.32625087  0.10096594
   0.68060289  0.00293536  0.10097094
   0.00390437  0.67900821  0.10096885
   0.00004977  0.50000817  0.33443073
   0.16671377  0.33340648  0.33447188
   0.00005797  0.00003599  0.33438621
   0.16677068  0.83337872  0.33447628
   0.50008588  0.50005691  0.33443396
   0.66672400  0.33337009  0.33431230
   0.50003723  0.00004271  0.33442878
   0.66668625  0.83332050  0.33447170
Direct configuration=    50
   0.00412364  0.00273816  0.10260996
   0.35935145  0.00306124  0.10082151
   0.00381333  0.35764178  0.10082210
   0.64919848  0.64750959  0.10081998
   0.32782970  0.32624839  0.10095395
   0.68060014  0.00294057  0.10096367
   0.00390533  0.67899992  0.10096255
   0.00008498  0.50002611  0.33445669
   0.16672601  0.33343381  0.33448780
   0.00006352  0.00003620  0.33439947
   0.16678067  0.83336547  0.33449294
   0.50007651  0.50007300  0.33446016