  16  16   0   4
  0.2065628E+02  0.5044000E-09  0.5044000E-09  0.1500000E-08  0.5000000E-15
  1.000000000000000E-004
  CAR 
 Lattice                                 
      9.73595472    -21.26433618  301     -1.04988206      1.00000000
    -21.264  0.0000E+00  0.0000E+00
    -21.161  0.0000E+00  0.0000E+00
    -21.058  0.0000E+00  0.0000E+00
    -20.954  0.0000E+00  0.0000E+00
    -20.851  0.0000E+00  0.0000E+00
    -20.748  0.0000E+00  0.0000E+00
    -20.644  0.0000E+00  0.0000E+00
    -20.541  0.0000E+00  0.0000E+00
    -20.438  0.2904E-19  0.3001E-20
    -20.334  0.3014E-14  0.3115E-15
    -20.231  0.3233E-10  0.3341E-11
    -20.128  0.4634E-07  0.4792E-08
    -20.024  0.9483E-05  0.9847E-06
    -19.921  0.3149E-03  0.3352E-04
    -19.818  0.2133E-02  0.2540E-03
    -19.714  0.4380E-02  0.7066E-03
    -19.611  0.4975E-02  0.1221E-02
    -19.508  0.4996E-02  0.1737E-02
    -19.404  0.5015E-02  0.2255E-02
    -19.301  0.5054E-02  0.2778E-02
    -19.198  0.4937E-02  0.3288E-02
    -19.094  0.5177E-02  0.3823E-02
    -18.991  0.4881E-02  0.4327E-02
    -18.888  0.5158E-02  0.4860E-02
    -18.784  0.5113E-02  0.5388E-02
    -18.681  0.4733E-02  0.5877E-02
    -18.578  0.5670E-02  0.6463E-02
    -18.474  0.4481E-02  0.6926E-02
    -18.371  0.5271E-02  0.7471E-02
    -18.268  0.5596E-02  0.8049E-02
    -18.164  0.4303E-02  0.8494E-02
    -18.061  0.6284E-02  0.9143E-02
    -17.958  0.9481E-02  0.1012E-01
    -17.854  0.1092E-01  0.1125E-01
    -17.751  0.1271E-01  0.1256E-01
    -17.648  0.1470E-01  0.1408E-01
    -17.544  0.1410E-01  0.1554E-01
    -17.441  0.1758E-01  0.1736E-01
    -17.338  0.2143E-01  0.1957E-01
    -17.234  0.1420E-01  0.2104E-01
    -17.131  0.5536E-02  0.2161E-01
    -17.028  0.5289E-02  0.2216E-01
    -16.924  0.6473E-02  0.2283E-01
    -16.821  0.5236E-02  0.2337E-01
    -16.718  0.4053E-02  0.2379E-01
    -16.614  0.5299E-02  0.2433E-01
    -16.511  0.6962E-02  0.2505E-01
    -16.408  0.4900E-02  0.2556E-01
    -16.304  0.4373E-02  0.2601E-01
    -16.201  0.5074E-02  0.2654E-01
    -16.098  0.7035E-02  0.2726E-01
    -15.994  0.5733E-02  0.2786E-01
    -15.891  0.4113E-02  0.2828E-01
    -15.788  0.5259E-02  0.2882E-01
    -15.684  0.9371E-02  0.2979E-01
    -15.581  0.1446E-01  0.3129E-01
    -15.478  0.1606E-01  0.3295E-01
    -15.374  0.1555E-01  0.3455E-01
    -15.271  0.1470E-01  0.3607E-01
    -15.168  0.1447E-01  0.3757E-01
    -15.064  0.1327E-01  0.3894E-01
    -14.961  0.1320E-01  0.4030E-01
    -14.858  0.1403E-01  0.4175E-01
    -14.754  0.1641E-01  0.4345E-01
    -14.651  0.1475E-01  0.4497E-01
    -14.548  0.1253E-01  0.4627E-01
    -14.444  0.1291E-01  0.4760E-01
    -14.341  0.1783E-01  0.4944E-01
    -14.238  0.1518E-01  0.5101E-01
    -14.134  0.8812E-02  0.5192E-01
    -14.031  0.7906E-02  0.5274E-01
    -13.928  0.8147E-02  0.5358E-01
    -13.824  0.6140E-02  0.5422E-01
    -13.721  0.1944E-02  0.5442E-01
    -13.618  0.3129E-02  0.5474E-01
    -13.514  0.5295E-02  0.5529E-01
    -13.411  0.5422E-02  0.5585E-01
    -13.308  0.5612E-02  0.5643E-01
    -13.204  0.5121E-02  0.5696E-01
    -13.101  0.6430E-02  0.5762E-01
    -12.998  0.8745E-02  0.5852E-01
    -12.894  0.7058E-02  0.5925E-01
    -12.791  0.8020E-02  0.6008E-01
    -12.688  0.7025E-02  0.6081E-01
    -12.584  0.5249E-02  0.6135E-01
    -12.481  0.6530E-02  0.6203E-01
    -12.378  0.6189E-02  0.6267E-01
    -12.274  0.5245E-02  0.6321E-01
    -12.171  0.7621E-02  0.6399E-01
    -12.068  0.1291E-01  0.6533E-01
    -11.964  0.1208E-01  0.6658E-01
    -11.861  0.1343E-01  0.6797E-01
    -11.758  0.1831E-01  0.6986E-01
    -11.654  0.1616E-01  0.7153E-01
    -11.551  0.1373E-01  0.7295E-01
    -11.448  0.1313E-01  0.7430E-01
    -11.344  0.8898E-02  0.7522E-01
    -11.241  0.9938E-02  0.7625E-01
    -11.138  0.1068E-01  0.7735E-01
    -11.034  0.9354E-02  0.7832E-01
    -10.931  0.8523E-02  0.7920E-01
    -10.828  0.9752E-02  0.8021E-01
    -10.724  0.1301E-01  0.8155E-01
    -10.621  0.1022E-01  0.8261E-01
    -10.518  0.1053E-01  0.8370E-01
    -10.414  0.1586E-01  0.8534E-01
    -10.311  0.1485E-01  0.8687E-01
    -10.208  0.8912E-02  0.8779E-01
    -10.104  0.1083E-01  0.8891E-01
    -10.001  0.1350E-01  0.9030E-01
     -9.898  0.1195E-01  0.9154E-01
     -9.794  0.9867E-02  0.9256E-01
     -9.691  0.1034E-01  0.9363E-01
     -9.588  0.1005E-01  0.9467E-01
     -9.484  0.6707E-02  0.9536E-01
     -9.381  0.8816E-02  0.9627E-01
     -9.278  0.1072E-01  0.9738E-01
     -9.174  0.7521E-02  0.9816E-01
     -9.071  0.5306E-02  0.9870E-01
     -8.968  0.1061E-01  0.9980E-01
     -8.864  0.1500E-01  0.1013E+00
     -8.761  0.1277E-01  0.1027E+00
     -8.658  0.9172E-02  0.1036E+00
     -8.554  0.1236E-01  0.1049E+00
     -8.451  0.1477E-01  0.1064E+00
     -8.348  0.1570E-01  0.1080E+00
     -8.244  0.1478E-01  0.1096E+00
     -8.141  0.1810E-01  0.1114E+00
     -8.038  0.1864E-01  0.1134E+00
     -7.934  0.1654E-01  0.1151E+00
     -7.831  0.1742E-01  0.1169E+00
     -7.728  0.2145E-01  0.1191E+00
     -7.624  0.2348E-01  0.1215E+00
     -7.521  0.2145E-01  0.1237E+00
     -7.418  0.1864E-01  0.1257E+00
     -7.314  0.2460E-01  0.1282E+00
     -7.211  0.2567E-01  0.1309E+00
     -7.108  0.2252E-01  0.1332E+00
     -7.004  0.2490E-01  0.1358E+00
     -6.901  0.2407E-01  0.1382E+00
     -6.798  0.2396E-01  0.1407E+00
     -6.694  0.2606E-01  0.1434E+00
     -6.591  0.2164E-01  0.1456E+00
     -6.488  0.2277E-01  0.1480E+00
     -6.384  0.2669E-01  0.1508E+00
     -6.281  0.2283E-01  0.1531E+00
     -6.178  0.2002E-01  0.1552E+00
     -6.074  0.2040E-01  0.1573E+00
     -5.971  0.2042E-01  0.1594E+00
     -5.868  0.2101E-01  0.1616E+00
     -5.764  0.2144E-01  0.1638E+00
     -5.661  0.2127E-01  0.1660E+00
     -5.558  0.2430E-01  0.1685E+00
     -5.454  0.2416E-01  0.1710E+00
     -5.351  0.2502E-01  0.1736E+00
     -5.248  0.2214E-01  0.1759E+00
     -5.144  0.1712E-01  0.1776E+00
     -5.041  0.1381E-01  0.1791E+00
     -4.938  0.1670E-01  0.1808E+00
     -4.834  0.1945E-01  0.1828E+00
     -4.731  0.1724E-01  0.1846E+00
     -4.628  0.1516E-01  0.1862E+00
     -4.524  0.1516E-01  0.1877E+00
     -4.421  0.2305E-01  0.1901E+00
     -4.318  0.2351E-01  0.1925E+00
     -4.214  0.2985E-01  0.1956E+00
     -4.111  0.3768E-01  0.1995E+00
     -4.008  0.3278E-01  0.2029E+00
     -3.904  0.2527E-01  0.2055E+00
     -3.801  0.2140E-01  0.2077E+00
     -3.698  0.1366E-01  0.2091E+00
     -3.594  0.1337E-01  0.2105E+00
     -3.491  0.1733E-01  0.2123E+00
     -3.388  0.1688E-01  0.2140E+00
     -3.284  0.1674E-01  0.2158E+00
     -3.181  0.1718E-01  0.2175E+00
     -3.077  0.1907E-01  0.2195E+00
     -2.974  0.2336E-01  0.2219E+00
     -2.871  0.2012E-01  0.2240E+00
     -2.767  0.1615E-01  0.2257E+00
     -2.664  0.1432E-01  0.2272E+00
     -2.561  0.2029E-01  0.2293E+00
     -2.457  0.2613E-01  0.2320E+00
     -2.354  0.2145E-01  0.2342E+00
     -2.251  0.1779E-01  0.2360E+00
     -2.147  0.1031E-01  0.2371E+00
     -2.044  0.9229E-02  0.2380E+00
     -1.941  0.6814E-02  0.2387E+00
     -1.837  0.5685E-02  0.2393E+00
     -1.734  0.6194E-02  0.2400E+00
     -1.631  0.6229E-02  0.2406E+00
     -1.527  0.5837E-02  0.2412E+00
     -1.424  0.4331E-02  0.2417E+00
     -1.321  0.2924E-02  0.2420E+00
     -1.217  0.1010E-02  0.2421E+00
     -1.114  0.8707E-03  0.2422E+00
     -1.011  0.5224E-03  0.2422E+00
     -0.907  0.1628E-02  0.2424E+00
     -0.804  0.4525E-02  0.2428E+00
     -0.701  0.7197E-02  0.2436E+00
     -0.597  0.7272E-02  0.2443E+00
     -0.494  0.1147E-01  0.2455E+00
     -0.391  0.1345E-01  0.2469E+00
     -0.287  0.8934E-02  0.2478E+00
     -0.184  0.9756E-02  0.2488E+00
     -0.081  0.7655E-02  0.2496E+00
      0.023  0.2689E-02  0.2499E+00
      0.126  0.7915E-03  0.2500E+00
      0.229  0.1453E-02  0.2501E+00
      0.333  0.6447E-02  0.2508E+00
      0.436  0.7285E-02  0.2516E+00
      0.539  0.4260E-02  0.2520E+00
      0.643  0.5120E-02  0.2525E+00
      0.746  0.1103E-01  0.2537E+00
      0.849  0.1129E-01  0.2548E+00
      0.953  0.8900E-02  0.2558E+00
      1.056  0.8112E-02  0.2566E+00
      1.159  0.8453E-02  0.2575E+00
      1.263  0.8553E-02  0.2584E+00
      1.366  0.6510E-02  0.2590E+00
      1.469  0.4835E-02  0.2595E+00
      1.573  0.6106E-02  0.2602E+00
      1.676  0.7520E-02  0.2609E+00
      1.779  0.8436E-02  0.2618E+00
      1.883  0.6556E-02  0.2625E+00
      1.986  0.5282E-02  0.2630E+00
      2.089  0.9175E-02  0.2640E+00
      2.193  0.1311E-01  0.2653E+00
      2.296  0.1420E-01  0.2668E+00
      2.399  0.1375E-01  0.2682E+00
      2.503  0.1207E-01  0.2695E+00
      2.606  0.9425E-02  0.2704E+00
      2.709  0.7487E-02  0.2712E+00
      2.813  0.9510E-02  0.2722E+00
      2.916  0.1261E-01  0.2735E+00
      3.019  0.1174E-01  0.2747E+00
      3.123  0.1176E-01  0.2759E+00
      3.226  0.1088E-01  0.2771E+00
      3.329  0.1055E-01  0.2781E+00
      3.433  0.1113E-01  0.2793E+00
      3.536  0.1025E-01  0.2804E+00
      3.639  0.1199E-01  0.2816E+00
      3.743  0.1134E-01  0.2828E+00
      3.846  0.1286E-01  0.2841E+00
      3.949  0.1588E-01  0.2857E+00
      4.053  0.1473E-01  0.2873E+00
      4.156  0.1599E-01  0.2889E+00
      4.259  0.1624E-01  0.2906E+00
      4.363  0.1214E-01  0.2918E+00
      4.466  0.1487E-01  0.2934E+00
      4.569  0.1537E-01  0.2950E+00
      4.673  0.1289E-01  0.2963E+00
      4.776  0.1778E-01  0.2981E+00
      4.879  0.1893E-01  0.3001E+00
      4.983  0.1445E-01  0.3016E+00
      5.086  0.1701E-01  0.3033E+00
      5.189  0.1874E-01  0.3053E+00
      5.293  0.1643E-01  0.3070E+00
      5.396  0.1738E-01  0.3088E+00
      5.499  0.1949E-01  0.3108E+00
      5.603  0.1509E-01  0.3123E+00
      5.706  0.1253E-01  0.3136E+00
      5.809  0.1779E-01  0.3155E+00
      5.913  0.2480E-01  0.3180E+00
      6.016  0.2667E-01  0.3208E+00
      6.119  0.1976E-01  0.3228E+00
      6.223  0.2489E-01  0.3254E+00
      6.326  0.2880E-01  0.3284E+00
      6.429  0.2471E-01  0.3309E+00
      6.533  0.2062E-01  0.3331E+00
      6.636  0.2204E-01  0.3354E+00
      6.739  0.2786E-01  0.3382E+00
      6.843  0.3000E-01  0.3413E+00
      6.946  0.2612E-01  0.3440E+00
      7.049  0.3341E-01  0.3475E+00
      7.153  0.3654E-01  0.3513E+00
      7.256  0.3325E-01  0.3547E+00
      7.359  0.3368E-01  0.3582E+00
      7.463  0.3228E-01  0.3615E+00
      7.566  0.2978E-01  0.3646E+00
      7.669  0.2444E-01  0.3671E+00
      7.773  0.2074E-01  0.3693E+00
      7.876  0.2443E-01  0.3718E+00
      7.979  0.1961E-01  0.3738E+00
      8.083  0.7322E-02  0.3746E+00
      8.186  0.1139E-02  0.3747E+00
      8.289  0.9401E-03  0.3748E+00
      8.393  0.1641E-02  0.3749E+00
      8.496  0.5010E-03  0.3750E+00
      8.599  0.2382E-04  0.3750E+00
      8.703  0.1597E-06  0.3750E+00
      8.806  0.1405E-09  0.3750E+00
      8.909  0.1561E-13  0.3750E+00
      9.013  0.1743E-18  0.3750E+00
      9.116  0.0000E+00  0.3750E+00
      9.219  0.0000E+00  0.3750E+00
      9.323  0.0000E+00  0.3750E+00
      9.426  0.0000E+00  0.3750E+00
      9.529  0.0000E+00  0.3750E+00
      9.633  0.0000E+00  0.3750E+00
      9.736  0.0000E+00  0.3750E+00
