  16  16   0  16
  0.2091096E+02  0.5075000E-09  0.5075000E-09  0.1500000E-08  0.5000000E-15
  1.000000000000000E-004
  CAR 
 Lattice                                 
      9.61358008    -21.21609632  301     -1.02906759      1.00000000
    -21.216  0.0000E+00  0.0000E+00  0.0000E+00  0.0000E+00
    -21.113  0.0000E+00  0.0000E+00  0.0000E+00  0.0000E+00
    -21.011  0.0000E+00  0.0000E+00  0.0000E+00  0.0000E+00
    -20.908  0.0000E+00  0.0000E+00  0.0000E+00  0.0000E+00
    -20.805  0.0000E+00  0.0000E+00  0.0000E+00  0.0000E+00
    -20.702  0.0000E+00  0.0000E+00  0.0000E+00  0.0000E+00
    -20.600  0.0000E+00  0.0000E+00  0.0000E+00  0.0000E+00
    -20.497  0.0000E+00  0.0000E+00  0.0000E+00  0.0000E+00
    -20.394  0.5861E-19  0.5861E-19  0.6023E-20  0.6023E-20
    -20.291  0.4726E-14  0.4726E-14  0.4857E-15  0.4857E-15
    -20.188  0.4166E-10  0.4166E-10  0.4282E-11  0.4282E-11
    -20.086  0.5217E-07  0.5217E-07  0.5366E-08  0.5366E-08
    -19.983  0.1001E-04  0.1001E-04  0.1034E-05  0.1034E-05
    -19.880  0.3236E-03  0.3236E-03  0.3428E-04  0.3428E-04
    -19.777  0.2155E-02  0.2155E-02  0.2557E-03  0.2557E-03
    -19.675  0.4445E-02  0.4445E-02  0.7125E-03  0.7125E-03
    -19.572  0.4968E-02  0.4968E-02  0.1223E-02  0.1223E-02
    -19.469  0.5208E-02  0.5208E-02  0.1758E-02  0.1758E-02
    -19.366  0.4731E-02  0.4731E-02  0.2244E-02  0.2244E-02
    -19.264  0.5709E-02  0.5709E-02  0.2831E-02  0.2831E-02
    -19.161  0.4322E-02  0.4322E-02  0.3275E-02  0.3275E-02
    -19.058  0.5386E-02  0.5386E-02  0.3829E-02  0.3829E-02
    -18.955  0.5882E-02  0.5882E-02  0.4433E-02  0.4433E-02
    -18.852  0.3717E-02  0.3717E-02  0.4815E-02  0.4815E-02
    -18.750  0.5488E-02  0.5488E-02  0.5379E-02  0.5379E-02
    -18.647  0.6371E-02  0.6371E-02  0.6034E-02  0.6034E-02
    -18.544  0.4356E-02  0.4356E-02  0.6481E-02  0.6481E-02
    -18.441  0.3587E-02  0.3587E-02  0.6850E-02  0.6850E-02
    -18.339  0.6927E-02  0.6927E-02  0.7562E-02  0.7562E-02
    -18.236  0.5894E-02  0.5894E-02  0.8168E-02  0.8168E-02
    -18.133  0.4248E-02  0.4248E-02  0.8604E-02  0.8604E-02
    -18.030  0.3667E-02  0.3667E-02  0.8981E-02  0.8981E-02
    -17.928  0.8615E-02  0.8615E-02  0.9866E-02  0.9866E-02
    -17.825  0.1311E-01  0.1311E-01  0.1121E-01  0.1121E-01
    -17.722  0.1160E-01  0.1160E-01  0.1241E-01  0.1241E-01
    -17.619  0.1184E-01  0.1184E-01  0.1362E-01  0.1362E-01
    -17.517  0.1393E-01  0.1393E-01  0.1505E-01  0.1505E-01
    -17.414  0.1872E-01  0.1872E-01  0.1698E-01  0.1698E-01
    -17.311  0.2234E-01  0.2234E-01  0.1927E-01  0.1927E-01
    -17.208  0.1679E-01  0.1679E-01  0.2100E-01  0.2100E-01
    -17.105  0.5829E-02  0.5829E-02  0.2160E-01  0.2160E-01
    -17.003  0.4935E-02  0.4935E-02  0.2210E-01  0.2210E-01
    -16.900  0.7401E-02  0.7401E-02  0.2287E-01  0.2287E-01
    -16.797  0.6709E-02  0.6709E-02  0.2355E-01  0.2355E-01
    -16.694  0.5450E-02  0.5450E-02  0.2411E-01  0.2411E-01
    -16.592  0.4485E-02  0.4485E-02  0.2458E-01  0.2458E-01
    -16.489  0.2543E-02  0.2543E-02  0.2484E-01  0.2484E-01
    -16.386  0.5389E-02  0.5389E-02  0.2539E-01  0.2539E-01
    -16.283  0.9293E-02  0.9293E-02  0.2635E-01  0.2635E-01
    -16.181  0.5904E-02  0.5904E-02  0.2695E-01  0.2695E-01
    -16.078  0.4794E-02  0.4794E-02  0.2745E-01  0.2745E-01
    -15.975  0.4401E-02  0.4401E-02  0.2790E-01  0.2790E-01
    -15.872  0.3996E-02  0.3996E-02  0.2831E-01  0.2831E-01
    -15.770  0.4513E-02  0.4513E-02  0.2877E-01  0.2877E-01
    -15.667  0.1064E-01  0.1064E-01  0.2987E-01  0.2987E-01
    -15.564  0.1363E-01  0.1363E-01  0.3127E-01  0.3127E-01
    -15.461  0.1488E-01  0.1488E-01  0.3280E-01  0.3280E-01
    -15.358  0.1668E-01  0.1668E-01  0.3451E-01  0.3451E-01
    -15.256  0.1377E-01  0.1377E-01  0.3593E-01  0.3593E-01
    -15.153  0.1229E-01  0.1229E-01  0.3719E-01  0.3719E-01
    -15.050  0.1626E-01  0.1626E-01  0.3886E-01  0.3886E-01
    -14.947  0.1857E-01  0.1857E-01  0.4077E-01  0.4077E-01
    -14.845  0.1497E-01  0.1497E-01  0.4231E-01  0.4231E-01
    -14.742  0.1230E-01  0.1230E-01  0.4357E-01  0.4357E-01
    -14.639  0.9549E-02  0.9549E-02  0.4455E-01  0.4455E-01
    -14.536  0.1215E-01  0.1215E-01  0.4580E-01  0.4580E-01
    -14.434  0.1875E-01  0.1875E-01  0.4773E-01  0.4773E-01
    -14.331  0.1971E-01  0.1971E-01  0.4975E-01  0.4975E-01
    -14.228  0.1226E-01  0.1226E-01  0.5101E-01  0.5101E-01
    -14.125  0.8689E-02  0.8689E-02  0.5191E-01  0.5191E-01
    -14.023  0.7833E-02  0.7833E-02  0.5271E-01  0.5271E-01
    -13.920  0.8263E-02  0.8263E-02  0.5356E-01  0.5356E-01
    -13.817  0.6769E-02  0.6769E-02  0.5425E-01  0.5425E-01
    -13.714  0.3367E-02  0.3367E-02  0.5460E-01  0.5460E-01
    -13.611  0.2464E-02  0.2464E-02  0.5485E-01  0.5485E-01
    -13.509  0.4635E-02  0.4635E-02  0.5533E-01  0.5533E-01
    -13.406  0.4816E-02  0.4816E-02  0.5583E-01  0.5583E-01
    -13.303  0.6560E-02  0.6560E-02  0.5650E-01  0.5650E-01
    -13.200  0.5891E-02  0.5891E-02  0.5710E-01  0.5710E-01
    -13.098  0.6746E-02  0.6746E-02  0.5780E-01  0.5780E-01
    -12.995  0.8701E-02  0.8701E-02  0.5869E-01  0.5869E-01
    -12.892  0.8158E-02  0.8158E-02  0.5953E-01  0.5953E-01
    -12.789  0.7617E-02  0.7617E-02  0.6031E-01  0.6031E-01
    -12.687  0.5987E-02  0.5987E-02  0.6093E-01  0.6093E-01
    -12.584  0.7308E-02  0.7308E-02  0.6168E-01  0.6168E-01
    -12.481  0.4603E-02  0.4603E-02  0.6215E-01  0.6215E-01
    -12.378  0.5150E-02  0.5150E-02  0.6268E-01  0.6268E-01
    -12.275  0.8322E-02  0.8322E-02  0.6354E-01  0.6354E-01
    -12.173  0.6258E-02  0.6258E-02  0.6418E-01  0.6418E-01
    -12.070  0.7587E-02  0.7587E-02  0.6496E-01  0.6496E-01
    -11.967  0.1337E-01  0.1337E-01  0.6633E-01  0.6633E-01
    -11.864  0.1632E-01  0.1632E-01  0.6801E-01  0.6801E-01
    -11.762  0.1441E-01  0.1441E-01  0.6949E-01  0.6949E-01
    -11.659  0.1511E-01  0.1511E-01  0.7105E-01  0.7105E-01
    -11.556  0.1787E-01  0.1787E-01  0.7288E-01  0.7288E-01
    -11.453  0.1380E-01  0.1380E-01  0.7430E-01  0.7430E-01
    -11.351  0.8135E-02  0.8135E-02  0.7514E-01  0.7514E-01
    -11.248  0.1032E-01  0.1032E-01  0.7620E-01  0.7620E-01
    -11.145  0.1193E-01  0.1193E-01  0.7742E-01  0.7742E-01
    -11.042  0.1066E-01  0.1066E-01  0.7852E-01  0.7852E-01
    -10.940  0.5194E-02  0.5194E-02  0.7905E-01  0.7905E-01
    -10.837  0.6997E-02  0.6997E-02  0.7977E-01  0.7977E-01
    -10.734  0.1571E-01  0.1571E-01  0.8138E-01  0.8138E-01
    -10.631  0.1764E-01  0.1764E-01  0.8320E-01  0.8320E-01
    -10.528  0.7376E-02  0.7376E-02  0.8396E-01  0.8396E-01
    -10.426  0.7011E-02  0.7011E-02  0.8468E-01  0.8468E-01
    -10.323  0.1408E-01  0.1408E-01  0.8612E-01  0.8612E-01
    -10.220  0.1848E-01  0.1848E-01  0.8802E-01  0.8802E-01
    -10.117  0.1414E-01  0.1414E-01  0.8948E-01  0.8948E-01
    -10.015  0.9064E-02  0.9064E-02  0.9041E-01  0.9041E-01
     -9.912  0.9036E-02  0.9036E-02  0.9134E-01  0.9134E-01
     -9.809  0.1270E-01  0.1270E-01  0.9264E-01  0.9264E-01
     -9.706  0.9803E-02  0.9803E-02  0.9365E-01  0.9365E-01
     -9.604  0.6969E-02  0.6969E-02  0.9436E-01  0.9436E-01
     -9.501  0.1008E-01  0.1008E-01  0.9540E-01  0.9540E-01
     -9.398  0.1181E-01  0.1181E-01  0.9661E-01  0.9661E-01
     -9.295  0.1035E-01  0.1035E-01  0.9768E-01  0.9768E-01
     -9.193  0.7820E-02  0.7820E-02  0.9848E-01  0.9848E-01
     -9.090  0.3126E-02  0.3126E-02  0.9880E-01  0.9880E-01
     -8.987  0.5222E-02  0.5222E-02  0.9934E-01  0.9934E-01
     -8.884  0.1351E-01  0.1351E-01  0.1007E+00  0.1007E+00
     -8.781  0.1926E-01  0.1926E-01  0.1027E+00  0.1027E+00
     -8.679  0.1579E-01  0.1579E-01  0.1043E+00  0.1043E+00
     -8.576  0.9379E-02  0.9379E-02  0.1053E+00  0.1053E+00
     -8.473  0.7749E-02  0.7749E-02  0.1061E+00  0.1061E+00
     -8.370  0.1079E-01  0.1079E-01  0.1072E+00  0.1072E+00
     -8.268  0.1884E-01  0.1884E-01  0.1091E+00  0.1091E+00
     -8.165  0.2150E-01  0.2150E-01  0.1113E+00  0.1113E+00
     -8.062  0.2238E-01  0.2238E-01  0.1136E+00  0.1136E+00
     -7.959  0.1676E-01  0.1676E-01  0.1154E+00  0.1154E+00
     -7.857  0.1373E-01  0.1373E-01  0.1168E+00  0.1168E+00
     -7.754  0.1465E-01  0.1465E-01  0.1183E+00  0.1183E+00
     -7.651  0.2454E-01  0.2454E-01  0.1208E+00  0.1208E+00
     -7.548  0.2952E-01  0.2952E-01  0.1238E+00  0.1238E+00
     -7.446  0.2230E-01  0.2230E-01  0.1261E+00  0.1261E+00
     -7.343  0.1972E-01  0.1972E-01  0.1282E+00  0.1282E+00
     -7.240  0.2406E-01  0.2406E-01  0.1306E+00  0.1306E+00
     -7.137  0.2608E-01  0.2608E-01  0.1333E+00  0.1333E+00
     -7.034  0.2569E-01  0.2569E-01  0.1359E+00  0.1359E+00
     -6.932  0.2156E-01  0.2156E-01  0.1382E+00  0.1382E+00
     -6.829  0.2220E-01  0.2220E-01  0.1404E+00  0.1404E+00
     -6.726  0.2988E-01  0.2988E-01  0.1435E+00  0.1435E+00
     -6.623  0.2028E-01  0.2028E-01  0.1456E+00  0.1456E+00
     -6.521  0.1908E-01  0.1908E-01  0.1476E+00  0.1476E+00
     -6.418  0.2673E-01  0.2673E-01  0.1503E+00  0.1503E+00
     -6.315  0.2461E-01  0.2461E-01  0.1528E+00  0.1528E+00
     -6.212  0.2250E-01  0.2250E-01  0.1551E+00  0.1551E+00
     -6.110  0.1748E-01  0.1748E-01  0.1569E+00  0.1569E+00
     -6.007  0.1533E-01  0.1533E-01  0.1585E+00  0.1585E+00
     -5.904  0.2328E-01  0.2328E-01  0.1609E+00  0.1609E+00
     -5.801  0.2796E-01  0.2796E-01  0.1638E+00  0.1638E+00
     -5.698  0.2201E-01  0.2201E-01  0.1660E+00  0.1660E+00
     -5.596  0.1853E-01  0.1853E-01  0.1680E+00  0.1680E+00
     -5.493  0.2053E-01  0.2053E-01  0.1701E+00  0.1701E+00
     -5.390  0.2885E-01  0.2885E-01  0.1730E+00  0.1730E+00
     -5.287  0.2748E-01  0.2748E-01  0.1758E+00  0.1758E+00
     -5.185  0.1522E-01  0.1522E-01  0.1774E+00  0.1774E+00
     -5.082  0.1517E-01  0.1517E-01  0.1790E+00  0.1790E+00
     -4.979  0.1920E-01  0.1920E-01  0.1809E+00  0.1809E+00
     -4.876  0.1771E-01  0.1771E-01  0.1828E+00  0.1828E+00
     -4.774  0.1670E-01  0.1670E-01  0.1845E+00  0.1845E+00
     -4.671  0.1749E-01  0.1749E-01  0.1863E+00  0.1863E+00
     -4.568  0.1664E-01  0.1664E-01  0.1880E+00  0.1880E+00
     -4.465  0.1763E-01  0.1763E-01  0.1898E+00  0.1898E+00
     -4.363  0.1900E-01  0.1900E-01  0.1918E+00  0.1918E+00
     -4.260  0.2675E-01  0.2675E-01  0.1945E+00  0.1945E+00
     -4.157  0.4047E-01  0.4047E-01  0.1987E+00  0.1987E+00
     -4.054  0.3785E-01  0.3785E-01  0.2026E+00  0.2026E+00
     -3.951  0.2638E-01  0.2638E-01  0.2053E+00  0.2053E+00
     -3.849  0.1947E-01  0.1947E-01  0.2073E+00  0.2073E+00
     -3.746  0.1206E-01  0.1206E-01  0.2085E+00  0.2085E+00
     -3.643  0.1334E-01  0.1334E-01  0.2099E+00  0.2099E+00
     -3.540  0.1926E-01  0.1926E-01  0.2119E+00  0.2119E+00
     -3.438  0.2253E-01  0.2253E-01  0.2142E+00  0.2142E+00
     -3.335  0.1669E-01  0.1669E-01  0.2159E+00  0.2159E+00
     -3.232  0.1334E-01  0.1334E-01  0.2173E+00  0.2173E+00
     -3.129  0.1685E-01  0.1685E-01  0.2190E+00  0.2190E+00
     -3.027  0.2109E-01  0.2109E-01  0.2212E+00  0.2212E+00
     -2.924  0.2584E-01  0.2584E-01  0.2238E+00  0.2238E+00
     -2.821  0.1754E-01  0.1754E-01  0.2256E+00  0.2256E+00
     -2.718  0.1233E-01  0.1233E-01  0.2269E+00  0.2269E+00
     -2.616  0.1977E-01  0.1977E-01  0.2289E+00  0.2289E+00
     -2.513  0.2056E-01  0.2056E-01  0.2310E+00  0.2310E+00
     -2.410  0.1918E-01  0.1918E-01  0.2330E+00  0.2330E+00
     -2.307  0.2477E-01  0.2477E-01  0.2355E+00  0.2355E+00
     -2.204  0.1882E-01  0.1882E-01  0.2375E+00  0.2375E+00
     -2.102  0.6013E-02  0.6013E-02  0.2381E+00  0.2381E+00
     -1.999  0.5074E-02  0.5074E-02  0.2386E+00  0.2386E+00
     -1.896  0.8357E-02  0.8357E-02  0.2395E+00  0.2395E+00
     -1.793  0.5059E-02  0.5059E-02  0.2400E+00  0.2400E+00
     -1.691  0.4821E-02  0.4821E-02  0.2405E+00  0.2405E+00
     -1.588  0.7747E-02  0.7747E-02  0.2413E+00  0.2413E+00
     -1.485  0.5332E-02  0.5332E-02  0.2418E+00  0.2418E+00
     -1.382  0.2040E-02  0.2040E-02  0.2420E+00  0.2420E+00
     -1.280  0.3615E-03  0.3615E-03  0.2421E+00  0.2421E+00
     -1.177  0.4191E-04  0.4191E-04  0.2421E+00  0.2421E+00
     -1.074  0.4299E-03  0.4299E-03  0.2421E+00  0.2421E+00
     -0.971  0.1917E-02  0.1917E-02  0.2423E+00  0.2423E+00
     -0.869  0.3424E-02  0.3424E-02  0.2427E+00  0.2427E+00
     -0.766  0.4090E-02  0.4089E-02  0.2431E+00  0.2431E+00
     -0.663  0.8304E-02  0.8304E-02  0.2439E+00  0.2439E+00
     -0.560  0.1124E-01  0.1124E-01  0.2451E+00  0.2451E+00
     -0.457  0.1029E-01  0.1029E-01  0.2462E+00  0.2462E+00
     -0.355  0.1239E-01  0.1239E-01  0.2474E+00  0.2474E+00
     -0.252  0.1161E-01  0.1161E-01  0.2486E+00  0.2486E+00
     -0.149  0.8093E-02  0.8093E-02  0.2495E+00  0.2495E+00
     -0.046  0.3506E-02  0.3506E-02  0.2498E+00  0.2498E+00
      0.056  0.1512E-02  0.1512E-02  0.2500E+00  0.2500E+00
      0.159  0.2062E-02  0.2062E-02  0.2502E+00  0.2502E+00
      0.262  0.6693E-02  0.6693E-02  0.2509E+00  0.2509E+00
      0.365  0.9689E-02  0.9689E-02  0.2519E+00  0.2519E+00
      0.467  0.7436E-02  0.7436E-02  0.2526E+00  0.2526E+00
      0.570  0.4138E-02  0.4138E-02  0.2531E+00  0.2531E+00
      0.673  0.7972E-02  0.7972E-02  0.2539E+00  0.2539E+00
      0.776  0.1230E-01  0.1230E-01  0.2551E+00  0.2551E+00
      0.879  0.1308E-01  0.1308E-01  0.2565E+00  0.2565E+00
      0.981  0.9976E-02  0.9976E-02  0.2575E+00  0.2575E+00
      1.084  0.5006E-02  0.5006E-02  0.2580E+00  0.2580E+00
      1.187  0.5171E-02  0.5171E-02  0.2586E+00  0.2586E+00
      1.290  0.5386E-02  0.5386E-02  0.2591E+00  0.2591E+00
      1.392  0.5092E-02  0.5092E-02  0.2596E+00  0.2596E+00
      1.495  0.6749E-02  0.6749E-02  0.2603E+00  0.2603E+00
      1.598  0.1195E-01  0.1195E-01  0.2616E+00  0.2616E+00
      1.701  0.8011E-02  0.8011E-02  0.2624E+00  0.2624E+00
      1.803  0.3171E-02  0.3171E-02  0.2627E+00  0.2627E+00
      1.906  0.3528E-02  0.3528E-02  0.2631E+00  0.2631E+00
      2.009  0.7508E-02  0.7507E-02  0.2638E+00  0.2638E+00
      2.112  0.1497E-01  0.1497E-01  0.2654E+00  0.2654E+00
      2.214  0.1491E-01  0.1491E-01  0.2669E+00  0.2669E+00
      2.317  0.1176E-01  0.1176E-01  0.2681E+00  0.2681E+00
      2.420  0.1250E-01  0.1250E-01  0.2694E+00  0.2694E+00
      2.523  0.1246E-01  0.1246E-01  0.2707E+00  0.2707E+00
      2.626  0.1024E-01  0.1024E-01  0.2717E+00  0.2717E+00
      2.728  0.6982E-02  0.6981E-02  0.2725E+00  0.2725E+00
      2.831  0.6870E-02  0.6864E-02  0.2732E+00  0.2732E+00
      2.934  0.1147E-01  0.1146E-01  0.2743E+00  0.2743E+00
      3.037  0.1485E-01  0.1485E-01  0.2759E+00  0.2759E+00
      3.139  0.1388E-01  0.1389E-01  0.2773E+00  0.2773E+00
      3.242  0.1095E-01  0.1095E-01  0.2784E+00  0.2784E+00
      3.345  0.7871E-02  0.7877E-02  0.2792E+00  0.2792E+00
      3.448  0.9397E-02  0.9392E-02  0.2802E+00  0.2802E+00
      3.550  0.1426E-01  0.1426E-01  0.2817E+00  0.2817E+00
      3.653  0.9364E-02  0.9371E-02  0.2826E+00  0.2826E+00
      3.756  0.9371E-02  0.9365E-02  0.2836E+00  0.2836E+00
      3.859  0.1722E-01  0.1721E-01  0.2854E+00  0.2853E+00
      3.961  0.1910E-01  0.1911E-01  0.2873E+00  0.2873E+00
      4.064  0.1615E-01  0.1616E-01  0.2890E+00  0.2890E+00
      4.167  0.1242E-01  0.1241E-01  0.2902E+00  0.2902E+00
      4.270  0.1369E-01  0.1368E-01  0.2917E+00  0.2917E+00
      4.373  0.1413E-01  0.1413E-01  0.2931E+00  0.2931E+00
      4.475  0.1761E-01  0.1761E-01  0.2949E+00  0.2949E+00
      4.578  0.1471E-01  0.1472E-01  0.2964E+00  0.2964E+00
      4.681  0.1048E-01  0.1046E-01  0.2975E+00  0.2975E+00
      4.784  0.1554E-01  0.1551E-01  0.2991E+00  0.2991E+00
      4.886  0.2121E-01  0.2121E-01  0.3013E+00  0.3013E+00
      4.989  0.2014E-01  0.2016E-01  0.3034E+00  0.3033E+00
      5.092  0.1620E-01  0.1620E-01  0.3050E+00  0.3050E+00
      5.195  0.1591E-01  0.1592E-01  0.3067E+00  0.3066E+00
      5.297  0.1337E-01  0.1336E-01  0.3080E+00  0.3080E+00
      5.400  0.1783E-01  0.1780E-01  0.3099E+00  0.3099E+00
      5.503  0.2238E-01  0.2240E-01  0.3122E+00  0.3122E+00
      5.606  0.1807E-01  0.1808E-01  0.3140E+00  0.3140E+00
      5.708  0.2058E-01  0.2056E-01  0.3161E+00  0.3161E+00
      5.811  0.2890E-01  0.2890E-01  0.3191E+00  0.3191E+00
      5.914  0.2487E-01  0.2489E-01  0.3217E+00  0.3217E+00
      6.017  0.2144E-01  0.2143E-01  0.3239E+00  0.3239E+00
      6.120  0.2504E-01  0.2502E-01  0.3264E+00  0.3264E+00
      6.222  0.2863E-01  0.2864E-01  0.3294E+00  0.3294E+00
      6.325  0.2938E-01  0.2940E-01  0.3324E+00  0.3324E+00
      6.428  0.2155E-01  0.2158E-01  0.3346E+00  0.3346E+00
      6.531  0.1889E-01  0.1887E-01  0.3365E+00  0.3365E+00
      6.633  0.2966E-01  0.2962E-01  0.3396E+00  0.3396E+00
      6.736  0.3202E-01  0.3203E-01  0.3429E+00  0.3429E+00
      6.839  0.3159E-01  0.3160E-01  0.3461E+00  0.3461E+00
      6.942  0.3353E-01  0.3353E-01  0.3496E+00  0.3496E+00
      7.044  0.3150E-01  0.3152E-01  0.3528E+00  0.3528E+00
      7.147  0.3081E-01  0.3080E-01  0.3560E+00  0.3560E+00
      7.250  0.3447E-01  0.3445E-01  0.3595E+00  0.3595E+00
      7.353  0.3017E-01  0.3018E-01  0.3626E+00  0.3626E+00
      7.456  0.2099E-01  0.2099E-01  0.3648E+00  0.3648E+00
      7.558  0.2095E-01  0.2092E-01  0.3669E+00  0.3669E+00
      7.661  0.2510E-01  0.2508E-01  0.3695E+00  0.3695E+00
      7.764  0.2214E-01  0.2219E-01  0.3718E+00  0.3718E+00
      7.867  0.1409E-01  0.1411E-01  0.3732E+00  0.3732E+00
      7.969  0.9308E-02  0.9314E-02  0.3742E+00  0.3742E+00
      8.072  0.4091E-02  0.4101E-02  0.3746E+00  0.3746E+00
      8.175  0.1506E-02  0.1510E-02  0.3748E+00  0.3748E+00
      8.278  0.1679E-02  0.1680E-02  0.3749E+00  0.3749E+00
      8.380  0.5277E-03  0.5285E-03  0.3750E+00  0.3750E+00
      8.483  0.2665E-04  0.2674E-04  0.3750E+00  0.3750E+00
      8.586  0.1938E-06  0.1947E-06  0.3750E+00  0.3750E+00
      8.689  0.1892E-09  0.1903E-09  0.3750E+00  0.3750E+00
      8.791  0.2380E-13  0.2399E-13  0.3750E+00  0.3750E+00
      8.894  0.3517E-18  0.3517E-18  0.3750E+00  0.3750E+00
      8.997  0.0000E+00  0.0000E+00  0.3750E+00  0.3750E+00
      9.100  0.0000E+00  0.0000E+00  0.3750E+00  0.3750E+00
      9.203  0.0000E+00  0.0000E+00  0.3750E+00  0.3750E+00
      9.305  0.0000E+00  0.0000E+00  0.3750E+00  0.3750E+00
      9.408  0.0000E+00  0.0000E+00  0.3750E+00  0.3750E+00
      9.511  0.0000E+00  0.0000E+00  0.3750E+00  0.3750E+00
      9.614  0.0000E+00  0.0000E+00  0.3750E+00  0.3750E+00
