<?xml version="1.0" encoding="ISO-8859-1"?>
<modeling>
 <generator>
  <i name="program" type="string">vasp </i>
  <i name="version" type="string">6.3.2  </i>
  <i name="subversion" type="string">27Jun22 (build Dec 22 2022 13:13:19) complex                          parallel </i>
  <i name="platform" type="string">LinuxIFC </i>
  <i name="date" type="string">2023 08 22 </i>
  <i name="time" type="string">23:24:43 </i>
 </generator>
 <incar>
  <i type="string" name="SYSTEM">Lattice</i>
  <i type="int" name="ISTART">     0</i>
  <i type="string" name="PREC">Accurate</i>
  <i type="string" name="ALGO">Normal</i>
  <i type="int" name="ISPIN">     2</i>
  <i type="int" name="ICHARG">     2</i>
  <i type="int" name="NELM">    64</i>
  <i type="int" name="IBRION">     2</i>
  <i name="EDIFF">      0.00000100</i>
  <i name="EDIFFG">     -0.00100000</i>
  <i type="int" name="NSW">   128</i>
  <i type="int" name="ISIF">     2</i>
  <i name="ENCUT">    450.00000000</i>
  <i name="POTIM">      0.50000000</i>
  <i type="int" name="ISMEAR">     0</i>
  <i name="SIGMA">      0.10000000</i>
  <i type="logical" name="LWAVE"> F  </i>
  <i type="logical" name="LCHARG"> F  </i>
  <i type="string" name="GGA">PE</i>
  <i type="int" name="IVDW">    12</i>
 </incar>
 <primitive_cell>
  <structure name="primitive_cell" >
   <crystal>
    <varray name="basis" >
     <v>       4.20541936       2.42800000       0.00000000 </v>
     <v>      -4.20541936       2.42800000       0.00000000 </v>
     <v>       0.00000000       0.00000000      15.00000000 </v>
    </varray>
    <i name="volume">    306.32274624 </i>
    <varray name="rec_basis" >
     <v>       0.11889421       0.20593081       0.00000000 </v>
     <v>      -0.11889421       0.20593081       0.00000000 </v>
     <v>       0.00000000       0.00000000       0.06666667 </v>
    </varray>
   </crystal>
   <varray name="positions" >
    <v>       0.00415361       0.00267210       0.12034134 </v>
    <v>       0.35695335       0.00285503       0.09748893 </v>
    <v>       0.00423858       0.35550699       0.09749256 </v>
    <v>       0.65142295       0.65006557       0.09747688 </v>
    <v>       0.32808646       0.32671938       0.10030508 </v>
    <v>       0.68027775       0.00278085       0.10027562 </v>
    <v>       0.00416530       0.67883808       0.10026559 </v>
    <v>       0.99999933       0.49999967       0.33373333 </v>
    <v>       0.16666633       0.33333267       0.33373333 </v>
    <v>       0.99999933       0.99999967       0.33373333 </v>
    <v>       0.16666633       0.83333267       0.33373333 </v>
    <v>       0.49999933       0.49999967       0.33373333 </v>
    <v>       0.66666633       0.33333267       0.33373333 </v>
    <v>       0.49999933       0.99999967       0.33373333 </v>
    <v>       0.66666633       0.83333267       0.33373333 </v>
   </varray>
  </structure>
  <varray name="primitive_index" >
   <v type="int" >        1 </v>
   <v type="int" >        2 </v>
   <v type="int" >        3 </v>
   <v type="int" >        4 </v>
   <v type="int" >        5 </v>
   <v type="int" >        6 </v>
   <v type="int" >        7 </v>
   <v type="int" >        8 </v>
   <v type="int" >        9 </v>
   <v type="int" >       10 </v>
   <v type="int" >       11 </v>
   <v type="int" >       12 </v>
   <v type="int" >       13 </v>
   <v type="int" >       14 </v>
   <v type="int" >       15 </v>
  </varray>
 </primitive_cell>
 <kpoints>
  <generation param="Gamma">
   <v type="int" name="divisions">      12       12        1 </v>
   <v name="usershift">      0.00000000       0.00000000       0.00000000 </v>
   <v name="genvec1">      0.08333333      -0.00000000       0.00000000 </v>
   <v name="genvec2">     -0.00000000       0.08333333       0.00000000 </v>
   <v name="genvec3">      0.00000000       0.00000000       1.00000000 </v>
   <v name="shift">      0.00000000       0.00000000       0.00000000 </v>
  </generation>
  <varray name="kpointlist" >
   <v>       0.00000000       0.00000000       0.00000000 </v>
   <v>       0.08333333       0.00000000       0.00000000 </v>
   <v>       0.00000000       0.08333333       0.00000000 </v>
   <v>      -0.08333333       0.08333333       0.00000000 </v>
   <v>       0.16666667      -0.00000000       0.00000000 </v>
   <v>      -0.00000000       0.16666667       0.00000000 </v>
   <v>      -0.16666667       0.16666667       0.00000000 </v>
   <v>       0.25000000      -0.00000000       0.00000000 </v>
   <v>      -0.00000000       0.25000000       0.00000000 </v>
   <v>      -0.25000000       0.25000000       0.00000000 </v>
   <v>       0.33333333      -0.00000000       0.00000000 </v>
   <v>      -0.00000000       0.33333333       0.00000000 </v>
   <v>      -0.33333333       0.33333333       0.00000000 </v>
   <v>       0.41666667      -0.00000000       0.00000000 </v>
   <v>      -0.00000000       0.41666667       0.00000000 </v>
   <v>      -0.41666667       0.41666667       0.00000000 </v>
   <v>       0.50000000      -0.00000000       0.00000000 </v>
   <v>      -0.00000000       0.50000000       0.00000000 </v>
   <v>       0.50000000       0.50000000       0.00000000 </v>
   <v>       0.08333333       0.08333333       0.00000000 </v>
   <v>      -0.08333333       0.16666667       0.00000000 </v>
   <v>      -0.16666667       0.08333333       0.00000000 </v>
   <v>       0.16666667       0.08333333       0.00000000 </v>
   <v>      -0.08333333       0.25000000       0.00000000 </v>
   <v>      -0.25000000       0.16666667       0.00000000 </v>
   <v>      -0.16666667       0.25000000       0.00000000 </v>
   <v>       0.08333333       0.16666667       0.00000000 </v>
   <v>       0.25000000      -0.08333333       0.00000000 </v>
   <v>       0.25000000       0.08333333       0.00000000 </v>
   <v>      -0.08333333       0.33333333       0.00000000 </v>
   <v>      -0.33333333       0.25000000       0.00000000 </v>
   <v>      -0.25000000       0.33333333       0.00000000 </v>
   <v>       0.08333333       0.25000000       0.00000000 </v>
   <v>       0.33333333      -0.08333333       0.00000000 </v>
   <v>       0.33333333       0.08333333       0.00000000 </v>
   <v>      -0.08333333       0.41666667       0.00000000 </v>
   <v>      -0.41666667       0.33333333       0.00000000 </v>
   <v>      -0.33333333       0.41666667       0.00000000 </v>
   <v>       0.08333333       0.33333333       0.00000000 </v>
   <v>       0.41666667      -0.08333333       0.00000000 </v>
   <v>       0.41666667       0.08333333       0.00000000 </v>
   <v>      -0.08333333       0.50000000       0.00000000 </v>
   <v>       0.50000000       0.41666667       0.00000000 </v>
   <v>      -0.41666667       0.50000000       0.00000000 </v>
   <v>       0.08333333       0.41666667       0.00000000 </v>
   <v>       0.50000000      -0.08333333       0.00000000 </v>
   <v>       0.16666667       0.16666667       0.00000000 </v>
   <v>      -0.16666667       0.33333333       0.00000000 </v>
   <v>      -0.33333333       0.16666667       0.00000000 </v>
   <v>       0.25000000       0.16666667       0.00000000 </v>
   <v>      -0.16666667       0.41666667       0.00000000 </v>
   <v>      -0.41666667       0.25000000       0.00000000 </v>
   <v>      -0.25000000       0.41666667       0.00000000 </v>
   <v>       0.16666667       0.25000000       0.00000000 </v>
   <v>       0.41666667      -0.16666667       0.00000000 </v>
   <v>       0.33333333       0.16666667       0.00000000 </v>
   <v>      -0.16666667       0.50000000       0.00000000 </v>
   <v>       0.50000000       0.33333333       0.00000000 </v>
   <v>      -0.33333333       0.50000000       0.00000000 </v>
   <v>       0.16666667       0.33333333       0.00000000 </v>
   <v>       0.50000000      -0.16666667       0.00000000 </v>
   <v>       0.41666667       0.16666667       0.00000000 </v>
   <v>      -0.16666667      -0.41666667       0.00000000 </v>
   <v>       0.41666667       0.41666667       0.00000000 </v>
   <v>       0.25000000       0.25000000       0.00000000 </v>
   <v>      -0.25000000       0.50000000       0.00000000 </v>
   <v>       0.50000000       0.25000000       0.00000000 </v>
   <v>       0.33333333       0.25000000       0.00000000 </v>
   <v>      -0.25000000      -0.41666667       0.00000000 </v>
   <v>       0.41666667       0.33333333       0.00000000 </v>
   <v>      -0.33333333      -0.41666667       0.00000000 </v>
   <v>       0.25000000       0.33333333       0.00000000 </v>
   <v>      -0.41666667      -0.25000000       0.00000000 </v>
   <v>       0.33333333       0.33333333       0.00000000 </v>
  </varray>
  <varray name="weights" >
   <v>       0.00694444 </v>
   <v>       0.01388889 </v>
   <v>       0.01388889 </v>
   <v>       0.01388889 </v>
   <v>       0.01388889 </v>
   <v>       0.01388889 </v>
   <v>       0.01388889 </v>
   <v>       0.01388889 </v>
   <v>       0.01388889 </v>
   <v>       0.01388889 </v>
   <v>       0.01388889 </v>
   <v>       0.01388889 </v>
   <v>       0.01388889 </v>
   <v>       0.01388889 </v>
   <v>       0.01388889 </v>
   <v>       0.01388889 </v>
   <v>       0.00694444 </v>
   <v>       0.00694444 </v>
   <v>       0.00694444 </v>
   <v>       0.01388889 </v>
   <v>       0.01388889 </v>
   <v>       0.01388889 </v>
   <v>       0.01388889 </v>
   <v>       0.01388889 </v>
   <v>       0.01388889 </v>
   <v>       0.01388889 </v>
   <v>       0.01388889 </v>
   <v>       0.01388889 </v>
   <v>       0.01388889 </v>
   <v>       0.01388889 </v>
   <v>       0.01388889 </v>
   <v>       0.01388889 </v>
   <v>       0.01388889 </v>
   <v>       0.01388889 </v>
   <v>       0.01388889 </v>
   <v>       0.01388889 </v>
   <v>       0.01388889 </v>
   <v>       0.01388889 </v>
   <v>       0.01388889 </v>
   <v>       0.01388889 </v>
   <v>       0.01388889 </v>
   <v>       0.01388889 </v>
   <v>       0.01388889 </v>
   <v>       0.01388889 </v>
   <v>       0.01388889 </v>
   <v>       0.01388889 </v>
   <v>       0.01388889 </v>
   <v>       0.01388889 </v>
   <v>       0.01388889 </v>
   <v>       0.01388889 </v>
   <v>       0.01388889 </v>
   <v>       0.01388889 </v>
   <v>       0.01388889 </v>
   <v>       0.01388889 </v>
   <v>       0.01388889 </v>
   <v>       0.01388889 </v>
   <v>       0.01388889 </v>
   <v>       0.01388889 </v>
   <v>       0.01388889 </v>
   <v>       0.01388889 </v>
   <v>       0.01388889 </v>
   <v>       0.01388889 </v>
   <v>       0.01388889 </v>
   <v>       0.01388889 </v>
   <v>       0.01388889 </v>
   <v>       0.01388889 </v>
   <v>       0.01388889 </v>
   <v>       0.01388889 </v>
   <v>       0.01388889 </v>
   <v>       0.01388889 </v>
   <v>       0.01388889 </v>
   <v>       0.01388889 </v>
   <v>       0.01388889 </v>
   <v>       0.01388889 </v>
  </varray>
 </kpoints>
 <parameters>
  <separator name="general" >
   <i type="string" name="SYSTEM">Lattice</i>
   <i type="logical" name="LCOMPAT"> F  </i>
  </separator>
  <separator name="electronic" >
   <i type="string" name="PREC">accura</i>
   <i name="ENMAX">    450.00000000</i>
   <i name="ENAUG">    644.87300000</i>
   <i name="EDIFF">      0.00000100</i>
   <i type="int" name="IALGO">    38</i>
   <i type="int" name="IWAVPR">    11</i>
   <i type="int" name="NBANDS">    48</i>
   <i type="int" name="NBANDSLOW">    -1</i>
   <i type="int" name="NBANDSHIGH">    -1</i>
   <i name="NELECT">     56.00000000</i>
   <i type="int" name="TURBO">     0</i>
   <i type="int" name="IRESTART">     0</i>
   <i type="int" name="NREBOOT">     0</i>
   <i type="int" name="NMIN">     0</i>
   <i name="EREF">      0.00000000</i>
   <separator name="electronic smearing" >
    <i type="int" name="ISMEAR">     0</i>
    <i name="SIGMA">      0.10000000</i>
    <i name="KSPACING">      0.50000000</i>
    <i type="logical" name="KGAMMA"> T  </i>
    <i type="logical" name="KBLOWUP"> T  </i>
   </separator>
   <separator name="electronic projectors" >
    <i type="logical" name="LREAL"> F  </i>
    <v name="ROPT">      0.00000000      0.00000000</v>
    <i type="int" name="LMAXPAW">  -100</i>
    <i type="int" name="LMAXMIX">     2</i>
    <i type="logical" name="NLSPLINE"> F  </i>
   </separator>
   <separator name="electronic startup" >
    <i type="int" name="ISTART">     0</i>
    <i type="int" name="ICHARG">     2</i>
    <i type="int" name="INIWAV">     1</i>
   </separator>
   <separator name="electronic spin" >
    <i type="int" name="ISPIN">     2</i>
    <i type="logical" name="LNONCOLLINEAR"> F  </i>
    <v name="MAGMOM">      1.00000000      1.00000000      1.00000000      1.00000000      1.00000000      1.00000000      1.00000000      1.00000000      1.00000000      1.00000000      1.00000000      1.00000000      1.00000000      1.00000000      1.00000000</v>
    <i name="NUPDOWN">     -1.00000000</i>
    <i type="logical" name="LSORBIT"> F  </i>
    <v name="SAXIS">      0.00000000      0.00000000      1.00000000</v>
    <i type="logical" name="LSPIRAL"> F  </i>
    <v name="QSPIRAL">      0.00000000      0.00000000      0.00000000</v>
    <i type="logical" name="LZEROZ"> F  </i>
   </separator>
   <separator name="electronic exchange-correlation" >
    <i type="logical" name="LASPH"> F  </i>
    <i type="logical" name="LMETAGGA"> F  </i>
   </separator>
   <separator name="electronic convergence" >
    <i type="int" name="NELM">    64</i>
    <i type="int" name="NELMDL">    -5</i>
    <i type="int" name="NELMIN">     2</i>
    <i name="ENINI">    450.00000000</i>
    <separator name="electronic convergence detail" >
     <i type="logical" name="LDIAG"> T  </i>
     <i type="logical" name="LSUBROT"> F  </i>
     <i name="WEIMIN">      0.00100000</i>
     <i name="EBREAK">      0.00000001</i>
     <i name="DEPER">      0.30000000</i>
     <i type="int" name="NRMM">     4</i>
     <i name="TIME">      0.40000000</i>
    </separator>
   </separator>
   <separator name="electronic mixer" >
    <i name="AMIX">      0.40000000</i>
    <i name="BMIX">      1.00000000</i>
    <i name="AMIN">      0.10000000</i>
    <i name="AMIX_MAG">      1.60000000</i>
    <i name="BMIX_MAG">      1.00000000</i>
    <separator name="electronic mixer details" >
     <i type="int" name="IMIX">     4</i>
     <i type="logical" name="MIXFIRST"> F  </i>
     <i type="int" name="MAXMIX">   -45</i>
     <i name="WC">    100.00000000</i>
     <i type="int" name="INIMIX">     1</i>
     <i type="int" name="MIXPRE">     1</i>
     <i type="int" name="MREMOVE">     5</i>
    </separator>
   </separator>
   <separator name="electronic dipolcorrection" >
    <i type="logical" name="LDIPOL"> F  </i>
    <i type="logical" name="LMONO"> F  </i>
    <i type="int" name="IDIPOL">     0</i>
    <i name="EPSILON">      1.00000000</i>
    <v name="DIPOL">   -100.00000000   -100.00000000   -100.00000000</v>
    <i name="EFIELD">      0.00000000</i>
   </separator>
  </separator>
  <separator name="grids" >
   <i type="int" name="NGX">    36</i>
   <i type="int" name="NGY">    36</i>
   <i type="int" name="NGZ">   108</i>
   <i type="int" name="NGXF">    72</i>
   <i type="int" name="NGYF">    72</i>
   <i type="int" name="NGZF">   216</i>
   <i type="logical" name="ADDGRID"> F  </i>
  </separator>
  <separator name="ionic" >
   <i type="int" name="NSW">   128</i>
   <i type="int" name="IBRION">     2</i>
   <i type="int" name="MDALGO">     0</i>
   <i type="int" name="ISIF">     2</i>
   <i name="PSTRESS">      0.00000000</i>
   <i name="EDIFFG">     -0.00100000</i>
   <i type="int" name="NFREE">     1</i>
   <i name="POTIM">      0.50000000</i>
   <i name="SMASS">     -3.00000000</i>
   <i name="SCALEE">      1.00000000</i>
  </separator>
  <separator name="ionic md" >
   <i name="TEBEG">      0.00010000</i>
   <i name="TEEND">      0.00010000</i>
   <i type="int" name="NBLOCK">     1</i>
   <i type="int" name="KBLOCK">   128</i>
   <i type="int" name="NPACO">   256</i>
   <i name="APACO">     10.00000000</i>
  </separator>
  <separator name="symmetry" >
   <i type="int" name="ISYM">     2</i>
   <i name="SYMPREC">      0.00001000</i>
  </separator>
  <separator name="dos" >
   <i type="int" name="LORBIT">     0</i>
   <v name="RWIGS">     -1.00000000     -1.00000000</v>
   <i type="int" name="NEDOS">   301</i>
   <i name="EMIN">     10.00000000</i>
   <i name="EMAX">    -10.00000000</i>
   <i name="EFERMI">      0.00000000</i>
  </separator>
  <separator name="writing" >
   <i type="int" name="NWRITE">     2</i>
   <i type="logical" name="LWAVE"> F  </i>
   <i type="logical" name="LDOWNSAMPLE"> F  </i>
   <i type="logical" name="LCHARG"> F  </i>
   <i type="logical" name="LPARD"> F  </i>
   <i type="logical" name="LVTOT"> F  </i>
   <i type="logical" name="LVHAR"> F  </i>
   <i type="logical" name="LELF"> F  </i>
   <i type="logical" name="LOPTICS"> F  </i>
   <v name="STM">      0.00000000      0.00000000      0.00000000      0.00000000      0.00000000      0.00000000      0.00000000</v>
  </separator>
  <separator name="performance" >
   <i type="int" name="NPAR">    48</i>
   <i type="int" name="NSIM">     4</i>
   <i type="int" name="NBLK">    -1</i>
   <i type="logical" name="LPLANE"> T  </i>
   <i type="logical" name="LSCALAPACK"> T  </i>
   <i type="logical" name="LSCAAWARE"> F  </i>
   <i type="logical" name="LSCALU"> F  </i>
   <i type="logical" name="LASYNC"> F  </i>
   <i type="logical" name="LORBITALREAL"> F  </i>
  </separator>
  <separator name="miscellaneous" >
   <i type="int" name="IDIOT">     3</i>
   <i type="int" name="PHON_NSTRUCT">    -1</i>
   <i type="logical" name="LMUSIC"> F  </i>
   <v name="POMASS">     10.81100000     12.01100000</v>
   <v name="DARWINR">      0.00000000      0.00000000</v>
   <v name="DARWINV">      1.00000000      1.00000000</v>
   <i type="logical" name="LCORR"> T  </i>
  </separator>
  <i type="logical" name="GGA_COMPAT"> T  </i>
  <i type="logical" name="LBERRY"> F  </i>
  <i type="int" name="ICORELEVEL">     0</i>
  <i type="logical" name="LDAU"> F  </i>
  <i type="int" name="I_CONSTRAINED_M">     0</i>
  <separator name="electronic exchange-correlation" >
   <i type="string" name="GGA">PE</i>
   <i type="int" name="VOSKOWN">     0</i>
   <i type="logical" name="LHFCALC"> F  </i>
   <i type="string" name="PRECFOCK"></i>
   <i type="logical" name="LSYMGRAD"> F  </i>
   <i type="logical" name="LHFONE"> F  </i>
   <i type="logical" name="LRHFCALC"> F  </i>
   <i type="logical" name="LTHOMAS"> F  </i>
   <i type="logical" name="LMODELHF"> F  </i>
   <i type="logical" name="LFOCKACE"> F  </i>
   <i name="ENCUT4O">     -1.00000000</i>
   <i type="int" name="EXXOEP">     0</i>
   <i type="int" name="FOURORBIT">     0</i>
   <i name="AEXX">      0.00000000</i>
   <i name="HFALPHA">      0.00000000</i>
   <i name="MCALPHA">      0.00000000</i>
   <i name="ALDAX">      1.00000000</i>
   <i name="AGGAX">      1.00000000</i>
   <i name="ALDAC">      1.00000000</i>
   <i name="AGGAC">      1.00000000</i>
   <i type="int" name="NKREDX">     1</i>
   <i type="int" name="NKREDY">     1</i>
   <i type="int" name="NKREDZ">     1</i>
   <i type="logical" name="SHIFTRED"> F  </i>
   <i type="logical" name="ODDONLY"> F  </i>
   <i type="logical" name="EVENONLY"> F  </i>
   <i type="int" name="LMAXFOCK">     0</i>
   <i type="int" name="NMAXFOCKAE">     0</i>
   <i type="logical" name="LFOCKAEDFT"> F  </i>
   <i name="HFSCREEN">      0.00000000</i>
   <i name="HFSCREENC">      0.00000000</i>
   <i type="int" name="NBANDSGWLOW">     0</i>
  </separator>
  <separator name="vdW DFT" >
   <i type="logical" name="LUSE_VDW"> F  </i>
   <i name="Zab_VDW">     -0.84910000</i>
   <i name="PARAM1">      0.12340000</i>
   <i name="PARAM2">      1.00000000</i>
   <i name="PARAM3">      0.00000000</i>
  </separator>
  <separator name="model GW" >
   <i type="int" name="MODEL_GW">     0</i>
   <i name="MODEL_EPS0">     12.25290985</i>
   <i name="MODEL_ALPHA">      1.00000000</i>
  </separator>
  <separator name="linear response parameters" >
   <i type="logical" name="LEPSILON"> F  </i>
   <i type="logical" name="LRPA"> F  </i>
   <i type="logical" name="LNABLA"> F  </i>
   <i type="logical" name="LVEL"> F  </i>
   <i name="CSHIFT">      0.10000000</i>
   <i name="OMEGAMAX">     -1.00000000</i>
   <i name="DEG_THRESHOLD">      0.00200000</i>
   <i name="RTIME">     -0.10000000</i>
   <i name="WPLASMAI">      0.00000000</i>
   <v name="DFIELD">      0.00000000      0.00000000      0.00000000</v>
   <v name="WPLASMA">      0.00000000      0.00000000      0.00000000      0.00000000      0.00000000      0.00000000      0.00000000      0.00000000      0.00000000</v>
  </separator>
  <separator name="orbital magnetization" >
   <i type="logical" name="NUCIND"> F  </i>
   <v name="MAGPOS">      0.00000000      0.00000000      0.00000000</v>
   <i type="logical" name="LNICSALL"> T  </i>
   <i type="logical" name="ORBITALMAG"> F  </i>
   <i type="logical" name="LMAGBLOCH"> F  </i>
   <i type="logical" name="LCHIMAG"> F  </i>
   <i type="logical" name="LGAUGE"> T  </i>
   <i type="int" name="MAGATOM">     0</i>
   <v name="MAGDIPOL">      0.00000000      0.00000000      0.00000000</v>
   <v name="AVECCONST">      0.00000000      0.00000000      0.00000000</v>
  </separator>
  <separator name="response functions" >
   <i type="logical" name="LFINITE_TEMPERATURE"> F  </i>
   <i type="logical" name="LADDER"> F  </i>
   <i type="logical" name="LRPAFORCE"> F  </i>
   <i type="logical" name="LFXC"> F  </i>
   <i type="logical" name="LHARTREE"> T  </i>
   <i type="int" name="IBSE">     0</i>
   <v type="int" name="KPOINT">    -1     0     0     0</v>
   <i type="logical" name="LTCTC"> F  </i>
   <i type="logical" name="LTCTE"> F  </i>
   <i type="logical" name="LTETE"> F  </i>
   <i type="logical" name="LTRIPLET"> F  </i>
   <i type="logical" name="LFXCEPS"> F  </i>
   <i type="logical" name="LFXHEG"> F  </i>
   <i type="int" name="NATURALO">     2</i>
   <i type="logical" name="LHOLEGF"> F  </i>
   <i type="logical" name="L2ORDER"> F  </i>
   <i type="logical" name="LDMP1"> F  </i>
   <i type="logical" name="LMP2LT"> F  </i>
   <i type="logical" name="LSMP2LT"> F  </i>
   <i type="logical" name="LGWLF"> F  </i>
   <i name="ENCUTGW">     -2.00000000</i>
   <i name="ENCUTGWSOFT">     -2.00000000</i>
   <i name="ENCUTLF">     -1.00000000</i>
   <i type="logical" name="LESF_SPLINES"> F  </i>
   <i type="int" name="LMAXMP2">    -1</i>
   <i name="SCISSOR">      0.00000000</i>
   <i type="int" name="NOMEGA">     0</i>
   <i type="int" name="NOMEGAR">     0</i>
   <i type="int" name="NBANDSGW">    -1</i>
   <i type="int" name="NBANDSO">    -1</i>
   <i type="int" name="NBANDSV">    -1</i>
   <i type="int" name="NELMGW">     1</i>
   <i type="int" name="NELMHF">     1</i>
   <i type="int" name="DIM">     3</i>
   <i type="int" name="IESPILON">     4</i>
   <i type="int" name="ANTIRES">     0</i>
   <i name="OMEGAMAX">    -30.00000000</i>
   <i name="OMEGAMIN">    -30.00000000</i>
   <i name="OMEGATL">   -200.00000000</i>
   <i type="int" name="OMEGAGRID">     0</i>
   <i name="CSHIFT">     -0.10000000</i>
   <i type="logical" name="LSELFENERGY"> F  </i>
   <i type="logical" name="LSPECTRAL"> F  </i>
   <i type="logical" name="LSPECTRALGW"> F  </i>
   <i type="logical" name="LSINGLES"> F  </i>
   <i type="logical" name="LFERMIGW"> F  </i>
   <i type="logical" name="ODDONLYGW"> F  </i>
   <i type="logical" name="EVENONLYGW"> F  </i>
   <i type="int" name="NKREDLFX">     1</i>
   <i type="int" name="NKREDLFY">     1</i>
   <i type="int" name="NKREDLFZ">     1</i>
   <i type="int" name="MAXMEM">  2800</i>
   <i type="int" name="TELESCOPE">     0</i>
   <i type="int" name="NTAUPAR">    -1</i>
   <i type="int" name="NOMEGAPAR">    -1</i>
   <i name="DAMP_NEWTON">      0.80000001</i>
   <i name="LAMBDA">      1.00000000</i>
  </separator>
  <separator name="External order field" >
   <i name="OFIELD_KAPPA">      0.00000000</i>
   <v name="OFIELD_K">      0.00000000      0.00000000      0.00000000</v>
   <i name="OFIELD_Q6_NEAR">      0.00000000</i>
   <i name="OFIELD_Q6_FAR">      0.00000000</i>
   <i name="OFIELD_A">      0.00000000</i>
  </separator>
  <separator name="optional k-points parameters" >
   <i type="int" name="KPOINTS_OPT_MODE">     1</i>
   <i type="logical" name="LKPOINTS_OPT"> F  </i>
  </separator>
  <separator name="solvation model" >
   <i type="logical" name="LSOL"> F  </i>
  </separator>
 </parameters>
 <atominfo>
  <atoms>      15 </atoms>
  <types>       2 </types>
  <array name="atoms" >
   <dimension dim="1">ion</dimension>
   <field type="string">element</field>
   <field type="int">atomtype</field>
   <set>
    <rc><c>B </c><c>   1</c></rc>
    <rc><c>B </c><c>   1</c></rc>
    <rc><c>B </c><c>   1</c></rc>
    <rc><c>B </c><c>   1</c></rc>
    <rc><c>C </c><c>   2</c></rc>
    <rc><c>C </c><c>   2</c></rc>
    <rc><c>C </c><c>   2</c></rc>
    <rc><c>C </c><c>   2</c></rc>
    <rc><c>C </c><c>   2</c></rc>
    <rc><c>C </c><c>   2</c></rc>
    <rc><c>C </c><c>   2</c></rc>
    <rc><c>C </c><c>   2</c></rc>
    <rc><c>C </c><c>   2</c></rc>
    <rc><c>C </c><c>   2</c></rc>
    <rc><c>C </c><c>   2</c></rc>
   </set>
  </array>
  <array name="atomtypes" >
   <dimension dim="1">type</dimension>
   <field type="int">atomspertype</field>
   <field type="string">element</field>
   <field>mass</field>
   <field>valence</field>
   <field type="string">pseudopotential</field>
   <set>
    <rc><c>   4</c><c>B </c><c>     10.81100000</c><c>      3.00000000</c><c>  PAW_PBE B 06Sep2000                   </c></rc>
    <rc><c>  11</c><c>C </c><c>     12.01100000</c><c>      4.00000000</c><c>  PAW_PBE C 08Apr2002                   </c></rc>
   </set>
  </array>
 </atominfo>
 <structure name="initialpos" >
  <crystal>
   <varray name="basis" >
    <v>       4.20541936       2.42800000       0.00000000 </v>
    <v>      -4.20541936       2.42800000       0.00000000 </v>
    <v>       0.00000000       0.00000000      15.00000000 </v>
   </varray>
   <i name="volume">    306.32274624 </i>
   <varray name="rec_basis" >
    <v>       0.11889421       0.20593081       0.00000000 </v>
    <v>      -0.11889421       0.20593081       0.00000000 </v>
    <v>       0.00000000       0.00000000       0.06666667 </v>
   </varray>
  </crystal>
  <varray name="positions" >
   <v>       0.00415361       0.00267210       0.12034134 </v>
   <v>       0.35695335       0.00285503       0.09748893 </v>
   <v>       0.00423858       0.35550699       0.09749256 </v>
   <v>       0.65142295       0.65006557       0.09747688 </v>
   <v>       0.32808646       0.32671938       0.10030508 </v>
   <v>       0.68027775       0.00278085       0.10027562 </v>
   <v>       0.00416530       0.67883808       0.10026559 </v>
   <v>       0.99999933       0.49999967       0.33373333 </v>
   <v>       0.16666633       0.33333267       0.33373333 </v>
   <v>       0.99999933       0.99999967       0.33373333 </v>
   <v>       0.16666633       0.83333267       0.33373333 </v>
   <v>       0.49999933       0.49999967       0.33373333 </v>
   <v>       0.66666633       0.33333267       0.33373333 </v>
   <v>       0.49999933       0.99999967       0.33373333 </v>
   <v>       0.66666633       0.83333267       0.33373333 </v>
  </varray>
 </structure>
 <calculation>
  <scstep>
   <time name="dav">    5.48    5.52</time>
   <time name="total">    5.52    5.57</time>
   <energy>
    <i name="alphaZ">     58.06716954 </i>
    <i name="ewald">   4755.51364500 </i>
    <i name="hartreedc">  -6313.21220735 </i>
    <i name="XCdc">    174.94413398 </i>
    <i name="pawpsdc">   1365.87943566 </i>
    <i name="pawaedc">  -1368.52100941 </i>
    <i name="eentropy">     -0.01853272 </i>
    <i name="bandstr">   -372.88516949 </i>
    <i name="atom">   1903.26342058 </i>
    <i name="e_fr_energy">    203.03088580 </i>
    <i name="e_wo_entrp">    203.04941852 </i>
    <i name="e_0_energy">    203.04015216 </i>
   </energy>
  </scstep>
  <scstep>
   <time name="dav">    7.84    7.92</time>
   <time name="total">    7.84    7.92</time>
   <energy>
    <i name="e_fr_energy">   -116.04707002 </i>
    <i name="e_wo_entrp">   -116.04606651 </i>
    <i name="e_0_energy">   -116.04656827 </i>
   </energy>
  </scstep>
  <scstep>
   <time name="dav">   11.37   11.46</time>
   <time name="total">   11.37   11.47</time>
   <energy>
    <i name="e_fr_energy">   -129.17287760 </i>
    <i name="e_wo_entrp">   -129.16965155 </i>
    <i name="e_0_energy">   -129.17126457 </i>
   </energy>
  </scstep>
  <scstep>
   <time name="dav">    7.98    8.06</time>
   <time name="total">    7.99    8.06</time>
   <energy>
    <i name="e_fr_energy">   -129.19620604 </i>
    <i name="e_wo_entrp">   -129.19296322 </i>
    <i name="e_0_energy">   -129.19458463 </i>
   </energy>
  </scstep>
  <scstep>
   <time name="dav">   10.73   10.81</time>
   <time name="total">   10.99   11.07</time>
   <energy>
    <i name="e_fr_energy">   -129.19627069 </i>
    <i name="e_wo_entrp">   -129.19302762 </i>
    <i name="e_0_energy">   -129.19464915 </i>
   </energy>
  </scstep>
  <scstep>
   <time name="dav">   10.58   10.65</time>
   <time name="total">   10.88   10.96</time>
   <energy>
    <i name="e_fr_energy">    -92.06387230 </i>
    <i name="e_wo_entrp">    -92.05758949 </i>
    <i name="e_0_energy">    -92.06073089 </i>
   </energy>
  </scstep>
  <scstep>
   <time name="dav">    8.95    9.02</time>
   <time name="total">    9.25    9.32</time>
   <energy>
    <i name="e_fr_energy">   -100.50116586 </i>
    <i name="e_wo_entrp">   -100.49545140 </i>
    <i name="e_0_energy">   -100.49830863 </i>
   </energy>
  </scstep>
  <scstep>
   <time name="dav">    9.83    9.91</time>
   <time name="total">   10.13   10.21</time>
   <energy>
    <i name="e_fr_energy">   -110.47933323 </i>
    <i name="e_wo_entrp">   -110.47931782 </i>
    <i name="e_0_energy">   -110.47932553 </i>
   </energy>
  </scstep>
  <scstep>
   <time name="dav">    7.16    7.22</time>
   <time name="total">    7.45    7.51</time>
   <energy>
    <i name="e_fr_energy">   -117.31337425 </i>
    <i name="e_wo_entrp">   -117.31336948 </i>
    <i name="e_0_energy">   -117.31337186 </i>
   </energy>
  </scstep>
  <scstep>
   <time name="dav">    9.82    9.88</time>
   <time name="total">   10.11   10.18</time>
   <energy>
    <i name="e_fr_energy">   -123.68400616 </i>
    <i name="e_wo_entrp">   -123.68331007 </i>
    <i name="e_0_energy">   -123.68365812 </i>
   </energy>
  </scstep>
  <scstep>
   <time name="dav">   10.70   10.77</time>
   <time name="total">   10.98   11.07</time>
   <energy>
    <i name="e_fr_energy">   -125.27131953 </i>
    <i name="e_wo_entrp">   -125.27014748 </i>
    <i name="e_0_energy">   -125.27073351 </i>
   </energy>
  </scstep>
  <scstep>
   <time name="dav">    7.65    7.70</time>
   <time name="total">    7.94    8.00</time>
   <energy>
    <i name="e_fr_energy">   -125.42341878 </i>
    <i name="e_wo_entrp">   -125.42193872 </i>
    <i name="e_0_energy">   -125.42267875 </i>
   </energy>
  </scstep>
  <scstep>
   <time name="dav">    7.68    7.74</time>
   <time name="total">    7.97    8.04</time>
   <energy>
    <i name="e_fr_energy">   -125.45896365 </i>
    <i name="e_wo_entrp">   -125.45743022 </i>
    <i name="e_0_energy">   -125.45819694 </i>
   </energy>
  </scstep>
  <scstep>
   <time name="dav">    8.02    8.07</time>
   <time name="total">    8.31    8.37</time>
   <energy>
    <i name="e_fr_energy">   -125.48211841 </i>
    <i name="e_wo_entrp">   -125.48058034 </i>
    <i name="e_0_energy">   -125.48134937 </i>
   </energy>
  </scstep>
  <scstep>
   <time name="dav">    7.58    7.63</time>
   <time name="total">    7.87    7.93</time>
   <energy>
    <i name="e_fr_energy">   -125.48869329 </i>
    <i name="e_wo_entrp">   -125.48715470 </i>
    <i name="e_0_energy">   -125.48792400 </i>
   </energy>
  </scstep>
  <scstep>
   <time name="dav">    6.73    6.79</time>
   <time name="total">    7.02    7.08</time>
   <energy>
    <i name="e_fr_energy">   -125.49070036 </i>
    <i name="e_wo_entrp">   -125.48916182 </i>
    <i name="e_0_energy">   -125.48993109 </i>
   </energy>
  </scstep>
  <scstep>
   <time name="dav">    6.39    6.44</time>
   <time name="total">    6.68    6.74</time>
   <energy>
    <i name="e_fr_energy">   -125.49193282 </i>
    <i name="e_wo_entrp">   -125.49039429 </i>
    <i name="e_0_energy">   -125.49116355 </i>
   </energy>
  </scstep>
  <scstep>
   <time name="dav">    6.75    6.79</time>
   <time name="total">    7.03    7.09</time>
   <energy>
    <i name="e_fr_energy">   -125.49270221 </i>
    <i name="e_wo_entrp">   -125.49116369 </i>
    <i name="e_0_energy">   -125.49193295 </i>
   </energy>
  </scstep>
  <scstep>
   <time name="dav">    8.37    8.43</time>
   <time name="total">    8.66    8.73</time>
   <energy>
    <i name="e_fr_energy">   -125.49311977 </i>
    <i name="e_wo_entrp">   -125.49158128 </i>
    <i name="e_0_energy">   -125.49235052 </i>
   </energy>
  </scstep>
  <scstep>
   <time name="dav">    9.05    9.11</time>
   <time name="total">    9.34    9.41</time>
   <energy>
    <i name="e_fr_energy">   -125.49315859 </i>
    <i name="e_wo_entrp">   -125.49162008 </i>
    <i name="e_0_energy">   -125.49238933 </i>
   </energy>
  </scstep>
  <scstep>
   <time name="dav">    8.45    8.50</time>
   <time name="total">    8.74    8.80</time>
   <energy>
    <i name="e_fr_energy">   -125.49318209 </i>
    <i name="e_wo_entrp">   -125.49164356 </i>
    <i name="e_0_energy">   -125.49241283 </i>
   </energy>
  </scstep>
  <scstep>
   <time name="dav">    9.10    9.15</time>
   <time name="total">    9.38    9.45</time>
   <energy>
    <i name="e_fr_energy">   -125.49320523 </i>
    <i name="e_wo_entrp">   -125.49166670 </i>
    <i name="e_0_energy">   -125.49243596 </i>
   </energy>
  </scstep>
  <scstep>
   <time name="dav">    8.67    8.73</time>
   <time name="total">    8.96    9.03</time>
   <energy>
    <i name="e_fr_energy">   -125.49321603 </i>
    <i name="e_wo_entrp">   -125.49167750 </i>
    <i name="e_0_energy">   -125.49244676 </i>
   </energy>
  </scstep>
  <scstep>
   <time name="dav">    9.97   10.04</time>
   <time name="total">   10.26   10.33</time>
   <energy>
    <i name="e_fr_energy">   -125.49321842 </i>
    <i name="e_wo_entrp">   -125.49167988 </i>
    <i name="e_0_energy">   -125.49244915 </i>
   </energy>
  </scstep>
  <scstep>
   <time name="dav">    8.73    8.79</time>
   <time name="total">    9.01    9.08</time>
   <energy>
    <i name="e_fr_energy">   -125.49321944 </i>
    <i name="e_wo_entrp">   -125.49168090 </i>
    <i name="e_0_energy">   -125.49245017 </i>
   </energy>
  </scstep>
  <scstep>
   <time name="dav">    9.30    9.37</time>
   <time name="total">    9.34    9.41</time>
   <energy>
    <i name="alphaZ">     58.06716954 </i>
    <i name="ewald">   4755.51364500 </i>
    <i name="hartreedc">  -6512.43855806 </i>
    <i name="XCdc">    180.24124917 </i>
    <i name="pawpsdc">   5680.48822455 </i>
    <i name="pawaedc">  -5684.87681130 </i>
    <i name="eentropy">     -0.00153854 </i>
    <i name="bandstr">   -505.75002088 </i>
    <i name="atom">   1903.26342058 </i>
    <i name="e_fr_energy">   -125.49321994 </i>
    <i name="e_wo_entrp">   -125.49168140 </i>
    <i name="e_0_energy">   -125.49245067 </i>
   </energy>
  </scstep>
  <structure>
   <crystal>
    <varray name="basis" >
     <v>       4.20541936       2.42800000       0.00000000 </v>
     <v>      -4.20541936       2.42800000       0.00000000 </v>
     <v>       0.00000000       0.00000000      15.00000000 </v>
    </varray>
    <i name="volume">    306.32274624 </i>
    <varray name="rec_basis" >
     <v>       0.11889421       0.20593081       0.00000000 </v>
     <v>      -0.11889421       0.20593081       0.00000000 </v>
     <v>       0.00000000       0.00000000       0.06666667 </v>
    </varray>
   </crystal>
   <varray name="positions" >
    <v>       0.00415361       0.00267210       0.12034134 </v>
    <v>       0.35695335       0.00285503       0.09748893 </v>
    <v>       0.00423858       0.35550699       0.09749256 </v>
    <v>       0.65142295       0.65006557       0.09747688 </v>
    <v>       0.32808646       0.32671938       0.10030508 </v>
    <v>       0.68027775       0.00278085       0.10027562 </v>
    <v>       0.00416530       0.67883808       0.10026559 </v>
    <v>       0.99999933       0.49999967       0.33373333 </v>
    <v>       0.16666633       0.33333267       0.33373333 </v>
    <v>       0.99999933       0.99999967       0.33373333 </v>
    <v>       0.16666633       0.83333267       0.33373333 </v>
    <v>       0.49999933       0.49999967       0.33373333 </v>
    <v>       0.66666633       0.33333267       0.33373333 </v>
    <v>       0.49999933       0.99999967       0.33373333 </v>
    <v>       0.66666633       0.83333267       0.33373333 </v>
   </varray>
  </structure>
  <varray name="forces" >
   <v>      -0.00454125       0.00525882      -0.36567184 </v>
   <v>      -0.11807056      -0.04992310       0.11216589 </v>
   <v>       0.09754661      -0.08459109       0.11167597 </v>
   <v>       0.02284935       0.12704556       0.11325921 </v>
   <v>       0.03020549      -0.37667380      -0.00240174 </v>
   <v>       0.30939780       0.21161017       0.00013300 </v>
   <v>      -0.33769828       0.16646913       0.00100524 </v>
   <v>       0.01336833       0.00510901       0.00295202 </v>
   <v>      -0.03539050       0.04083702       0.02172086 </v>
   <v>       0.00051281      -0.00029718      -0.03087715 </v>
   <v>       0.05253565       0.00979507       0.02262012 </v>
   <v>      -0.01079719       0.01046724       0.00384827 </v>
   <v>      -0.00045549       0.00026181      -0.01484827 </v>
   <v>      -0.00194806      -0.01405085       0.00280313 </v>
   <v>      -0.01751473      -0.05131781       0.02161528 </v>
  </varray>
  <varray name="stress" >
   <v>     -16.81480749       0.01692139      -0.00174099 </v>
   <v>       0.01692139     -16.78983054       0.02427004 </v>
   <v>      -0.00174099       0.02427006      -2.22458115 </v>
  </varray>
  <energy>
   <i name="e_fr_energy">   -127.09521441 </i>
   <i name="e_wo_entrp">   -127.09367587 </i>
   <i name="e_0_energy">   -127.09444514 </i>
  </energy>
  <time name="totalsc">  233.73  235.59</time>
 </calculation>
 <calculation>
  <scstep>
   <time name="dav">    5.44    5.48</time>
   <time name="total">    5.73    5.78</time>
   <energy>
    <i name="alphaZ">     58.06716954 </i>
    <i name="ewald">   4759.18248435 </i>
    <i name="hartreedc">  -6514.66386529 </i>
    <i name="XCdc">    180.32386055 </i>
    <i name="pawpsdc">   5680.49469969 </i>
    <i name="pawaedc">  -5684.88328948 </i>
    <i name="eentropy">     -0.00154341 </i>
    <i name="bandstr">   -507.28569303 </i>
    <i name="atom">   1903.26342058 </i>
    <i name="e_fr_energy">   -125.50275650 </i>
    <i name="e_wo_entrp">   -125.50121309 </i>
    <i name="e_0_energy">   -125.50198480 </i>
   </energy>
  </scstep>
  <scstep>
   <time name="dav">   11.01   11.08</time>
   <time name="total">   11.29   11.37</time>
   <energy>
    <i name="e_fr_energy">   -125.49325413 </i>
    <i name="e_wo_entrp">   -125.49171058 </i>
    <i name="e_0_energy">   -125.49248235 </i>
   </energy>
  </scstep>
  <scstep>
   <time name="dav">    8.44    8.50</time>
   <time name="total">    8.73    8.80</time>
   <energy>
    <i name="e_fr_energy">   -125.49214150 </i>
    <i name="e_wo_entrp">   -125.49059787 </i>
    <i name="e_0_energy">   -125.49136969 </i>
   </energy>
  </scstep>
  <scstep>
   <time name="dav">   11.59   11.66</time>
   <time name="total">   11.87   11.96</time>
   <energy>
    <i name="e_fr_energy">   -125.49209170 </i>
    <i name="e_wo_entrp">   -125.49054827 </i>
    <i name="e_0_energy">   -125.49131999 </i>
   </energy>
  </scstep>
  <scstep>
   <time name="dav">    9.66    9.72</time>
   <time name="total">    9.95   10.02</time>
   <energy>
    <i name="e_fr_energy">   -125.49209464 </i>
    <i name="e_wo_entrp">   -125.49055130 </i>
    <i name="e_0_energy">   -125.49132297 </i>
   </energy>
  </scstep>
  <scstep>
   <time name="dav">    9.32    9.38</time>
   <time name="total">    9.35    9.42</time>
   <energy>
    <i name="alphaZ">     58.06716954 </i>
    <i name="ewald">   4759.18248435 </i>
    <i name="hartreedc">  -6515.44577579 </i>
    <i name="XCdc">    180.34142874 </i>
    <i name="pawpsdc">   5707.71838007 </i>
    <i name="pawaedc">  -5712.11583846 </i>
    <i name="eentropy">     -0.00154335 </i>
    <i name="bandstr">   -506.50182037 </i>
    <i name="atom">   1903.26342058 </i>
    <i name="e_fr_energy">   -125.49209470 </i>
    <i name="e_wo_entrp">   -125.49055135 </i>
    <i name="e_0_energy">   -125.49132303 </i>
   </energy>
  </scstep>
  <structure>
   <crystal>
    <varray name="basis" >
     <v>       4.20541936       2.42800000       0.00000000 </v>
     <v>      -4.20541936       2.42800000       0.00000000 </v>
     <v>       0.00000000       0.00000000      15.00000000 </v>
    </varray>
    <i name="volume">    306.32274624 </i>
    <varray name="rec_basis" >
     <v>       0.11889421       0.20593081       0.00000000 </v>
     <v>      -0.11889421       0.20593081       0.00000000 </v>
     <v>       0.00000000       0.00000000       0.06666667 </v>
    </varray>
   </crystal>
   <varray name="positions" >
    <v>       0.00417980       0.00275039       0.11916527 </v>
    <v>       0.35578016       0.00303629       0.09784968 </v>
    <v>       0.00395770       0.35410710       0.09785173 </v>
    <v>       0.65281616       0.65119666       0.09784114 </v>
    <v>       0.32451759       0.32280400       0.10029735 </v>
    <v>       0.68415466       0.00310849       0.10027605 </v>
    <v>       0.00388215       0.68242885       0.10026882 </v>
    <v>       0.00012677       0.49997375       0.33374283 </v>
    <v>       0.16686904       0.33394136       0.33380319 </v>
    <v>       0.99999932       0.99999377       0.33363403 </v>
    <v>       0.16706498       0.83312864       0.33380608 </v>
    <v>       0.50004139       0.50016559       0.33374571 </v>
    <v>       0.66666632       0.33333788       0.33368558 </v>
    <v>       0.49984857       0.99987125       0.33374235 </v>
    <v>       0.66605605       0.83292330       0.33380285 </v>
   </varray>
  </structure>
  <varray name="forces" >
   <v>      -0.00120117      -0.00045201      -0.14083871 </v>
   <v>       0.24311379       0.13926078       0.05961501 </v>
   <v>      -0.24597920       0.13985216       0.05922982 </v>
   <v>       0.00226728      -0.27845674       0.06035373 </v>
   <v>      -0.00301432       0.58820101      -0.02389117 </v>
   <v>      -0.50427107      -0.29762463      -0.02198956 </v>
   <v>       0.50880265      -0.29157349      -0.02172296 </v>
   <v>      -0.05479551      -0.02157864       0.01059703 </v>
   <v>       0.12314119      -0.13582177      -0.00091328 </v>
   <v>      -0.00186464       0.00123585       0.00855561 </v>
   <v>      -0.17733736      -0.03566334      -0.00074315 </v>
   <v>       0.04496454      -0.04121865       0.01075112 </v>
   <v>       0.00193900      -0.00038069      -0.00850889 </v>
   <v>       0.00733601       0.05802183       0.01051337 </v>
   <v>       0.05689881       0.17619832      -0.00100797 </v>
  </varray>
  <varray name="stress" >
   <v>     -14.05751585       0.00194168       0.00363901 </v>
   <v>       0.00194166     -14.05541703       0.01658969 </v>
   <v>       0.00363899       0.01658968      -1.83541578 </v>
  </varray>
  <energy>
   <i name="e_fr_energy">   -127.09346959 </i>
   <i name="e_wo_entrp">   -127.09192624 </i>
   <i name="e_0_energy">   -127.09269792 </i>
  </energy>
  <time name="totalsc">   61.62   62.10</time>
 </calculation>
 <calculation>
  <scstep>
   <time name="dav">    5.46    5.50</time>
   <time name="total">    5.75    5.80</time>
   <energy>
    <i name="alphaZ">     58.06716954 </i>
    <i name="ewald">   4757.20415203 </i>
    <i name="hartreedc">  -6514.23449293 </i>
    <i name="XCdc">    180.29635956 </i>
    <i name="pawpsdc">   5707.68284574 </i>
    <i name="pawaedc">  -5712.08027926 </i>
    <i name="eentropy">     -0.00154095 </i>
    <i name="bandstr">   -505.70166216 </i>
    <i name="atom">   1903.26342058 </i>
    <i name="e_fr_energy">   -125.50402785 </i>
    <i name="e_wo_entrp">   -125.50248690 </i>
    <i name="e_0_energy">   -125.50325737 </i>
   </energy>
  </scstep>
  <scstep>
   <time name="dav">   11.03   11.09</time>
   <time name="total">   11.32   11.39</time>
   <energy>
    <i name="e_fr_energy">   -125.50133308 </i>
    <i name="e_wo_entrp">   -125.49979227 </i>
    <i name="e_0_energy">   -125.50056268 </i>
   </energy>
  </scstep>
  <scstep>
   <time name="dav">    9.96   10.03</time>
   <time name="total">   10.25   10.33</time>
   <energy>
    <i name="e_fr_energy">   -125.50103470 </i>
    <i name="e_wo_entrp">   -125.49949396 </i>
    <i name="e_0_energy">   -125.50026433 </i>
   </energy>
  </scstep>
  <scstep>
   <time name="dav">    9.47    9.52</time>
   <time name="total">    9.76    9.83</time>
   <energy>
    <i name="e_fr_energy">   -125.50102098 </i>
    <i name="e_wo_entrp">   -125.49948008 </i>
    <i name="e_0_energy">   -125.50025053 </i>
   </energy>
  </scstep>
  <scstep>
   <time name="dav">    9.66    9.72</time>
   <time name="total">    9.70    9.76</time>
   <energy>
    <i name="alphaZ">     58.06716954 </i>
    <i name="ewald">   4757.20415203 </i>
    <i name="hartreedc">  -6513.84985623 </i>
    <i name="XCdc">    180.28729159 </i>
    <i name="pawpsdc">   5692.61592626 </i>
    <i name="pawaedc">  -5697.00835969 </i>
    <i name="eentropy">     -0.00154091 </i>
    <i name="bandstr">   -506.07922500 </i>
    <i name="atom">   1903.26342058 </i>
    <i name="e_fr_energy">   -125.50102184 </i>
    <i name="e_wo_entrp">   -125.49948093 </i>
    <i name="e_0_energy">   -125.50025138 </i>
   </energy>
  </scstep>
  <structure>
   <crystal>
    <varray name="basis" >
     <v>       4.20541936       2.42800000       0.00000000 </v>
     <v>      -4.20541936       2.42800000       0.00000000 </v>
     <v>       0.00000000       0.00000000      15.00000000 </v>
    </varray>
    <i name="volume">    306.32274624 </i>
    <varray name="rec_basis" >
     <v>       0.11889421       0.20593081       0.00000000 </v>
     <v>      -0.11889421       0.20593081       0.00000000 </v>
     <v>       0.00000000       0.00000000       0.06666667 </v>
    </varray>
   </crystal>
   <varray name="positions" >
    <v>       0.00416601       0.00270917       0.11978447 </v>
    <v>       0.35639785       0.00294086       0.09765975 </v>
    <v>       0.00410558       0.35484415       0.09766263 </v>
    <v>       0.65208264       0.65060114       0.09764936 </v>
    <v>       0.32639661       0.32486545       0.10030142 </v>
    <v>       0.68211346       0.00293599       0.10027582 </v>
    <v>       0.00403123       0.68053830       0.10026712 </v>
    <v>       0.00005967       0.49998739       0.33373783 </v>
    <v>       0.16676232       0.33362088       0.33376641 </v>
    <v>       0.99999933       0.99999688       0.33368631 </v>
    <v>       0.16685509       0.83323606       0.33376778 </v>
    <v>       0.50001925       0.50007823       0.33373919 </v>
    <v>       0.66666633       0.33333514       0.33371072 </v>
    <v>       0.49992795       0.99993886       0.33373760 </v>
    <v>       0.66637736       0.83313883       0.33376625 </v>
   </varray>
  </structure>
  <varray name="forces" >
   <v>      -0.00307898       0.00277077      -0.25827961 </v>
   <v>       0.05618208       0.04214580       0.08724480 </v>
   <v>      -0.06899413       0.02311342       0.08680698 </v>
   <v>       0.01371665      -0.06912497       0.08818022 </v>
   <v>       0.01516010       0.07859208      -0.01280587 </v>
   <v>      -0.07491544      -0.02807287      -0.01060781 </v>
   <v>       0.06163734      -0.05020219      -0.01004836 </v>
   <v>      -0.01856229      -0.00740820       0.00657495 </v>
   <v>       0.03938656      -0.04284918       0.01104789 </v>
   <v>      -0.00061760       0.00042596      -0.01228196 </v>
   <v>      -0.05619251      -0.01147809       0.01160161 </v>
   <v>       0.01532575      -0.01375550       0.00712005 </v>
   <v>       0.00067478      -0.00004267      -0.01195594 </v>
   <v>       0.00238191       0.01971654       0.00645688 </v>
   <v>       0.01789578       0.05616912       0.01094617 </v>
  </varray>
  <varray name="stress" >
   <v>     -15.65262912       0.00983229       0.00068020 </v>
   <v>       0.00983232     -15.64117015       0.02110018 </v>
   <v>       0.00068023       0.02110016      -2.02527080 </v>
  </varray>
  <energy>
   <i name="e_fr_energy">   -127.10271991 </i>
   <i name="e_wo_entrp">   -127.10117900 </i>
   <i name="e_0_energy">   -127.10194946 </i>
  </energy>
  <time name="totalsc">   51.48   51.86</time>
 </calculation>
 <calculation>
  <scstep>
   <time name="dav">    5.46    5.49</time>
   <time name="total">    5.75    5.80</time>
   <energy>
    <i name="alphaZ">     58.06716954 </i>
    <i name="ewald">   4757.35796017 </i>
    <i name="hartreedc">  -6513.76566255 </i>
    <i name="XCdc">    180.30409895 </i>
    <i name="pawpsdc">   5692.61303267 </i>
    <i name="pawaedc">  -5697.00547397 </i>
    <i name="eentropy">     -0.00154376 </i>
    <i name="bandstr">   -506.33885686 </i>
    <i name="atom">   1903.26342058 </i>
    <i name="e_fr_energy">   -125.50585524 </i>
    <i name="e_wo_entrp">   -125.50431148 </i>
    <i name="e_0_energy">   -125.50508336 </i>
   </energy>
  </scstep>
  <scstep>
   <time name="dav">   11.84   11.91</time>
   <time name="total">   12.13   12.21</time>
   <energy>
    <i name="e_fr_energy">   -125.50587558 </i>
    <i name="e_wo_entrp">   -125.50433242 </i>
    <i name="e_0_energy">   -125.50510400 </i>
   </energy>
  </scstep>
  <scstep>
   <time name="dav">    8.95    9.01</time>
   <time name="total">    9.24    9.31</time>
   <energy>
    <i name="e_fr_energy">   -125.50586265 </i>
    <i name="e_wo_entrp">   -125.50431980 </i>
    <i name="e_0_energy">   -125.50509122 </i>
   </energy>
  </scstep>
  <scstep>
   <time name="dav">   11.23   11.30</time>
   <time name="total">   11.52   11.61</time>
   <energy>
    <i name="e_fr_energy">   -125.50586306 </i>
    <i name="e_wo_entrp">   -125.50432015 </i>
    <i name="e_0_energy">   -125.50509161 </i>
   </energy>
  </scstep>
  <scstep>
   <time name="dav">    9.10    9.16</time>
   <time name="total">    9.13    9.19</time>
   <energy>
    <i name="alphaZ">     58.06716954 </i>
    <i name="ewald">   4757.35796017 </i>
    <i name="hartreedc">  -6513.76515556 </i>
    <i name="XCdc">    180.30398707 </i>
    <i name="pawpsdc">   5697.39327955 </i>
    <i name="pawaedc">  -5701.78742138 </i>
    <i name="eentropy">     -0.00154292 </i>
    <i name="bandstr">   -506.33756082 </i>
    <i name="atom">   1903.26342058 </i>
    <i name="e_fr_energy">   -125.50586377 </i>
    <i name="e_wo_entrp">   -125.50432085 </i>
    <i name="e_0_energy">   -125.50509231 </i>
   </energy>
  </scstep>
  <structure>
   <crystal>
    <varray name="basis" >
     <v>       4.20541936       2.42800000       0.00000000 </v>
     <v>      -4.20541936       2.42800000       0.00000000 </v>
     <v>       0.00000000       0.00000000      15.00000000 </v>
    </varray>
    <i name="volume">    306.32274624 </i>
    <varray name="rec_basis" >
     <v>       0.11889421       0.20593081       0.00000000 </v>
     <v>      -0.11889421       0.20593081       0.00000000 </v>
     <v>       0.00000000       0.00000000       0.06666667 </v>
    </varray>
   </crystal>
   <varray name="positions" >
    <v>       0.00417964       0.00276394       0.11882585 </v>
    <v>       0.35684588       0.00306036       0.09797687 </v>
    <v>       0.00390551       0.35514723       0.09797821 </v>
    <v>       0.65179381       0.65012352       0.09796982 </v>
    <v>       0.32651925       0.32476903       0.10026316 </v>
    <v>       0.68218963       0.00313093       0.10024538 </v>
    <v>       0.00384945       0.68043351       0.10023880 </v>
    <v>      -0.00007809       0.50001205       0.33375849 </v>
    <v>       0.16662070       0.33314939       0.33381100 </v>
    <v>       0.99999994       0.00000275       0.33363278 </v>
    <v>       0.16653772       0.83338504       0.33381449 </v>
    <v>       0.49998333       0.49990771       0.33376195 </v>
    <v>       0.66666941       0.33333225       0.33366757 </v>
    <v>       0.50008781       0.00007837       0.33375783 </v>
    <v>       0.66685667       0.83347127       0.33381048 </v>
   </varray>
  </structure>
  <varray name="forces" >
   <v>      -0.00038357       0.00006568      -0.23795954 </v>
   <v>       0.04608547       0.02470766       0.04979314 </v>
   <v>      -0.04567912       0.02752329       0.04957971 </v>
   <v>      -0.00006574      -0.05167698       0.05022771 </v>
   <v>      -0.00528451       0.09268140       0.01827222 </v>
   <v>      -0.07621976      -0.05169956       0.01974172 </v>
   <v>       0.08124556      -0.04234803       0.01997296 </v>
   <v>       0.04923822       0.02097515       0.00702897 </v>
   <v>      -0.08824724       0.08495513       0.00049074 </v>
   <v>       0.00205113      -0.00007456       0.00932113 </v>
   <v>       0.11585931       0.03070721       0.00051650 </v>
   <v>      -0.04054905       0.03572901       0.00703216 </v>
   <v>      -0.00178080       0.00008606      -0.00141293 </v>
   <v>      -0.00513769      -0.05149728       0.00695565 </v>
   <v>      -0.03113221      -0.12013418       0.00043983 </v>
  </varray>
  <varray name="stress" >
   <v>     -15.29196032       0.01303624       0.00480671 </v>
   <v>       0.01303624     -15.26733264       0.01530980 </v>
   <v>       0.00480672       0.01530983      -1.96286387 </v>
  </varray>
  <energy>
   <i name="e_fr_energy">   -127.10744572 </i>
   <i name="e_wo_entrp">   -127.10590280 </i>
   <i name="e_0_energy">   -127.10667426 </i>
  </energy>
  <time name="totalsc">   52.46   52.85</time>
 </calculation>
 <calculation>
  <scstep>
   <time name="dav">    5.48    5.53</time>
   <time name="total">    5.78    5.83</time>
   <energy>
    <i name="alphaZ">     58.06716954 </i>
    <i name="ewald">   4757.48322613 </i>
    <i name="hartreedc">  -6513.55035681 </i>
    <i name="XCdc">    180.32715447 </i>
    <i name="pawpsdc">   5697.54590001 </i>
    <i name="pawaedc">  -5701.94005204 </i>
    <i name="eentropy">     -0.00154671 </i>
    <i name="bandstr">   -506.70367802 </i>
    <i name="atom">   1903.26342058 </i>
    <i name="e_fr_energy">   -125.50876284 </i>
    <i name="e_wo_entrp">   -125.50721613 </i>
    <i name="e_0_energy">   -125.50798949 </i>
   </energy>
  </scstep>
  <scstep>
   <time name="dav">   10.87   10.94</time>
   <time name="total">   11.16   11.24</time>
   <energy>
    <i name="e_fr_energy">   -125.50882774 </i>
    <i name="e_wo_entrp">   -125.50728192 </i>
    <i name="e_0_energy">   -125.50805483 </i>
   </energy>
  </scstep>
  <scstep>
   <time name="dav">    8.63    8.69</time>
   <time name="total">    8.92    8.99</time>
   <energy>
    <i name="e_fr_energy">   -125.50879994 </i>
    <i name="e_wo_entrp">   -125.50725456 </i>
    <i name="e_0_energy">   -125.50802725 </i>
   </energy>
  </scstep>
  <scstep>
   <time name="dav">   10.94   11.01</time>
   <time name="total">   11.23   11.31</time>
   <energy>
    <i name="e_fr_energy">   -125.50880049 </i>
    <i name="e_wo_entrp">   -125.50725497 </i>
    <i name="e_0_energy">   -125.50802773 </i>
   </energy>
  </scstep>
  <scstep>
   <time name="dav">    8.93    8.99</time>
   <time name="total">    9.22    9.29</time>
   <energy>
    <i name="e_fr_energy">   -125.50880211 </i>
    <i name="e_wo_entrp">   -125.50725659 </i>
    <i name="e_0_energy">   -125.50802935 </i>
   </energy>
  </scstep>
  <scstep>
   <time name="dav">   10.10   10.17</time>
   <time name="total">   10.14   10.20</time>
   <energy>
    <i name="alphaZ">     58.06716954 </i>
    <i name="ewald">   4757.48322613 </i>
    <i name="hartreedc">  -6513.53205230 </i>
    <i name="XCdc">    180.32685405 </i>
    <i name="pawpsdc">   5704.48169284 </i>
    <i name="pawaedc">  -5708.87828596 </i>
    <i name="eentropy">     -0.00154545 </i>
    <i name="bandstr">   -506.71928171 </i>
    <i name="atom">   1903.26342058 </i>
    <i name="e_fr_energy">   -125.50880228 </i>
    <i name="e_wo_entrp">   -125.50725683 </i>
    <i name="e_0_energy">   -125.50802955 </i>
   </energy>
  </scstep>
  <structure>
   <crystal>
    <varray name="basis" >
     <v>       4.20541936       2.42800000       0.00000000 </v>
     <v>      -4.20541936       2.42800000       0.00000000 </v>
     <v>       0.00000000       0.00000000      15.00000000 </v>
    </varray>
    <i name="volume">    306.32274624 </i>
    <varray name="rec_basis" >
     <v>       0.11889421       0.20593081       0.00000000 </v>
     <v>      -0.11889421       0.20593081       0.00000000 </v>
     <v>       0.00000000       0.00000000       0.06666667 </v>
    </varray>
   </crystal>
   <varray name="positions" >
    <v>       0.00420016       0.00284644       0.11738186 </v>
    <v>       0.35752075       0.00324036       0.09845456 </v>
    <v>       0.00360415       0.35560377       0.09845357 </v>
    <v>       0.65135875       0.64940407       0.09845253 </v>
    <v>       0.32670399       0.32462378       0.10020552 </v>
    <v>       0.68230437       0.00342456       0.10019952 </v>
    <v>       0.00357564       0.68027565       0.10019613 </v>
    <v>      -0.00028560       0.50004920       0.33378961 </v>
    <v>       0.16640739       0.33243918       0.33387816 </v>
    <v>       0.00000087       0.00001160       0.33355214 </v>
    <v>       0.16605966       0.83360944       0.33388485 </v>
    <v>       0.49992924       0.49965085       0.33379622 </v>
    <v>       0.66667405       0.33332790       0.33360257 </v>
    <v>       0.50032860       0.00028850       0.33378831 </v>
    <v>       0.66757866       0.83397203       0.33387711 </v>
   </varray>
  </structure>
  <varray name="forces" >
   <v>       0.00379007      -0.00419976      -0.21385155 </v>
   <v>       0.02604331      -0.00279538      -0.00441630 </v>
   <v>      -0.00751687       0.03043745      -0.00428171 </v>
   <v>      -0.01930033      -0.02075259      -0.00474953 </v>
   <v>      -0.03385056       0.10994934       0.06506208 </v>
   <v>      -0.07554860      -0.08343450       0.06548403 </v>
   <v>       0.10609787      -0.02991475       0.06524905 </v>
   <v>       0.14937900       0.06404540       0.00785422 </v>
   <v>      -0.27937350       0.27960457      -0.01511414 </v>
   <v>       0.00616891      -0.00083640       0.04074733 </v>
   <v>       0.37622509       0.09234512      -0.01588567 </v>
   <v>      -0.12396002       0.10830289       0.00702752 </v>
   <v>      -0.00550330       0.00028460       0.01411449 </v>
   <v>      -0.01526253      -0.15730831       0.00784350 </v>
   <v>      -0.10738856      -0.38572767      -0.01508332 </v>
  </varray>
  <varray name="stress" >
   <v>     -14.73187422       0.01770984       0.01051862 </v>
   <v>       0.01770983     -14.69093378       0.00782424 </v>
   <v>       0.01051862       0.00782424      -1.85801871 </v>
  </varray>
  <energy>
   <i name="e_fr_energy">   -127.11018426 </i>
   <i name="e_wo_entrp">   -127.10863881 </i>
   <i name="e_0_energy">   -127.10941154 </i>
  </energy>
  <time name="totalsc">   61.14   61.60</time>
 </calculation>
 <calculation>
  <scstep>
   <time name="dav">    5.49    5.53</time>
   <time name="total">    5.78    5.82</time>
   <energy>
    <i name="alphaZ">     58.06716954 </i>
    <i name="ewald">   4757.47873089 </i>
    <i name="hartreedc">  -6513.47925378 </i>
    <i name="XCdc">    180.32981864 </i>
    <i name="pawpsdc">   5704.55198830 </i>
    <i name="pawaedc">  -5708.94858126 </i>
    <i name="eentropy">     -0.00154579 </i>
    <i name="bandstr">   -506.77191903 </i>
    <i name="atom">   1903.26342058 </i>
    <i name="e_fr_energy">   -125.51017192 </i>
    <i name="e_wo_entrp">   -125.50862613 </i>
    <i name="e_0_energy">   -125.50939903 </i>
   </energy>
  </scstep>
  <scstep>
   <time name="dav">   10.69   10.76</time>
   <time name="total">   10.97   11.06</time>
   <energy>
    <i name="e_fr_energy">   -125.51017488 </i>
    <i name="e_wo_entrp">   -125.50862915 </i>
    <i name="e_0_energy">   -125.50940201 </i>
   </energy>
  </scstep>
  <scstep>
   <time name="dav">    7.88    7.93</time>
   <time name="total">    8.17    8.23</time>
   <energy>
    <i name="e_fr_energy">   -125.51017431 </i>
    <i name="e_wo_entrp">   -125.50862857 </i>
    <i name="e_0_energy">   -125.50940144 </i>
   </energy>
  </scstep>
  <scstep>
   <time name="dav">   10.48   10.54</time>
   <time name="total">   10.51   10.58</time>
   <energy>
    <i name="alphaZ">     58.06716954 </i>
    <i name="ewald">   4757.47873089 </i>
    <i name="hartreedc">  -6513.46502511 </i>
    <i name="XCdc">    180.32951348 </i>
    <i name="pawpsdc">   5705.45850854 </i>
    <i name="pawaedc">  -5709.85541261 </i>
    <i name="eentropy">     -0.00154571 </i>
    <i name="bandstr">   -506.78553417 </i>
    <i name="atom">   1903.26342058 </i>
    <i name="e_fr_energy">   -125.51017458 </i>
    <i name="e_wo_entrp">   -125.50862887 </i>
    <i name="e_0_energy">   -125.50940172 </i>
   </energy>
  </scstep>
  <structure>
   <crystal>
    <varray name="basis" >
     <v>       4.20541936       2.42800000       0.00000000 </v>
     <v>      -4.20541936       2.42800000       0.00000000 </v>
     <v>       0.00000000       0.00000000      15.00000000 </v>
    </varray>
    <i name="volume">    306.32274624 </i>
    <varray name="rec_basis" >
     <v>       0.11889421       0.20593081       0.00000000 </v>
     <v>      -0.11889421       0.20593081       0.00000000 </v>
     <v>       0.00000000       0.00000000       0.06666667 </v>
    </varray>
   </crystal>
   <varray name="positions" >
    <v>       0.00420245       0.00285639       0.11712878 </v>
    <v>       0.35763025       0.00326037       0.09852767 </v>
    <v>       0.00356901       0.35568941       0.09852633 </v>
    <v>       0.65127768       0.64928883       0.09852637 </v>
    <v>       0.32677193       0.32465784       0.10020581 </v>
    <v>       0.68226666       0.00345252       0.10020168 </v>
    <v>       0.00354704       0.68021152       0.10019876 </v>
    <v>      -0.00025209       0.50004525       0.33379552 </v>
    <v>       0.16642607       0.33252185       0.33388639 </v>
    <v>       0.00000220       0.00001105       0.33354545 </v>
    <v>       0.16612089       0.83358961       0.33389347 </v>
    <v>       0.49993691       0.49968965       0.33380251 </v>
    <v>       0.66667351       0.33332874       0.33359453 </v>
    <v>       0.50029331       0.00025617       0.33379412 </v>
    <v>       0.66749482       0.83390812       0.33388526 </v>
   </varray>
  </structure>
  <varray name="forces" >
   <v>       0.00424257      -0.00459636      -0.21038774 </v>
   <v>       0.02034884      -0.00782835      -0.01083488 </v>
   <v>       0.00030484       0.02872181      -0.01064039 </v>
   <v>      -0.02157878      -0.01345492      -0.01128024 </v>
   <v>      -0.03684730       0.10186113       0.07051345 </v>
   <v>      -0.06712346      -0.08173632       0.07075062 </v>
   <v>       0.10037559      -0.02367859       0.07045851 </v>
   <v>       0.13378075       0.05721596       0.00738492 </v>
   <v>      -0.25390824       0.25714670      -0.01648886 </v>
   <v>       0.00533414      -0.00098705       0.04391676 </v>
   <v>       0.34474160       0.08286011      -0.01734980 </v>
   <v>      -0.11126293       0.09719115       0.00646125 </v>
   <v>      -0.00480320       0.00041995       0.01655405 </v>
   <v>      -0.01388534      -0.14114563       0.00738469 </v>
   <v>      -0.09971909      -0.35198961      -0.01644235 </v>
  </varray>
  <varray name="stress" >
   <v>     -14.66877036       0.01469146       0.01103918 </v>
   <v>       0.01469143     -14.63555256       0.00721602 </v>
   <v>       0.01103917       0.00721604      -1.84049332 </v>
  </varray>
  <energy>
   <i name="e_fr_energy">   -127.11152991 </i>
   <i name="e_wo_entrp">   -127.10998420 </i>
   <i name="e_0_energy">   -127.11075705 </i>
  </energy>
  <time name="totalsc">   40.23   40.56</time>
 </calculation>
 <calculation>
  <scstep>
   <time name="dav">    5.44    5.48</time>
   <time name="total">    5.73    5.78</time>
   <energy>
    <i name="alphaZ">     58.06716954 </i>
    <i name="ewald">   4757.44230237 </i>
    <i name="hartreedc">  -6513.30298140 </i>
    <i name="XCdc">    180.33826011 </i>
    <i name="pawpsdc">   5705.47294229 </i>
    <i name="pawaedc">  -5709.86985344 </i>
    <i name="eentropy">     -0.00154667 </i>
    <i name="bandstr">   -506.92339616 </i>
    <i name="atom">   1903.26342058 </i>
    <i name="e_fr_energy">   -125.51368278 </i>
    <i name="e_wo_entrp">   -125.51213611 </i>
    <i name="e_0_energy">   -125.51290944 </i>
   </energy>
  </scstep>
  <scstep>
   <time name="dav">   10.06   10.12</time>
   <time name="total">   10.34   10.42</time>
   <energy>
    <i name="e_fr_energy">   -125.51370741 </i>
    <i name="e_wo_entrp">   -125.51216092 </i>
    <i name="e_0_energy">   -125.51293417 </i>
   </energy>
  </scstep>
  <scstep>
   <time name="dav">    8.19    8.25</time>
   <time name="total">    8.48    8.56</time>
   <energy>
    <i name="e_fr_energy">   -125.51370114 </i>
    <i name="e_wo_entrp">   -125.51215461 </i>
    <i name="e_0_energy">   -125.51292788 </i>
   </energy>
  </scstep>
  <scstep>
   <time name="dav">   11.35   11.41</time>
   <time name="total">   11.63   11.71</time>
   <energy>
    <i name="e_fr_energy">   -125.51370131 </i>
    <i name="e_wo_entrp">   -125.51215486 </i>
    <i name="e_0_energy">   -125.51292808 </i>
   </energy>
  </scstep>
  <scstep>
   <time name="dav">    7.70    7.75</time>
   <time name="total">    7.74    7.79</time>
   <energy>
    <i name="alphaZ">     58.06716954 </i>
    <i name="ewald">   4757.44230237 </i>
    <i name="hartreedc">  -6513.29096465 </i>
    <i name="XCdc">    180.33763983 </i>
    <i name="pawpsdc">   5708.11234431 </i>
    <i name="pawaedc">  -5712.51019400 </i>
    <i name="eentropy">     -0.00154642 </i>
    <i name="bandstr">   -506.93387325 </i>
    <i name="atom">   1903.26342058 </i>
    <i name="e_fr_energy">   -125.51370170 </i>
    <i name="e_wo_entrp">   -125.51215528 </i>
    <i name="e_0_energy">   -125.51292849 </i>
   </energy>
  </scstep>
  <structure>
   <crystal>
    <varray name="basis" >
     <v>       4.20541936       2.42800000       0.00000000 </v>
     <v>      -4.20541936       2.42800000       0.00000000 </v>
     <v>       0.00000000       0.00000000      15.00000000 </v>
    </varray>
    <i name="volume">    306.32274624 </i>
    <varray name="rec_basis" >
     <v>       0.11889421       0.20593081       0.00000000 </v>
     <v>      -0.11889421       0.20593081       0.00000000 </v>
     <v>       0.00000000       0.00000000       0.06666667 </v>
    </varray>
   </crystal>
   <varray name="positions" >
    <v>       0.00420933       0.00288623       0.11636956 </v>
    <v>       0.35795877       0.00332039       0.09874700 </v>
    <v>       0.00346361       0.35594631       0.09874464 </v>
    <v>       0.65103449       0.64894312       0.09874788 </v>
    <v>       0.32697577       0.32476002       0.10020668 </v>
    <v>       0.68215355       0.00353639       0.10020819 </v>
    <v>       0.00346126       0.68001913       0.10020665 </v>
    <v>      -0.00015153       0.50003341       0.33381325 </v>
    <v>       0.16648210       0.33276988       0.33391109 </v>
    <v>       0.00000620       0.00000939       0.33352537 </v>
    <v>       0.16630456       0.83353014       0.33391932 </v>
    <v>       0.49995992       0.49980606       0.33382136 </v>
    <v>       0.66667187       0.33333125       0.33357041 </v>
    <v>       0.50018746       0.00015918       0.33381155 </v>
    <v>       0.66724332       0.83371642       0.33390973 </v>
   </varray>
  </structure>
  <varray name="forces" >
   <v>       0.00562190      -0.00581586      -0.20105646 </v>
   <v>       0.00215209      -0.02323485      -0.02985162 </v>
   <v>       0.02458868       0.02280716      -0.02948370 </v>
   <v>      -0.02815348       0.00950048      -0.03062806 </v>
   <v>      -0.04538974       0.07680521       0.08694991 </v>
   <v>      -0.04132360      -0.07584707       0.08665393 </v>
   <v>       0.08222305      -0.00490225       0.08620104 </v>
   <v>       0.08733540       0.03705164       0.00597215 </v>
   <v>      -0.17808633       0.19056695      -0.02065016 </v>
   <v>       0.00286898      -0.00145593       0.05356941 </v>
   <v>       0.25124841       0.05450434      -0.02177804 </v>
   <v>      -0.07360393       0.06401166       0.00475617 </v>
   <v>      -0.00271951       0.00083526       0.02390408 </v>
   <v>      -0.00964898      -0.09314490       0.00599937 </v>
   <v>      -0.07711293      -0.25168185      -0.02055803 </v>
  </varray>
  <varray name="stress" >
   <v>     -14.47712950       0.00595432       0.01256067 </v>
   <v>       0.00595431     -14.46611475       0.00547023 </v>
   <v>       0.01256069       0.00547023      -1.81708498 </v>
  </varray>
  <energy>
   <i name="e_fr_energy">   -127.11497458 </i>
   <i name="e_wo_entrp">   -127.11342817 </i>
   <i name="e_0_energy">   -127.11420138 </i>
  </energy>
  <time name="totalsc">   48.65   49.01</time>
 </calculation>
 <calculation>
  <scstep>
   <time name="dav">    5.44    5.47</time>
   <time name="total">    5.73    5.78</time>
   <energy>
    <i name="alphaZ">     58.06716954 </i>
    <i name="ewald">   4757.26551710 </i>
    <i name="hartreedc">  -6512.88997398 </i>
    <i name="XCdc">    180.35343791 </i>
    <i name="pawpsdc">   5708.08182608 </i>
    <i name="pawaedc">  -5712.47967562 </i>
    <i name="eentropy">     -0.00154820 </i>
    <i name="bandstr">   -507.17826346 </i>
    <i name="atom">   1903.26342058 </i>
    <i name="e_fr_energy">   -125.51809006 </i>
    <i name="e_wo_entrp">   -125.51654186 </i>
    <i name="e_0_energy">   -125.51731596 </i>
   </energy>
  </scstep>
  <scstep>
   <time name="dav">   10.74   10.81</time>
   <time name="total">   11.03   11.11</time>
   <energy>
    <i name="e_fr_energy">   -125.51818915 </i>
    <i name="e_wo_entrp">   -125.51664135 </i>
    <i name="e_0_energy">   -125.51741525 </i>
   </energy>
  </scstep>
  <scstep>
   <time name="dav">    8.95    9.01</time>
   <time name="total">    9.24    9.31</time>
   <energy>
    <i name="e_fr_energy">   -125.51816128 </i>
    <i name="e_wo_entrp">   -125.51661337 </i>
    <i name="e_0_energy">   -125.51738732 </i>
   </energy>
  </scstep>
  <scstep>
   <time name="dav">   10.53   10.60</time>
   <time name="total">   10.83   10.90</time>
   <energy>
    <i name="e_fr_energy">   -125.51816164 </i>
    <i name="e_wo_entrp">   -125.51661386 </i>
    <i name="e_0_energy">   -125.51738775 </i>
   </energy>
  </scstep>
  <scstep>
   <time name="dav">    9.83    9.89</time>
   <time name="total">   10.12   10.19</time>
   <energy>
    <i name="e_fr_energy">   -125.51816273 </i>
    <i name="e_wo_entrp">   -125.51661502 </i>
    <i name="e_0_energy">   -125.51738887 </i>
   </energy>
  </scstep>
  <scstep>
   <time name="dav">    9.69    9.75</time>
   <time name="total">    9.72    9.78</time>
   <energy>
    <i name="alphaZ">     58.06716954 </i>
    <i name="ewald">   4757.26551710 </i>
    <i name="hartreedc">  -6512.87439473 </i>
    <i name="XCdc">    180.35233539 </i>
    <i name="pawpsdc">   5712.82758624 </i>
    <i name="pawaedc">  -5717.22717951 </i>
    <i name="eentropy">     -0.00154772 </i>
    <i name="bandstr">   -507.19106960 </i>
    <i name="atom">   1903.26342058 </i>
    <i name="e_fr_energy">   -125.51816271 </i>
    <i name="e_wo_entrp">   -125.51661499 </i>
    <i name="e_0_energy">   -125.51738885 </i>
   </energy>
  </scstep>
  <structure>
   <crystal>
    <varray name="basis" >
     <v>       4.20541936       2.42800000       0.00000000 </v>
     <v>      -4.20541936       2.42800000       0.00000000 </v>
     <v>       0.00000000       0.00000000      15.00000000 </v>
    </varray>
    <i name="volume">    306.32274624 </i>
    <varray name="rec_basis" >
     <v>       0.11889421       0.20593081       0.00000000 </v>
     <v>      -0.11889421       0.20593081       0.00000000 </v>
     <v>       0.00000000       0.00000000       0.06666667 </v>
    </varray>
   </crystal>
   <varray name="positions" >
    <v>       0.00422307       0.00294592       0.11485110 </v>
    <v>       0.35861581       0.00344043       0.09918565 </v>
    <v>       0.00325281       0.35646013       0.09918124 </v>
    <v>       0.65054811       0.64825168       0.09919091 </v>
    <v>       0.32738344       0.32496438       0.10020842 </v>
    <v>       0.68192733       0.00370414       0.10022119 </v>
    <v>       0.00328969       0.67963435       0.10022241 </v>
    <v>       0.00004958       0.50000972       0.33384873 </v>
    <v>       0.16659415       0.33326594       0.33396048 </v>
    <v>       0.00001418       0.00000608       0.33348522 </v>
    <v>       0.16667191       0.83341119       0.33397102 </v>
    <v>       0.50000596       0.50003889       0.33385905 </v>
    <v>       0.66666860       0.33333629       0.33352218 </v>
    <v>       0.49997574      -0.00003481       0.33384642 </v>
    <v>       0.66674030       0.83333302       0.33395865 </v>
   </varray>
  </structure>
  <varray name="forces" >
   <v>       0.00839655      -0.00830334      -0.18715482 </v>
   <v>      -0.03813508      -0.05556745      -0.06617618 </v>
   <v>       0.07617371       0.00823694      -0.06546300 </v>
   <v>      -0.04053872       0.05947103      -0.06760215 </v>
   <v>      -0.06151617       0.02346314       0.11976273 </v>
   <v>       0.01276916      -0.06167357       0.11841981 </v>
   <v>       0.04258172       0.03371528       0.11766159 </v>
   <v>      -0.00615908      -0.00333771       0.00314448 </v>
   <v>      -0.02624486       0.05823695      -0.02902379 </v>
   <v>      -0.00197176      -0.00235216       0.07271867 </v>
   <v>       0.06483864      -0.00271021      -0.03067972 </v>
   <v>       0.00212210      -0.00285496       0.00135581 </v>
   <v>       0.00141571       0.00165568       0.03865433 </v>
   <v>      -0.00096713       0.00335284       0.00322724 </v>
   <v>      -0.03276479      -0.05133247      -0.02884500 </v>
  </varray>
  <varray name="stress" >
   <v>     -14.10033693      -0.01111965       0.01504579 </v>
   <v>      -0.01111963     -14.13433846       0.00268461 </v>
   <v>       0.01504577       0.00268462      -1.78229993 </v>
  </varray>
  <energy>
   <i name="e_fr_energy">   -127.11926010 </i>
   <i name="e_wo_entrp">   -127.11771238 </i>
   <i name="e_0_energy">   -127.11848624 </i>
  </energy>
  <time name="totalsc">   61.38   61.81</time>
 </calculation>
 <calculation>
  <scstep>
   <time name="dav">    5.47    5.51</time>
   <time name="total">    5.76    5.81</time>
   <energy>
    <i name="alphaZ">     58.06716954 </i>
    <i name="ewald">   4756.49144427 </i>
    <i name="hartreedc">  -6511.75682945 </i>
    <i name="XCdc">    180.37693438 </i>
    <i name="pawpsdc">   5712.80903841 </i>
    <i name="pawaedc">  -5717.20863129 </i>
    <i name="eentropy">     -0.00155067 </i>
    <i name="bandstr">   -507.55768397 </i>
    <i name="atom">   1903.26342058 </i>
    <i name="e_fr_energy">   -125.51668820 </i>
    <i name="e_wo_entrp">   -125.51513753 </i>
    <i name="e_0_energy">   -125.51591286 </i>
   </energy>
  </scstep>
  <scstep>
   <time name="dav">   11.29   11.37</time>
   <time name="total">   11.58   11.67</time>
   <energy>
    <i name="e_fr_energy">   -125.51712222 </i>
    <i name="e_wo_entrp">   -125.51557242 </i>
    <i name="e_0_energy">   -125.51634732 </i>
   </energy>
  </scstep>
  <scstep>
   <time name="dav">    9.10    9.15</time>
   <time name="total">    9.38    9.45</time>
   <energy>
    <i name="e_fr_energy">   -125.51700524 </i>
    <i name="e_wo_entrp">   -125.51545519 </i>
    <i name="e_0_energy">   -125.51623021 </i>
   </energy>
  </scstep>
  <scstep>
   <time name="dav">   10.94   11.01</time>
   <time name="total">   11.23   11.31</time>
   <energy>
    <i name="e_fr_energy">   -125.51701070 </i>
    <i name="e_wo_entrp">   -125.51546078 </i>
    <i name="e_0_energy">   -125.51623574 </i>
   </energy>
  </scstep>
  <scstep>
   <time name="dav">    9.97   10.03</time>
   <time name="total">   10.26   10.33</time>
   <energy>
    <i name="e_fr_energy">   -125.51701558 </i>
    <i name="e_wo_entrp">   -125.51546582 </i>
    <i name="e_0_energy">   -125.51624070 </i>
   </energy>
  </scstep>
  <scstep>
   <time name="dav">    9.70    9.76</time>
   <time name="total">    9.74    9.79</time>
   <energy>
    <i name="alphaZ">     58.06716954 </i>
    <i name="ewald">   4756.49144427 </i>
    <i name="hartreedc">  -6511.74200636 </i>
    <i name="XCdc">    180.37542402 </i>
    <i name="pawpsdc">   5720.35987306 </i>
    <i name="pawaedc">  -5724.76242436 </i>
    <i name="eentropy">     -0.00154978 </i>
    <i name="bandstr">   -507.56836604 </i>
    <i name="atom">   1903.26342058 </i>
    <i name="e_fr_energy">   -125.51701506 </i>
    <i name="e_wo_entrp">   -125.51546528 </i>
    <i name="e_0_energy">   -125.51624017 </i>
   </energy>
  </scstep>
  <structure>
   <crystal>
    <varray name="basis" >
     <v>       4.20541936       2.42800000       0.00000000 </v>
     <v>      -4.20541936       2.42800000       0.00000000 </v>
     <v>       0.00000000       0.00000000      15.00000000 </v>
    </varray>
    <i name="volume">    306.32274624 </i>
    <varray name="rec_basis" >
     <v>       0.11889421       0.20593081       0.00000000 </v>
     <v>      -0.11889421       0.20593081       0.00000000 </v>
     <v>       0.00000000       0.00000000       0.06666667 </v>
    </varray>
   </crystal>
   <varray name="positions" >
    <v>       0.00425056       0.00306530       0.11181418 </v>
    <v>       0.35992988       0.00368051       0.10006296 </v>
    <v>       0.00283121       0.35748775       0.10005446 </v>
    <v>       0.64957534       0.64686882       0.10007695 </v>
    <v>       0.32819877       0.32537309       0.10021190 </v>
    <v>       0.68147488       0.00403963       0.10024720 </v>
    <v>       0.00294656       0.67886480       0.10025395 </v>
    <v>       0.00045180       0.49996235       0.33391967 </v>
    <v>       0.16681825       0.33425805       0.33405927 </v>
    <v>       0.00003016      -0.00000054       0.33340490 </v>
    <v>       0.16740661       0.83317329       0.33407442 </v>
    <v>       0.50009802       0.50050453       0.33393445 </v>
    <v>       0.66666206       0.33334635       0.33342570 </v>
    <v>       0.49955231      -0.00042279       0.33391615 </v>
    <v>       0.66573426       0.83256620       0.33405650 </v>
   </varray>
  </structure>
  <varray name="forces" >
   <v>       0.01406516      -0.01347051      -0.17356327 </v>
   <v>      -0.13617209      -0.12892974      -0.13294731 </v>
   <v>       0.19480414      -0.03214867      -0.13155308 </v>
   <v>      -0.06363243       0.17859617      -0.13558718 </v>
   <v>      -0.09217475      -0.09941690       0.18416236 </v>
   <v>       0.13483541      -0.02390932       0.18075950 </v>
   <v>      -0.05198525       0.11867414       0.17949889 </v>
   <v>      -0.19753912      -0.08381812      -0.00250762 </v>
[...]
       <r>     2.7344     0.7845    30.9041 </r>
       <r>     2.8409     0.5658    30.9644 </r>
       <r>     2.9475     1.2030    31.0926 </r>
       <r>     3.0541     1.5038    31.2529 </r>
       <r>     3.1606     1.2601    31.3871 </r>
       <r>     3.2672     1.2541    31.5208 </r>
       <r>     3.3738     1.3298    31.6625 </r>
       <r>     3.4803     1.5238    31.8249 </r>
       <r>     3.5869     2.2202    32.0615 </r>
       <r>     3.6935     3.0140    32.3827 </r>
       <r>     3.8000     3.1960    32.7233 </r>
       <r>     3.9066     2.9509    33.0377 </r>
       <r>     4.0132     3.0081    33.3583 </r>
       <r>     4.1197     3.2362    33.7032 </r>
       <r>     4.2263     3.1868    34.0428 </r>
       <r>     4.3329     3.0396    34.3667 </r>
       <r>     4.4394     2.8287    34.6681 </r>
       <r>     4.5460     2.7493    34.9611 </r>
       <r>     4.6526     2.8093    35.2605 </r>
       <r>     4.7591     3.5201    35.6356 </r>
       <r>     4.8657     3.0295    35.9585 </r>
       <r>     4.9723     2.7197    36.2483 </r>
       <r>     5.0788     3.3080    36.6008 </r>
       <r>     5.1854     3.5152    36.9754 </r>
       <r>     5.2920     3.1504    37.3112 </r>
       <r>     5.3985     2.6159    37.5899 </r>
       <r>     5.5051     2.5821    37.8651 </r>
       <r>     5.6117     3.3414    38.2212 </r>
       <r>     5.7182     3.1193    38.5536 </r>
       <r>     5.8248     3.0268    38.8761 </r>
       <r>     5.9314     2.4751    39.1399 </r>
       <r>     6.0379     2.5019    39.4065 </r>
       <r>     6.1445     1.9858    39.6181 </r>
       <r>     6.2511     2.5836    39.8935 </r>
       <r>     6.3576     2.8825    40.2006 </r>
       <r>     6.4642     2.9993    40.5203 </r>
       <r>     6.5708     3.2762    40.8694 </r>
       <r>     6.6773     3.7179    41.2656 </r>
       <r>     6.7839     4.0479    41.6970 </r>
       <r>     6.8905     3.1304    42.0306 </r>
       <r>     6.9970     3.3344    42.3859 </r>
       <r>     7.1036     3.4552    42.7541 </r>
       <r>     7.2102     2.7464    43.0468 </r>
       <r>     7.3167     2.4745    43.3105 </r>
       <r>     7.4233     2.5958    43.5871 </r>
       <r>     7.5299     3.1711    43.9250 </r>
       <r>     7.6364     3.2915    44.2758 </r>
       <r>     7.7430     4.2645    44.7303 </r>
       <r>     7.8496     4.0000    45.1565 </r>
       <r>     7.9561     3.0815    45.4849 </r>
       <r>     8.0627     4.2725    45.9402 </r>
       <r>     8.1693     4.5363    46.4236 </r>
       <r>     8.2758     4.5874    46.9125 </r>
       <r>     8.3824     4.6747    47.4107 </r>
       <r>     8.4890     2.8492    47.7143 </r>
       <r>     8.5955     1.3737    47.8607 </r>
       <r>     8.7021     0.5539    47.9197 </r>
       <r>     8.8087     0.3880    47.9610 </r>
       <r>     8.9152     0.2956    47.9925 </r>
       <r>     9.0218     0.0673    47.9997 </r>
       <r>     9.1284     0.0027    48.0000 </r>
       <r>     9.2349     0.0000    48.0000 </r>
       <r>     9.3415     0.0000    48.0000 </r>
       <r>     9.4481     0.0000    48.0000 </r>
       <r>     9.5546     0.0000    48.0000 </r>
       <r>     9.6612     0.0000    48.0000 </r>
       <r>     9.7678     0.0000    48.0000 </r>
       <r>     9.8743     0.0000    48.0000 </r>
       <r>     9.9809     0.0000    48.0000 </r>
       <r>    10.0875     0.0000    48.0000 </r>
       <r>    10.1940     0.0000    48.0000 </r>
       <r>    10.3006     0.0000    48.0000 </r>
      </set>
      <set comment="spin 2">
       <r>   -21.6693     0.0000     0.0000 </r>
       <r>   -21.5628     0.0000     0.0000 </r>
       <r>   -21.4562     0.0000     0.0000 </r>
       <r>   -21.3496     0.0000     0.0000 </r>
       <r>   -21.2431     0.0000     0.0000 </r>
       <r>   -21.1365     0.0000     0.0000 </r>
       <r>   -21.0299     0.0000     0.0000 </r>
       <r>   -20.9234     0.0000     0.0000 </r>
       <r>   -20.8168     0.0000     0.0000 </r>
       <r>   -20.7102     0.0000     0.0000 </r>
       <r>   -20.6037     0.0000     0.0000 </r>
       <r>   -20.4971     0.0000     0.0000 </r>
       <r>   -20.3905     0.0009     0.0001 </r>
       <r>   -20.2840     0.0349     0.0038 </r>
       <r>   -20.1774     0.2533     0.0308 </r>
       <r>   -20.0708     0.5325     0.0876 </r>
       <r>   -19.9643     0.5805     0.1494 </r>
       <r>   -19.8577     0.6330     0.2169 </r>
       <r>   -19.7511     0.5341     0.2738 </r>
       <r>   -19.6446     0.6908     0.3474 </r>
       <r>   -19.5380     0.5395     0.4049 </r>
       <r>   -19.4314     0.5492     0.4634 </r>
       <r>   -19.3249     0.7699     0.5455 </r>
       <r>   -19.2183     0.4860     0.5973 </r>
       <r>   -19.1117     0.5032     0.6509 </r>
       <r>   -19.0052     0.7854     0.7346 </r>
       <r>   -18.8986     0.6640     0.8053 </r>
       <r>   -18.7920     0.3768     0.8455 </r>
       <r>   -18.6855     0.5725     0.9065 </r>
       <r>   -18.5789     0.8844     1.0008 </r>
       <r>   -18.4723     0.5803     1.0626 </r>
       <r>   -18.3658     0.4841     1.1142 </r>
       <r>   -18.2592     0.3879     1.1555 </r>
       <r>   -18.1526     0.8625     1.2474 </r>
       <r>   -18.0461     0.8367     1.3366 </r>
       <r>   -17.9395     0.4445     1.3840 </r>
       <r>   -17.8329     0.4285     1.4296 </r>
       <r>   -17.7264     0.5300     1.4861 </r>
       <r>   -17.6198     0.8105     1.5725 </r>
       <r>   -17.5132     0.8592     1.6640 </r>
       <r>   -17.4067     0.7079     1.7395 </r>
       <r>   -17.3001     0.8331     1.8283 </r>
       <r>   -17.1935     1.3345     1.9705 </r>
       <r>   -17.0870     1.8861     2.1715 </r>
       <r>   -16.9804     2.0035     2.3850 </r>
       <r>   -16.8738     2.2027     2.6197 </r>
       <r>   -16.7673     2.6784     2.9051 </r>
       <r>   -16.6607     2.0455     3.1231 </r>
       <r>   -16.5541     0.6426     3.1916 </r>
       <r>   -16.4476     0.9733     3.2953 </r>
       <r>   -16.3410     1.0132     3.4033 </r>
       <r>   -16.2344     0.5793     3.4650 </r>
       <r>   -16.1279     0.5269     3.5212 </r>
       <r>   -16.0213     0.5031     3.5748 </r>
       <r>   -15.9147     0.4754     3.6255 </r>
       <r>   -15.8082     0.4995     3.6787 </r>
       <r>   -15.7016     1.0720     3.7929 </r>
       <r>   -15.5950     0.9937     3.8988 </r>
       <r>   -15.4885     0.4920     3.9513 </r>
       <r>   -15.3819     0.4941     4.0039 </r>
       <r>   -15.2753     0.4418     4.0510 </r>
       <r>   -15.1688     0.6079     4.1158 </r>
       <r>   -15.0622     0.8162     4.2028 </r>
       <r>   -14.9556     1.4212     4.3542 </r>
       <r>   -14.8491     2.1659     4.5850 </r>
       <r>   -14.7425     2.3500     4.8355 </r>
       <r>   -14.6359     2.2049     5.0704 </r>
       <r>   -14.5294     1.3427     5.2135 </r>
       <r>   -14.4228     1.0299     5.3233 </r>
       <r>   -14.3162     2.0128     5.5378 </r>
       <r>   -14.2097     1.9007     5.7403 </r>
       <r>   -14.1031     1.3742     5.8868 </r>
       <r>   -13.9965     1.3755     6.0333 </r>
       <r>   -13.8900     1.6440     6.2085 </r>
       <r>   -13.7834     2.5665     6.4820 </r>
       <r>   -13.6768     2.5429     6.7530 </r>
       <r>   -13.5703     2.2798     6.9960 </r>
       <r>   -13.4637     1.3419     7.1390 </r>
       <r>   -13.3571     0.8441     7.2289 </r>
       <r>   -13.2506     0.4237     7.2741 </r>
       <r>   -13.1440     0.5446     7.3321 </r>
       <r>   -13.0374     0.9057     7.4286 </r>
       <r>   -12.9309     0.8572     7.5200 </r>
       <r>   -12.8243     0.6247     7.5866 </r>
       <r>   -12.7177     0.9070     7.6832 </r>
       <r>   -12.6112     0.8877     7.7778 </r>
       <r>   -12.5046     0.7076     7.8532 </r>
       <r>   -12.3980     0.6788     7.9255 </r>
       <r>   -12.2915     0.4176     7.9700 </r>
       <r>   -12.1849     0.8775     8.0636 </r>
       <r>   -12.0783     0.9964     8.1697 </r>
       <r>   -11.9718     0.3926     8.2116 </r>
       <r>   -11.8652     0.4403     8.2585 </r>
       <r>   -11.7586     0.4445     8.3059 </r>
       <r>   -11.6521     0.8216     8.3934 </r>
       <r>   -11.5455     0.8284     8.4817 </r>
       <r>   -11.4389     0.4405     8.5287 </r>
       <r>   -11.3324     0.2596     8.5563 </r>
       <r>   -11.2258     0.6261     8.6230 </r>
       <r>   -11.1192     0.7429     8.7022 </r>
       <r>   -11.0127     0.6439     8.7708 </r>
       <r>   -10.9061     0.9995     8.8773 </r>
       <r>   -10.7995     0.7419     8.9564 </r>
       <r>   -10.6930     0.3216     8.9907 </r>
       <r>   -10.5864     1.0529     9.1029 </r>
       <r>   -10.4799     1.6663     9.2804 </r>
       <r>   -10.3733     1.9591     9.4892 </r>
       <r>   -10.2667     1.8383     9.6851 </r>
       <r>   -10.1602     1.8776     9.8852 </r>
       <r>   -10.0536     2.3733    10.1381 </r>
       <r>    -9.9470     2.3879    10.3926 </r>
       <r>    -9.8405     1.2038    10.5209 </r>
       <r>    -9.7339     0.8775    10.6144 </r>
       <r>    -9.6273     1.8562    10.8122 </r>
       <r>    -9.5208     2.0206    11.0275 </r>
       <r>    -9.4142     2.1001    11.2513 </r>
       <r>    -9.3076     1.9329    11.4573 </r>
       <r>    -9.2011     1.7930    11.6484 </r>
       <r>    -9.0945     1.3529    11.7926 </r>
       <r>    -8.9879     1.0621    11.9058 </r>
       <r>    -8.8814     2.0006    12.1190 </r>
       <r>    -8.7748     2.5721    12.3931 </r>
       <r>    -8.6682     1.9158    12.5972 </r>
       <r>    -8.5617     0.9713    12.7007 </r>
       <r>    -8.4551     1.4800    12.8584 </r>
       <r>    -8.3485     2.6674    13.1427 </r>
       <r>    -8.2420     2.2536    13.3828 </r>
       <r>    -8.1354     1.5196    13.5448 </r>
       <r>    -8.0288     2.1528    13.7742 </r>
       <r>    -7.9223     3.2639    14.1220 </r>
       <r>    -7.8157     3.1664    14.4594 </r>
       <r>    -7.7091     2.4309    14.7185 </r>
       <r>    -7.6026     1.2625    14.8530 </r>
       <r>    -7.4960     1.1439    14.9749 </r>
       <r>    -7.3894     2.4172    15.2325 </r>
       <r>    -7.2829     2.3029    15.4780 </r>
       <r>    -7.1763     1.4917    15.6369 </r>
       <r>    -7.0697     1.3895    15.7850 </r>
       <r>    -6.9632     2.1790    16.0172 </r>
       <r>    -6.8566     2.3732    16.2701 </r>
       <r>    -6.7500     2.6439    16.5519 </r>
       <r>    -6.6435     2.5741    16.8262 </r>
       <r>    -6.5369     2.2597    17.0670 </r>
       <r>    -6.4303     2.6100    17.3451 </r>
       <r>    -6.3238     2.2153    17.5812 </r>
       <r>    -6.2172     2.4870    17.8462 </r>
       <r>    -6.1106     3.3540    18.2037 </r>
       <r>    -6.0041     2.8398    18.5063 </r>
       <r>    -5.8975     4.0781    18.9409 </r>
       <r>    -5.7909     3.7073    19.3359 </r>
       <r>    -5.6844     2.0357    19.5529 </r>
       <r>    -5.5778     2.3165    19.7997 </r>
       <r>    -5.4712     4.2816    20.2560 </r>
       <r>    -5.3647     4.7070    20.7576 </r>
       <r>    -5.2581     2.9043    21.0671 </r>
       <r>    -5.1515     2.0658    21.2873 </r>
       <r>    -5.0450     1.3795    21.4343 </r>
       <r>    -4.9384     1.4656    21.5905 </r>
       <r>    -4.8318     1.8037    21.7827 </r>
       <r>    -4.7253     1.3130    21.9226 </r>
       <r>    -4.6187     0.9828    22.0273 </r>
       <r>    -4.5121     1.2525    22.1608 </r>
       <r>    -4.4056     2.2734    22.4031 </r>
       <r>    -4.2990     2.7730    22.6986 </r>
       <r>    -4.1924     2.3781    22.9520 </r>
       <r>    -4.0859     2.4201    23.2099 </r>
       <r>    -3.9793     2.8547    23.5141 </r>
       <r>    -3.8727     2.9552    23.8291 </r>
       <r>    -3.7662     2.3171    24.0760 </r>
       <r>    -3.6596     2.3472    24.3261 </r>
       <r>    -3.5530     2.6250    24.6058 </r>
       <r>    -3.4465     2.0015    24.8191 </r>
       <r>    -3.3399     1.7699    25.0078 </r>
       <r>    -3.2333     1.6563    25.1843 </r>
       <r>    -3.1268     2.1918    25.4178 </r>
       <r>    -3.0202     2.3487    25.6681 </r>
       <r>    -2.9136     1.5150    25.8296 </r>
       <r>    -2.8071     1.5010    25.9895 </r>
       <r>    -2.7005     0.9583    26.0916 </r>
       <r>    -2.5939     1.3118    26.2314 </r>
       <r>    -2.4874     2.5463    26.5028 </r>
       <r>    -2.3808     1.7911    26.6937 </r>
       <r>    -2.2742     0.5125    26.7483 </r>
       <r>    -2.1677     0.6062    26.8129 </r>
       <r>    -2.0611     1.3183    26.9534 </r>
       <r>    -1.9545     1.3372    27.0959 </r>
       <r>    -1.8480     1.4461    27.2500 </r>
       <r>    -1.7414     1.4913    27.4089 </r>
       <r>    -1.6348     1.2004    27.5368 </r>
       <r>    -1.5283     0.9051    27.6333 </r>
       <r>    -1.4217     0.5885    27.6960 </r>
       <r>    -1.3151     0.5026    27.7495 </r>
       <r>    -1.2086     0.5115    27.8040 </r>
       <r>    -1.1020     0.5326    27.8608 </r>
       <r>    -0.9954     0.7510    27.9408 </r>
       <r>    -0.8889     0.3435    27.9774 </r>
       <r>    -0.7823     0.0733    27.9853 </r>
       <r>    -0.6757     0.0079    27.9861 </r>
       <r>    -0.5692     0.0004    27.9861 </r>
       <r>    -0.4626     0.0139    27.9876 </r>
       <r>    -0.3560     0.1052    27.9988 </r>
       <r>    -0.2495     0.1201    28.0116 </r>
       <r>    -0.1429     0.0208    28.0138 </r>
       <r>    -0.0363     0.0005    28.0139 </r>
       <r>     0.0702     0.0001    28.0139 </r>
       <r>     0.1768     0.0101    28.0150 </r>
       <r>     0.2834     0.1742    28.0335 </r>
       <r>     0.3899     0.4292    28.0793 </r>
       <r>     0.4965     0.1765    28.0981 </r>
       <r>     0.6031     0.1721    28.1164 </r>
       <r>     0.7096     0.4273    28.1620 </r>
       <r>     0.8162     0.6761    28.2340 </r>
       <r>     0.9228     1.3699    28.3800 </r>
       <r>     1.0293     3.3751    28.7397 </r>
       <r>     1.1359     2.4675    29.0026 </r>
       <r>     1.2425     0.5948    29.0660 </r>
       <r>     1.3490     0.5699    29.1267 </r>
       <r>     1.4556     1.1308    29.2472 </r>
       <r>     1.5622     1.6625    29.4244 </r>
       <r>     1.6687     2.5248    29.6935 </r>
       <r>     1.7753     1.8834    29.8942 </r>
       <r>     1.8818     0.7761    29.9769 </r>
       <r>     1.9884     0.9074    30.0736 </r>
       <r>     2.0950     1.2646    30.2084 </r>
       <r>     2.2015     0.9323    30.3077 </r>
       <r>     2.3081     1.0698    30.4217 </r>
       <r>     2.4147     0.9413    30.5220 </r>
       <r>     2.5212     1.4402    30.6755 </r>
       <r>     2.6278     1.3608    30.8205 </r>
       <r>     2.7344     0.7845    30.9041 </r>
       <r>     2.8409     0.5658    30.9644 </r>
       <r>     2.9475     1.2030    31.0926 </r>
       <r>     3.0541     1.5039    31.2529 </r>
       <r>     3.1606     1.2601    31.3872 </r>
       <r>     3.2672     1.2542    31.5208 </r>
       <r>     3.3738     1.3298    31.6625 </r>
       <r>     3.4803     1.5238    31.8249 </r>
       <r>     3.5869     2.2203    32.0615 </r>
       <r>     3.6935     3.0140    32.3827 </r>
       <r>     3.8000     3.1960    32.7233 </r>
       <r>     3.9066     2.9509    33.0377 </r>
       <r>     4.0132     3.0081    33.3583 </r>
       <r>     4.1197     3.2361    33.7032 </r>
       <r>     4.2263     3.1869    34.0428 </r>
       <r>     4.3329     3.0396    34.3667 </r>
       <r>     4.4394     2.8287    34.6682 </r>
       <r>     4.5460     2.7494    34.9612 </r>
       <r>     4.6526     2.8095    35.2606 </r>
       <r>     4.7591     3.5203    35.6357 </r>
       <r>     4.8657     3.0294    35.9585 </r>
       <r>     4.9723     2.7198    36.2484 </r>
       <r>     5.0788     3.3082    36.6009 </r>
       <r>     5.1854     3.5153    36.9755 </r>
       <r>     5.2920     3.1502    37.3112 </r>
       <r>     5.3985     2.6157    37.5900 </r>
       <r>     5.5051     2.5820    37.8651 </r>
       <r>     5.6117     3.3414    38.2212 </r>
       <r>     5.7182     3.1197    38.5537 </r>
       <r>     5.8248     3.0264    38.8762 </r>
       <r>     5.9314     2.4750    39.1399 </r>
       <r>     6.0379     2.5020    39.4066 </r>
       <r>     6.1445     1.9860    39.6182 </r>
       <r>     6.2511     2.5840    39.8936 </r>
       <r>     6.3576     2.8822    40.2007 </r>
       <r>     6.4642     2.9993    40.5203 </r>
       <r>     6.5708     3.2762    40.8695 </r>
       <r>     6.6773     3.7181    41.2657 </r>
       <r>     6.7839     4.0481    41.6971 </r>
       <r>     6.8905     3.1305    42.0307 </r>
       <r>     6.9970     3.3346    42.3860 </r>
       <r>     7.1036     3.4547    42.7542 </r>
       <r>     7.2102     2.7460    43.0468 </r>
       <r>     7.3167     2.4745    43.3105 </r>
       <r>     7.4233     2.5966    43.5872 </r>
       <r>     7.5299     3.1707    43.9251 </r>
       <r>     7.6364     3.2912    44.2759 </r>
       <r>     7.7430     4.2644    44.7303 </r>
       <r>     7.8496     3.9996    45.1565 </r>
       <r>     7.9561     3.0820    45.4850 </r>
       <r>     8.0627     4.2731    45.9403 </r>
       <r>     8.1693     4.5360    46.4237 </r>
       <r>     8.2758     4.5875    46.9126 </r>
       <r>     8.3824     4.6748    47.4107 </r>
       <r>     8.4890     2.8487    47.7143 </r>
       <r>     8.5955     1.3735    47.8607 </r>
       <r>     8.7021     0.5538    47.9197 </r>
       <r>     8.8087     0.3880    47.9610 </r>
       <r>     8.9152     0.2956    47.9925 </r>
       <r>     9.0218     0.0673    47.9997 </r>
       <r>     9.1284     0.0027    48.0000 </r>
       <r>     9.2349     0.0000    48.0000 </r>
       <r>     9.3415     0.0000    48.0000 </r>
       <r>     9.4481     0.0000    48.0000 </r>
       <r>     9.5546     0.0000    48.0000 </r>
       <r>     9.6612     0.0000    48.0000 </r>
       <r>     9.7678     0.0000    48.0000 </r>
       <r>     9.8743     0.0000    48.0000 </r>
       <r>     9.9809     0.0000    48.0000 </r>
       <r>    10.0875     0.0000    48.0000 </r>
       <r>    10.1940     0.0000    48.0000 </r>
       <r>    10.3006     0.0000    48.0000 </r>
      </set>
     </set>
    </array>
   </total>
  </dos>
 </calculation>
 <structure name="finalpos" >
  <crystal>
   <varray name="basis" >
    <v>       4.20541936       2.42800000       0.00000000 </v>
    <v>      -4.20541936       2.42800000       0.00000000 </v>
    <v>       0.00000000       0.00000000      15.00000000 </v>
   </varray>
   <i name="volume">    306.32274624 </i>
   <varray name="rec_basis" >
    <v>       0.11889421       0.20593081       0.00000000 </v>
    <v>      -0.11889421       0.20593081       0.00000000 </v>
    <v>       0.00000000       0.00000000       0.06666667 </v>
   </varray>
  </crystal>
  <varray name="positions" >
   <v>       0.00404771       0.00269421       0.10106472 </v>
   <v>       0.35923850       0.00298956       0.10046826 </v>
   <v>       0.00374692       0.35758473       0.10046904 </v>
   <v>       0.64914975       0.64749994       0.10046535 </v>
   <v>       0.32767832       0.32603817       0.10046645 </v>
   <v>       0.68069351       0.00297488       0.10046516 </v>
   <v>       0.00375230       0.67905017       0.10046224 </v>
   <v>       0.00014113       0.50006608       0.33495932 </v>
   <v>       0.16679110       0.33345483       0.33499557 </v>
   <v>       0.00012390       0.00007466       0.33492094 </v>
   <v>       0.16683424       0.83340741       0.33499937 </v>
   <v>       0.50013465       0.50010387       0.33496210 </v>
   <v>       0.66678974       0.33340951       0.33486074 </v>
   <v>       0.50009543       0.00005713       0.33495773 </v>
   <v>       0.66674346       0.83336219       0.33499567 </v>
  </varray>
 </structure>
</modeling>
