 vasp.6.3.2 27Jun22 (build Dec 22 2022 13:13:19) complex                        
  
 executed on             LinuxIFC date 2023.11.01  20:06:38
 running   48 mpi-ranks, with    1 threads/rank
 distrk:  each k-point on   48 cores,    1 groups
 distr:  one band on NCORE=   1 cores,   48 groups


--------------------------------------------------------------------------------------------------------


 INCAR:
   SYSTEM = SC
   ISTART = 0
   ICHARG = 2
   PREC = Accurate
   ENCUT = 450
   LCHARG = .TRUE.
   LWAVE = .TRUE.
   ALGO = Normal
   NELM = 64
   EDIFF = 1E-6
   EDIFFG = -1E-3
   SIGMA = 0.1
   ISMEAR = 0
   SYMPREC = 1E-6
   IBRION = -1
   GGA = PE
   IVDW = 12

 POTCAR:    PAW_PBE B 06Sep2000                   
 POTCAR:    PAW_PBE C 08Apr2002                   
 POTCAR:    PAW_PBE B 06Sep2000                   
   SHA256 =  a32ced30f5ae56fd4d10b4325ff17eb3e4e38ee0f4288bc219fb012fddfa6e97 B/POTCAR              
   COPYR  = (c) Copyright 06Sep2000 Georg Kresse                                                    
   COPYR  = This file is part of the software VASP. Any use, copying, and all other rights are regul
   COPYR  = If you do not have a valid VASP license, you may not use, copy or distribute this file. 
   VRHFIN =B: s2p1                                                                                  
   LEXCH  = PE                                                                                      
   EATOM  =    71.1703 eV,    5.2309 Ry                                                             
                                                                                                    
   TITEL  = PAW_PBE B 06Sep2000                                                                     
   LULTRA =        F    use ultrasoft PP ?                                                          
   IUNSCR =        1    unscreen: 0-lin 1-nonlin 2-no                                               
   RPACOR =    1.200    partial core radius                                                         
   POMASS =   10.811; ZVAL   =    3.000    mass and valenz                                          
   RCORE  =    1.700    outmost cutoff radius                                                       
   RWIGS  =    1.710; RWIGS  =    0.905    wigner-seitz radius (au A)                               
   ENMAX  =  318.614; ENMIN  =  238.960 eV                                                          
   ICORE  =        2    local potential                                                             
   LCOR   =        T    correct aug charges                                                         
   LPAW   =        T    paw PP                                                                      
   EAUG   =  535.514                                                                                
   DEXC   =    0.000                                                                                
   RMAX   =    1.732    core radius for proj-oper                                                   
   RAUG   =    1.300    factor for augmentation sphere                                              
   RDEP   =    1.757    radius for radial grids                                                     
   RDEPT  =    1.436    core radius for aug-charge                                                  
                                                                                                    
   Atomic configuration                                                                             
    4 entries                                                                                       
     n  l   j            E        occ.                                                              
     1  0  0.50      -180.5896   2.0000                                                             
     2  0  0.50        -9.4431   2.0000                                                             
     2  1  0.50        -3.6068   1.0000                                                             
     3  2  1.50        -4.0817   0.0000                                                             
   Description                                                                                      
     l       E           TYP  RCUT    TYP  RCUT                                                     
     0     -9.4430752     23  1.500                                                                 
     0      0.8675899     23  1.500                                                                 
     1     -3.6067955     23  1.700                                                                 
     1      6.1086146     23  1.700                                                                 
     2     -4.0817478      7  1.700                                                                 
  local pseudopotential read in
  partial core-charges read in
  partial kinetic energy density read in
  atomic valenz-charges read in
  non local Contribution for L=           0  read in
    real space projection operators read in
  non local Contribution for L=           0  read in
    real space projection operators read in
  non local Contribution for L=           1  read in
    real space projection operators read in
  non local Contribution for L=           1  read in
    real space projection operators read in
    PAW grid and wavefunctions read in
 
   number of l-projection  operators is LMAX  =           4
   number of lm-projection operators is LMMAX =           8
 
 POTCAR:    PAW_PBE C 08Apr2002                   
   SHA256 =  253f7b50bb8d59471dbedb8285d89021f4a42ed1a2c5d38a03a736e69125dd95 C/POTCAR              
   COPYR  = (c) Copyright 08Apr2002 Georg Kresse                                                    
   COPYR  = This file is part of the software VASP. Any use, copying, and all other rights are regul
   COPYR  = If you do not have a valid VASP license, you may not use, copy or distribute this file. 
   VRHFIN =C: s2p2                                                                                  
   LEXCH  = PE                                                                                      
   EATOM  =   147.1560 eV,   10.8157 Ry                                                             
                                                                                                    
   TITEL  = PAW_PBE C 08Apr2002                                                                     
   LULTRA =        F    use ultrasoft PP ?                                                          
   IUNSCR =        1    unscreen: 0-lin 1-nonlin 2-no                                               
   RPACOR =    1.200    partial core radius                                                         
   POMASS =   12.011; ZVAL   =    4.000    mass and valenz                                          
   RCORE  =    1.500    outmost cutoff radius                                                       
   RWIGS  =    1.630; RWIGS  =    0.863    wigner-seitz radius (au A)                               
   ENMAX  =  400.000; ENMIN  =  300.000 eV                                                          
   ICORE  =        2    local potential                                                             
   LCOR   =        T    correct aug charges                                                         
   LPAW   =        T    paw PP                                                                      
   EAUG   =  644.873                                                                                
   DEXC   =    0.000                                                                                
   RMAX   =    1.529    core radius for proj-oper                                                   
   RAUG   =    1.300    factor for augmentation sphere                                              
   RDEP   =    1.501    radius for radial grids                                                     
   RDEPT  =    1.300    core radius for aug-charge                                                  
                                                                                                    
   Atomic configuration                                                                             
    4 entries                                                                                       
     n  l   j            E        occ.                                                              
     1  0  0.50      -273.3789   2.0000                                                             
     2  0  0.50       -13.7508   2.0000                                                             
     2  1  0.50        -5.2854   2.0000                                                             
     3  2  1.50        -5.4423   0.0000                                                             
   Description                                                                                      
     l       E           TYP  RCUT    TYP  RCUT                                                     
     0    -13.7508458     23  1.200                                                                 
     0     -8.2022199     23  1.200                                                                 
     1     -5.2854383     23  1.500                                                                 
     1     34.0145650     23  1.500                                                                 
     2     -5.4423304      7  1.500                                                                 
  local pseudopotential read in
  partial core-charges read in
  partial kinetic energy density read in
  atomic valenz-charges read in
  non local Contribution for L=           0  read in
    real space projection operators read in
  non local Contribution for L=           0  read in
    real space projection operators read in
  non local Contribution for L=           1  read in
    real space projection operators read in
  non local Contribution for L=           1  read in
    real space projection operators read in
    PAW grid and wavefunctions read in
 
   number of l-projection  operators is LMAX  =           4
   number of lm-projection operators is LMMAX =           8
 
  PAW_PBE B 06Sep2000                   :
 energy of atom  1       EATOM=  -71.1703
 kinetic energy error for atom=    0.0015 (will be added to EATOM!!)
  PAW_PBE C 08Apr2002                   :
 energy of atom  2       EATOM= -147.1560
 kinetic energy error for atom=    0.0116 (will be added to EATOM!!)
 
 
 POSCAR: BC3 with lattice parameter 5.169
  positions in direct lattice
  velocities in cartesian coordinates
 exchange correlation table for  LEXCH =        8
   RHO(1)=    0.500       N(1)  =     2000
   RHO(2)=  100.500       N(2)  =     4000

 VTST: version 4.2, (08/11/21)

 CHAIN: initializing optimizer
 
 OPT: Using VASP Dynamics algorithm
 CHAIN: Read ICHAIN            0
 
 POSCAR: BC3 with lattice parameter 5.169
  positions in direct lattice
  velocities in cartesian coordinates
 


--------------------------------------------------------------------------------------------------------


 ion  position               nearest neighbor table
   1  0.338  0.669  0.250-   5 1.56   3 1.56   7 1.56
   2  0.672  0.336  0.250-   6 1.56   4 1.56   8 1.56
   3  0.164  0.320  0.250-   6 1.42   4 1.42   1 1.56
   4  0.322  0.161  0.250-   5 1.42   3 1.42   2 1.56
   5  0.164  0.844  0.250-   4 1.42   8 1.42   1 1.56
   6  0.846  0.161  0.250-   7 1.42   3 1.42   2 1.56
   7  0.688  0.844  0.250-   6 1.42   8 1.42   1 1.56
   8  0.846  0.685  0.250-   7 1.42   5 1.42   2 1.56
 
  LATTYP: Found a hexagonal cell.
 ALAT       =     5.1689997297
 C/A-ratio  =     2.9019154158
  
  Lattice vectors:
  
 A1 = (   4.4764850000,   2.5845000000,   0.0000000000)
 A2 = (  -4.4764850000,   2.5845000000,   0.0000000000)
 A3 = (   0.0000000000,   0.0000000000,  15.0000000000)


Analysis of symmetry for initial positions (statically):
=====================================================================
 Subroutine PRICEL returns:
 Original cell was already a primitive cell.
 

 Routine SETGRP: Setting up the symmetry group for a 
 hexagonal supercell.


 Subroutine GETGRP returns: Found  2 space group operations
 (whereof  1 operations were pure point group operations)
 out of a pool of 24 trial point group operations.


The static configuration has the point symmetry C_1 .
 The point group associated with its full space group is C_1h.


Analysis of symmetry for dynamics (positions and initial velocities):
=====================================================================
 Subroutine PRICEL returns:
 Original cell was already a primitive cell.
 

 Routine SETGRP: Setting up the symmetry group for a 
 hexagonal supercell.


 Subroutine GETGRP returns: Found  2 space group operations
 (whereof  1 operations were pure point group operations)
 out of a pool of 24 trial point group operations.


The dynamic configuration has the point symmetry C_1 .
 The point group associated with its full space group is C_1h.


 Subroutine INISYM returns: Found  2 space group operations
 (whereof  1 operations are pure point group operations),
 and found     1 'primitive' translations


----------------------------------------------------------------------------------------

                                     Primitive cell                                     

  volume of cell :     347.0843

  direct lattice vectors                    reciprocal lattice vectors
     4.476485000  2.584500000  0.000000000     0.111694778  0.193461018  0.000000000
    -4.476485000  2.584500000  0.000000000    -0.111694778  0.193461018  0.000000000
     0.000000000  0.000000000 15.000000000     0.000000000  0.000000000  0.066666667

  length of vectors
     5.168999730  5.168999730 15.000000000     0.223389545  0.223389545  0.066666667

  position of ions in fractional coordinates (direct lattice)
     0.338334189  0.669165089  0.250000000
     0.671666315  0.335831896  0.250000000
     0.163745918  0.319999521  0.250000000
     0.322499481  0.161250266  0.250000000
     0.163754286  0.843749176  0.250000000
     0.846244180  0.161250584  0.250000000
     0.687500016  0.843750111  0.250000000
     0.846251614  0.684999356  0.250000000

  ion indices of the primitive-cell ions
   primitive index   ion index
                 1           1
                 2           2
                 3           3
                 4           4
                 5           5
                 6           6
                 7           7
                 8           8

----------------------------------------------------------------------------------------

 
 
 KPOINTS: k-points                                

Automatic generation of k-mesh.
 Grid dimensions read from file:
 generate k-points for:   41   41    1

 Generating k-lattice:

  Cartesian coordinates                     Fractional coordinates (reciprocal lattice)
     0.002724263  0.004718561  0.000000000     0.024390244  0.000000000  0.000000000
    -0.002724263  0.004718561  0.000000000     0.000000000  0.024390244  0.000000000
     0.000000000  0.000000000  0.066666667     0.000000000  0.000000000  1.000000000

  Length of vectors
     0.005448525  0.005448525  0.066666667

  Shift w.r.t. Gamma in fractional coordinates (k-lattice)
     0.000000000  0.000000000  0.000000000

 
 Subroutine IBZKPT returns following result:
 ===========================================
 
 Found    841 irreducible k-points:
 
 Following reciprocal coordinates:
            Coordinates               Weight
  0.000000  0.000000  0.000000      1.000000
  0.024390 -0.000000  0.000000      2.000000
 -0.000000  0.024390  0.000000      2.000000
 -0.024390  0.024390  0.000000      2.000000
  0.048780 -0.000000  0.000000      2.000000
 -0.000000  0.048780  0.000000      2.000000
 -0.048780  0.048780  0.000000      2.000000
  0.073171  0.000000  0.000000      2.000000
  0.000000  0.073171  0.000000      2.000000
 -0.073171  0.073171  0.000000      2.000000
  0.097561 -0.000000  0.000000      2.000000
 -0.000000  0.097561  0.000000      2.000000
 -0.097561  0.097561  0.000000      2.000000
  0.121951  0.000000  0.000000      2.000000
  0.000000  0.121951  0.000000      2.000000
 -0.121951  0.121951  0.000000      2.000000
  0.146341 -0.000000  0.000000      2.000000
 -0.000000  0.146341  0.000000      2.000000
 -0.146341  0.146341  0.000000      2.000000
  0.170732  0.000000  0.000000      2.000000
  0.000000  0.170732  0.000000      2.000000
 -0.170732  0.170732  0.000000      2.000000
  0.195122  0.000000  0.000000      2.000000
  0.000000  0.195122  0.000000      2.000000
 -0.195122  0.195122  0.000000      2.000000
  0.219512  0.000000  0.000000      2.000000
  0.000000  0.219512  0.000000      2.000000
 -0.219512  0.219512  0.000000      2.000000
  0.243902  0.000000  0.000000      2.000000
  0.000000  0.243902  0.000000      2.000000
 -0.243902  0.243902  0.000000      2.000000
  0.268293 -0.000000  0.000000      2.000000
  0.000000  0.268293  0.000000      2.000000
 -0.268293  0.268293  0.000000      2.000000
  0.292683  0.000000  0.000000      2.000000
  0.000000  0.292683  0.000000      2.000000
 -0.292683  0.292683  0.000000      2.000000
  0.317073  0.000000  0.000000      2.000000
  0.000000  0.317073  0.000000      2.000000
 -0.317073  0.317073  0.000000      2.000000
  0.341463  0.000000  0.000000      2.000000
  0.000000  0.341463  0.000000      2.000000
 -0.341463  0.341463  0.000000      2.000000
  0.365854 -0.000000  0.000000      2.000000
  0.000000  0.365854  0.000000      2.000000
 -0.365854  0.365854  0.000000      2.000000
  0.390244  0.000000  0.000000      2.000000
  0.000000  0.390244  0.000000      2.000000
 -0.390244  0.390244  0.000000      2.000000
  0.414634  0.000000  0.000000      2.000000
  0.000000  0.414634  0.000000      2.000000
 -0.414634  0.414634  0.000000      2.000000
  0.439024  0.000000  0.000000      2.000000
  0.000000  0.439024  0.000000      2.000000
 -0.439024  0.439024  0.000000      2.000000
  0.463415 -0.000000  0.000000      2.000000
 -0.000000  0.463415  0.000000      2.000000
 -0.463415  0.463415  0.000000      2.000000
  0.487805  0.000000  0.000000      2.000000
  0.000000  0.487805  0.000000      2.000000
 -0.487805  0.487805  0.000000      2.000000
  0.024390  0.024390  0.000000      2.000000
 -0.024390  0.048780  0.000000      2.000000
 -0.048780  0.024390  0.000000      2.000000
  0.048780  0.024390  0.000000      2.000000
 -0.024390  0.073171  0.000000      2.000000
 -0.073171  0.048780  0.000000      2.000000
 -0.048780  0.073171  0.000000      2.000000
  0.024390  0.048780  0.000000      2.000000
  0.073171 -0.024390  0.000000      2.000000
  0.073171  0.024390  0.000000      2.000000
 -0.024390  0.097561  0.000000      2.000000
 -0.097561  0.073171  0.000000      2.000000
 -0.073171  0.097561  0.000000      2.000000
  0.024390  0.073171  0.000000      2.000000
  0.097561 -0.024390  0.000000      2.000000
  0.097561  0.024390  0.000000      2.000000
 -0.024390  0.121951  0.000000      2.000000
 -0.121951  0.097561  0.000000      2.000000
 -0.097561  0.121951  0.000000      2.000000
  0.024390  0.097561  0.000000      2.000000
  0.121951 -0.024390  0.000000      2.000000
  0.121951  0.024390  0.000000      2.000000
 -0.024390  0.146341  0.000000      2.000000
 -0.146341  0.121951  0.000000      2.000000
 -0.121951  0.146341  0.000000      2.000000
  0.024390  0.121951  0.000000      2.000000
  0.146341 -0.024390  0.000000      2.000000
  0.146341  0.024390  0.000000      2.000000
 -0.024390  0.170732  0.000000      2.000000
 -0.170732  0.146341  0.000000      2.000000
 -0.146341  0.170732  0.000000      2.000000
  0.024390  0.146341  0.000000      2.000000
  0.170732 -0.024390  0.000000      2.000000
  0.170732  0.024390  0.000000      2.000000
 -0.024390  0.195122  0.000000      2.000000
 -0.195122  0.170732  0.000000      2.000000
 -0.170732  0.195122  0.000000      2.000000
  0.024390  0.170732  0.000000      2.000000
  0.195122 -0.024390  0.000000      2.000000
  0.195122  0.024390  0.000000      2.000000
 -0.024390  0.219512  0.000000      2.000000
 -0.219512  0.195122  0.000000      2.000000
 -0.195122  0.219512  0.000000      2.000000
  0.024390  0.195122  0.000000      2.000000
  0.219512 -0.024390  0.000000      2.000000
  0.219512  0.024390  0.000000      2.000000
 -0.024390  0.243902  0.000000      2.000000
 -0.243902  0.219512  0.000000      2.000000
 -0.219512  0.243902  0.000000      2.000000
  0.024390  0.219512  0.000000      2.000000
  0.243902 -0.024390  0.000000      2.000000
  0.243902  0.024390  0.000000      2.000000
 -0.024390  0.268293  0.000000      2.000000
 -0.268293  0.243902  0.000000      2.000000
 -0.243902  0.268293  0.000000      2.000000
  0.024390  0.243902  0.000000      2.000000
  0.268293 -0.024390  0.000000      2.000000
  0.268293  0.024390  0.000000      2.000000
 -0.024390  0.292683  0.000000      2.000000
 -0.292683  0.268293  0.000000      2.000000
 -0.268293  0.292683  0.000000      2.000000
  0.024390  0.268293  0.000000      2.000000
  0.292683 -0.024390  0.000000      2.000000
  0.292683  0.024390  0.000000      2.000000
 -0.024390  0.317073  0.000000      2.000000
 -0.317073  0.292683  0.000000      2.000000
 -0.292683  0.317073  0.000000      2.000000
  0.024390  0.292683  0.000000      2.000000
  0.317073 -0.024390  0.000000      2.000000
  0.317073  0.024390  0.000000      2.000000
 -0.024390  0.341463  0.000000      2.000000
 -0.341463  0.317073  0.000000      2.000000
 -0.317073  0.341463  0.000000      2.000000
  0.024390  0.317073  0.000000      2.000000
  0.341463 -0.024390  0.000000      2.000000
  0.341463  0.024390  0.000000      2.000000
 -0.024390  0.365854  0.000000      2.000000
 -0.365854  0.341463  0.000000      2.000000
 -0.341463  0.365854  0.000000      2.000000
  0.024390  0.341463  0.000000      2.000000
  0.365854 -0.024390  0.000000      2.000000
  0.365854  0.024390  0.000000      2.000000
 -0.024390  0.390244  0.000000      2.000000
 -0.390244  0.365854  0.000000      2.000000
 -0.365854  0.390244  0.000000      2.000000
  0.024390  0.365854  0.000000      2.000000
  0.390244 -0.024390  0.000000      2.000000
  0.390244  0.024390  0.000000      2.000000
 -0.024390  0.414634  0.000000      2.000000
 -0.414634  0.390244  0.000000      2.000000
 -0.390244  0.414634  0.000000      2.000000
  0.024390  0.390244  0.000000      2.000000
  0.414634 -0.024390  0.000000      2.000000
  0.414634  0.024390  0.000000      2.000000
 -0.024390  0.439024  0.000000      2.000000
 -0.439024  0.414634  0.000000      2.000000
 -0.414634  0.439024  0.000000      2.000000
  0.024390  0.414634  0.000000      2.000000
  0.439024 -0.024390  0.000000      2.000000
  0.439024  0.024390  0.000000      2.000000
 -0.024390  0.463415  0.000000      2.000000
 -0.463415  0.439024  0.000000      2.000000
 -0.439024  0.463415  0.000000      2.000000
  0.024390  0.439024  0.000000      2.000000
  0.463415 -0.024390  0.000000      2.000000
  0.463415  0.024390  0.000000      2.000000
 -0.024390  0.487805  0.000000      2.000000
 -0.487805  0.463415  0.000000      2.000000
 -0.463415  0.487805  0.000000      2.000000
  0.024390  0.463415  0.000000      2.000000
  0.487805 -0.024390  0.000000      2.000000
  0.487805  0.024390  0.000000      2.000000
 -0.024390 -0.487805  0.000000      2.000000
  0.487805  0.487805  0.000000      2.000000
  0.048780  0.048780  0.000000      2.000000
 -0.048780  0.097561  0.000000      2.000000
 -0.097561  0.048780  0.000000      2.000000
  0.073171  0.048780  0.000000      2.000000
 -0.048780  0.121951  0.000000      2.000000
 -0.121951  0.073171  0.000000      2.000000
 -0.073171  0.121951  0.000000      2.000000
  0.048780  0.073171  0.000000      2.000000
  0.121951 -0.048780  0.000000      2.000000
  0.097561  0.048780  0.000000      2.000000
 -0.048780  0.146341  0.000000      2.000000
 -0.146341  0.097561  0.000000      2.000000
 -0.097561  0.146341  0.000000      2.000000
  0.048780  0.097561  0.000000      2.000000
  0.146341 -0.048780  0.000000      2.000000
  0.121951  0.048780  0.000000      2.000000
 -0.048780  0.170732  0.000000      2.000000
 -0.170732  0.121951  0.000000      2.000000
 -0.121951  0.170732  0.000000      2.000000
  0.048780  0.121951  0.000000      2.000000
  0.170732 -0.048780  0.000000      2.000000
  0.146341  0.048780  0.000000      2.000000
 -0.048780  0.195122  0.000000      2.000000
 -0.195122  0.146341  0.000000      2.000000
 -0.146341  0.195122  0.000000      2.000000
  0.048780  0.146341  0.000000      2.000000
  0.195122 -0.048780  0.000000      2.000000
  0.170732  0.048780  0.000000      2.000000
 -0.048780  0.219512  0.000000      2.000000
 -0.219512  0.170732  0.000000      2.000000
 -0.170732  0.219512  0.000000      2.000000
  0.048780  0.170732  0.000000      2.000000
  0.219512 -0.048780  0.000000      2.000000
  0.195122  0.048780  0.000000      2.000000
 -0.048780  0.243902  0.000000      2.000000
 -0.243902  0.195122  0.000000      2.000000
 -0.195122  0.243902  0.000000      2.000000
  0.048780  0.195122  0.000000      2.000000
  0.243902 -0.048780  0.000000      2.000000
  0.219512  0.048780  0.000000      2.000000
 -0.048780  0.268293  0.000000      2.000000
 -0.268293  0.219512  0.000000      2.000000
 -0.219512  0.268293  0.000000      2.000000
  0.048780  0.219512  0.000000      2.000000
  0.268293 -0.048780  0.000000      2.000000
  0.243902  0.048780  0.000000      2.000000
 -0.048780  0.292683  0.000000      2.000000
 -0.292683  0.243902  0.000000      2.000000
 -0.243902  0.292683  0.000000      2.000000
  0.048780  0.243902  0.000000      2.000000
  0.292683 -0.048780  0.000000      2.000000
  0.268293  0.048780  0.000000      2.000000
 -0.048780  0.317073  0.000000      2.000000
 -0.317073  0.268293  0.000000      2.000000
 -0.268293  0.317073  0.000000      2.000000
  0.048780  0.268293  0.000000      2.000000
  0.317073 -0.048780  0.000000      2.000000
  0.292683  0.048780  0.000000      2.000000
 -0.048780  0.341463  0.000000      2.000000
 -0.341463  0.292683  0.000000      2.000000
 -0.292683  0.341463  0.000000      2.000000
  0.048780  0.292683  0.000000      2.000000
  0.341463 -0.048780  0.000000      2.000000
  0.317073  0.048780  0.000000      2.000000
 -0.048780  0.365854  0.000000      2.000000
 -0.365854  0.317073  0.000000      2.000000
 -0.317073  0.365854  0.000000      2.000000
  0.048780  0.317073  0.000000      2.000000
  0.365854 -0.048780  0.000000      2.000000
  0.341463  0.048780  0.000000      2.000000
 -0.048780  0.390244  0.000000      2.000000
 -0.390244  0.341463  0.000000      2.000000
 -0.341463  0.390244  0.000000      2.000000
  0.048780  0.341463  0.000000      2.000000
  0.390244 -0.048780  0.000000      2.000000
  0.365854  0.048780  0.000000      2.000000
 -0.048780  0.414634  0.000000      2.000000
 -0.414634  0.365854  0.000000      2.000000
 -0.365854  0.414634  0.000000      2.000000
  0.048780  0.365854  0.000000      2.000000
  0.414634 -0.048780  0.000000      2.000000
  0.390244  0.048780  0.000000      2.000000
 -0.048780  0.439024  0.000000      2.000000
 -0.439024  0.390244  0.000000      2.000000
 -0.390244  0.439024  0.000000      2.000000
  0.048780  0.390244  0.000000      2.000000
  0.439024 -0.048780  0.000000      2.000000
  0.414634  0.048780  0.000000      2.000000
 -0.048780  0.463415  0.000000      2.000000
 -0.463415  0.414634  0.000000      2.000000
 -0.414634  0.463415  0.000000      2.000000
  0.048780  0.414634  0.000000      2.000000
  0.463415 -0.048780  0.000000      2.000000
  0.439024  0.048780  0.000000      2.000000
 -0.048780  0.487805  0.000000      2.000000
 -0.487805  0.439024  0.000000      2.000000
 -0.439024  0.487805  0.000000      2.000000
  0.048780  0.439024  0.000000      2.000000
  0.487805 -0.048780  0.000000      2.000000
  0.463415  0.048780  0.000000      2.000000
 -0.048780 -0.487805  0.000000      2.000000
  0.487805  0.463415  0.000000      2.000000
 -0.463415 -0.487805  0.000000      2.000000
  0.048780  0.463415  0.000000      2.000000
 -0.487805 -0.048780  0.000000      2.000000
  0.073171  0.073171  0.000000      2.000000
 -0.073171  0.146341  0.000000      2.000000
 -0.146341  0.073171  0.000000      2.000000
  0.097561  0.073171  0.000000      2.000000
 -0.073171  0.170732  0.000000      2.000000
 -0.170732  0.097561  0.000000      2.000000
 -0.097561  0.170732  0.000000      2.000000
  0.073171  0.097561  0.000000      2.000000
  0.170732 -0.073171  0.000000      2.000000
  0.121951  0.073171  0.000000      2.000000
 -0.073171  0.195122  0.000000      2.000000
 -0.195122  0.121951  0.000000      2.000000
 -0.121951  0.195122  0.000000      2.000000
  0.073171  0.121951  0.000000      2.000000
  0.195122 -0.073171  0.000000      2.000000
  0.146341  0.073171  0.000000      2.000000
 -0.073171  0.219512  0.000000      2.000000
 -0.219512  0.146341  0.000000      2.000000
 -0.146341  0.219512  0.000000      2.000000
  0.073171  0.146341  0.000000      2.000000
  0.219512 -0.073171  0.000000      2.000000
  0.170732  0.073171  0.000000      2.000000
 -0.073171  0.243902  0.000000      2.000000
 -0.243902  0.170732  0.000000      2.000000
 -0.170732  0.243902  0.000000      2.000000
  0.073171  0.170732  0.000000      2.000000
  0.243902 -0.073171  0.000000      2.000000
  0.195122  0.073171  0.000000      2.000000
 -0.073171  0.268293  0.000000      2.000000
 -0.268293  0.195122  0.000000      2.000000
 -0.195122  0.268293  0.000000      2.000000
  0.073171  0.195122  0.000000      2.000000
  0.268293 -0.073171  0.000000      2.000000
  0.219512  0.073171  0.000000      2.000000
 -0.073171  0.292683  0.000000      2.000000
 -0.292683  0.219512  0.000000      2.000000
 -0.219512  0.292683  0.000000      2.000000
  0.073171  0.219512  0.000000      2.000000
  0.292683 -0.073171  0.000000      2.000000
  0.243902  0.073171  0.000000      2.000000
 -0.073171  0.317073  0.000000      2.000000
 -0.317073  0.243902  0.000000      2.000000
 -0.243902  0.317073  0.000000      2.000000
  0.073171  0.243902  0.000000      2.000000
  0.317073 -0.073171  0.000000      2.000000
  0.268293  0.073171  0.000000      2.000000
 -0.073171  0.341463  0.000000      2.000000
 -0.341463  0.268293  0.000000      2.000000
 -0.268293  0.341463  0.000000      2.000000
  0.073171  0.268293  0.000000      2.000000
  0.341463 -0.073171  0.000000      2.000000
  0.292683  0.073171  0.000000      2.000000
 -0.073171  0.365854  0.000000      2.000000
 -0.365854  0.292683  0.000000      2.000000
 -0.292683  0.365854  0.000000      2.000000
  0.073171  0.292683  0.000000      2.000000
  0.365854 -0.073171  0.000000      2.000000
  0.317073  0.073171  0.000000      2.000000
 -0.073171  0.390244  0.000000      2.000000
 -0.390244  0.317073  0.000000      2.000000
 -0.317073  0.390244  0.000000      2.000000
  0.073171  0.317073  0.000000      2.000000
  0.390244 -0.073171  0.000000      2.000000
  0.341463  0.073171  0.000000      2.000000
 -0.073171  0.414634  0.000000      2.000000
 -0.414634  0.341463  0.000000      2.000000
 -0.341463  0.414634  0.000000      2.000000
  0.073171  0.341463  0.000000      2.000000
  0.414634 -0.073171  0.000000      2.000000
  0.365854  0.073171  0.000000      2.000000
 -0.073171  0.439024  0.000000      2.000000
 -0.439024  0.365854  0.000000      2.000000
 -0.365854  0.439024  0.000000      2.000000
  0.073171  0.365854  0.000000      2.000000
  0.439024 -0.073171  0.000000      2.000000
  0.390244  0.073171  0.000000      2.000000
 -0.073171  0.463415  0.000000      2.000000
 -0.463415  0.390244  0.000000      2.000000
 -0.390244  0.463415  0.000000      2.000000
  0.073171  0.390244  0.000000      2.000000
  0.463415 -0.073171  0.000000      2.000000
  0.414634  0.073171  0.000000      2.000000
 -0.073171  0.487805  0.000000      2.000000
 -0.487805  0.414634  0.000000      2.000000
 -0.414634  0.487805  0.000000      2.000000
  0.073171  0.414634  0.000000      2.000000
  0.487805 -0.073171  0.000000      2.000000
  0.439024  0.073171  0.000000      2.000000
 -0.073171 -0.487805  0.000000      2.000000
  0.487805  0.439024  0.000000      2.000000
 -0.439024 -0.487805  0.000000      2.000000
  0.073171  0.439024  0.000000      2.000000
 -0.487805 -0.073171  0.000000      2.000000
  0.463415  0.073171  0.000000      2.000000
 -0.073171 -0.463415  0.000000      2.000000
  0.463415  0.463415  0.000000      2.000000
  0.097561  0.097561  0.000000      2.000000
 -0.097561  0.195122  0.000000      2.000000
 -0.195122  0.097561  0.000000      2.000000
  0.121951  0.097561  0.000000      2.000000
 -0.097561  0.219512  0.000000      2.000000
 -0.219512  0.121951  0.000000      2.000000
 -0.121951  0.219512  0.000000      2.000000
  0.097561  0.121951  0.000000      2.000000
  0.219512 -0.097561  0.000000      2.000000
  0.146341  0.097561  0.000000      2.000000
 -0.097561  0.243902  0.000000      2.000000
 -0.243902  0.146341  0.000000      2.000000
 -0.146341  0.243902  0.000000      2.000000
  0.097561  0.146341  0.000000      2.000000
  0.243902 -0.097561  0.000000      2.000000
  0.170732  0.097561  0.000000      2.000000
 -0.097561  0.268293  0.000000      2.000000
 -0.268293  0.170732  0.000000      2.000000
 -0.170732  0.268293  0.000000      2.000000
  0.097561  0.170732  0.000000      2.000000
  0.268293 -0.097561  0.000000      2.000000
  0.195122  0.097561  0.000000      2.000000
 -0.097561  0.292683  0.000000      2.000000
 -0.292683  0.195122  0.000000      2.000000
 -0.195122  0.292683  0.000000      2.000000
  0.097561  0.195122  0.000000      2.000000
  0.292683 -0.097561  0.000000      2.000000
  0.219512  0.097561  0.000000      2.000000
 -0.097561  0.317073  0.000000      2.000000
 -0.317073  0.219512  0.000000      2.000000
 -0.219512  0.317073  0.000000      2.000000
  0.097561  0.219512  0.000000      2.000000
  0.317073 -0.097561  0.000000      2.000000
  0.243902  0.097561  0.000000      2.000000
 -0.097561  0.341463  0.000000      2.000000
 -0.341463  0.243902  0.000000      2.000000
 -0.243902  0.341463  0.000000      2.000000
  0.097561  0.243902  0.000000      2.000000
  0.341463 -0.097561  0.000000      2.000000
  0.268293  0.097561  0.000000      2.000000
 -0.097561  0.365854  0.000000      2.000000
 -0.365854  0.268293  0.000000      2.000000
 -0.268293  0.365854  0.000000      2.000000
  0.097561  0.268293  0.000000      2.000000
  0.365854 -0.097561  0.000000      2.000000
  0.292683  0.097561  0.000000      2.000000
 -0.097561  0.390244  0.000000      2.000000
 -0.390244  0.292683  0.000000      2.000000
 -0.292683  0.390244  0.000000      2.000000
  0.097561  0.292683  0.000000      2.000000
  0.390244 -0.097561  0.000000      2.000000
  0.317073  0.097561  0.000000      2.000000
 -0.097561  0.414634  0.000000      2.000000
 -0.414634  0.317073  0.000000      2.000000
 -0.317073  0.414634  0.000000      2.000000
  0.097561  0.317073  0.000000      2.000000
  0.414634 -0.097561  0.000000      2.000000
  0.341463  0.097561  0.000000      2.000000
 -0.097561  0.439024  0.000000      2.000000
 -0.439024  0.341463  0.000000      2.000000
 -0.341463  0.439024  0.000000      2.000000
  0.097561  0.341463  0.000000      2.000000
  0.439024 -0.097561  0.000000      2.000000
  0.365854  0.097561  0.000000      2.000000
 -0.097561  0.463415  0.000000      2.000000
 -0.463415  0.365854  0.000000      2.000000
 -0.365854  0.463415  0.000000      2.000000
  0.097561  0.365854  0.000000      2.000000
  0.463415 -0.097561  0.000000      2.000000
  0.390244  0.097561  0.000000      2.000000
 -0.097561  0.487805  0.000000      2.000000
 -0.487805  0.390244  0.000000      2.000000
 -0.390244  0.487805  0.000000      2.000000
  0.097561  0.390244  0.000000      2.000000
  0.487805 -0.097561  0.000000      2.000000
  0.414634  0.097561  0.000000      2.000000
 -0.097561 -0.487805  0.000000      2.000000
  0.487805  0.414634  0.000000      2.000000
 -0.414634 -0.487805  0.000000      2.000000
  0.097561  0.414634  0.000000      2.000000
 -0.487805 -0.097561  0.000000      2.000000
  0.439024  0.097561  0.000000      2.000000
 -0.097561 -0.463415  0.000000      2.000000
  0.463415  0.439024  0.000000      2.000000
 -0.439024 -0.463415  0.000000      2.000000
  0.097561  0.439024  0.000000      2.000000
 -0.463415 -0.097561  0.000000      2.000000
  0.121951  0.121951  0.000000      2.000000
 -0.121951  0.243902  0.000000      2.000000
 -0.243902  0.121951  0.000000      2.000000
  0.146341  0.121951  0.000000      2.000000
 -0.121951  0.268293  0.000000      2.000000
 -0.268293  0.146341  0.000000      2.000000
 -0.146341  0.268293  0.000000      2.000000
  0.121951  0.146341  0.000000      2.000000
  0.268293 -0.121951  0.000000      2.000000
  0.170732  0.121951  0.000000      2.000000
 -0.121951  0.292683  0.000000      2.000000
 -0.292683  0.170732  0.000000      2.000000
 -0.170732  0.292683  0.000000      2.000000
  0.121951  0.170732  0.000000      2.000000
  0.292683 -0.121951  0.000000      2.000000
  0.195122  0.121951  0.000000      2.000000
 -0.121951  0.317073  0.000000      2.000000
 -0.317073  0.195122  0.000000      2.000000
 -0.195122  0.317073  0.000000      2.000000
  0.121951  0.195122  0.000000      2.000000
  0.317073 -0.121951  0.000000      2.000000
  0.219512  0.121951  0.000000      2.000000
 -0.121951  0.341463  0.000000      2.000000
 -0.341463  0.219512  0.000000      2.000000
 -0.219512  0.341463  0.000000      2.000000
  0.121951  0.219512  0.000000      2.000000
  0.341463 -0.121951  0.000000      2.000000
  0.243902  0.121951  0.000000      2.000000
 -0.121951  0.365854  0.000000      2.000000
 -0.365854  0.243902  0.000000      2.000000
 -0.243902  0.365854  0.000000      2.000000
  0.121951  0.243902  0.000000      2.000000
  0.365854 -0.121951  0.000000      2.000000
  0.268293  0.121951  0.000000      2.000000
 -0.121951  0.390244  0.000000      2.000000
 -0.390244  0.268293  0.000000      2.000000
 -0.268293  0.390244  0.000000      2.000000
  0.121951  0.268293  0.000000      2.000000
  0.390244 -0.121951  0.000000      2.000000
  0.292683  0.121951  0.000000      2.000000
 -0.121951  0.414634  0.000000      2.000000
 -0.414634  0.292683  0.000000      2.000000
 -0.292683  0.414634  0.000000      2.000000
  0.121951  0.292683  0.000000      2.000000
  0.414634 -0.121951  0.000000      2.000000
  0.317073  0.121951  0.000000      2.000000
 -0.121951  0.439024  0.000000      2.000000
 -0.439024  0.317073  0.000000      2.000000
 -0.317073  0.439024  0.000000      2.000000
  0.121951  0.317073  0.000000      2.000000
  0.439024 -0.121951  0.000000      2.000000
  0.341463  0.121951  0.000000      2.000000
 -0.121951  0.463415  0.000000      2.000000
 -0.463415  0.341463  0.000000      2.000000
 -0.341463  0.463415  0.000000      2.000000
  0.121951  0.341463  0.000000      2.000000
  0.463415 -0.121951  0.000000      2.000000
  0.365854  0.121951  0.000000      2.000000
 -0.121951  0.487805  0.000000      2.000000
 -0.487805  0.365854  0.000000      2.000000
 -0.365854  0.487805  0.000000      2.000000
  0.121951  0.365854  0.000000      2.000000
  0.487805 -0.121951  0.000000      2.000000
  0.390244  0.121951  0.000000      2.000000
 -0.121951 -0.487805  0.000000      2.000000
  0.487805  0.390244  0.000000      2.000000
 -0.390244 -0.487805  0.000000      2.000000
  0.121951  0.390244  0.000000      2.000000
 -0.487805 -0.121951  0.000000      2.000000
  0.414634  0.121951  0.000000      2.000000
 -0.121951 -0.463415  0.000000      2.000000
  0.463415  0.414634  0.000000      2.000000
 -0.414634 -0.463415  0.000000      2.000000
  0.121951  0.414634  0.000000      2.000000
 -0.463415 -0.121951  0.000000      2.000000
  0.439024  0.121951  0.000000      2.000000
 -0.121951 -0.439024  0.000000      2.000000
  0.439024  0.439024  0.000000      2.000000
  0.146341  0.146341  0.000000      2.000000
 -0.146341  0.292683  0.000000      2.000000
 -0.292683  0.146341  0.000000      2.000000
  0.170732  0.146341  0.000000      2.000000
 -0.146341  0.317073  0.000000      2.000000
 -0.317073  0.170732  0.000000      2.000000
 -0.170732  0.317073  0.000000      2.000000
  0.146341  0.170732  0.000000      2.000000
  0.317073 -0.146341  0.000000      2.000000
  0.195122  0.146341  0.000000      2.000000
 -0.146341  0.341463  0.000000      2.000000
 -0.341463  0.195122  0.000000      2.000000
 -0.195122  0.341463  0.000000      2.000000
  0.146341  0.195122  0.000000      2.000000
  0.341463 -0.146341  0.000000      2.000000
  0.219512  0.146341  0.000000      2.000000
 -0.146341  0.365854  0.000000      2.000000
 -0.365854  0.219512  0.000000      2.000000
 -0.219512  0.365854  0.000000      2.000000
  0.146341  0.219512  0.000000      2.000000
  0.365854 -0.146341  0.000000      2.000000
  0.243902  0.146341  0.000000      2.000000
 -0.146341  0.390244  0.000000      2.000000
 -0.390244  0.243902  0.000000      2.000000
 -0.243902  0.390244  0.000000      2.000000
  0.146341  0.243902  0.000000      2.000000
  0.390244 -0.146341  0.000000      2.000000
  0.268293  0.146341  0.000000      2.000000
 -0.146341  0.414634  0.000000      2.000000
 -0.414634  0.268293  0.000000      2.000000
 -0.268293  0.414634  0.000000      2.000000
  0.146341  0.268293  0.000000      2.000000
  0.414634 -0.146341  0.000000      2.000000
  0.292683  0.146341  0.000000      2.000000
 -0.146341  0.439024  0.000000      2.000000
 -0.439024  0.292683  0.000000      2.000000
 -0.292683  0.439024  0.000000      2.000000
  0.146341  0.292683  0.000000      2.000000
  0.439024 -0.146341  0.000000      2.000000
  0.317073  0.146341  0.000000      2.000000
 -0.146341  0.463415  0.000000      2.000000
 -0.463415  0.317073  0.000000      2.000000
 -0.317073  0.463415  0.000000      2.000000
  0.146341  0.317073  0.000000      2.000000
  0.463415 -0.146341  0.000000      2.000000
  0.341463  0.146341  0.000000      2.000000
 -0.146341  0.487805  0.000000      2.000000
 -0.487805  0.341463  0.000000      2.000000
 -0.341463  0.487805  0.000000      2.000000
  0.146341  0.341463  0.000000      2.000000
  0.487805 -0.146341  0.000000      2.000000
  0.365854  0.146341  0.000000      2.000000
 -0.146341 -0.487805  0.000000      2.000000
  0.487805  0.365854  0.000000      2.000000
 -0.365854 -0.487805  0.000000      2.000000
  0.146341  0.365854  0.000000      2.000000
 -0.487805 -0.146341  0.000000      2.000000
  0.390244  0.146341  0.000000      2.000000
 -0.146341 -0.463415  0.000000      2.000000
  0.463415  0.390244  0.000000      2.000000
 -0.390244 -0.463415  0.000000      2.000000
  0.146341  0.390244  0.000000      2.000000
 -0.463415 -0.146341  0.000000      2.000000
  0.414634  0.146341  0.000000      2.000000
 -0.146341 -0.439024  0.000000      2.000000
  0.439024  0.414634  0.000000      2.000000
 -0.414634 -0.439024  0.000000      2.000000
  0.146341  0.414634  0.000000      2.000000
 -0.439024 -0.146341  0.000000      2.000000
  0.170732  0.170732  0.000000      2.000000
 -0.170732  0.341463  0.000000      2.000000
 -0.341463  0.170732  0.000000      2.000000
  0.195122  0.170732  0.000000      2.000000
 -0.170732  0.365854  0.000000      2.000000
 -0.365854  0.195122  0.000000      2.000000
 -0.195122  0.365854  0.000000      2.000000
  0.170732  0.195122  0.000000      2.000000
  0.365854 -0.170732  0.000000      2.000000
  0.219512  0.170732  0.000000      2.000000
 -0.170732  0.390244  0.000000      2.000000
 -0.390244  0.219512  0.000000      2.000000
 -0.219512  0.390244  0.000000      2.000000
  0.170732  0.219512  0.000000      2.000000
  0.390244 -0.170732  0.000000      2.000000
  0.243902  0.170732  0.000000      2.000000
 -0.170732  0.414634  0.000000      2.000000
 -0.414634  0.243902  0.000000      2.000000
 -0.243902  0.414634  0.000000      2.000000
  0.170732  0.243902  0.000000      2.000000
  0.414634 -0.170732  0.000000      2.000000
  0.268293  0.170732  0.000000      2.000000
 -0.170732  0.439024  0.000000      2.000000
 -0.439024  0.268293  0.000000      2.000000
 -0.268293  0.439024  0.000000      2.000000
  0.170732  0.268293  0.000000      2.000000
  0.439024 -0.170732  0.000000      2.000000
  0.292683  0.170732  0.000000      2.000000
 -0.170732  0.463415  0.000000      2.000000
 -0.463415  0.292683  0.000000      2.000000
 -0.292683  0.463415  0.000000      2.000000
  0.170732  0.292683  0.000000      2.000000
  0.463415 -0.170732  0.000000      2.000000
  0.317073  0.170732  0.000000      2.000000
 -0.170732  0.487805  0.000000      2.000000
 -0.487805  0.317073  0.000000      2.000000
 -0.317073  0.487805  0.000000      2.000000
  0.170732  0.317073  0.000000      2.000000
  0.487805 -0.170732  0.000000      2.000000
  0.341463  0.170732  0.000000      2.000000
 -0.170732 -0.487805  0.000000      2.000000
  0.487805  0.341463  0.000000      2.000000
 -0.341463 -0.487805  0.000000      2.000000
  0.170732  0.341463  0.000000      2.000000
 -0.487805 -0.170732  0.000000      2.000000
  0.365854  0.170732  0.000000      2.000000
 -0.170732 -0.463415  0.000000      2.000000
  0.463415  0.365854  0.000000      2.000000
 -0.365854 -0.463415  0.000000      2.000000
  0.170732  0.365854  0.000000      2.000000
 -0.463415 -0.170732  0.000000      2.000000
  0.390244  0.170732  0.000000      2.000000
 -0.170732 -0.439024  0.000000      2.000000
  0.439024  0.390244  0.000000      2.000000
 -0.390244 -0.439024  0.000000      2.000000
  0.170732  0.390244  0.000000      2.000000
 -0.439024 -0.170732  0.000000      2.000000
  0.414634  0.170732  0.000000      2.000000
 -0.170732 -0.414634  0.000000      2.000000
  0.414634  0.414634  0.000000      2.000000
  0.195122  0.195122  0.000000      2.000000
 -0.195122  0.390244  0.000000      2.000000
 -0.390244  0.195122  0.000000      2.000000
  0.219512  0.195122  0.000000      2.000000
 -0.195122  0.414634  0.000000      2.000000
 -0.414634  0.219512  0.000000      2.000000
 -0.219512  0.414634  0.000000      2.000000
  0.195122  0.219512  0.000000      2.000000
  0.414634 -0.195122  0.000000      2.000000
  0.243902  0.195122  0.000000      2.000000
 -0.195122  0.439024  0.000000      2.000000
 -0.439024  0.243902  0.000000      2.000000
 -0.243902  0.439024  0.000000      2.000000
  0.195122  0.243902  0.000000      2.000000
  0.439024 -0.195122  0.000000      2.000000
  0.268293  0.195122  0.000000      2.000000
 -0.195122  0.463415  0.000000      2.000000
 -0.463415  0.268293  0.000000      2.000000
 -0.268293  0.463415  0.000000      2.000000
  0.195122  0.268293  0.000000      2.000000
  0.463415 -0.195122  0.000000      2.000000
  0.292683  0.195122  0.000000      2.000000
 -0.195122  0.487805  0.000000      2.000000
 -0.487805  0.292683  0.000000      2.000000
 -0.292683  0.487805  0.000000      2.000000
  0.195122  0.292683  0.000000      2.000000
  0.487805 -0.195122  0.000000      2.000000
  0.317073  0.195122  0.000000      2.000000
 -0.195122 -0.487805  0.000000      2.000000
  0.487805  0.317073  0.000000      2.000000
 -0.317073 -0.487805  0.000000      2.000000
  0.195122  0.317073  0.000000      2.000000
 -0.487805 -0.195122  0.000000      2.000000
  0.341463  0.195122  0.000000      2.000000
 -0.195122 -0.463415  0.000000      2.000000
  0.463415  0.341463  0.000000      2.000000
 -0.341463 -0.463415  0.000000      2.000000
  0.195122  0.341463  0.000000      2.000000
 -0.463415 -0.195122  0.000000      2.000000
  0.365854  0.195122  0.000000      2.000000
 -0.195122 -0.439024  0.000000      2.000000
  0.439024  0.365854  0.000000      2.000000
 -0.365854 -0.439024  0.000000      2.000000
  0.195122  0.365854  0.000000      2.000000
 -0.439024 -0.195122  0.000000      2.000000
  0.390244  0.195122  0.000000      2.000000
 -0.195122 -0.414634  0.000000      2.000000
  0.414634  0.390244  0.000000      2.000000
 -0.390244 -0.414634  0.000000      2.000000
  0.195122  0.390244  0.000000      2.000000
 -0.414634 -0.195122  0.000000      2.000000
  0.219512  0.219512  0.000000      2.000000
 -0.219512  0.439024  0.000000      2.000000
 -0.439024  0.219512  0.000000      2.000000
  0.243902  0.219512  0.000000      2.000000
 -0.219512  0.463415  0.000000      2.000000
 -0.463415  0.243902  0.000000      2.000000
 -0.243902  0.463415  0.000000      2.000000
  0.219512  0.243902  0.000000      2.000000
  0.463415 -0.219512  0.000000      2.000000
  0.268293  0.219512  0.000000      2.000000
 -0.219512  0.487805  0.000000      2.000000
 -0.487805  0.268293  0.000000      2.000000
 -0.268293  0.487805  0.000000      2.000000
  0.219512  0.268293  0.000000      2.000000
  0.487805 -0.219512  0.000000      2.000000
  0.292683  0.219512  0.000000      2.000000
 -0.219512 -0.487805  0.000000      2.000000
  0.487805  0.292683  0.000000      2.000000
 -0.292683 -0.487805  0.000000      2.000000
  0.219512  0.292683  0.000000      2.000000
 -0.487805 -0.219512  0.000000      2.000000
  0.317073  0.219512  0.000000      2.000000
 -0.219512 -0.463415  0.000000      2.000000
  0.463415  0.317073  0.000000      2.000000
 -0.317073 -0.463415  0.000000      2.000000
  0.219512  0.317073  0.000000      2.000000
 -0.463415 -0.219512  0.000000      2.000000
  0.341463  0.219512  0.000000      2.000000
 -0.219512 -0.439024  0.000000      2.000000
  0.439024  0.341463  0.000000      2.000000
 -0.341463 -0.439024  0.000000      2.000000
  0.219512  0.341463  0.000000      2.000000
 -0.439024 -0.219512  0.000000      2.000000
  0.365854  0.219512  0.000000      2.000000
 -0.219512 -0.414634  0.000000      2.000000
  0.414634  0.365854  0.000000      2.000000
 -0.365854 -0.414634  0.000000      2.000000
  0.219512  0.365854  0.000000      2.000000
 -0.414634 -0.219512  0.000000      2.000000
  0.390244  0.219512  0.000000      2.000000
 -0.219512 -0.390244  0.000000      2.000000
  0.390244  0.390244  0.000000      2.000000
  0.243902  0.243902  0.000000      2.000000
 -0.243902  0.487805  0.000000      2.000000
 -0.487805  0.243902  0.000000      2.000000
  0.268293  0.243902  0.000000      2.000000
 -0.243902 -0.487805  0.000000      2.000000
  0.487805  0.268293  0.000000      2.000000
 -0.268293 -0.487805  0.000000      2.000000
  0.243902  0.268293  0.000000      2.000000
 -0.487805 -0.243902  0.000000      2.000000
  0.292683  0.243902  0.000000      2.000000
 -0.243902 -0.463415  0.000000      2.000000
  0.463415  0.292683  0.000000      2.000000
 -0.292683 -0.463415  0.000000      2.000000
  0.243902  0.292683  0.000000      2.000000
 -0.463415 -0.243902  0.000000      2.000000
  0.317073  0.243902  0.000000      2.000000
 -0.243902 -0.439024  0.000000      2.000000
  0.439024  0.317073  0.000000      2.000000
 -0.317073 -0.439024  0.000000      2.000000
  0.243902  0.317073  0.000000      2.000000
 -0.439024 -0.243902  0.000000      2.000000
  0.341463  0.243902  0.000000      2.000000
 -0.243902 -0.414634  0.000000      2.000000
  0.414634  0.341463  0.000000      2.000000
 -0.341463 -0.414634  0.000000      2.000000
  0.243902  0.341463  0.000000      2.000000
 -0.414634 -0.243902  0.000000      2.000000
  0.365854  0.243902  0.000000      2.000000
 -0.243902 -0.390244  0.000000      2.000000
  0.390244  0.365854  0.000000      2.000000
 -0.365854 -0.390244  0.000000      2.000000
  0.243902  0.365854  0.000000      2.000000
 -0.390244 -0.243902  0.000000      2.000000
  0.268293  0.268293  0.000000      2.000000
 -0.268293 -0.463415  0.000000      2.000000
  0.463415  0.268293  0.000000      2.000000
  0.292683  0.268293  0.000000      2.000000
 -0.268293 -0.439024  0.000000      2.000000
  0.439024  0.292683  0.000000      2.000000
 -0.292683 -0.439024  0.000000      2.000000
  0.268293  0.292683  0.000000      2.000000
 -0.439024 -0.268293  0.000000      2.000000
  0.317073  0.268293  0.000000      2.000000
 -0.268293 -0.414634  0.000000      2.000000
  0.414634  0.317073  0.000000      2.000000
 -0.317073 -0.414634  0.000000      2.000000
  0.268293  0.317073  0.000000      2.000000
 -0.414634 -0.268293  0.000000      2.000000
  0.341463  0.268293  0.000000      2.000000
 -0.268293 -0.390244  0.000000      2.000000
  0.390244  0.341463  0.000000      2.000000
 -0.341463 -0.390244  0.000000      2.000000
  0.268293  0.341463  0.000000      2.000000
 -0.390244 -0.268293  0.000000      2.000000
  0.365854  0.268293  0.000000      2.000000
 -0.268293 -0.365854  0.000000      2.000000
  0.365854  0.365854  0.000000      2.000000
  0.292683  0.292683  0.000000      2.000000
 -0.292683 -0.414634  0.000000      2.000000
  0.414634  0.292683  0.000000      2.000000
  0.317073  0.292683  0.000000      2.000000
 -0.292683 -0.390244  0.000000      2.000000
  0.390244  0.317073  0.000000      2.000000
 -0.317073 -0.390244  0.000000      2.000000
  0.292683  0.317073  0.000000      2.000000
 -0.390244 -0.292683  0.000000      2.000000
  0.341463  0.292683  0.000000      2.000000
 -0.292683 -0.365854  0.000000      2.000000
  0.365854  0.341463  0.000000      2.000000
 -0.341463 -0.365854  0.000000      2.000000
  0.292683  0.341463  0.000000      2.000000
 -0.365854 -0.292683  0.000000      2.000000
  0.317073  0.317073  0.000000      2.000000
 -0.317073 -0.365854  0.000000      2.000000
  0.365854  0.317073  0.000000      2.000000
  0.341463  0.317073  0.000000      2.000000
 -0.317073 -0.341463  0.000000      2.000000
  0.341463  0.341463  0.000000      2.000000
 
 Following cartesian coordinates:
            Coordinates               Weight
  0.000000  0.000000  0.000000      1.000000
  0.002724  0.004719  0.000000      2.000000
 -0.002724  0.004719  0.000000      2.000000
 -0.005449 -0.000000  0.000000      2.000000
  0.005449  0.009437  0.000000      2.000000
 -0.005449  0.009437  0.000000      2.000000
 -0.010897 -0.000000  0.000000      2.000000
  0.008173  0.014156  0.000000      2.000000
 -0.008173  0.014156  0.000000      2.000000
 -0.016346  0.000000  0.000000      2.000000
  0.010897  0.018874  0.000000      2.000000
 -0.010897  0.018874  0.000000      2.000000
 -0.021794 -0.000000  0.000000      2.000000
  0.013621  0.023593  0.000000      2.000000
 -0.013621  0.023593  0.000000      2.000000
 -0.027243  0.000000  0.000000      2.000000
  0.016346  0.028311  0.000000      2.000000
 -0.016346  0.028311  0.000000      2.000000
 -0.032691  0.000000  0.000000      2.000000
  0.019070  0.033030  0.000000      2.000000
 -0.019070  0.033030  0.000000      2.000000
 -0.038140  0.000000  0.000000      2.000000
  0.021794  0.037748  0.000000      2.000000
 -0.021794  0.037748  0.000000      2.000000
 -0.043588 -0.000000  0.000000      2.000000
  0.024518  0.042467  0.000000      2.000000
 -0.024518  0.042467  0.000000      2.000000
 -0.049037  0.000000  0.000000      2.000000
  0.027243  0.047186  0.000000      2.000000
 -0.027243  0.047186  0.000000      2.000000
 -0.054485  0.000000  0.000000      2.000000
  0.029967  0.051904  0.000000      2.000000
 -0.029967  0.051904  0.000000      2.000000
 -0.059934  0.000000  0.000000      2.000000
  0.032691  0.056623  0.000000      2.000000
 -0.032691  0.056623  0.000000      2.000000
 -0.065382 -0.000000  0.000000      2.000000
  0.035415  0.061341  0.000000      2.000000
 -0.035415  0.061341  0.000000      2.000000
 -0.070831  0.000000  0.000000      2.000000
  0.038140  0.066060  0.000000      2.000000
 -0.038140  0.066060  0.000000      2.000000
 -0.076279  0.000000  0.000000      2.000000
  0.040864  0.070778  0.000000      2.000000
 -0.040864  0.070778  0.000000      2.000000
 -0.081728 -0.000000  0.000000      2.000000
  0.043588  0.075497  0.000000      2.000000
 -0.043588  0.075497  0.000000      2.000000
 -0.087176 -0.000000  0.000000      2.000000
  0.046312  0.080216  0.000000      2.000000
 -0.046312  0.080216  0.000000      2.000000
 -0.092625 -0.000000  0.000000      2.000000
  0.049037  0.084934  0.000000      2.000000
 -0.049037  0.084934  0.000000      2.000000
 -0.098073  0.000000  0.000000      2.000000
  0.051761  0.089653  0.000000      2.000000
 -0.051761  0.089653  0.000000      2.000000
 -0.103522 -0.000000  0.000000      2.000000
  0.054485  0.094371  0.000000      2.000000
 -0.054485  0.094371  0.000000      2.000000
 -0.108971  0.000000  0.000000      2.000000
 -0.000000  0.009437  0.000000      2.000000
 -0.008173  0.004719  0.000000      2.000000
 -0.008173 -0.004719  0.000000      2.000000
  0.002724  0.014156  0.000000      2.000000
 -0.010897  0.009437  0.000000      2.000000
 -0.013621 -0.004719  0.000000      2.000000
 -0.013621  0.004719  0.000000      2.000000
 -0.002724  0.014156  0.000000      2.000000
  0.010897  0.009437  0.000000      2.000000
  0.005449  0.018874  0.000000      2.000000
 -0.013621  0.014156  0.000000      2.000000
 -0.019070 -0.004719  0.000000      2.000000
 -0.019070  0.004719  0.000000      2.000000
 -0.005449  0.018874  0.000000      2.000000
  0.013621  0.014156  0.000000      2.000000
  0.008173  0.023593  0.000000      2.000000
 -0.016346  0.018874  0.000000      2.000000
 -0.024518 -0.004719  0.000000      2.000000
 -0.024518  0.004719  0.000000      2.000000
 -0.008173  0.023593  0.000000      2.000000
  0.016346  0.018874  0.000000      2.000000
  0.010897  0.028311  0.000000      2.000000
 -0.019070  0.023593  0.000000      2.000000
 -0.029967 -0.004719  0.000000      2.000000
 -0.029967  0.004719  0.000000      2.000000
 -0.010897  0.028311  0.000000      2.000000
  0.019070  0.023593  0.000000      2.000000
  0.013621  0.033030  0.000000      2.000000
 -0.021794  0.028311  0.000000      2.000000
 -0.035415 -0.004719  0.000000      2.000000
 -0.035415  0.004719  0.000000      2.000000
 -0.013621  0.033030  0.000000      2.000000
  0.021794  0.028311  0.000000      2.000000
  0.016346  0.037748  0.000000      2.000000
 -0.024518  0.033030  0.000000      2.000000
 -0.040864 -0.004719  0.000000      2.000000
 -0.040864  0.004719  0.000000      2.000000
 -0.016346  0.037748  0.000000      2.000000
  0.024518  0.033030  0.000000      2.000000
  0.019070  0.042467  0.000000      2.000000
 -0.027243  0.037748  0.000000      2.000000
 -0.046312 -0.004719  0.000000      2.000000
 -0.046312  0.004719  0.000000      2.000000
 -0.019070  0.042467  0.000000      2.000000
  0.027243  0.037748  0.000000      2.000000
  0.021794  0.047186  0.000000      2.000000
 -0.029967  0.042467  0.000000      2.000000
 -0.051761 -0.004719  0.000000      2.000000
 -0.051761  0.004719  0.000000      2.000000
 -0.021794  0.047186  0.000000      2.000000
  0.029967  0.042467  0.000000      2.000000
  0.024518  0.051904  0.000000      2.000000
 -0.032691  0.047186  0.000000      2.000000
 -0.057210 -0.004719  0.000000      2.000000
 -0.057210  0.004719  0.000000      2.000000
 -0.024518  0.051904  0.000000      2.000000
  0.032691  0.047186  0.000000      2.000000
  0.027243  0.056623  0.000000      2.000000
 -0.035415  0.051904  0.000000      2.000000
 -0.062658 -0.004719  0.000000      2.000000
 -0.062658  0.004719  0.000000      2.000000
 -0.027243  0.056623  0.000000      2.000000
  0.035415  0.051904  0.000000      2.000000
  0.029967  0.061341  0.000000      2.000000
 -0.038140  0.056623  0.000000      2.000000
 -0.068107 -0.004719  0.000000      2.000000
 -0.068107  0.004719  0.000000      2.000000
 -0.029967  0.061341  0.000000      2.000000
  0.038140  0.056623  0.000000      2.000000
  0.032691  0.066060  0.000000      2.000000
 -0.040864  0.061341  0.000000      2.000000
 -0.073555 -0.004719  0.000000      2.000000
 -0.073555  0.004719  0.000000      2.000000
 -0.032691  0.066060  0.000000      2.000000
  0.040864  0.061341  0.000000      2.000000
  0.035415  0.070778  0.000000      2.000000
 -0.043588  0.066060  0.000000      2.000000
 -0.079004 -0.004719  0.000000      2.000000
 -0.079004  0.004719  0.000000      2.000000
 -0.035415  0.070778  0.000000      2.000000
  0.043588  0.066060  0.000000      2.000000
  0.038140  0.075497  0.000000      2.000000
 -0.046312  0.070778  0.000000      2.000000
 -0.084452 -0.004719  0.000000      2.000000
 -0.084452  0.004719  0.000000      2.000000
 -0.038140  0.075497  0.000000      2.000000
  0.046312  0.070778  0.000000      2.000000
  0.040864  0.080216  0.000000      2.000000
 -0.049037  0.075497  0.000000      2.000000
 -0.089901 -0.004719  0.000000      2.000000
 -0.089901  0.004719  0.000000      2.000000
 -0.040864  0.080216  0.000000      2.000000
  0.049037  0.075497  0.000000      2.000000
  0.043588  0.084934  0.000000      2.000000
 -0.051761  0.080216  0.000000      2.000000
 -0.095349 -0.004719  0.000000      2.000000
 -0.095349  0.004719  0.000000      2.000000
 -0.043588  0.084934  0.000000      2.000000
  0.051761  0.080216  0.000000      2.000000
  0.046312  0.089653  0.000000      2.000000
 -0.054485  0.084934  0.000000      2.000000
 -0.100798 -0.004719  0.000000      2.000000
 -0.100798  0.004719  0.000000      2.000000
 -0.046312  0.089653  0.000000      2.000000
  0.054485  0.084934  0.000000      2.000000
  0.049037  0.094371  0.000000      2.000000
 -0.057210  0.089653  0.000000      2.000000
 -0.106246 -0.004719  0.000000      2.000000
 -0.106246  0.004719  0.000000      2.000000
 -0.049037  0.094371  0.000000      2.000000
  0.057210  0.089653  0.000000      2.000000
  0.051761  0.099090  0.000000      2.000000
  0.051761 -0.099090  0.000000      2.000000
  0.000000  0.188742  0.000000      2.000000
 -0.000000  0.018874  0.000000      2.000000
 -0.016346  0.009437  0.000000      2.000000
 -0.016346 -0.009437  0.000000      2.000000
  0.002724  0.023593  0.000000      2.000000
 -0.019070  0.014156  0.000000      2.000000
 -0.021794 -0.009437  0.000000      2.000000
 -0.021794  0.009437  0.000000      2.000000
 -0.002724  0.023593  0.000000      2.000000
  0.019070  0.014156  0.000000      2.000000
  0.005449  0.028311  0.000000      2.000000
 -0.021794  0.018874  0.000000      2.000000
 -0.027243 -0.009437  0.000000      2.000000
 -0.027243  0.009437  0.000000      2.000000
 -0.005449  0.028311  0.000000      2.000000
  0.021794  0.018874  0.000000      2.000000
  0.008173  0.033030  0.000000      2.000000
 -0.024518  0.023593  0.000000      2.000000
 -0.032691 -0.009437  0.000000      2.000000
 -0.032691  0.009437  0.000000      2.000000
 -0.008173  0.033030  0.000000      2.000000
  0.024518  0.023593  0.000000      2.000000
  0.010897  0.037748  0.000000      2.000000
 -0.027243  0.028311  0.000000      2.000000
 -0.038140 -0.009437  0.000000      2.000000
 -0.038140  0.009437  0.000000      2.000000
 -0.010897  0.037748  0.000000      2.000000
  0.027243  0.028311  0.000000      2.000000
  0.013621  0.042467  0.000000      2.000000
 -0.029967  0.033030  0.000000      2.000000
 -0.043588 -0.009437  0.000000      2.000000
 -0.043588  0.009437  0.000000      2.000000
 -0.013621  0.042467  0.000000      2.000000
  0.029967  0.033030  0.000000      2.000000
  0.016346  0.047186  0.000000      2.000000
 -0.032691  0.037748  0.000000      2.000000
 -0.049037 -0.009437  0.000000      2.000000
 -0.049037  0.009437  0.000000      2.000000
 -0.016346  0.047186  0.000000      2.000000
  0.032691  0.037748  0.000000      2.000000
  0.019070  0.051904  0.000000      2.000000
 -0.035415  0.042467  0.000000      2.000000
 -0.054485 -0.009437  0.000000      2.000000
 -0.054485  0.009437  0.000000      2.000000
 -0.019070  0.051904  0.000000      2.000000
  0.035415  0.042467  0.000000      2.000000
  0.021794  0.056623  0.000000      2.000000
 -0.038140  0.047186  0.000000      2.000000
 -0.059934 -0.009437  0.000000      2.000000
 -0.059934  0.009437  0.000000      2.000000
 -0.021794  0.056623  0.000000      2.000000
  0.038140  0.047186  0.000000      2.000000
  0.024518  0.061341  0.000000      2.000000
 -0.040864  0.051904  0.000000      2.000000
 -0.065382 -0.009437  0.000000      2.000000
 -0.065382  0.009437  0.000000      2.000000
 -0.024518  0.061341  0.000000      2.000000
  0.040864  0.051904  0.000000      2.000000
  0.027243  0.066060  0.000000      2.000000
 -0.043588  0.056623  0.000000      2.000000
 -0.070831 -0.009437  0.000000      2.000000
 -0.070831  0.009437  0.000000      2.000000
 -0.027243  0.066060  0.000000      2.000000
  0.043588  0.056623  0.000000      2.000000
  0.029967  0.070778  0.000000      2.000000
 -0.046312  0.061341  0.000000      2.000000
 -0.076279 -0.009437  0.000000      2.000000
 -0.076279  0.009437  0.000000      2.000000
 -0.029967  0.070778  0.000000      2.000000
  0.046312  0.061341  0.000000      2.000000
  0.032691  0.075497  0.000000      2.000000
 -0.049037  0.066060  0.000000      2.000000
 -0.081728 -0.009437  0.000000      2.000000
 -0.081728  0.009437  0.000000      2.000000
 -0.032691  0.075497  0.000000      2.000000
  0.049037  0.066060  0.000000      2.000000
  0.035415  0.080216  0.000000      2.000000
 -0.051761  0.070778  0.000000      2.000000
 -0.087176 -0.009437  0.000000      2.000000
 -0.087176  0.009437  0.000000      2.000000
 -0.035415  0.080216  0.000000      2.000000
  0.051761  0.070778  0.000000      2.000000
  0.038140  0.084934  0.000000      2.000000
 -0.054485  0.075497  0.000000      2.000000
 -0.092625 -0.009437  0.000000      2.000000
 -0.092625  0.009437  0.000000      2.000000
 -0.038140  0.084934  0.000000      2.000000
  0.054485  0.075497  0.000000      2.000000
  0.040864  0.089653  0.000000      2.000000
 -0.057210  0.080216  0.000000      2.000000
 -0.098073 -0.009437  0.000000      2.000000
 -0.098073  0.009437  0.000000      2.000000
 -0.040864  0.089653  0.000000      2.000000
  0.057210  0.080216  0.000000      2.000000
  0.043588  0.094371  0.000000      2.000000
 -0.059934  0.084934  0.000000      2.000000
 -0.103522 -0.009437  0.000000      2.000000
 -0.103522  0.009437  0.000000      2.000000
 -0.043588  0.094371  0.000000      2.000000
  0.059934  0.084934  0.000000      2.000000
  0.046312  0.099090  0.000000      2.000000
  0.049037 -0.103808  0.000000      2.000000
  0.002724  0.184024  0.000000      2.000000
  0.002724 -0.184024  0.000000      2.000000
 -0.046312  0.099090  0.000000      2.000000
 -0.049037 -0.103808  0.000000      2.000000
  0.000000  0.028311  0.000000      2.000000
 -0.024518  0.014156  0.000000      2.000000
 -0.024518 -0.014156  0.000000      2.000000
  0.002724  0.033030  0.000000      2.000000
 -0.027243  0.018874  0.000000      2.000000
 -0.029967 -0.014156  0.000000      2.000000
 -0.029967  0.014156  0.000000      2.000000
 -0.002724  0.033030  0.000000      2.000000
  0.027243  0.018874  0.000000      2.000000
  0.005449  0.037748  0.000000      2.000000
 -0.029967  0.023593  0.000000      2.000000
 -0.035415 -0.014156  0.000000      2.000000
 -0.035415  0.014156  0.000000      2.000000
 -0.005449  0.037748  0.000000      2.000000
  0.029967  0.023593  0.000000      2.000000
  0.008173  0.042467  0.000000      2.000000
 -0.032691  0.028311  0.000000      2.000000
 -0.040864 -0.014156  0.000000      2.000000
 -0.040864  0.014156  0.000000      2.000000
 -0.008173  0.042467  0.000000      2.000000
  0.032691  0.028311  0.000000      2.000000
  0.010897  0.047186  0.000000      2.000000
 -0.035415  0.033030  0.000000      2.000000
 -0.046312 -0.014156  0.000000      2.000000
 -0.046312  0.014156  0.000000      2.000000
 -0.010897  0.047186  0.000000      2.000000
  0.035415  0.033030  0.000000      2.000000
  0.013621  0.051904  0.000000      2.000000
 -0.038140  0.037748  0.000000      2.000000
 -0.051761 -0.014156  0.000000      2.000000
 -0.051761  0.014156  0.000000      2.000000
 -0.013621  0.051904  0.000000      2.000000
  0.038140  0.037748  0.000000      2.000000
  0.016346  0.056623  0.000000      2.000000
 -0.040864  0.042467  0.000000      2.000000
 -0.057210 -0.014156  0.000000      2.000000
 -0.057210  0.014156  0.000000      2.000000
 -0.016346  0.056623  0.000000      2.000000
  0.040864  0.042467  0.000000      2.000000
  0.019070  0.061341  0.000000      2.000000
 -0.043588  0.047186  0.000000      2.000000
 -0.062658 -0.014156  0.000000      2.000000
 -0.062658  0.014156  0.000000      2.000000
 -0.019070  0.061341  0.000000      2.000000
  0.043588  0.047186  0.000000      2.000000
  0.021794  0.066060  0.000000      2.000000
 -0.046312  0.051904  0.000000      2.000000
 -0.068107 -0.014156  0.000000      2.000000
 -0.068107  0.014156  0.000000      2.000000
 -0.021794  0.066060  0.000000      2.000000
  0.046312  0.051904  0.000000      2.000000
  0.024518  0.070778  0.000000      2.000000
 -0.049037  0.056623  0.000000      2.000000
 -0.073555 -0.014156  0.000000      2.000000
 -0.073555  0.014156  0.000000      2.000000
 -0.024518  0.070778  0.000000      2.000000
  0.049037  0.056623  0.000000      2.000000
  0.027243  0.075497  0.000000      2.000000
 -0.051761  0.061341  0.000000      2.000000
 -0.079004 -0.014156  0.000000      2.000000
 -0.079004  0.014156  0.000000      2.000000
 -0.027243  0.075497  0.000000      2.000000
  0.051761  0.061341  0.000000      2.000000
  0.029967  0.080216  0.000000      2.000000
 -0.054485  0.066060  0.000000      2.000000
 -0.084452 -0.014156  0.000000      2.000000
 -0.084452  0.014156  0.000000      2.000000
 -0.029967  0.080216  0.000000      2.000000
  0.054485  0.066060  0.000000      2.000000
  0.032691  0.084934  0.000000      2.000000
 -0.057210  0.070778  0.000000      2.000000
 -0.089901 -0.014156  0.000000      2.000000
 -0.089901  0.014156  0.000000      2.000000
 -0.032691  0.084934  0.000000      2.000000
  0.057210  0.070778  0.000000      2.000000
  0.035415  0.089653  0.000000      2.000000
 -0.059934  0.075497  0.000000      2.000000
 -0.095349 -0.014156  0.000000      2.000000
 -0.095349  0.014156  0.000000      2.000000
 -0.035415  0.089653  0.000000      2.000000
  0.059934  0.075497  0.000000      2.000000
  0.038140  0.094371  0.000000      2.000000
 -0.062658  0.080216  0.000000      2.000000
 -0.100798 -0.014156  0.000000      2.000000
 -0.100798  0.014156  0.000000      2.000000
 -0.038140  0.094371  0.000000      2.000000
  0.062658  0.080216  0.000000      2.000000
  0.040864  0.099090  0.000000      2.000000
  0.046312 -0.108527  0.000000      2.000000
  0.005449  0.179305  0.000000      2.000000
  0.005449 -0.179305  0.000000      2.000000
 -0.040864  0.099090  0.000000      2.000000
 -0.046312 -0.108527  0.000000      2.000000
  0.043588  0.103808  0.000000      2.000000
  0.043588 -0.103808  0.000000      2.000000
  0.000000  0.179305  0.000000      2.000000
 -0.000000  0.037748  0.000000      2.000000
 -0.032691  0.018874  0.000000      2.000000
 -0.032691 -0.018874  0.000000      2.000000
  0.002724  0.042467  0.000000      2.000000
 -0.035415  0.023593  0.000000      2.000000
 -0.038140 -0.018874  0.000000      2.000000
 -0.038140  0.018874  0.000000      2.000000
 -0.002724  0.042467  0.000000      2.000000
  0.035415  0.023593  0.000000      2.000000
  0.005449  0.047186  0.000000      2.000000
 -0.038140  0.028311  0.000000      2.000000
 -0.043588 -0.018874  0.000000      2.000000
 -0.043588  0.018874  0.000000      2.000000
 -0.005449  0.047186  0.000000      2.000000
  0.038140  0.028311  0.000000      2.000000
  0.008173  0.051904  0.000000      2.000000
 -0.040864  0.033030  0.000000      2.000000
 -0.049037 -0.018874  0.000000      2.000000
 -0.049037  0.018874  0.000000      2.000000
 -0.008173  0.051904  0.000000      2.000000
  0.040864  0.033030  0.000000      2.000000
  0.010897  0.056623  0.000000      2.000000
 -0.043588  0.037748  0.000000      2.000000
 -0.054485 -0.018874  0.000000      2.000000
 -0.054485  0.018874  0.000000      2.000000
 -0.010897  0.056623  0.000000      2.000000
  0.043588  0.037748  0.000000      2.000000
  0.013621  0.061341  0.000000      2.000000
 -0.046312  0.042467  0.000000      2.000000
 -0.059934 -0.018874  0.000000      2.000000
 -0.059934  0.018874  0.000000      2.000000
 -0.013621  0.061341  0.000000      2.000000
  0.046312  0.042467  0.000000      2.000000
  0.016346  0.066060  0.000000      2.000000
 -0.049037  0.047186  0.000000      2.000000
 -0.065382 -0.018874  0.000000      2.000000
 -0.065382  0.018874  0.000000      2.000000
 -0.016346  0.066060  0.000000      2.000000
  0.049037  0.047186  0.000000      2.000000
  0.019070  0.070778  0.000000      2.000000
 -0.051761  0.051904  0.000000      2.000000
 -0.070831 -0.018874  0.000000      2.000000
 -0.070831  0.018874  0.000000      2.000000
 -0.019070  0.070778  0.000000      2.000000
  0.051761  0.051904  0.000000      2.000000
  0.021794  0.075497  0.000000      2.000000
 -0.054485  0.056623  0.000000      2.000000
 -0.076279 -0.018874  0.000000      2.000000
 -0.076279  0.018874  0.000000      2.000000
 -0.021794  0.075497  0.000000      2.000000
  0.054485  0.056623  0.000000      2.000000
  0.024518  0.080216  0.000000      2.000000
 -0.057210  0.061341  0.000000      2.000000
 -0.081728 -0.018874  0.000000      2.000000
 -0.081728  0.018874  0.000000      2.000000
 -0.024518  0.080216  0.000000      2.000000
  0.057210  0.061341  0.000000      2.000000
  0.027243  0.084934  0.000000      2.000000
 -0.059934  0.066060  0.000000      2.000000
 -0.087176 -0.018874  0.000000      2.000000
 -0.087176  0.018874  0.000000      2.000000
 -0.027243  0.084934  0.000000      2.000000
  0.059934  0.066060  0.000000      2.000000
  0.029967  0.089653  0.000000      2.000000
 -0.062658  0.070778  0.000000      2.000000
 -0.092625 -0.018874  0.000000      2.000000
 -0.092625  0.018874  0.000000      2.000000
 -0.029967  0.089653  0.000000      2.000000
  0.062658  0.070778  0.000000      2.000000
  0.032691  0.094371  0.000000      2.000000
 -0.065382  0.075497  0.000000      2.000000
 -0.098073 -0.018874  0.000000      2.000000
 -0.098073  0.018874  0.000000      2.000000
 -0.032691  0.094371  0.000000      2.000000
  0.065382  0.075497  0.000000      2.000000
  0.035415  0.099090  0.000000      2.000000
  0.043588 -0.113245  0.000000      2.000000
  0.008173  0.174587  0.000000      2.000000
  0.008173 -0.174587  0.000000      2.000000
 -0.035415  0.099090  0.000000      2.000000
 -0.043588 -0.113245  0.000000      2.000000
  0.038140  0.103808  0.000000      2.000000
  0.040864 -0.108527  0.000000      2.000000
  0.002724  0.174587  0.000000      2.000000
  0.002724 -0.174587  0.000000      2.000000
 -0.038140  0.103808  0.000000      2.000000
 -0.040864 -0.108527  0.000000      2.000000
 -0.000000  0.047186  0.000000      2.000000
 -0.040864  0.023593  0.000000      2.000000
 -0.040864 -0.023593  0.000000      2.000000
  0.002724  0.051904  0.000000      2.000000
 -0.043588  0.028311  0.000000      2.000000
 -0.046312 -0.023593  0.000000      2.000000
 -0.046312  0.023593  0.000000      2.000000
 -0.002724  0.051904  0.000000      2.000000
  0.043588  0.028311  0.000000      2.000000
  0.005449  0.056623  0.000000      2.000000
 -0.046312  0.033030  0.000000      2.000000
 -0.051761 -0.023593  0.000000      2.000000
 -0.051761  0.023593  0.000000      2.000000
 -0.005449  0.056623  0.000000      2.000000
  0.046312  0.033030  0.000000      2.000000
  0.008173  0.061341  0.000000      2.000000
 -0.049037  0.037748  0.000000      2.000000
 -0.057210 -0.023593  0.000000      2.000000
 -0.057210  0.023593  0.000000      2.000000
 -0.008173  0.061341  0.000000      2.000000
  0.049037  0.037748  0.000000      2.000000
  0.010897  0.066060  0.000000      2.000000
 -0.051761  0.042467  0.000000      2.000000
 -0.062658 -0.023593  0.000000      2.000000
 -0.062658  0.023593  0.000000      2.000000
 -0.010897  0.066060  0.000000      2.000000
  0.051761  0.042467  0.000000      2.000000
  0.013621  0.070778  0.000000      2.000000
 -0.054485  0.047186  0.000000      2.000000
 -0.068107 -0.023593  0.000000      2.000000
 -0.068107  0.023593  0.000000      2.000000
 -0.013621  0.070778  0.000000      2.000000
  0.054485  0.047186  0.000000      2.000000
  0.016346  0.075497  0.000000      2.000000
 -0.057210  0.051904  0.000000      2.000000
 -0.073555 -0.023593  0.000000      2.000000
 -0.073555  0.023593  0.000000      2.000000
 -0.016346  0.075497  0.000000      2.000000
  0.057210  0.051904  0.000000      2.000000
  0.019070  0.080216  0.000000      2.000000
 -0.059934  0.056623  0.000000      2.000000
 -0.079004 -0.023593  0.000000      2.000000
 -0.079004  0.023593  0.000000      2.000000
 -0.019070  0.080216  0.000000      2.000000
  0.059934  0.056623  0.000000      2.000000
  0.021794  0.084934  0.000000      2.000000
 -0.062658  0.061341  0.000000      2.000000
 -0.084452 -0.023593  0.000000      2.000000
 -0.084452  0.023593  0.000000      2.000000
 -0.021794  0.084934  0.000000      2.000000
  0.062658  0.061341  0.000000      2.000000
  0.024518  0.089653  0.000000      2.000000
 -0.065382  0.066060  0.000000      2.000000
 -0.089901 -0.023593  0.000000      2.000000
 -0.089901  0.023593  0.000000      2.000000
 -0.024518  0.089653  0.000000      2.000000
  0.065382  0.066060  0.000000      2.000000
  0.027243  0.094371  0.000000      2.000000
 -0.068107  0.070778  0.000000      2.000000
 -0.095349 -0.023593  0.000000      2.000000
 -0.095349  0.023593  0.000000      2.000000
 -0.027243  0.094371  0.000000      2.000000
  0.068107  0.070778  0.000000      2.000000
  0.029967  0.099090  0.000000      2.000000
  0.040864 -0.117964  0.000000      2.000000
  0.010897  0.169868  0.000000      2.000000
  0.010897 -0.169868  0.000000      2.000000
 -0.029967  0.099090  0.000000      2.000000
 -0.040864 -0.117964  0.000000      2.000000
  0.032691  0.103808  0.000000      2.000000
  0.038140 -0.113245  0.000000      2.000000
  0.005449  0.169868  0.000000      2.000000
  0.005449 -0.169868  0.000000      2.000000
 -0.032691  0.103808  0.000000      2.000000
 -0.038140 -0.113245  0.000000      2.000000
  0.035415  0.108527  0.000000      2.000000
  0.035415 -0.108527  0.000000      2.000000
  0.000000  0.169868  0.000000      2.000000
 -0.000000  0.056623  0.000000      2.000000
 -0.049037  0.028311  0.000000      2.000000
 -0.049037 -0.028311  0.000000      2.000000
  0.002724  0.061341  0.000000      2.000000
 -0.051761  0.033030  0.000000      2.000000
 -0.054485 -0.028311  0.000000      2.000000
 -0.054485  0.028311  0.000000      2.000000
 -0.002724  0.061341  0.000000      2.000000
  0.051761  0.033030  0.000000      2.000000
  0.005449  0.066060  0.000000      2.000000
 -0.054485  0.037748  0.000000      2.000000
 -0.059934 -0.028311  0.000000      2.000000
 -0.059934  0.028311  0.000000      2.000000
 -0.005449  0.066060  0.000000      2.000000
  0.054485  0.037748  0.000000      2.000000
  0.008173  0.070778  0.000000      2.000000
 -0.057210  0.042467  0.000000      2.000000
 -0.065382 -0.028311  0.000000      2.000000
 -0.065382  0.028311  0.000000      2.000000
 -0.008173  0.070778  0.000000      2.000000
  0.057210  0.042467  0.000000      2.000000
  0.010897  0.075497  0.000000      2.000000
 -0.059934  0.047186  0.000000      2.000000
 -0.070831 -0.028311  0.000000      2.000000
 -0.070831  0.028311  0.000000      2.000000
 -0.010897  0.075497  0.000000      2.000000
  0.059934  0.047186  0.000000      2.000000
  0.013621  0.080216  0.000000      2.000000
 -0.062658  0.051904  0.000000      2.000000
 -0.076279 -0.028311  0.000000      2.000000
 -0.076279  0.028311  0.000000      2.000000
 -0.013621  0.080216  0.000000      2.000000
  0.062658  0.051904  0.000000      2.000000
  0.016346  0.084934  0.000000      2.000000
 -0.065382  0.056623  0.000000      2.000000
 -0.081728 -0.028311  0.000000      2.000000
 -0.081728  0.028311  0.000000      2.000000
 -0.016346  0.084934  0.000000      2.000000
  0.065382  0.056623  0.000000      2.000000
  0.019070  0.089653  0.000000      2.000000
 -0.068107  0.061341  0.000000      2.000000
 -0.087176 -0.028311  0.000000      2.000000
 -0.087176  0.028311  0.000000      2.000000
 -0.019070  0.089653  0.000000      2.000000
[...]
     33       7.0885      0.00000
     34       7.2225      0.00000
     35       7.2803      0.00000
     36       7.6280      0.00000
     37       7.8074      0.00000
     38       7.8600      0.00000
     39       8.0326      0.00000
     40       9.2737      0.00000
     41       9.4407      0.00000
     42       9.8394      0.00000
     43      10.1152      0.00000
     44      10.1740      0.00000
     45      10.2391      0.00000
     46      10.3464      0.00000
     47      10.5735      0.00000
     48      10.7189      0.00000

 k-point   836 :       0.3171    0.3171    0.0000
  band No.  band energies     occupation 
      1     -19.2188      2.00000
      2     -17.3374      2.00000
      3     -17.2194      2.00000
      4     -12.9588      2.00000
      5     -12.7474      2.00000
      6     -10.8710      2.00000
      7      -8.5677      2.00000
      8      -8.2619      2.00000
      9      -7.9874      2.00000
     10      -7.3892      2.00000
     11      -7.2341      2.00000
     12      -6.3288      2.00000
     13      -6.2283      2.00000
     14      -6.0982      2.00000
     15      -6.0594      2.00000
     16      -1.5570      0.00000
     17      -1.1870      0.00000
     18       3.0598      0.00000
     19       3.4064      0.00000
     20       3.4256      0.00000
     21       3.7214      0.00000
     22       4.0300      0.00000
     23       4.1238      0.00000
     24       4.3415      0.00000
     25       4.4918      0.00000
     26       4.6266      0.00000
     27       4.8517      0.00000
     28       4.8563      0.00000
     29       4.9644      0.00000
     30       6.3938      0.00000
     31       6.7236      0.00000
     32       6.8188      0.00000
     33       7.0886      0.00000
     34       7.3035      0.00000
     35       7.4323      0.00000
     36       7.4575      0.00000
     37       7.7994      0.00000
     38       7.8071      0.00000
     39       8.0611      0.00000
     40       9.3136      0.00000
     41       9.3932      0.00000
     42       9.9496      0.00000
     43      10.1154      0.00000
     44      10.1209      0.00000
     45      10.1774      0.00000
     46      10.4588      0.00000
     47      10.4613      0.00000
     48      10.6931      0.00000

 k-point   837 :      -0.3171   -0.3659    0.0000
  band No.  band energies     occupation 
      1     -19.2188      2.00000
      2     -17.3375      2.00000
      3     -17.2193      2.00000
      4     -12.9588      2.00000
      5     -12.7473      2.00000
      6     -10.8710      2.00000
      7      -8.5678      2.00000
      8      -8.2618      2.00000
      9      -7.9874      2.00000
     10      -7.3892      2.00000
     11      -7.2342      2.00000
     12      -6.3289      2.00000
     13      -6.2284      2.00000
     14      -6.0981      2.00000
     15      -6.0593      2.00000
     16      -1.5571      0.00000
     17      -1.1869      0.00000
     18       3.0598      0.00000
     19       3.4064      0.00000
     20       3.4256      0.00000
     21       3.7214      0.00000
     22       4.0300      0.00000
     23       4.1238      0.00000
     24       4.3415      0.00000
     25       4.4918      0.00000
     26       4.6266      0.00000
     27       4.8517      0.00000
     28       4.8563      0.00000
     29       4.9643      0.00000
     30       6.3938      0.00000
     31       6.7235      0.00000
     32       6.8188      0.00000
     33       7.0886      0.00000
     34       7.3036      0.00000
     35       7.4323      0.00000
     36       7.4575      0.00000
     37       7.7994      0.00000
     38       7.8070      0.00000
     39       8.0611      0.00000
     40       9.3137      0.00000
     41       9.3931      0.00000
     42       9.9496      0.00000
     43      10.1154      0.00000
     44      10.1209      0.00000
     45      10.1774      0.00000
     46      10.4588      0.00000
     47      10.4613      0.00000
     48      10.6930      0.00000

 k-point   838 :       0.3659    0.3171    0.0000
  band No.  band energies     occupation 
      1     -19.2188      2.00000
      2     -17.3375      2.00000
      3     -17.2193      2.00000
      4     -12.9588      2.00000
      5     -12.7473      2.00000
      6     -10.8710      2.00000
      7      -8.5678      2.00000
      8      -8.2618      2.00000
      9      -7.9874      2.00000
     10      -7.3892      2.00000
     11      -7.2342      2.00000
     12      -6.3289      2.00000
     13      -6.2284      2.00000
     14      -6.0982      2.00000
     15      -6.0593      2.00000
     16      -1.5571      0.00000
     17      -1.1869      0.00000
     18       3.0598      0.00000
     19       3.4064      0.00000
     20       3.4256      0.00000
     21       3.7214      0.00000
     22       4.0300      0.00000
     23       4.1238      0.00000
     24       4.3415      0.00000
     25       4.4918      0.00000
     26       4.6266      0.00000
     27       4.8517      0.00000
     28       4.8563      0.00000
     29       4.9644      0.00000
     30       6.3938      0.00000
     31       6.7236      0.00000
     32       6.8188      0.00000
     33       7.0886      0.00000
     34       7.3035      0.00000
     35       7.4323      0.00000
     36       7.4575      0.00000
     37       7.7994      0.00000
     38       7.8071      0.00000
     39       8.0611      0.00000
     40       9.3136      0.00000
     41       9.3931      0.00000
     42       9.9497      0.00000
     43      10.1154      0.00000
     44      10.1209      0.00000
     45      10.1774      0.00000
     46      10.4588      0.00000
     47      10.4613      0.00000
     48      10.6930      0.00000

 k-point   839 :       0.3415    0.3171    0.0000
  band No.  band energies     occupation 
      1     -19.2158      2.00000
      2     -17.3148      2.00000
      3     -17.2509      2.00000
      4     -12.9073      2.00000
      5     -12.7865      2.00000
      6     -10.8883      2.00000
      7      -8.4552      2.00000
      8      -8.3256      2.00000
      9      -8.0059      2.00000
     10      -7.3798      2.00000
     11      -7.2389      2.00000
     12      -6.2865      2.00000
     13      -6.2003      2.00000
     14      -6.1650      2.00000
     15      -6.1049      2.00000
     16      -1.4684      0.00000
     17      -1.2750      0.00000
     18       3.2243      0.00000
     19       3.2424      0.00000
     20       3.4124      0.00000
     21       3.8331      0.00000
     22       3.9578      0.00000
     23       4.1297      0.00000
     24       4.3595      0.00000
     25       4.6669      0.00000
     26       4.6702      0.00000
     27       4.7041      0.00000
     28       4.8253      0.00000
     29       4.8497      0.00000
     30       6.4875      0.00000
     31       6.6542      0.00000
     32       6.7824      0.00000
     33       7.2452      0.00000
     34       7.2784      0.00000
     35       7.3375      0.00000
     36       7.4450      0.00000
     37       7.7906      0.00000
     38       7.9041      0.00000
     39       7.9827      0.00000
     40       9.3135      0.00000
     41       9.3952      0.00000
     42      10.0134      0.00000
     43      10.0364      0.00000
     44      10.1642      0.00000
     45      10.2793      0.00000
     46      10.3589      0.00000
     47      10.4567      0.00000
     48      10.6389      0.00000

 k-point   840 :      -0.3171   -0.3415    0.0000
  band No.  band energies     occupation 
      1     -19.2158      2.00000
      2     -17.3147      2.00000
      3     -17.2510      2.00000
      4     -12.9073      2.00000
      5     -12.7865      2.00000
      6     -10.8883      2.00000
      7      -8.4552      2.00000
      8      -8.3256      2.00000
      9      -8.0059      2.00000
     10      -7.3798      2.00000
     11      -7.2389      2.00000
     12      -6.2865      2.00000
     13      -6.2003      2.00000
     14      -6.1650      2.00000
     15      -6.1049      2.00000
     16      -1.4684      0.00000
     17      -1.2750      0.00000
     18       3.2243      0.00000
     19       3.2424      0.00000
     20       3.4124      0.00000
     21       3.8331      0.00000
     22       3.9578      0.00000
     23       4.1297      0.00000
     24       4.3595      0.00000
     25       4.6669      0.00000
     26       4.6702      0.00000
     27       4.7041      0.00000
     28       4.8252      0.00000
     29       4.8497      0.00000
     30       6.4875      0.00000
     31       6.6542      0.00000
     32       6.7824      0.00000
     33       7.2452      0.00000
     34       7.2784      0.00000
     35       7.3375      0.00000
     36       7.4450      0.00000
     37       7.7906      0.00000
     38       7.9041      0.00000
     39       7.9828      0.00000
     40       9.3136      0.00000
     41       9.3951      0.00000
     42      10.0134      0.00000
     43      10.0364      0.00000
     44      10.1643      0.00000
     45      10.2794      0.00000
     46      10.3589      0.00000
     47      10.4567      0.00000
     48      10.6389      0.00000

 k-point   841 :       0.3415    0.3415    0.0000
  band No.  band energies     occupation 
      1     -19.2158      2.00000
      2     -17.3148      2.00000
      3     -17.2509      2.00000
      4     -12.9073      2.00000
      5     -12.7865      2.00000
      6     -10.8883      2.00000
      7      -8.4552      2.00000
      8      -8.3255      2.00000
      9      -8.0059      2.00000
     10      -7.3798      2.00000
     11      -7.2389      2.00000
     12      -6.2865      2.00000
     13      -6.2004      2.00000
     14      -6.1649      2.00000
     15      -6.1049      2.00000
     16      -1.4684      0.00000
     17      -1.2749      0.00000
     18       3.2243      0.00000
     19       3.2424      0.00000
     20       3.4124      0.00000
     21       3.8331      0.00000
     22       3.9578      0.00000
     23       4.1297      0.00000
     24       4.3596      0.00000
     25       4.6669      0.00000
     26       4.6702      0.00000
     27       4.7041      0.00000
     28       4.8253      0.00000
     29       4.8497      0.00000
     30       6.4875      0.00000
     31       6.6542      0.00000
     32       6.7824      0.00000
     33       7.2452      0.00000
     34       7.2783      0.00000
     35       7.3375      0.00000
     36       7.4450      0.00000
     37       7.7906      0.00000
     38       7.9041      0.00000
     39       7.9828      0.00000
     40       9.3135      0.00000
     41       9.3952      0.00000
     42      10.0135      0.00000
     43      10.0364      0.00000
     44      10.1642      0.00000
     45      10.2794      0.00000
     46      10.3589      0.00000
     47      10.4567      0.00000
     48      10.6389      0.00000


--------------------------------------------------------------------------------------------------------


 soft charge-density along one line, spin component           1
         0         1         2         3         4         5         6         7         8         9
 total charge-density along one line
 
 pseudopotential strength for first ion, spin component:           1
  6.732  10.272  -0.000   0.000  -0.000  -0.000   0.000  -0.000
 10.272  15.670  -0.000   0.000  -0.000  -0.000   0.000  -0.000
 -0.000  -0.000  -2.315   0.000   0.000  -3.974   0.000   0.000
  0.000   0.000   0.000  -2.321   0.000   0.000  -3.981   0.000
 -0.000  -0.000   0.000   0.000  -2.315   0.000   0.000  -3.974
 -0.000  -0.000  -3.974   0.000   0.000  -6.623   0.000   0.000
  0.000   0.000   0.000  -3.981   0.000   0.000  -6.632   0.000
 -0.000  -0.000   0.000   0.000  -3.974   0.000   0.000  -6.623
 total augmentation occupancy for first ion, spin component:           1
  3.719  -0.953  -0.000   0.000  -0.000   0.000   0.000   0.000
 -0.953   0.264   0.000   0.000   0.000  -0.000   0.000  -0.000
 -0.000   0.000   4.142   0.000  -0.000  -1.105   0.000   0.000
  0.000   0.000   0.000   0.892   0.000   0.000  -0.223   0.000
 -0.000   0.000  -0.000   0.000   4.142   0.000   0.000  -1.105
  0.000  -0.000  -1.105   0.000   0.000   0.306   0.000   0.000
  0.000   0.000   0.000  -0.223   0.000   0.000   0.056   0.000
  0.000  -0.000   0.000   0.000  -1.105   0.000   0.000   0.306


------------------------ aborting loop because EDIFF is reached ----------------------------------------


    CHARGE:  cpu time      1.3307: real time      1.3354
    FORLOC:  cpu time      0.0011: real time      0.0011
    FORNL :  cpu time      3.1160: real time      3.1252
    STRESS:  cpu time     27.3961: real time     27.4836
    FORCOR:  cpu time      0.0128: real time      0.0128
    FORHAR:  cpu time      0.0035: real time      0.0035
    MIXING:  cpu time      0.0010: real time      0.0010
    OFIELD:  cpu time      0.0000: real time      0.0000

 ---------------------------------------------------------------------------------------------

         DFTD3 V3.0 Rev 1        
 IVDW         = 12
 DF pbe       
 parameters
 VDW_S6       =    1.0000
 VDW_S8       =    0.7875
 VDW_A1       =    0.4289
 VDW_A2       =    4.4407
 k1-k3        =   16.0000    1.3333   -4.0000
 VDW_RADIUS   =   50.2022 A
 VDW_CNRADIUS =   21.1671 A
 Edisp (eV)   -0.67804

 E6    (eV) :    -0.4579
 E8    (eV) :    -0.2201
 % E8        : 32.46
    FORVDW:  cpu time      0.0175: real time      0.0176

  FORCE on cell =-STRESS in cart. coord.  units (eV):
  Direction    XX          YY          ZZ          XY          YZ          ZX
  --------------------------------------------------------------------------------------
  Alpha Z    14.61462    14.61462    14.61462
  Ewald    3501.19577  3501.18498 -4398.90803    -0.00122    -0.00000     0.00000
  Hartree  3440.13507  3440.13215 -3381.40986    -0.00003    -0.00000     0.00000
  E(xc)    -107.49120  -107.49123  -111.32330    -0.00000    -0.00000     0.00000
  Local   -7258.19211 -7258.18028  7443.59065     0.00095    -0.00000     0.00000
  n-local   -21.69619   -21.69645   -10.37212    -0.00001    -0.00000     0.00000
  augment    -1.80630    -1.80622    -1.79654    -0.00001     0.00000     0.00000
  Kinetic   433.61290   433.61518   445.42222     0.00016     0.00000     0.00000
  Fock        0.00000     0.00000     0.00000     0.00000     0.00000     0.00000
  vdW        -0.54285    -0.54284    -0.00593     0.00000     0.00000    -0.00000
  -------------------------------------------------------------------------------------
  Total      -0.17029    -0.17007    -0.18829    -0.00017     0.00000     0.00000
  in kB      -0.78607    -0.78506    -0.86916    -0.00079     0.00000     0.00000
  external pressure =       -0.81 kB  Pullay stress =        0.00 kB


 VOLUME and BASIS-vectors are now :
 -----------------------------------------------------------------------------
  energy-cutoff  :      450.00
  volume of cell :      347.08
      direct lattice vectors                 reciprocal lattice vectors
     4.476485000  2.584500000  0.000000000     0.111694778  0.193461018  0.000000000
    -4.476485000  2.584500000  0.000000000    -0.111694778  0.193461018  0.000000000
     0.000000000  0.000000000 15.000000000     0.000000000  0.000000000  0.066666667

  length of vectors
     5.168999730  5.168999730 15.000000000     0.223389545  0.223389545  0.066666667


 FORCES acting on ions
    electron-ion (+dipol)            ewald-force                    non-local-force                 convergence-correction
 -----------------------------------------------------------------------------------------------
   -.182E-02 0.205E-03 0.178E-06   0.194E-02 -.173E-03 -.103E-18   -.101E-03 -.214E-04 -.808E-27   0.351E-07 0.235E-08 0.581E-13
   0.412E-02 -.472E-03 0.211E-07   -.458E-02 0.486E-03 0.182E-18   -.377E-03 0.337E-04 -.202E-27   -.463E-08 0.104E-07 0.576E-13
   0.256E+02 -.443E+02 -.228E-06   -.276E+02 0.478E+02 -.120E-18   0.201E+01 -.348E+01 -.129E-25   0.246E-05 -.426E-05 0.799E-13
   -.256E+02 -.443E+02 -.399E-06   0.276E+02 0.478E+02 0.758E-18   -.201E+01 -.348E+01 0.000E+00   -.248E-05 -.417E-05 0.845E-13
   -.511E+02 0.436E-03 0.424E-07   0.551E+02 -.522E-03 -.197E-18   -.402E+01 0.613E-04 0.141E-26   -.493E-05 -.192E-07 0.851E-13
   0.511E+02 -.278E-03 -.163E-06   -.551E+02 0.308E-03 0.100E-18   0.402E+01 0.411E-03 0.000E+00   0.488E-05 -.457E-08 0.811E-13
   0.256E+02 0.443E+02 0.258E-06   -.276E+02 -.478E+02 -.329E-18   0.201E+01 0.348E+01 0.202E-27   0.248E-05 0.426E-05 0.814E-13
   -.256E+02 0.443E+02 0.507E-09   0.276E+02 -.478E+02 -.272E-18   -.201E+01 0.348E+01 -.162E-26   -.249E-05 0.418E-05 0.806E-13
 -----------------------------------------------------------------------------------------------
   0.656E-04 -.601E-04 -.289E-06   -.711E-14 0.000E+00 0.195E-19   0.255E-03 0.590E-03 -.139E-25   -.403E-07 -.110E-07 0.608E-12
 
 
 POSITION                                       TOTAL-FORCE (eV/Angst)
 -----------------------------------------------------------------------------------
     -1.48096      2.60388      3.75000        -0.000026     -0.000055     -0.000000
      1.50336      2.60388      3.75000        -0.000878     -0.000018     -0.000000
     -0.69947      1.25024      3.75000         0.000431      0.000437     -0.000000
      0.72183      1.25025      3.75000         0.000031      0.000128      0.000000
     -3.04399      2.60389      3.75000        -0.000517     -0.000091      0.000000
      3.06636      2.60387      3.75000         0.000510      0.000374      0.000000
     -0.69945      3.95752      3.75000         0.000122     -0.000451      0.000000
      0.72184      3.95752      3.75000         0.000327     -0.000324     -0.000000
 -----------------------------------------------------------------------------------
    total drift:                                0.000320      0.000530     -0.000000


--------------------------------------------------------------------------------------------------------



  FREE ENERGIE OF THE ION-ELECTRON SYSTEM (eV)
  ---------------------------------------------------
  free  energy   TOTEN  =       -67.90772805 eV

  energy  without entropy=      -67.90772801  energy(sigma->0) =      -67.90772803
 


--------------------------------------------------------------------------------------------------------


    POTLOK:  cpu time      0.0178: real time      0.0190


--------------------------------------------------------------------------------------------------------


 stress matrix after NEB project (eV)
     -0.17029     -0.00017      0.00000
     -0.00017     -0.17007      0.00000
      0.00000      0.00000     -0.18829
  FORCES: max atom, RMS     0.000878    0.000533
  FORCE total and by dimension    0.001508    0.000878
  Stress total and by dimension    0.305573    0.188289
 writing wavefunctions
     LOOP+:  cpu time   1047.9435: real time   1058.3585
    4ORBIT:  cpu time      0.0000: real time      0.0000

 total amount of memory used by VASP MPI-rank0   959671. kBytes
=======================================================================

   base      :      30000. kBytes
   nonl-proj :     817373. kBytes
   fftplans  :       1560. kBytes
   grid      :       7372. kBytes
   one-center:         24. kBytes
   wavefun   :     103342. kBytes
 
  
  
 General timing and accounting informations for this job:
 ========================================================
  
                  Total CPU time used (sec):     1070.899
                            User time (sec):     1061.434
                          System time (sec):        9.465
                         Elapsed time (sec):     1083.666
  
                   Maximum memory used (kb):     1671424.
                   Average memory used (kb):          N/A
  
                          Minor page faults:      6012307
                          Major page faults:         1583
                 Voluntary context switches:        13196
