   8   8   0  16
  0.4131256E+02  0.5044000E-09  0.5044000E-09  0.1500000E-08  0.5000000E-15
  1.000000000000000E-004
  CAR 
 SC                                      
     13.16500255    -21.71548814  301     -3.29188258      1.00000000
    -21.715  0.0000E+00  0.0000E+00
    -21.599  0.0000E+00  0.0000E+00
    -21.483  0.0000E+00  0.0000E+00
    -21.367  0.0000E+00  0.0000E+00
    -21.250  0.0000E+00  0.0000E+00
    -21.134  0.0000E+00  0.0000E+00
    -21.018  0.0000E+00  0.0000E+00
    -20.902  0.0000E+00  0.0000E+00
    -20.785  0.0000E+00  0.0000E+00
    -20.669  0.1941E-14  0.2257E-15
    -20.553  0.2007E-09  0.2333E-10
    -20.437  0.1628E-05  0.1893E-06
    -20.320  0.1142E-02  0.1330E-03
    -20.204  0.7917E-01  0.9337E-02
    -20.088  0.7366E+00  0.9498E-01
    -19.971  0.1624E+01  0.2838E+00
    -19.855  0.1940E+01  0.5094E+00
    -19.739  0.2161E+01  0.7607E+00
    -19.623  0.2672E+01  0.1071E+01
    -19.506  0.3814E+01  0.1515E+01
    -19.390  0.3296E+01  0.1898E+01
    -19.274  0.8382E+00  0.1995E+01
    -19.158  0.3903E-01  0.2000E+01
    -19.041  0.2308E-03  0.2000E+01
    -18.925  0.1260E-06  0.2000E+01
    -18.809  0.5304E-11  0.2000E+01
    -18.693  0.0000E+00  0.2000E+01
    -18.576  0.0000E+00  0.2000E+01
    -18.460  0.0000E+00  0.2000E+01
    -18.344  0.2841E-15  0.2000E+01
    -18.227  0.5967E-10  0.2000E+01
    -18.111  0.9019E-06  0.2000E+01
    -17.995  0.1018E-02  0.2000E+01
    -17.879  0.9435E-01  0.2011E+01
    -17.762  0.9657E+00  0.2123E+01
    -17.646  0.2422E+01  0.2405E+01
    -17.530  0.2951E+01  0.2748E+01
    -17.414  0.2359E+01  0.3022E+01
    -17.297  0.1684E+01  0.3218E+01
    -17.181  0.1887E+01  0.3438E+01
    -17.065  0.1608E+01  0.3625E+01
    -16.948  0.1684E+01  0.3820E+01
    -16.832  0.2490E+01  0.4110E+01
    -16.716  0.1829E+01  0.4323E+01
    -16.600  0.2571E+01  0.4621E+01
    -16.483  0.3346E+01  0.5010E+01
    -16.367  0.2796E+01  0.5336E+01
    -16.251  0.1946E+01  0.5562E+01
    -16.135  0.1649E+01  0.5754E+01
    -16.018  0.1388E+01  0.5915E+01
    -15.902  0.6250E+00  0.5988E+01
    -15.786  0.1040E+00  0.6000E+01
    -15.670  0.2746E-02  0.6000E+01
    -15.553  0.7802E-05  0.6000E+01
    -15.437  0.1843E-08  0.6000E+01
    -15.321  0.3217E-13  0.6000E+01
    -15.204  0.0000E+00  0.6000E+01
    -15.088  0.0000E+00  0.6000E+01
    -14.972  0.0000E+00  0.6000E+01
    -14.856  0.1184E-14  0.6000E+01
    -14.739  0.1679E-09  0.6000E+01
    -14.623  0.1708E-05  0.6000E+01
    -14.507  0.1311E-02  0.6000E+01
    -14.391  0.8723E-01  0.6010E+01
    -14.274  0.6838E+00  0.6090E+01
    -14.158  0.1377E+01  0.6250E+01
    -14.042  0.2572E+01  0.6549E+01
    -13.926  0.2801E+01  0.6875E+01
    -13.809  0.2657E+01  0.7183E+01
    -13.693  0.2169E+01  0.7436E+01
    -13.577  0.3146E+01  0.7801E+01
    -13.460  0.1604E+01  0.7988E+01
    -13.344  0.5116E+00  0.8047E+01
    -13.228  0.1322E+01  0.8201E+01
    -13.112  0.2120E+01  0.8448E+01
    -12.995  0.1240E+01  0.8592E+01
    -12.879  0.3196E+00  0.8629E+01
    -12.763  0.1236E+01  0.8773E+01
    -12.647  0.2947E+01  0.9115E+01
    -12.530  0.2049E+01  0.9353E+01
    -12.414  0.6209E+00  0.9426E+01
    -12.298  0.1039E+01  0.9546E+01
    -12.181  0.2500E+01  0.9837E+01
    -12.065  0.1830E+01  0.1005E+02
    -11.949  0.7152E+00  0.1013E+02
    -11.833  0.8862E+00  0.1024E+02
    -11.716  0.6521E+00  0.1031E+02
    -11.600  0.6813E+00  0.1039E+02
    -11.484  0.9848E+00  0.1051E+02
    -11.368  0.6136E+00  0.1058E+02
    -11.251  0.3028E+00  0.1061E+02
    -11.135  0.1689E+00  0.1063E+02
    -11.019  0.7433E+00  0.1072E+02
    -10.903  0.1432E+01  0.1088E+02
    -10.786  0.1836E+01  0.1110E+02
    -10.670  0.1958E+01  0.1133E+02
    -10.554  0.2228E+01  0.1158E+02
    -10.437  0.9868E+00  0.1170E+02
    -10.321  0.1038E+01  0.1182E+02
    -10.205  0.2040E+01  0.1206E+02
    -10.089  0.1885E+01  0.1228E+02
     -9.972  0.2117E+01  0.1252E+02
     -9.856  0.2637E+01  0.1283E+02
     -9.740  0.1946E+01  0.1306E+02
     -9.624  0.8086E+00  0.1315E+02
     -9.507  0.1534E+01  0.1333E+02
     -9.391  0.2592E+01  0.1363E+02
     -9.275  0.2382E+01  0.1391E+02
     -9.159  0.2086E+01  0.1415E+02
     -9.042  0.1680E+01  0.1434E+02
     -8.926  0.2772E+01  0.1467E+02
     -8.810  0.2080E+01  0.1491E+02
     -8.693  0.3187E+01  0.1528E+02
     -8.577  0.3798E+01  0.1572E+02
     -8.461  0.3317E+01  0.1611E+02
     -8.345  0.2558E+01  0.1640E+02
     -8.228  0.2238E+01  0.1666E+02
     -8.112  0.2295E+01  0.1693E+02
     -7.996  0.2393E+01  0.1721E+02
     -7.880  0.3097E+01  0.1757E+02
     -7.763  0.2592E+01  0.1787E+02
     -7.647  0.5090E+01  0.1846E+02
     -7.531  0.4822E+01  0.1902E+02
     -7.414  0.1880E+01  0.1924E+02
     -7.298  0.1267E+01  0.1939E+02
     -7.182  0.9043E+00  0.1949E+02
     -7.066  0.1365E+01  0.1965E+02
     -6.949  0.2054E+01  0.1989E+02
     -6.833  0.2090E+01  0.2013E+02
     -6.717  0.2361E+01  0.2041E+02
     -6.601  0.2742E+01  0.2073E+02
     -6.484  0.3438E+01  0.2113E+02
     -6.368  0.4783E+01  0.2168E+02
     -6.252  0.7586E+01  0.2257E+02
     -6.136  0.5814E+01  0.2324E+02
     -6.019  0.4110E+01  0.2372E+02
     -5.903  0.2950E+01  0.2406E+02
     -5.787  0.3696E+01  0.2449E+02
     -5.670  0.1890E+01  0.2471E+02
     -5.554  0.1465E+01  0.2488E+02
     -5.438  0.2261E+01  0.2515E+02
     -5.322  0.3495E+01  0.2555E+02
     -5.205  0.3240E+01  0.2593E+02
     -5.089  0.1477E+01  0.2610E+02
     -4.973  0.3152E+01  0.2647E+02
     -4.857  0.4934E+01  0.2704E+02
     -4.740  0.4175E+01  0.2753E+02
     -4.624  0.3573E+01  0.2794E+02
     -4.508  0.4928E+01  0.2851E+02
     -4.392  0.3831E+01  0.2896E+02
     -4.275  0.1039E+01  0.2908E+02
     -4.159  0.1120E+01  0.2921E+02
     -4.043  0.1889E+01  0.2943E+02
     -3.926  0.1085E+01  0.2956E+02
     -3.810  0.8333E+00  0.2965E+02
     -3.694  0.1145E+01  0.2979E+02
     -3.578  0.1058E+01  0.2991E+02
     -3.461  0.6363E+00  0.2998E+02
     -3.345  0.1383E+00  0.3000E+02
     -3.229  0.1819E-01  0.3000E+02
     -3.113  0.2549E+00  0.3003E+02
     -2.996  0.8027E+00  0.3012E+02
     -2.880  0.7820E+00  0.3022E+02
     -2.764  0.1941E+01  0.3044E+02
     -2.647  0.2617E+01  0.3075E+02
     -2.531  0.1828E+01  0.3096E+02
     -2.415  0.1732E+01  0.3116E+02
     -2.299  0.1751E+01  0.3136E+02
     -2.182  0.1957E+01  0.3159E+02
     -2.066  0.1237E+01  0.3173E+02
     -1.950  0.4373E+00  0.3178E+02
     -1.834  0.4036E+00  0.3183E+02
     -1.717  0.5175E+00  0.3189E+02
     -1.601  0.2290E+00  0.3192E+02
     -1.485  0.5020E+00  0.3198E+02
     -1.369  0.1904E+00  0.3200E+02
     -1.252  0.7422E-02  0.3200E+02
     -1.136  0.2470E-04  0.3200E+02
     -1.020  0.3022E-04  0.3200E+02
     -0.903  0.8438E-02  0.3200E+02
     -0.787  0.2020E+00  0.3202E+02
     -0.671  0.5021E+00  0.3208E+02
     -0.555  0.2713E+00  0.3211E+02
     -0.438  0.4999E+00  0.3217E+02
     -0.322  0.2134E+00  0.3220E+02
     -0.206  0.1007E+00  0.3221E+02
     -0.090  0.1252E+01  0.3235E+02
      0.027  0.2534E+01  0.3265E+02
      0.143  0.2100E+01  0.3289E+02
      0.259  0.1875E+01  0.3311E+02
      0.375  0.2006E+01  0.3334E+02
      0.492  0.1855E+01  0.3356E+02
      0.608  0.1966E+01  0.3379E+02
      0.724  0.1115E+01  0.3392E+02
      0.841  0.7925E+00  0.3401E+02
      0.957  0.2227E+01  0.3427E+02
      1.073  0.2411E+01  0.3455E+02
      1.189  0.1848E+01  0.3476E+02
      1.306  0.1505E+01  0.3494E+02
      1.422  0.1792E+01  0.3515E+02
      1.538  0.1763E+01  0.3535E+02
      1.654  0.2301E+01  0.3562E+02
      1.771  0.2108E+01  0.3587E+02
      1.887  0.1288E+01  0.3602E+02
      2.003  0.3133E+01  0.3638E+02
      2.120  0.3638E+01  0.3680E+02
      2.236  0.2975E+01  0.3715E+02
      2.352  0.3330E+01  0.3754E+02
      2.468  0.3151E+01  0.3790E+02
      2.585  0.3873E+01  0.3835E+02
      2.701  0.4284E+01  0.3885E+02
      2.817  0.4543E+01  0.3938E+02
      2.933  0.3438E+01  0.3978E+02
      3.050  0.1887E+01  0.4000E+02
      3.166  0.3375E+01  0.4039E+02
      3.282  0.4936E+01  0.4096E+02
      3.398  0.4932E+01  0.4154E+02
      3.515  0.3239E+01  0.4191E+02
      3.631  0.3033E+01  0.4227E+02
      3.747  0.3299E+01  0.4265E+02
      3.864  0.2310E+01  0.4292E+02
      3.980  0.4530E+01  0.4345E+02
      4.096  0.4898E+01  0.4402E+02
      4.212  0.3755E+01  0.4445E+02
      4.329  0.4663E+01  0.4499E+02
      4.445  0.3273E+01  0.4537E+02
      4.561  0.2828E+01  0.4570E+02
      4.677  0.3776E+01  0.4614E+02
      4.794  0.5738E+01  0.4681E+02
      4.910  0.5081E+01  0.4740E+02
      5.026  0.5224E+01  0.4801E+02
      5.142  0.6672E+01  0.4878E+02
      5.259  0.3387E+01  0.4918E+02
      5.375  0.3396E+01  0.4957E+02
      5.491  0.6516E+01  0.5033E+02
      5.608  0.6753E+01  0.5111E+02
      5.724  0.6194E+01  0.5183E+02
      5.840  0.5028E+01  0.5242E+02
      5.956  0.5638E+01  0.5307E+02
      6.073  0.6076E+01  0.5378E+02
      6.189  0.6646E+01  0.5455E+02
      6.305  0.6950E+01  0.5536E+02
      6.421  0.7282E+01  0.5621E+02
      6.538  0.6770E+01  0.5700E+02
      6.654  0.7857E+01  0.5791E+02
      6.770  0.7568E+01  0.5879E+02
      6.887  0.6822E+01  0.5958E+02
      7.003  0.6469E+01  0.6033E+02
      7.119  0.5708E+01  0.6100E+02
      7.235  0.8051E+01  0.6193E+02
      7.352  0.7887E+01  0.6285E+02
      7.468  0.7338E+01  0.6370E+02
      7.584  0.8222E+01  0.6466E+02
      7.700  0.9181E+01  0.6573E+02
      7.817  0.8375E+01  0.6670E+02
      7.933  0.6817E+01  0.6749E+02
      8.049  0.8748E+01  0.6851E+02
      8.165  0.1233E+02  0.6995E+02
      8.282  0.1197E+02  0.7134E+02
      8.398  0.6823E+01  0.7213E+02
      8.514  0.5796E+01  0.7280E+02
      8.631  0.8749E+01  0.7382E+02
      8.747  0.8672E+01  0.7483E+02
      8.863  0.9160E+01  0.7589E+02
      8.979  0.9953E+01  0.7705E+02
      9.096  0.7418E+01  0.7791E+02
      9.212  0.7289E+01  0.7876E+02
      9.328  0.7571E+01  0.7964E+02
      9.444  0.7133E+01  0.8047E+02
      9.561  0.8847E+01  0.8150E+02
      9.677  0.1022E+02  0.8269E+02
      9.793  0.7972E+01  0.8361E+02
      9.909  0.6320E+01  0.8435E+02
     10.026  0.8090E+01  0.8529E+02
     10.142  0.9722E+01  0.8642E+02
     10.258  0.9360E+01  0.8751E+02
     10.375  0.1055E+02  0.8873E+02
     10.491  0.8328E+01  0.8970E+02
     10.607  0.7690E+01  0.9060E+02
     10.723  0.6497E+01  0.9135E+02
     10.840  0.6903E+01  0.9216E+02
     10.956  0.8463E+01  0.9314E+02
     11.072  0.6042E+01  0.9384E+02
     11.188  0.5012E+01  0.9442E+02
     11.305  0.6361E+01  0.9516E+02
     11.421  0.5141E+01  0.9576E+02
     11.537  0.1393E+01  0.9592E+02
     11.654  0.5303E+00  0.9599E+02
     11.770  0.1231E+00  0.9600E+02
     11.886  0.3035E-02  0.9600E+02
     12.002  0.6218E-05  0.9600E+02
     12.119  0.9563E-09  0.9600E+02
     12.235  0.1051E-13  0.9600E+02
     12.351  0.0000E+00  0.9600E+02
     12.467  0.0000E+00  0.9600E+02
     12.584  0.0000E+00  0.9600E+02
     12.700  0.0000E+00  0.9600E+02
     12.816  0.0000E+00  0.9600E+02
     12.932  0.0000E+00  0.9600E+02
     13.049  0.0000E+00  0.9600E+02
     13.165  0.0000E+00  0.9600E+02
