Lattice                                 
           1
     4.319735    2.494000    0.000000
    -4.319735    2.494000    0.000000
     0.000000    0.000000   15.000000
   B    C 
     8     8
Direct configuration=     1
   0.66888689  0.00000000  0.10000000
   0.33111211  0.00000000  0.10000000
   0.00000000  0.33111211  0.10000000
   0.00000000  0.66888689  0.10000000
   0.33111211  0.33111211  0.10000000
   0.66888689  0.66888689  0.10000000
   0.66666600  0.33333300  0.09922189
   0.33333300  0.66666600  0.10077811
   0.33333267  0.16666633  0.47060000
   0.49999967  0.99999933  0.47060000
   0.33333267  0.66666633  0.47060000
   0.49999967  0.49999933  0.47060000
   0.83333267  0.16666633  0.47060000
   0.99999967  0.99999933  0.47060000
   0.83333267  0.66666633  0.47060000
   0.99999967  0.49999933  0.47060000
Direct configuration=     2
   0.67035445 -0.00000001  0.10002557
   0.32964454 -0.00000001  0.10002557
   0.00000001  0.32964455  0.10002557
   0.00000001  0.67035446  0.10002557
   0.32964454  0.32964455  0.10002557
   0.67035445  0.67035446  0.10002557
   0.66666600  0.33333300  0.09924609
   0.33333300  0.66666600  0.10081119
   0.33332664  0.16666332  0.47057393
   0.50000087  0.00000174  0.47057341
   0.33333267  0.66666633  0.47057275
   0.50000087  0.49999813  0.47057341
   0.83333568  0.16666332  0.47057393
   0.99999967  0.99999933  0.47057453
   0.83333568  0.66667236  0.47057393
   0.99999726  0.49999813  0.47057341
Direct configuration=     3
   0.66965492 -0.00000000  0.10001338
   0.33034407 -0.00000000  0.10001338
   0.00000000  0.33034408  0.10001338
   0.00000000  0.66965493  0.10001338
   0.33034407  0.33034408  0.10001338
   0.66965492  0.66965493  0.10001338
   0.66666600  0.33333300  0.09923455
   0.33333300  0.66666600  0.10079543
   0.33332951  0.16666476  0.47058636
   0.50000030  0.00000059  0.47058608
   0.33333267  0.66666633  0.47058574
   0.50000030  0.49999870  0.47058608
   0.83333424  0.16666476  0.47058636
   0.99999967  0.99999933  0.47058667
   0.83333424  0.66666949  0.47058636
   0.99999841  0.49999870  0.47058608
Direct configuration=     4
   0.66965818 -0.00000000  0.10001344
   0.33034081 -0.00000000  0.10001344
   0.00000000  0.33034082  0.10001344
   0.00000000  0.66965819  0.10001344
   0.33034081  0.33034082  0.10001344
   0.66965818  0.66965819  0.10001344
   0.66666600  0.33333300  0.09923460
   0.33333300  0.66666600  0.10079550
   0.33332950  0.16666475  0.47058630
   0.50000030  0.00000060  0.47058602
   0.33333267  0.66666633  0.47058568
   0.50000030  0.49999870  0.47058602
   0.83333425  0.16666475  0.47058630
   0.99999967  0.99999933  0.47058662
   0.83333425  0.66666950  0.47058630
   0.99999840  0.49999870  0.47058602
Direct configuration=     5
   0.66965688 -0.00000000  0.10001341
   0.33034211 -0.00000000  0.10001341
   0.00000000  0.33034212  0.10001341
   0.00000000  0.66965689  0.10001341
   0.33034211  0.33034212  0.10001341
   0.66965688  0.66965689  0.10001341
   0.66666600  0.33333300  0.09923458
   0.33333300  0.66666600  0.10079547
   0.33332950  0.16666475  0.47058632
   0.50000030  0.00000059  0.47058605
   0.33333267  0.66666633  0.47058570
   0.50000030  0.49999870  0.47058605
   0.83333425  0.16666475  0.47058632
   0.99999967  0.99999933  0.47058664
   0.83333425  0.66666950  0.47058632
   0.99999841  0.49999870  0.47058605
Direct configuration=     6
   0.66965590 -0.00000000  0.10001340
   0.33034309 -0.00000000  0.10001340
   0.00000000  0.33034310  0.10001340
   0.00000000  0.66965591  0.10001340
   0.33034309  0.33034310  0.10001340
   0.66965590  0.66965591  0.10001340
   0.66666600  0.33333300  0.09923457
   0.33333300  0.66666600  0.10079545
   0.33332951  0.16666475  0.47058634
   0.50000030  0.00000059  0.47058607
   0.33333267  0.66666633  0.47058572
   0.50000030  0.49999870  0.47058607
   0.83333425  0.16666475  0.47058634
   0.99999967  0.99999933  0.47058666
   0.83333425  0.66666949  0.47058634
   0.99999841  0.49999870  0.47058607
Direct configuration=     7
   0.66965591 -0.00000002  0.10003684
   0.33034306 -0.00000002  0.10003684
   0.00000002  0.33034309  0.10003684
   0.00000002  0.66965594  0.10003684
   0.33034306  0.33034309  0.10003684
   0.66965591  0.66965594  0.10003684
   0.66666600  0.33333300  0.09925913
   0.33333300  0.66666600  0.10082255
   0.33333414  0.16666707  0.47056250
   0.49999933 -0.00000133  0.47056184
   0.33333267  0.66666633  0.47056107
   0.49999933  0.49999967  0.47056184
   0.83333193  0.16666707  0.47056250
   0.99999967  0.99999933  0.47056320
   0.83333193  0.66666486  0.47056250
   0.00000033  0.49999967  0.47056184
Direct configuration=     8
   0.66965595 -0.00000008  0.10010718
   0.33034297 -0.00000008  0.10010718
   0.00000008  0.33034305  0.10010718
   0.00000008  0.66965603  0.10010718
   0.33034297  0.33034305  0.10010718
   0.66965595  0.66965603  0.10010718
   0.66666600  0.33333300  0.09933281
   0.33333300  0.66666600  0.10090386
   0.33334802  0.16667401  0.47049096
   0.49999645 -0.00000710  0.47048914
   0.33333267  0.66666633  0.47048711
   0.49999645  0.50000255  0.47048914
   0.83332499  0.16667401  0.47049096
   0.99999967  0.99999933  0.47049282
   0.83332499  0.66665098  0.47049096
   0.00000610  0.50000255  0.47048914
Direct configuration=     9
   0.66965602 -0.00000019  0.10024786
   0.33034279 -0.00000019  0.10024786
   0.00000019  0.33034298  0.10024786
   0.00000019  0.66965621  0.10024786
   0.33034279  0.33034298  0.10024786
   0.66965602  0.66965621  0.10024786
   0.66666600  0.33333300  0.09948018
   0.33333300  0.66666600  0.10106648
   0.33337579  0.16668790  0.47034788
   0.49999068 -0.00001865  0.47034376
   0.33333267  0.66666633  0.47033920
   0.49999068  0.50000832  0.47034376
   0.83331110  0.16668790  0.47034788
   0.99999967  0.99999933  0.47035205
   0.83331110  0.66662321  0.47034788
   0.00001765  0.50000832  0.47034376
Direct configuration=    10
   0.66965615 -0.00000041  0.10052921
   0.33034244 -0.00000041  0.10052921
   0.00000041  0.33034285  0.10052921
   0.00000041  0.66965656  0.10052921
   0.33034244  0.33034285  0.10052921
   0.66965615  0.66965656  0.10052921
   0.66666600  0.33333300  0.09977492
   0.33333300  0.66666600  0.10139171
   0.33343133  0.16671567  0.47006173
   0.49997913 -0.00004174  0.47005300
   0.33333267  0.66666633  0.47004337
   0.49997913  0.50001987  0.47005300
   0.83328333  0.16671567  0.47006173
   0.99999967  0.99999933  0.47007053
   0.83328333  0.66656767  0.47006173
   0.00004074  0.50001987  0.47005300
Direct configuration=    11
   0.66965642 -0.00000086  0.10109192
   0.33034172 -0.00000086  0.10109192
   0.00000086  0.33034258  0.10109192
   0.00000086  0.66965728  0.10109192
   0.33034172  0.33034258  0.10109192
   0.66965642  0.66965728  0.10109192
   0.66666600  0.33333300  0.10036441
   0.33333300  0.66666600  0.10204219
   0.33354242  0.16677121  0.46948943
   0.49995604 -0.00008792  0.46947147
   0.33333267  0.66666633  0.46945172
   0.49995604  0.50004296  0.46947147
   0.83322779  0.16677121  0.46948943
   0.99999967  0.99999933  0.46950748
   0.83322779  0.66645658  0.46948943
   0.00008692  0.50004296  0.46947147
Direct configuration=    12
   0.66965696 -0.00000176  0.10221733
   0.33034028 -0.00000176  0.10221733
   0.00000176  0.33034204  0.10221733
   0.00000176  0.66965872  0.10221733
   0.33034028  0.33034204  0.10221733
   0.66965696  0.66965872  0.10221733
   0.66666600  0.33333300  0.10154337
   0.33333300  0.66666600  0.10334313
   0.33376459  0.16688230  0.46834482
   0.49990986 -0.00018027  0.46830841
   0.33333267  0.66666633  0.46826842
   0.49990986  0.50008914  0.46830841
   0.83311670  0.16688230  0.46834482
   0.99999967  0.99999933  0.46838139
   0.83311670  0.66623441  0.46834482
   0.00017927  0.50008914  0.46830841
Direct configuration=    13
   0.66965804 -0.00000355  0.10446816
   0.33033741 -0.00000355  0.10446816
   0.00000355  0.33034096  0.10446816
   0.00000355  0.66966159  0.10446816
   0.33033741  0.33034096  0.10446816
   0.66965804  0.66966159  0.10446816
   0.66666600  0.33333300  0.10390129
   0.33333300  0.66666600  0.10594503
   0.33420893  0.16710447  0.46605560
   0.49981751 -0.00036499  0.46598229
   0.33333267  0.66666633  0.46590180
   0.49981751  0.50018149  0.46598229
   0.83289453  0.16710447  0.46605560
   0.99999967  0.99999933  0.46612921
   0.83289453  0.66579007  0.46605560
   0.00036399  0.50018149  0.46598229
Direct configuration=    14
   0.66966020 -0.00000714  0.10896982
   0.33033166 -0.00000714  0.10896982
   0.00000714  0.33033880  0.10896982
   0.00000714  0.66966734  0.10896982
   0.33033166  0.33033880  0.10896982
   0.66966020  0.66966734  0.10896982
   0.66666600  0.33333300  0.10861714
   0.33333300  0.66666600  0.11114882
   0.33509762  0.16754881  0.46147717
   0.49963279 -0.00073442  0.46133006
   0.33333267  0.66666633  0.46116858
   0.49963279  0.50036621  0.46133006
   0.83245019  0.16754881  0.46147717
   0.99999967  0.99999933  0.46162484
   0.83245019  0.66490138  0.46147717
   0.00073342  0.50036621  0.46133006
Direct configuration=    15
   0.66966453 -0.00001431  0.11797314
   0.33032017 -0.00001431  0.11797314
   0.00001431  0.33033447  0.11797314
   0.00001431  0.66967883  0.11797314
   0.33032017  0.33033447  0.11797314
   0.66966453  0.66967883  0.11797314
   0.66666600  0.33333300  0.11804884
   0.33333300  0.66666600  0.12155639
   0.33687499  0.16843749  0.45232031
   0.49926336 -0.00147328  0.45202559
   0.33333267  0.66666633  0.45170214
   0.49926336  0.50073564  0.45202559
   0.83156151  0.16843749  0.45232031
   0.99999967  0.99999933  0.45261611
   0.83156151  0.66312401  0.45232031
   0.00147228  0.50073564  0.45202559
Direct configuration=    16
   0.66966453 -0.00001431  0.11797402
   0.33032017 -0.00001431  0.11797402
   0.00001431  0.33033447  0.11797402
   0.00001431  0.66967883  0.11797402
   0.33032017  0.33033447  0.11797402
   0.66966453  0.66967883  0.11797402
   0.66666600  0.33333300  0.11804977
   0.33333300  0.66666600  0.12155741
   0.33687506  0.16843753  0.45231941
   0.49926335 -0.00147331  0.45202468
   0.33333267  0.66666633  0.45170121
   0.49926335  0.50073565  0.45202468
   0.83156147  0.16843753  0.45231941
   0.99999967  0.99999933  0.45261522
   0.83156147  0.66312394  0.45231941
   0.00147231  0.50073565  0.45202468
Direct configuration=    17
   0.66966452 -0.00001431  0.11797668
   0.33032016 -0.00001431  0.11797668
   0.00001431  0.33033448  0.11797668
   0.00001431  0.66967884  0.11797668
   0.33032016  0.33033448  0.11797668
   0.66966452  0.66967884  0.11797668
   0.66666600  0.33333300  0.11805255
   0.33333300  0.66666600  0.12156048
   0.33687527  0.16843764  0.45231670
   0.49926331 -0.00147339  0.45202193
   0.33333267  0.66666633  0.45169842
   0.49926331  0.50073569  0.45202193
   0.83156136  0.16843764  0.45231670
   0.99999967  0.99999933  0.45261256
   0.83156136  0.66312373  0.45231670
   0.00147239  0.50073569  0.45202193
Direct configuration=    18
   0.66966452 -0.00001432  0.11798200
   0.33032016 -0.00001432  0.11798200
   0.00001432  0.33033448  0.11798200
   0.00001432  0.66967884  0.11798200
   0.33032016  0.33033448  0.11798200
   0.66966452  0.66967884  0.11798200
   0.66666600  0.33333300  0.11805811
   0.33333300  0.66666600  0.12156662
   0.33687569  0.16843785  0.45231129
   0.49926322 -0.00147355  0.45201644
   0.33333267  0.66666633  0.45169284
   0.49926322  0.50073578  0.45201644
   0.83156115  0.16843785  0.45231129
   0.99999967  0.99999933  0.45260723
   0.83156115  0.66312331  0.45231129
   0.00147255  0.50073578  0.45201644
Direct configuration=    19
   0.66966451 -0.00001433  0.11799264
   0.33032015 -0.00001433  0.11799264
   0.00001433  0.33033449  0.11799264
   0.00001433  0.66967885  0.11799264
   0.33032015  0.33033449  0.11799264
   0.66966451  0.66967885  0.11799264
   0.66666600  0.33333300  0.11806924
   0.33333300  0.66666600  0.12157890
   0.33687654  0.16843827  0.45230047
   0.49926306 -0.00147389  0.45200546
   0.33333267  0.66666633  0.45168169
   0.49926306  0.50073594  0.45200546
   0.83156073  0.16843827  0.45230047
   0.99999967  0.99999933  0.45259656
   0.83156073  0.66312246  0.45230047
   0.00147289  0.50073594  0.45200546
Direct configuration=    20
   0.66966450 -0.00001436  0.11801391
   0.33032014 -0.00001436  0.11801391
   0.00001436  0.33033450  0.11801391
   0.00001436  0.66967886  0.11801391
   0.33032014  0.33033450  0.11801391
   0.66966450  0.66967886  0.11801391
   0.66666600  0.33333300  0.11809149
   0.33333300  0.66666600  0.12160345
   0.33687824  0.16843912  0.45227883
   0.49926273 -0.00147455  0.45198350
   0.33333267  0.66666633  0.45165937
   0.49926273  0.50073627  0.45198350
   0.83155988  0.16843912  0.45227883
   0.99999967  0.99999933  0.45257524
   0.83155988  0.66312076  0.45227883
   0.00147355  0.50073627  0.45198350
Direct configuration=    21
   0.66966447 -0.00001442  0.11805646
   0.33032011 -0.00001442  0.11805646
   0.00001442  0.33033453  0.11805646
   0.00001442  0.66967889  0.11805646
   0.33032011  0.33033453  0.11805646
   0.66966447  0.66967889  0.11805646
   0.66666600  0.33333300  0.11813599
   0.33333300  0.66666600  0.12165256
   0.33688163  0.16844081  0.45223555
   0.49926206 -0.00147588  0.45193957
   0.33333267  0.66666633  0.45161475
   0.49926206  0.50073694  0.45193957
   0.83155819  0.16844081  0.45223555
   0.99999967  0.99999933  0.45253260
   0.83155819  0.66311737  0.45223555
   0.00147488  0.50073694  0.45193957
Direct configuration=    22
   0.66966441 -0.00001454  0.11814155
   0.33032006 -0.00001454  0.11814155
   0.00001454  0.33033459  0.11814155
   0.00001454  0.66967894  0.11814155
   0.33032006  0.33033459  0.11814155
   0.66966441  0.66967894  0.11814155
   0.66666600  0.33333300  0.11822499
   0.33333300  0.66666600  0.12175079
   0.33688841  0.16844421  0.45214899
   0.49926074 -0.00147853  0.45185172
   0.33333267  0.66666633  0.45152550
   0.49926074  0.50073826  0.45185172
   0.83155479  0.16844421  0.45214899
   0.99999967  0.99999933  0.45244731
   0.83155479  0.66311059  0.45214899
   0.00147753  0.50073826  0.45185172
Direct configuration=    23
   0.66966428 -0.00001477  0.11831174
   0.33031994 -0.00001477  0.11831174
   0.00001477  0.33033472  0.11831174
   0.00001477  0.66967906  0.11831174
   0.33031994  0.33033472  0.11831174
   0.66966428  0.66967906  0.11831174
   0.66666600  0.33333300  0.11840300
   0.33333300  0.66666600  0.12194723
   0.33690198  0.16845099  0.45197586
   0.49925808 -0.00148383  0.45167601
   0.33333267  0.66666633  0.45134700
   0.49925808  0.50074092  0.45167601
   0.83154801  0.16845099  0.45197586
   0.99999967  0.99999933  0.45227673
   0.83154801  0.66309702  0.45197586
   0.00148283  0.50074092  0.45167601
Direct configuration=    24
   0.66966404 -0.00001524  0.11865211
   0.33031972 -0.00001524  0.11865211
   0.00001524  0.33033496  0.11865211
   0.00001524  0.66967928  0.11865211
   0.33031972  0.33033496  0.11865211
   0.66966404  0.66967928  0.11865211
   0.66666600  0.33333300  0.11875901
   0.33333300  0.66666600  0.12234012
   0.33692911  0.16846456  0.45162960
   0.49925278 -0.00149444  0.45132460
   0.33333267  0.66666633  0.45099000
   0.49925278  0.50074622  0.45132460
   0.83153444  0.16846456  0.45162960
   0.99999967  0.99999933  0.45193558
   0.83153444  0.66306989  0.45162960
   0.00149344  0.50074622  0.45132460
Direct configuration=    25
   0.66966354 -0.00001618  0.11933286
   0.33031928 -0.00001618  0.11933286
   0.00001618  0.33033546  0.11933286
   0.00001618  0.66967972  0.11933286
   0.33031928  0.33033546  0.11933286
   0.66966354  0.66967972  0.11933286
   0.66666600  0.33333300  0.11947104
   0.33333300  0.66666600  0.12312589
   0.33698337  0.16849169  0.45093710
   0.49924217 -0.00151567  0.45062179
   0.33333267  0.66666633  0.45027601
   0.49924217  0.50075683  0.45062179
   0.83150731  0.16849169  0.45093710
   0.99999967  0.99999933  0.45125326
   0.83150731  0.66301563  0.45093710
   0.00151467  0.50075683  0.45062179
Direct configuration=    26
   0.66966256 -0.00001806  0.12069435
   0.33031838 -0.00001806  0.12069435
   0.00001806  0.33033644  0.12069435
   0.00001806  0.66968062  0.12069435
   0.33031838  0.33033644  0.12069435
   0.66966256  0.66968062  0.12069435
   0.66666600  0.33333300  0.12089510
   0.33333300  0.66666600  0.12469743
   0.33709190  0.16854595  0.44955208
   0.49922094 -0.00155811  0.44921615
   0.33333267  0.66666633  0.44884802
   0.49922094  0.50077806  0.44921615
   0.83145305  0.16854595  0.44955208
   0.99999967  0.99999933  0.44988864
   0.83145305  0.66290710  0.44955208
   0.00155711  0.50077806  0.44921615
Direct configuration=    27
   0.66966059 -0.00002182  0.12341734
   0.33031660 -0.00002182  0.12341734
   0.00002182  0.33033841  0.12341734
   0.00002182  0.66968240  0.12341734
   0.33031660  0.33033841  0.12341734
   0.66966059  0.66968240  0.12341734
   0.66666600  0.33333300  0.12374322
   0.33333300  0.66666600  0.12784052
   0.33730896  0.16865448  0.44678205
   0.49917850 -0.00164300  0.44640487
   0.33333267  0.66666633  0.44599205
   0.49917850  0.50082050  0.44640487
   0.83134452  0.16865448  0.44678205
   0.99999967  0.99999933  0.44715939
   0.83134452  0.66269004  0.44678205
   0.00164200  0.50082050  0.44640487
Direct configuration=    28
   0.66965664 -0.00002933  0.12886332
   0.33031303 -0.00002933  0.12886332
   0.00002933  0.33034236  0.12886332
   0.00002933  0.66968597  0.12886332
   0.33031303  0.33034236  0.12886332
   0.66965664  0.66968597  0.12886332
   0.66666600  0.33333300  0.12943944
   0.33333300  0.66666600  0.13412670
   0.33774307  0.16887154  0.44124199
   0.49909361 -0.00181277  0.44078233
   0.33333267  0.66666633  0.44028009
   0.49909361  0.50090539  0.44078233
   0.83112746  0.16887154  0.44124199
   0.99999967  0.99999933  0.44170090
   0.83112746  0.66225593  0.44124199
   0.00181177  0.50090539  0.44078233
Direct configuration=    29
   0.66964876 -0.00004435  0.13975528
   0.33030589 -0.00004435  0.13975528
   0.00004435  0.33035024  0.13975528
   0.00004435  0.66969311  0.13975528
   0.33030589  0.33035024  0.13975528
   0.66964876  0.66969311  0.13975528
   0.66666600  0.33333300  0.14083190
   0.33333300  0.66666600  0.14669906
   0.33861130  0.16930565  0.43016186
   0.49892384 -0.00215232  0.42953723
   0.33333267  0.66666633  0.42885619
   0.49892384  0.50107516  0.42953723
   0.83069335  0.16930565  0.43016186
   0.99999967  0.99999933  0.43078392
   0.83069335  0.66138770  0.43016186
   0.00215132  0.50107516  0.42953723
Direct configuration=    30
   0.66963299 -0.00007440  0.16153919
   0.33029161 -0.00007440  0.16153919
   0.00007440  0.33036601  0.16153919
   0.00007440  0.66970739  0.16153919
   0.33029161  0.33036601  0.16153919
   0.66963299  0.66970739  0.16153919
   0.66666600  0.33333300  0.16361682
   0.33333300  0.66666600  0.17184377
   0.34034776  0.17017388  0.40800161
   0.49858429 -0.00283142  0.40704704
   0.33333267  0.66666633  0.40600838
   0.49858429  0.50141471  0.40704704
   0.82982512  0.17017388  0.40800161
   0.99999967  0.99999933  0.40894994
   0.82982512  0.65965124  0.40800161
   0.00283042  0.50141471  0.40704704
Direct configuration=    31
   0.66960893 -0.00009573  0.16623426
   0.33029433 -0.00009573  0.16623426
   0.00009573  0.33039007  0.16623426
   0.00009573  0.66970467  0.16623426
   0.33029433  0.33039007  0.16623426
   0.66960893  0.66970467  0.16623426
   0.66666600  0.33333300  0.16851324
   0.33333300  0.66666600  0.17724709
   0.34014657  0.17007329  0.40322400
   0.49863703 -0.00272593  0.40220968
   0.33333267  0.66666633  0.40110426
   0.49863703  0.50136197  0.40220968
   0.82992571  0.17007329  0.40322400
   0.99999967  0.99999933  0.40422883
   0.82992571  0.65985243  0.40322400
   0.00272493  0.50136197  0.40220968
Direct configuration=    32
   0.66961019 -0.00009461  0.16598862
   0.33029419 -0.00009461  0.16598862
   0.00009461  0.33038881  0.16598862
   0.00009461  0.66970481  0.16598862
   0.33029419  0.33038881  0.16598862
   0.66961019  0.66970481  0.16598862
   0.66666600  0.33333300  0.16825707
   0.33333300  0.66666600  0.17696440
   0.34015710  0.17007855  0.40347396
   0.49863427 -0.00273145  0.40246276
   0.33333267  0.66666633  0.40136084
   0.49863427  0.50136473  0.40246276
   0.82992045  0.17007855  0.40347396
   0.99999967  0.99999933  0.40447583
   0.82992045  0.65984190  0.40347396
   0.00273045  0.50136473  0.40246276
Direct configuration=    33
   0.66958898 -0.00011053  0.16587351
   0.33029948 -0.00011053  0.16587351
   0.00011053  0.33041002  0.16587351
   0.00011053  0.66969952  0.16587351
   0.33029948  0.33041002  0.16587351
   0.66958898  0.66969952  0.16587351
   0.66666600  0.33333300  0.16812169
   0.33333300  0.66666600  0.17681488
   0.33960911  0.16980456  0.40358945
   0.49875399 -0.00249203  0.40259236
   0.33333267  0.66666633  0.40150204
   0.49875399  0.50124501  0.40259236
   0.83019444  0.16980456  0.40358945
   0.99999967  0.99999933  0.40457493
   0.83019444  0.66038989  0.40358945
   0.00249103  0.50124501  0.40259236
Direct configuration=    34
   0.66952536 -0.00015829  0.16552818
   0.33031536 -0.00015829  0.16552818
   0.00015829  0.33047364  0.16552818
   0.00015829  0.66968364  0.16552818
   0.33031536  0.33047364  0.16552818
   0.66952536  0.66968364  0.16552818
   0.66666600  0.33333300  0.16771556
   0.33333300  0.66666600  0.17636634
   0.33796516  0.16898258  0.40393592
   0.49911312 -0.00177375  0.40298113
   0.33333267  0.66666633  0.40192564
   0.49911312  0.50088588  0.40298113
   0.83101642  0.16898258  0.40393592
   0.99999967  0.99999933  0.40487221
   0.83101642  0.66203384  0.40393592
   0.00177275  0.50088588  0.40298113
Direct configuration=    35
   0.66939810 -0.00025379  0.16483753
   0.33034711 -0.00025379  0.16483753
   0.00025379  0.33060090  0.16483753
   0.00025379  0.66965189  0.16483753
   0.33034711  0.33060090  0.16483753
   0.66939810  0.66965189  0.16483753
   0.66666600  0.33333300  0.16690329
   0.33333300  0.66666600  0.17546925
   0.33467726  0.16733863  0.40462887
   0.49983140 -0.00033721  0.40375868
   0.33333267  0.66666633  0.40277285
   0.49983140  0.50016760  0.40375868
   0.83266037  0.16733863  0.40462887
   0.99999967  0.99999933  0.40546678
   0.83266037  0.66532174  0.40462887
   0.00033621  0.50016760  0.40375868
Direct configuration=    36
   0.66934548 -0.00029328  0.16455197
   0.33036024 -0.00029328  0.16455197
   0.00029328  0.33065352  0.16455197
   0.00029328  0.66963876  0.16455197
   0.33036024  0.33065352  0.16455197
   0.66934548  0.66963876  0.16455197
   0.66666600  0.33333300  0.16656745
   0.33333300  0.66666600  0.17509833
   0.33331783  0.16665891  0.40491538
   0.50012838  0.00025675  0.40408016
   0.33333267  0.66666633  0.40312314
   0.50012838  0.49987062  0.40408016
   0.83334009  0.16665891  0.40491538
   0.99999967  0.99999933  0.40571262
   0.83334009  0.66668117  0.40491538
  -0.00025775  0.49987062  0.40408016
Direct configuration=    37
   0.66934657 -0.00029247  0.16455785
   0.33035997 -0.00029247  0.16455785
   0.00029247  0.33065243  0.16455785
   0.00029247  0.66963903  0.16455785
   0.33035997  0.33065243  0.16455785
   0.66934657  0.66963903  0.16455785
   0.66666600  0.33333300  0.16657436
   0.33333300  0.66666600  0.17510596
   0.33334582  0.16667291  0.40490948
   0.50012226  0.00024453  0.40407355
   0.33333267  0.66666633  0.40311593
   0.50012226  0.49987674  0.40407355
   0.83332609  0.16667291  0.40490948
   0.99999967  0.99999933  0.40570756
   0.83332609  0.66665318  0.40490948
  -0.00024553  0.49987674  0.40407355
Direct configuration=    38
   0.66932475 -0.00030001  0.16456660
   0.33037425 -0.00030001  0.16456660
   0.00030001  0.33067425  0.16456660
   0.00030001  0.66962475  0.16456660
   0.33037425  0.33067425  0.16456660
   0.66932475  0.66962475  0.16456660
   0.66666600  0.33333300  0.16653574
   0.33333300  0.66666600  0.17506518
   0.33333038  0.16666519  0.40489569
   0.50010007  0.00020014  0.40409491
   0.33333267  0.66666633  0.40316976
   0.50010007  0.49989893  0.40409491
   0.83333381  0.16666519  0.40489569
   0.99999967  0.99999933  0.40565791
   0.83333381  0.66666862  0.40489569
  -0.00020114  0.49989893  0.40409491
Direct configuration=    39
   0.66925929 -0.00032263  0.16459285
   0.33041708 -0.00032263  0.16459285
   0.00032263  0.33073971  0.16459285
   0.00032263  0.66958192  0.16459285
   0.33041708  0.33073971  0.16459285
   0.66925929  0.66958192  0.16459285
   0.66666600  0.33333300  0.16641985
   0.33333300  0.66666600  0.17494281
   0.33328408  0.16664204  0.40485434
   0.50003349  0.00006698  0.40415900
   0.33333267  0.66666633  0.40333126
   0.50003349  0.49996551  0.40415900
   0.83335696  0.16664204  0.40485434
   0.99999967  0.99999933  0.40550898
   0.83335696  0.66671492  0.40485434
  -0.00006798  0.49996551  0.40415900
Direct configuration=    40
   0.66912838 -0.00036788  0.16464534
   0.33050274 -0.00036788  0.16464534
   0.00036788  0.33087062  0.16464534
   0.00036788  0.66949626  0.16464534
   0.33050274  0.33087062  0.16464534
   0.66912838  0.66949626  0.16464534
   0.66666600  0.33333300  0.16618808
   0.33333300  0.66666600  0.17469808
   0.33319148  0.16659574  0.40477163
   0.49990033 -0.00019934  0.40428718
   0.33333267  0.66666633  0.40365425
   0.49990033  0.50009867  0.40428718
   0.83340326  0.16659574  0.40477163
   0.99999967  0.99999933  0.40521112
   0.83340326  0.66680752  0.40477163
   0.00019834  0.50009867  0.40428718
Direct configuration=    41
   0.66886655 -0.00045838  0.16475032
   0.33067406 -0.00045838  0.16475032
   0.00045838  0.33113245  0.16475032
   0.00045838  0.66932494  0.16475032
   0.33067406  0.33113245  0.16475032
   0.66886655  0.66932494  0.16475032
   0.66666600  0.33333300  0.16572453
   0.33333300  0.66666600  0.17420863
   0.33300628  0.16650314  0.40460622
   0.49963401 -0.00073198  0.40454354
   0.33333267  0.66666633  0.40430024
   0.49963401  0.50036499  0.40454354
   0.83349586  0.16650314  0.40460622
   0.99999967  0.99999933  0.40461540
   0.83349586  0.66699272  0.40460622
   0.00073098  0.50036499  0.40454354
Direct configuration=    42
   0.66890660 -0.00042537  0.16478018
   0.33066703 -0.00042537  0.16478018
   0.00042537  0.33109240  0.16478018
   0.00042537  0.66933197  0.16478018
   0.33066703  0.33109240  0.16478018
   0.66890660  0.66933197  0.16478018
   0.66666600  0.33333300  0.16561311
   0.33333300  0.66666600  0.17409589
   0.33309290  0.16654645  0.40457474
   0.49972472 -0.00055057  0.40458716
   0.33333267  0.66666633  0.40441776
   0.49972472  0.50027428  0.40458716
   0.83345255  0.16654645  0.40457474
   0.99999967  0.99999933  0.40450647
   0.83345255  0.66690610  0.40457474
   0.00054957  0.50027428  0.40458716
Direct configuration=    43
   0.66902673 -0.00032633  0.16486974
   0.33064595 -0.00032633  0.16486974
   0.00032633  0.33097227  0.16486974
   0.00032633  0.66935305  0.16486974
   0.33064595  0.33097227  0.16486974
   0.66902673  0.66935305  0.16486974
   0.66666600  0.33333300  0.16527884
   0.33333300  0.66666600  0.17375769
   0.33335275  0.16667638  0.40448032
   0.49999684 -0.00000633  0.40471802
   0.33333267  0.66666633  0.40477031
   0.49999684  0.50000216  0.40471802
   0.83332262  0.16667638  0.40448032
   0.99999967  0.99999933  0.40417970
   0.83332262  0.66664625  0.40448032
   0.00000533  0.50000216  0.40471802
Direct configuration=    44
   0.66907715 -0.00028475  0.16490734
   0.33063710 -0.00028475  0.16490734
   0.00028475  0.33092185  0.16490734
   0.00028475  0.66936190  0.16490734
   0.33063710  0.33092185  0.16490734
   0.66907715  0.66936190  0.16490734
   0.66666600  0.33333300  0.16513853
   0.33333300  0.66666600  0.17361574
   0.33346183  0.16673091  0.40444069
   0.50011106  0.00022211  0.40477295
   0.33333267  0.66666633  0.40491828
   0.50011106  0.49988794  0.40477295
   0.83326809  0.16673091  0.40444069
   0.99999967  0.99999933  0.40404254
   0.83326809  0.66653717  0.40444069
  -0.00022311  0.49988794  0.40477295
Direct configuration=    45
   0.66918284 -0.00024899  0.16494027
   0.33056717 -0.00024899  0.16494027
   0.00024899  0.33081616  0.16494027
   0.00024899  0.66943183  0.16494027
   0.33056717  0.33081616  0.16494027
   0.66918284  0.66943183  0.16494027
   0.66666600  0.33333300  0.16503682
   0.33333300  0.66666600  0.17351766
   0.33343023  0.16671511  0.40443632
   0.50009505  0.00019009  0.40477595
   0.33333267  0.66666633  0.40493688
   0.50009505  0.49990395  0.40477595
   0.83328389  0.16671511  0.40443632
   0.99999967  0.99999933  0.40403024
   0.83328389  0.66656877  0.40443632
  -0.00019109  0.49990395  0.40477595
Direct configuration=    46
   0.66949993 -0.00014168  0.16503907
   0.33035739 -0.00014168  0.16503907
   0.00014168  0.33049907  0.16503907
   0.00014168  0.66964161  0.16503907
   0.33035739  0.33049907  0.16503907
   0.66949993  0.66964161  0.16503907
   0.66666600  0.33333300  0.16473168
   0.33333300  0.66666600  0.17322342
   0.33333543  0.16666772  0.40442321
   0.50004702  0.00009404  0.40478495
   0.33333267  0.66666633  0.40499265
   0.50004702  0.49995198  0.40478495
   0.83333128  0.16666772  0.40442321
   0.99999967  0.99999933  0.40399336
   0.83333128  0.66666357  0.40442321
  -0.00009504  0.49995198  0.40478495
Direct configuration=    47
   0.67013410  0.00007294  0.16523667
   0.32993784  0.00007294  0.16523667
  -0.00007294  0.32986490  0.16523667
  -0.00007294  0.67006116  0.16523667
   0.32993784  0.32986490  0.16523667
   0.67013410  0.67006116  0.16523667
   0.66666600  0.33333300  0.16412141
   0.33333300  0.66666600  0.17263494
   0.33314584  0.16657292  0.40439699
   0.49995097 -0.00009806  0.40480296
   0.33333267  0.66666633  0.40510420
   0.49995097  0.50004803  0.40480296
   0.83342608  0.16657292  0.40439699