Lattice                                 
           1
     4.343117    2.507500    0.000000
    -4.343117    2.507500    0.000000
     0.000000    0.000000   15.000000
   B    C 
     2    14
Direct configuration=     1
   0.33833034  0.66916432  0.10000000
   0.67165522  0.33584146  0.10000000
   0.16373946  0.31999962  0.10000000
   0.32250218  0.16126397  0.10000000
   0.16376430  0.84376384  0.10000000
   0.84623863  0.16123684  0.10000000
   0.68749850  0.84373000  0.10000000
   0.84626736  0.68499594  0.10000000
   0.33333267  0.16666633  0.32553333
   0.49999967  0.99999933  0.32553333
   0.33333267  0.66666633  0.32553333
   0.49999967  0.49999933  0.32553333
   0.83333267  0.16666633  0.32553333
   0.99999967  0.99999933  0.32553333
   0.83333267  0.66666633  0.32553333
   0.99999967  0.49999933  0.32553333
Direct configuration=     2
   0.33834457  0.66917110  0.10016705
   0.67169407  0.33582006  0.09997895
   0.16781910  0.32816571  0.09994723
   0.33040043  0.16520924  0.10001766
   0.16785034  0.83967207  0.09994723
   0.84226146  0.16519482  0.10001717
   0.67933055  0.83966582  0.09994699
   0.84228718  0.67709293  0.10001716
   0.33337803  0.16668788  0.32554197
   0.50012593  0.00026908  0.32558294
   0.33332883  0.66666333  0.32532860
   0.50012593  0.49985810  0.32558293
   0.83331916  0.16669176  0.32553852
   0.00000496  0.00000311  0.32552944
   0.83331920  0.66662520  0.32553854
   0.99973561  0.49986843  0.32558429
Direct configuration=     3
   0.33833403  0.66916608  0.10004326
   0.67166528  0.33583592  0.09999455
   0.16479595  0.32211436  0.09998633
   0.32454756  0.16228566  0.10000457
   0.16482245  0.84270421  0.09998633
   0.84520868  0.16226183  0.10000445
   0.68538328  0.84267752  0.09998627
   0.84523663  0.68294933  0.10000444
   0.33334441  0.16667191  0.32553557
   0.50003236  0.00006919  0.32554618
   0.33333167  0.66666556  0.32548031
   0.50003236  0.49996276  0.32554618
   0.83332917  0.16667292  0.32553468
   0.00000104  0.00000031  0.32553233
   0.83332918  0.66665568  0.32553468
   0.99993129  0.49996543  0.32554653
Direct configuration=     4
   0.33833402  0.66916608  0.10004322
   0.67166527  0.33583592  0.09999455
   0.16479498  0.32211242  0.09998635
   0.32454569  0.16228472  0.10000457
   0.16482148  0.84270518  0.09998635
   0.84520962  0.16226089  0.10000444
   0.68538522  0.84267848  0.09998629
   0.84523757  0.68295121  0.10000444
   0.33334440  0.16667191  0.32553557
   0.50003233  0.00006912  0.32554617
   0.33333167  0.66666556  0.32548036
   0.50003233  0.49996279  0.32554617
   0.83332917  0.16667291  0.32553468
   0.00000104  0.00000031  0.32553233
   0.83332918  0.66665569  0.32553468
   0.99993135  0.49996547  0.32554652
Direct configuration=     5
   0.33833828  0.66916625  0.10014971
   0.67166903  0.33583234  0.09997659
   0.16479396  0.32211734  0.09996144
   0.32453474  0.16227370  0.10000948
   0.16481265  0.84269481  0.09996144
   0.84522453  0.16225852  0.10000910
   0.68537320  0.84268261  0.09996108
   0.84524099  0.68296603  0.10000910
   0.33335535  0.16667755  0.32554674
   0.50004310  0.00008946  0.32557207
   0.33333094  0.66666533  0.32535114
   0.50004310  0.49995297  0.32557207
   0.83332419  0.16667920  0.32554359
   0.00000339  0.00000136  0.32552627
   0.83332418  0.66664471  0.32554359
   0.99991367  0.49995650  0.32557325
Direct configuration=     6
   0.33833957  0.66916631  0.10018188
   0.67167017  0.33583125  0.09997117
   0.16479365  0.32211883  0.09995392
   0.32453144  0.16227037  0.10001096
   0.16480999  0.84269167  0.09995392
   0.84522904  0.16225781  0.10001051
   0.68536957  0.84268386  0.09995346
   0.84524203  0.68297050  0.10001051
   0.33335866  0.16667925  0.32555011
   0.50004635  0.00009561  0.32557990
   0.33333072  0.66666525  0.32531211
   0.50004635  0.49995000  0.32557989
   0.83332269  0.16668110  0.32554628
   0.00000410  0.00000168  0.32552444
   0.83332267  0.66664139  0.32554628
   0.99990833  0.49995379  0.32558133
Direct configuration=     7
   0.33831577  0.66916347  0.10024532
   0.67167003  0.33583862  0.09997512
   0.16482160  0.32209481  0.09996896
   0.32454340  0.16228024  0.09998724
   0.16481636  0.84271253  0.09996896
   0.84519680  0.16226922  0.09998642
   0.68541605  0.84269240  0.09996812
   0.84519654  0.68293474  0.09998642
   0.33333663  0.16666770  0.32557418
   0.50002182  0.00004638  0.32555998
   0.33333680  0.66666779  0.32526724
   0.50002179  0.49997578  0.32555999
   0.83333870  0.16666788  0.32556936
   0.00000025  0.00000030  0.32551870
   0.83333872  0.66666964  0.32556935
   0.99995406  0.49997718  0.32556132
Direct configuration=     8
   0.33832113  0.66916411  0.10023102
   0.67167006  0.33583696  0.09997423
   0.16481530  0.32210022  0.09996557
   0.32454071  0.16227801  0.09999259
   0.16481493  0.84270783  0.09996557
   0.84520407  0.16226665  0.09999185
   0.68540557  0.84269048  0.09996482
   0.84520679  0.68294280  0.09999184
   0.33334160  0.16667030  0.32556875
   0.50002735  0.00005747  0.32556447
   0.33333543  0.66666722  0.32527735
   0.50002733  0.49996997  0.32556447
   0.83333509  0.16667086  0.32556416
   0.00000112  0.00000061  0.32552000
   0.83333511  0.66666327  0.32556415
   0.99994376  0.49997191  0.32556583
Direct configuration=     9
   0.33834537  0.66916836  0.10028541
   0.67164795  0.33583023  0.09997811
   0.16476480  0.32210660  0.09998491
   0.32456291  0.16226489  0.09997175
   0.16476746  0.84267961  0.09998490
   0.84526190  0.16227765  0.09997052
   0.68535110  0.84269069  0.09998370
   0.84526556  0.68296311  0.09997051
   0.33335038  0.16667527  0.32558381
   0.50004249  0.00008194  0.32553910
   0.33333266  0.66666649  0.32525200
   0.50004255  0.49995953  0.32553910
   0.83332857  0.16667656  0.32557866
   0.00000664  0.00000280  0.32552545
   0.83332859  0.66665221  0.32557867
   0.99992640  0.49996272  0.32554005
Direct configuration=    10
   0.33833168  0.66916596  0.10025469
   0.67166044  0.33583403  0.09997592
   0.16479333  0.32210300  0.09997399
   0.32455037  0.16227230  0.09998352
   0.16479427  0.84269555  0.09997398
   0.84522923  0.16227144  0.09998257
   0.68538187  0.84269057  0.09997303
   0.84523237  0.68295164  0.09998256
   0.33334542  0.16667246  0.32557531
   0.50003394  0.00006812  0.32555343
   0.33333423  0.66666690  0.32526632
   0.50003395  0.49996542  0.32555343
   0.83333225  0.16667334  0.32557047
   0.00000352  0.00000156  0.32552237
   0.83333227  0.66665846  0.32557047
   0.99993620  0.49996791  0.32555461
Direct configuration=    11
   0.33832899  0.66916476  0.10027775
   0.67167436  0.33583060  0.09997503
   0.16481299  0.32212008  0.09998246
   0.32451766  0.16226243  0.09998062
   0.16481480  0.84268839  0.09998245
   0.84522100  0.16225714  0.09997929
   0.68537541  0.84268725  0.09998117
   0.84522000  0.68296957  0.09997929
   0.33336177  0.16668088  0.32557226
   0.50005054  0.00009992  0.32554167
   0.33333300  0.66666646  0.32526151
   0.50005052  0.49994985  0.32554167
   0.83332461  0.16668280  0.32556747
   0.00000691  0.00000309  0.32553411
   0.83332459  0.66664175  0.32556747
   0.99990819  0.49995371  0.32554246
Direct configuration=    12
   0.33833007  0.66916524  0.10026852
   0.67166879  0.33583197  0.09997538
   0.16480512  0.32211324  0.09997907
   0.32453074  0.16226638  0.09998178
   0.16480659  0.84269125  0.09997907
   0.84522430  0.16226286  0.09998060
   0.68537799  0.84268858  0.09997791
   0.84522495  0.68296240  0.09998060
   0.33335523  0.16667751  0.32557348
   0.50004390  0.00008720  0.32554637
   0.33333349  0.66666663  0.32526343
   0.50004389  0.49995608  0.32554637
   0.83332767  0.16667902  0.32556867
   0.00000555  0.00000248  0.32552941
   0.83332766  0.66664843  0.32556867
   0.99991940  0.49995939  0.32554732
Direct configuration=    13
   0.33833046  0.66916399  0.10028323
   0.67166745  0.33583170  0.09997318
   0.16480200  0.32210987  0.09998394
   0.32453389  0.16226733  0.09998551
   0.16480191  0.84269136  0.09998395
   0.84522336  0.16226501  0.09998396
   0.68537923  0.84268995  0.09998247
   0.84522204  0.68295850  0.09998397
   0.33335598  0.16667770  0.32556537
   0.50004184  0.00008326  0.32553923
   0.33333581  0.66666760  0.32526148
   0.50004184  0.49995841  0.32553923
   0.83333049  0.16667910  0.32556070
   0.00000530  0.00000256  0.32553984
   0.83333048  0.66665078  0.32556071
   0.99992326  0.49996154  0.32553989
Direct configuration=    14
   0.33833084  0.66916280  0.10029722
   0.67166617  0.33583145  0.09997108
   0.16479902  0.32210666  0.09998858
   0.32453689  0.16226823  0.09998907
   0.16479745  0.84269147  0.09998860
   0.84522247  0.16226706  0.09998715
   0.68538041  0.84269125  0.09998680
   0.84521927  0.68295478  0.09998719
   0.33335670  0.16667788  0.32555765
   0.50003989  0.00007950  0.32553243
   0.33333802  0.66666851  0.32525962
   0.50003989  0.49996063  0.32553243
   0.83333317  0.16667919  0.32555312
   0.00000505  0.00000264  0.32554977
   0.83333315  0.66665302  0.32555313
   0.99992694  0.49996359  0.32553281
Direct configuration=    15
   0.33832470  0.66916452  0.10030432
   0.67166037  0.33583159  0.09997294
   0.16480109  0.32210689  0.09999481
   0.32453343  0.16226442  0.09999611
   0.16479897  0.84268991  0.09999485
   0.84522311  0.16226571  0.09999374
   0.68537760  0.84268910  0.09999262
   0.84522263  0.68295609  0.09999378
   0.33334986  0.16667531  0.32555200
   0.50004559  0.00008060  0.32552601
   0.33333462  0.66666773  0.32525444
   0.50004559  0.49996354  0.32552601
   0.83333125  0.16667643  0.32554748
   0.00001101  0.00000478  0.32554371
   0.83333127  0.66665563  0.32554748
   0.99993424  0.49996640  0.32552638
Direct configuration=    16
   0.33831228  0.66916801  0.10031868
   0.67164862  0.33583188  0.09997670
   0.16480527  0.32210734  0.10000743
   0.32452643  0.16225672  0.10001038
   0.16480205  0.84268676  0.10000749
   0.84522441  0.16226298  0.10000708
   0.68537191  0.84268474  0.10000438
   0.84522943  0.68295875  0.10000714
   0.33333602  0.16667012  0.32554056
   0.50005715  0.00008282  0.32551300
   0.33332773  0.66666615  0.32524394
   0.50005714  0.49996943  0.32551301
   0.83332735  0.16667085  0.32553606
   0.00002306  0.00000912  0.32553142
   0.83332746  0.66666092  0.32553605
   0.99994901  0.49997207  0.32551335
Direct configuration=    17
   0.33831189  0.66916788  0.10031995
   0.67164822  0.33583175  0.09997732
   0.16480511  0.32210728  0.10000878
   0.32452609  0.16225646  0.10001180
   0.16480182  0.84268663  0.10000885
   0.84522415  0.16226286  0.10000841
   0.68537162  0.84268448  0.10000565
   0.84522926  0.68295870  0.10000847
   0.33333665  0.16667038  0.32553940
   0.50005715  0.00008294  0.32551174
   0.33332832  0.66666640  0.32524275
   0.50005714  0.49996943  0.32551174
   0.83332793  0.16667111  0.32553490
   0.00002303  0.00000916  0.32552991
   0.83332804  0.66666113  0.32553489
   0.99994891  0.49997208  0.32551210
Direct configuration=    18
   0.33831071  0.66916748  0.10032378
   0.67164701  0.33583137  0.09997919
   0.16480465  0.32210711  0.10001284
   0.32452506  0.16225567  0.10001607
   0.16480116  0.84268623  0.10001291
   0.84522336  0.16226247  0.10001240
   0.68537074  0.84268371  0.10000943
   0.84522875  0.68295856  0.10001246
   0.33333851  0.16667115  0.32553593
   0.50005715  0.00008327  0.32550796
   0.33333008  0.66666712  0.32523918
   0.50005715  0.49996946  0.32550796
   0.83332966  0.16667190  0.32553142
   0.00002296  0.00000930  0.32552539
   0.83332976  0.66666176  0.32553142
   0.99994862  0.49997210  0.32550833
Direct configuration=    19
   0.33830835  0.66916668  0.10033142
   0.67164460  0.33583061  0.09998293
   0.16480371  0.32210676  0.10002095
   0.32452301  0.16225408  0.10002462
   0.16479982  0.84268544  0.10002104
   0.84522179  0.16226171  0.10002037
   0.68536898  0.84268215  0.10001701
   0.84522774  0.68295827  0.10002045
   0.33334223  0.16667271  0.32552899
   0.50005717  0.00008395  0.32550039
   0.33333361  0.66666858  0.32523204
   0.50005717  0.49996950  0.32550040
   0.83333311  0.16667347  0.32552447
   0.00002280  0.00000958  0.32551635
   0.83333322  0.66666302  0.32552446
   0.99994803  0.49997216  0.32550079
Direct configuration=    20
   0.33830363  0.66916508  0.10034672
   0.67163978  0.33582908  0.09999040
   0.16480185  0.32210606  0.10003718
   0.32451892  0.16225092  0.10004171
   0.16479715  0.84268385  0.10003729
   0.84521864  0.16226018  0.10003631
   0.68536546  0.84267905  0.10003217
   0.84522572  0.68295770  0.10003641
   0.33334969  0.16667581  0.32551511
   0.50005719  0.00008530  0.32548526
   0.33334065  0.66667148  0.32521776
   0.50005719  0.49996959  0.32548527
   0.83334002  0.16667662  0.32551056
   0.00002250  0.00001014  0.32549826
   0.83334012  0.66666553  0.32551055
   0.99994684  0.49997228  0.32548572
Direct configuration=    21
   0.33829420  0.66916188  0.10037731
   0.67163012  0.33582602  0.10000535
   0.16479812  0.32210466  0.10006963
   0.32451072  0.16224459  0.10007588
   0.16479181  0.84268068  0.10006979
   0.84521235  0.16225711  0.10006819
   0.68535842  0.84267284  0.10006248
   0.84522167  0.68295656  0.10006835
   0.33336459  0.16668202  0.32548735
   0.50005723  0.00008800  0.32545501
   0.33335475  0.66667730  0.32518919
   0.50005725  0.49996977  0.32545501
   0.83335383  0.16668292  0.32548274
   0.00002188  0.00001125  0.32546209
   0.83335392  0.66667056  0.32548273
   0.99994448  0.49997252  0.32545557
Direct configuration=    22
   0.33827533  0.66915547  0.10043849
   0.67161082  0.33581990  0.10003525
   0.16479065  0.32210186  0.10013453
   0.32449432  0.16223192  0.10014424
   0.16478113  0.84267433  0.10013480
   0.84519976  0.16225099  0.10013196
   0.68534434  0.84266043  0.10012310
   0.84521358  0.68295427  0.10013222
   0.33339440  0.16669444  0.32543183
   0.50005732  0.00009339  0.32539449
   0.33338294  0.66668893  0.32513206
   0.50005736  0.49997012  0.32539450
   0.83338145  0.16669553  0.32542710
   0.00002065  0.00001348  0.32538975
   0.83338153  0.66668060  0.32542709
   0.99993975  0.49997299  0.32539528
Direct configuration=    23
   0.33827657  0.66915338  0.10044678
   0.67161147  0.33581860  0.10004195
   0.16478580  0.32209947  0.10014419
   0.32449373  0.16223330  0.10015327
   0.16477751  0.84267351  0.10014447
   0.84519702  0.16225015  0.10014032
   0.68534319  0.84266125  0.10013213
   0.84520892  0.68295144  0.10014060
   0.33339612  0.16669565  0.32542314
   0.50006101  0.00009509  0.32538636
   0.33338319  0.66668936  0.32512310
   0.50006105  0.49997157  0.32538637
   0.83338105  0.16669678  0.32541839
   0.00002435  0.00001505  0.32538004
   0.83338111  0.66667959  0.32541839
   0.99994325  0.49997446  0.32538717
Direct configuration=    24
   0.33828028  0.66914711  0.10047166
   0.67161341  0.33581468  0.10006207
   0.16477126  0.32209232  0.10017315
   0.32449196  0.16223742  0.10018036
   0.16476666  0.84267104  0.10017347
   0.84518882  0.16224765  0.10016541
   0.68533973  0.84266371  0.10015921
   0.84519492  0.68294298  0.10016574
   0.33340130  0.16669926  0.32539707
   0.50007209  0.00010020  0.32536198
   0.33338395  0.66669066  0.32509620
   0.50007211  0.49997590  0.32536198
   0.83337983  0.16670055  0.32539228
   0.00003545  0.00001977  0.32535093
   0.83337984  0.66667655  0.32539228
   0.99995373  0.49997887  0.32536287
Direct configuration=    25
   0.33828770  0.66913456  0.10052143
   0.67161730  0.33580684  0.10010230
   0.16474217  0.32207801  0.10023108
   0.32448841  0.16224566  0.10023454
   0.16474495  0.84266611  0.10023148
   0.84517240  0.16224265  0.10021559
   0.68533281  0.84266863  0.10021338
   0.84516694  0.68292604  0.10021602
   0.33341165  0.16670649  0.32534493
   0.50009425  0.00011041  0.32531322
   0.33338547  0.66669325  0.32504242
   0.50009424  0.49998457  0.32531321
   0.83337741  0.16670807  0.32534006
   0.00005765  0.00002921  0.32529271
   0.83337731  0.66667047  0.32534006
   0.99997469  0.49998771  0.32531425
Direct configuration=    26
   0.33828426  0.66913496  0.10052559
   0.67161590  0.33580563  0.10011399
   0.16474383  0.32207865  0.10023639
   0.32448451  0.16224356  0.10023772
   0.16474599  0.84266500  0.10023680
   0.84517022  0.16224080  0.10021838
   0.68533123  0.84266708  0.10021829
   0.84516681  0.68292773  0.10021882
   0.33340943  0.16670546  0.32533818
   0.50009549  0.00011002  0.32530960
   0.33338630  0.66669380  0.32503589
   0.50009548  0.49998605  0.32530959
   0.83337952  0.16670691  0.32533332
   0.00005926  0.00002993  0.32529019
   0.83337946  0.66667399  0.32533332
   0.99997762  0.49998910  0.32531059
Direct configuration=    27
   0.33827395  0.66913617  0.10053808
   0.67161170  0.33580201  0.10014905
   0.16474882  0.32208056  0.10025232
   0.32447282  0.16223727  0.10024726
   0.16474913  0.84266169  0.10025277
   0.84516367  0.16223523  0.10022677
   0.68532649  0.84266242  0.10023300
   0.84516643  0.68293279  0.10022723
   0.33340279  0.16670237  0.32531792
   0.50009922  0.00010886  0.32529873
   0.33338880  0.66669545  0.32501631
   0.50009922  0.49999051  0.32529873
   0.83338585  0.16670342  0.32531311
   0.00006410  0.00003210  0.32528264
   0.83338594  0.66668454  0.32531311
   0.99998641  0.49999329  0.32529963
Direct configuration=    28
   0.33825333  0.66913859  0.10056305
   0.67160330  0.33579478  0.10021918
   0.16475878  0.32208438  0.10028418
   0.32444944  0.16222468  0.10026636
   0.16475540  0.84265505  0.10028469
   0.84515058  0.16222409  0.10024355
   0.68531700  0.84265310  0.10026243
   0.84516566  0.68294292  0.10024406
   0.33338950  0.16669619  0.32527742
   0.50010667  0.00010652  0.32527700
   0.33339378  0.66669875  0.32497715
   0.50010669  0.49999943  0.32527701
   0.83339852  0.16669644  0.32527269
   0.00007379  0.00003643  0.32526752
   0.83339888  0.66670565  0.32527269
   0.00000401  0.50000167  0.32527769
Direct configuration=    29
   0.33826563  0.66913715  0.10054816
   0.67160831  0.33579909  0.10017736
   0.16475284  0.32208210  0.10026518
   0.32446339  0.16223219  0.10025497
   0.16475166  0.84265901  0.10026565
   0.84515839  0.16223073  0.10023354
   0.68532266  0.84265866  0.10024488
   0.84516612  0.68293688  0.10023402
   0.33339742  0.16669988  0.32530158
   0.50010223  0.00010791  0.32528996
   0.33339081  0.66669678  0.32500050
   0.50010223  0.49999411  0.32528996
   0.83339097  0.16670060  0.32529680
   0.00006801  0.00003384  0.32527653
   0.83339116  0.66669306  0.32529680
  -0.00000649  0.49999667  0.32529077
Direct configuration=    30
   0.33826798  0.66913445  0.10055651
   0.67160027  0.33580057  0.10020326
   0.16473740  0.32207818  0.10026975
   0.32447330  0.16223198  0.10026189
   0.16473870  0.84265934  0.10027023
   0.84516749  0.16223379  0.10023980
   0.68531497  0.84265816  0.10024871
   0.84517057  0.68292994  0.10024029
   0.33341169  0.16670630  0.32529247
   0.50010129  0.00011076  0.32528132
   0.33339739  0.66669924  0.32499160
   0.50010131  0.49999199  0.32528132
   0.83339435  0.16670738  0.32528771
   0.00006610  0.00003376  0.32527207
   0.83339441  0.66668800  0.32528771
  -0.00001187  0.49999481  0.32528203
Direct configuration=    31
   0.33826887  0.66913343  0.10055966
   0.67159725  0.33580112  0.10021302
   0.16473158  0.32207670  0.10027147
   0.32447703  0.16223190  0.10026450
   0.16473382  0.84265947  0.10027195
   0.84517091  0.16223494  0.10024216
   0.68531207  0.84265798  0.10025015
   0.84517225  0.68292733  0.10024266
   0.33341706  0.16670873  0.32528904
   0.50010093  0.00011184  0.32527806
   0.33339987  0.66670016  0.32498825
   0.50010096  0.49999119  0.32527806
   0.83339563  0.16670993  0.32528429
   0.00006538  0.00003373  0.32527038
   0.83339563  0.66668610  0.32528429
  -0.00001389  0.49999411  0.32527873
Direct configuration=    32
   0.33826564  0.66913027  0.10056773
   0.67159987  0.33580128  0.10023612
   0.16473488  0.32207302  0.10027125
   0.32447411  0.16223616  0.10027267
   0.16473505  0.84266177  0.10027175
   0.84516201  0.16223416  0.10024975
   0.68531765  0.84265619  0.10024927
   0.84515789  0.68292148  0.10025026
   0.33342636  0.16671347  0.32528459
   0.50010437  0.00011605  0.32526825
   0.33340177  0.66670105  0.32498325
   0.50010436  0.49999047  0.32526826
   0.83339435  0.16671500  0.32527985
   0.00006773  0.00003498  0.32526497
   0.83339424  0.66667973  0.32527985
  -0.00001498  0.49999358  0.32526883
Direct configuration=    33
   0.33826404  0.66912870  0.10057176
   0.67160118  0.33580136  0.10024764
   0.16473653  0.32207119  0.10027115
   0.32447266  0.16223828  0.10027675
   0.16473566  0.84266291  0.10027165
   0.84515758  0.16223377  0.10025353
   0.68532044  0.84265530  0.10024884
   0.84515074  0.68291856  0.10025405
   0.33343100  0.16671584  0.32528237
   0.50010608  0.00011815  0.32526337
   0.33340272  0.66670150  0.32498076
   0.50010606  0.49999011  0.32526337
   0.83339372  0.16671752  0.32527763
   0.00006890  0.00003560  0.32526227
   0.83339355  0.66667656  0.32527764
  -0.00001552  0.49999331  0.32526389
Direct configuration=    34
   0.33826345  0.66913034  0.10057486
   0.67159974  0.33579767  0.10025578
   0.16473450  0.32207417  0.10027008
   0.32446815  0.16223332  0.10028156
   0.16473363  0.84265841  0.10027059
   0.84515772  0.16223027  0.10025805
   0.68531373  0.84265607  0.10024746
   0.84515892  0.68292521  0.10025857
   0.33341907  0.16671048  0.32528183
   0.50010951  0.00011631  0.32525856
   0.33340023  0.66670106  0.32497886
   0.50010950  0.49999404  0.32525857
   0.83339525  0.16671175  0.32527706
   0.00007351  0.00003717  0.32525872
   0.83339526  0.66668539  0.32527707
  -0.00000683  0.49999701  0.32525907
Direct configuration=    35
   0.33826347  0.66913029  0.10057477
   0.67159978  0.33579778  0.10025554
   0.16473456  0.32207409  0.10027011
   0.32446828  0.16223347  0.10028142
   0.16473369  0.84265854  0.10027062
   0.84515772  0.16223037  0.10025792
   0.68531393  0.84265605  0.10024750
   0.84515868  0.68292502  0.10025844
   0.33341942  0.16671063  0.32528185
   0.50010941  0.00011636  0.32525870
   0.33340030  0.66670107  0.32497891
   0.50010940  0.49999392  0.32525871
   0.83339520  0.16671192  0.32527708
   0.00007338  0.00003713  0.32525882
   0.83339521  0.66668513  0.32527708
  -0.00000708  0.49999690  0.32525921
Direct configuration=    36
   0.33826237  0.66913057  0.10057440
   0.67159871  0.33579783  0.10025526
   0.16473421  0.32207399  0.10027046
   0.32446705  0.16223240  0.10028251
   0.16473477  0.84265834  0.10027096
   0.84515826  0.16223037  0.10025891
   0.68531309  0.84265524  0.10024774
   0.84515815  0.68292506  0.10025943
   0.33342035  0.16671075  0.32528183
   0.50010754  0.00011513  0.32525827
   0.33340272  0.66670196  0.32497789
   0.50010754  0.49999399  0.32525827
   0.83339824  0.16671198  0.32527703
   0.00007184  0.00003670  0.32525788
   0.83339825  0.66668744  0.32527704
  -0.00000777  0.49999691  0.32525879
