<?xml version="1.0" encoding="ISO-8859-1"?>
<modeling>
 <generator>
  <i name="program" type="string">vasp </i>
  <i name="version" type="string">5.4.4.18Apr17-6-g9f103f2a35  </i>
  <i name="subversion" type="string">(build Mar 30 2023 15:39:25) complex            parallel </i>
  <i name="platform" type="string">LinuxIFC </i>
  <i name="date" type="string">2023 08 23 </i>
  <i name="time" type="string">05:24:34 </i>
 </generator>
 <incar>
  <i type="string" name="SYSTEM"> Lattice</i>
  <i type="int" name="ISTART">     0</i>
  <i type="string" name="PREC">accurate</i>
  <i type="string" name="ALGO"> Normal</i>
  <i type="int" name="ISPIN">     2</i>
  <i type="int" name="ICHARG">     2</i>
  <i type="int" name="NELM">    64</i>
  <i type="int" name="IBRION">     2</i>
  <i name="EDIFF">      0.00000100</i>
  <i name="EDIFFG">     -0.00100000</i>
  <i type="int" name="NSW">   128</i>
  <i type="int" name="ISIF">     2</i>
  <i name="ENCUT">    450.00000000</i>
  <i name="POTIM">      0.50000000</i>
  <i type="int" name="ISMEAR">     0</i>
  <i name="SIGMA">      0.10000000</i>
  <i type="logical" name="LWAVE"> F  </i>
  <i type="logical" name="LCHARG"> F  </i>
  <v type="int" name="KPOINT_BSE">    -1     0     0     0</v>
  <i type="int" name="NELM">    64</i>
  <i type="string" name="GGA"> PE</i>
 </incar>
 <structure name="primitive_cell" >
  <crystal>
   <varray name="basis" >
    <v>       4.36390201       2.51950000       0.00000000 </v>
    <v>      -4.36390201       2.51950000       0.00000000 </v>
    <v>       0.00000000       0.00000000      15.00000000 </v>
   </varray>
   <i name="volume">    329.84553340 </i>
   <varray name="rec_basis" >
    <v>       0.11457636       0.19845207       0.00000000 </v>
    <v>      -0.11457636       0.19845207       0.00000000 </v>
    <v>       0.00000000       0.00000000       0.06666667 </v>
   </varray>
  </crystal>
  <varray name="positions" >
   <v>       0.33833034      -0.33083568       0.10000000 </v>
   <v>       0.16373946       0.31999962       0.10000000 </v>
   <v>       0.16376430      -0.15623616       0.10000000 </v>
   <v>      -0.31250150      -0.15627000       0.10000000 </v>
   <v>      -0.15373264      -0.31500406       0.10000000 </v>
   <v>       0.32250218       0.16126397       0.10000000 </v>
   <v>      -0.15376137       0.16123684       0.10000000 </v>
   <v>      -0.32834478       0.33584146       0.10000000 </v>
   <v>       0.33333267      -0.33333367       0.32553333 </v>
   <v>       0.49999967       0.49999933       0.32553333 </v>
   <v>       0.49999967      -0.00000067       0.32553333 </v>
   <v>      -0.00000033       0.49999933       0.32553333 </v>
   <v>      -0.16666733      -0.33333367       0.32553333 </v>
   <v>      -0.16666733       0.16666633       0.32553333 </v>
   <v>       0.33333267       0.16666633       0.32553333 </v>
   <v>      -0.00000033      -0.00000067       0.32553333 </v>
  </varray>
 </structure>
 <varray name="primitive_index" >
  <v type="int" >        1 </v>
  <v type="int" >        3 </v>
  <v type="int" >        5 </v>
  <v type="int" >        7 </v>
  <v type="int" >        8 </v>
  <v type="int" >        4 </v>
  <v type="int" >        6 </v>
  <v type="int" >        2 </v>
  <v type="int" >       11 </v>
  <v type="int" >       12 </v>
  <v type="int" >       10 </v>
  <v type="int" >       16 </v>
  <v type="int" >       15 </v>
  <v type="int" >       13 </v>
  <v type="int" >        9 </v>
  <v type="int" >       14 </v>
 </varray>
 <kpoints>
  <generation param="Gamma">
   <v type="int" name="divisions">      12       12        1 </v>
   <v name="usershift">      0.00000000       0.00000000       0.00000000 </v>
   <v name="genvec1">      0.08333333       0.00000000       0.00000000 </v>
   <v name="genvec2">      0.00000000       0.08333333       0.00000000 </v>
   <v name="genvec3">      0.00000000       0.00000000       1.00000000 </v>
   <v name="shift">      0.00000000       0.00000000       0.00000000 </v>
  </generation>
  <varray name="kpointlist" >
   <v>       0.00000000       0.00000000       0.00000000 </v>
   <v>       0.08333333      -0.00000000       0.00000000 </v>
   <v>       0.16666667      -0.00000000       0.00000000 </v>
   <v>       0.25000000      -0.00000000       0.00000000 </v>
   <v>       0.33333333       0.00000000       0.00000000 </v>
   <v>       0.41666667      -0.00000000       0.00000000 </v>
   <v>       0.50000000      -0.00000000       0.00000000 </v>
   <v>      -0.00000000       0.08333333       0.00000000 </v>
   <v>       0.08333333       0.08333333       0.00000000 </v>
   <v>       0.16666667       0.08333333       0.00000000 </v>
   <v>       0.25000000       0.08333333       0.00000000 </v>
   <v>       0.33333333       0.08333333       0.00000000 </v>
   <v>       0.41666667       0.08333333       0.00000000 </v>
   <v>       0.50000000       0.08333333       0.00000000 </v>
   <v>      -0.41666667       0.08333333       0.00000000 </v>
   <v>      -0.33333333       0.08333333       0.00000000 </v>
   <v>      -0.25000000       0.08333333       0.00000000 </v>
   <v>      -0.16666667       0.08333333       0.00000000 </v>
   <v>      -0.08333333       0.08333333       0.00000000 </v>
   <v>      -0.00000000       0.16666667       0.00000000 </v>
   <v>       0.08333333       0.16666667       0.00000000 </v>
   <v>       0.16666667       0.16666667       0.00000000 </v>
   <v>       0.25000000       0.16666667       0.00000000 </v>
   <v>       0.33333333       0.16666667       0.00000000 </v>
   <v>       0.41666667       0.16666667       0.00000000 </v>
   <v>       0.50000000       0.16666667       0.00000000 </v>
   <v>      -0.41666667       0.16666667       0.00000000 </v>
   <v>      -0.33333333       0.16666667       0.00000000 </v>
   <v>      -0.25000000       0.16666667       0.00000000 </v>
   <v>      -0.16666667       0.16666667       0.00000000 </v>
   <v>      -0.08333333       0.16666667       0.00000000 </v>
   <v>      -0.00000000       0.25000000       0.00000000 </v>
   <v>       0.08333333       0.25000000       0.00000000 </v>
   <v>       0.16666667       0.25000000       0.00000000 </v>
   <v>       0.25000000       0.25000000       0.00000000 </v>
   <v>       0.33333333       0.25000000       0.00000000 </v>
   <v>       0.41666667       0.25000000       0.00000000 </v>
   <v>       0.50000000       0.25000000       0.00000000 </v>
   <v>      -0.41666667       0.25000000       0.00000000 </v>
   <v>      -0.33333333       0.25000000       0.00000000 </v>
   <v>      -0.25000000       0.25000000       0.00000000 </v>
   <v>      -0.16666667       0.25000000       0.00000000 </v>
   <v>      -0.08333333       0.25000000       0.00000000 </v>
   <v>       0.00000000       0.33333333       0.00000000 </v>
   <v>       0.08333333       0.33333333       0.00000000 </v>
   <v>       0.16666667       0.33333333       0.00000000 </v>
   <v>       0.25000000       0.33333333       0.00000000 </v>
   <v>       0.33333333       0.33333333       0.00000000 </v>
   <v>       0.41666667       0.33333333       0.00000000 </v>
   <v>       0.50000000       0.33333333       0.00000000 </v>
   <v>      -0.41666667       0.33333333       0.00000000 </v>
   <v>      -0.33333333       0.33333333       0.00000000 </v>
   <v>      -0.25000000       0.33333333       0.00000000 </v>
   <v>      -0.16666667       0.33333333       0.00000000 </v>
   <v>      -0.08333333       0.33333333       0.00000000 </v>
   <v>      -0.00000000       0.41666667       0.00000000 </v>
   <v>       0.08333333       0.41666667       0.00000000 </v>
   <v>       0.16666667       0.41666667       0.00000000 </v>
   <v>       0.25000000       0.41666667       0.00000000 </v>
   <v>       0.33333333       0.41666667       0.00000000 </v>
   <v>       0.41666667       0.41666667       0.00000000 </v>
   <v>       0.50000000       0.41666667       0.00000000 </v>
   <v>      -0.41666667       0.41666667       0.00000000 </v>
   <v>      -0.33333333       0.41666667       0.00000000 </v>
   <v>      -0.25000000       0.41666667       0.00000000 </v>
   <v>      -0.16666667       0.41666667       0.00000000 </v>
   <v>      -0.08333333       0.41666667       0.00000000 </v>
   <v>      -0.00000000       0.50000000       0.00000000 </v>
   <v>       0.08333333       0.50000000       0.00000000 </v>
   <v>       0.16666667       0.50000000       0.00000000 </v>
   <v>       0.25000000       0.50000000       0.00000000 </v>
   <v>       0.33333333       0.50000000       0.00000000 </v>
   <v>       0.41666667       0.50000000       0.00000000 </v>
   <v>       0.50000000       0.50000000       0.00000000 </v>
  </varray>
  <varray name="weights" >
   <v>       0.00694444 </v>
   <v>       0.01388889 </v>
   <v>       0.01388889 </v>
   <v>       0.01388889 </v>
   <v>       0.01388889 </v>
   <v>       0.01388889 </v>
   <v>       0.00694444 </v>
   <v>       0.01388889 </v>
   <v>       0.01388889 </v>
   <v>       0.01388889 </v>
   <v>       0.01388889 </v>
   <v>       0.01388889 </v>
   <v>       0.01388889 </v>
   <v>       0.01388889 </v>
   <v>       0.01388889 </v>
   <v>       0.01388889 </v>
   <v>       0.01388889 </v>
   <v>       0.01388889 </v>
   <v>       0.01388889 </v>
   <v>       0.01388889 </v>
   <v>       0.01388889 </v>
   <v>       0.01388889 </v>
   <v>       0.01388889 </v>
   <v>       0.01388889 </v>
   <v>       0.01388889 </v>
   <v>       0.01388889 </v>
   <v>       0.01388889 </v>
   <v>       0.01388889 </v>
   <v>       0.01388889 </v>
   <v>       0.01388889 </v>
   <v>       0.01388889 </v>
   <v>       0.01388889 </v>
   <v>       0.01388889 </v>
   <v>       0.01388889 </v>
   <v>       0.01388889 </v>
   <v>       0.01388889 </v>
   <v>       0.01388889 </v>
   <v>       0.01388889 </v>
   <v>       0.01388889 </v>
   <v>       0.01388889 </v>
   <v>       0.01388889 </v>
   <v>       0.01388889 </v>
   <v>       0.01388889 </v>
   <v>       0.01388889 </v>
   <v>       0.01388889 </v>
   <v>       0.01388889 </v>
   <v>       0.01388889 </v>
   <v>       0.01388889 </v>
   <v>       0.01388889 </v>
   <v>       0.01388889 </v>
   <v>       0.01388889 </v>
   <v>       0.01388889 </v>
   <v>       0.01388889 </v>
   <v>       0.01388889 </v>
   <v>       0.01388889 </v>
   <v>       0.01388889 </v>
   <v>       0.01388889 </v>
   <v>       0.01388889 </v>
   <v>       0.01388889 </v>
   <v>       0.01388889 </v>
   <v>       0.01388889 </v>
   <v>       0.01388889 </v>
   <v>       0.01388889 </v>
   <v>       0.01388889 </v>
   <v>       0.01388889 </v>
   <v>       0.01388889 </v>
   <v>       0.01388889 </v>
   <v>       0.00694444 </v>
   <v>       0.01388889 </v>
   <v>       0.01388889 </v>
   <v>       0.01388889 </v>
   <v>       0.01388889 </v>
   <v>       0.01388889 </v>
   <v>       0.00694444 </v>
  </varray>
 </kpoints>
 <parameters>
  <separator name="general" >
   <i type="string" name="SYSTEM">Lattice</i>
   <i type="logical" name="LCOMPAT"> F  </i>
  </separator>
  <separator name="electronic" >
   <i type="string" name="PREC">accura</i>
   <i name="ENMAX">    450.00000000</i>
   <i name="ENAUG">    644.87300000</i>
   <i name="EDIFF">      0.00000100</i>
   <i type="int" name="IALGO">    38</i>
   <i type="int" name="IWAVPR">    11</i>
   <i type="int" name="NBANDS">    48</i>
   <i name="NELECT">     62.00000000</i>
   <i type="int" name="TURBO">     0</i>
   <i type="int" name="IRESTART">     0</i>
   <i type="int" name="NREBOOT">     0</i>
   <i type="int" name="NMIN">     0</i>
   <i name="EREF">      0.00000000</i>
   <separator name="electronic smearing" >
    <i type="int" name="ISMEAR">     0</i>
    <i name="SIGMA">      0.10000000</i>
    <i name="KSPACING">      0.50000000</i>
    <i type="logical" name="KGAMMA"> T  </i>
   </separator>
   <separator name="electronic projectors" >
    <i type="logical" name="LREAL"> F  </i>
    <v name="ROPT">      0.00000000      0.00000000</v>
    <i type="int" name="LMAXPAW">  -100</i>
    <i type="int" name="LMAXMIX">     2</i>
    <i type="logical" name="NLSPLINE"> F  </i>
   </separator>
   <separator name="electronic startup" >
    <i type="int" name="ISTART">     0</i>
    <i type="int" name="ICHARG">     2</i>
    <i type="int" name="INIWAV">     1</i>
   </separator>
   <separator name="electronic spin" >
    <i type="int" name="ISPIN">     2</i>
    <i type="logical" name="LNONCOLLINEAR"> F  </i>
    <v name="MAGMOM">      1.00000000      1.00000000      1.00000000      1.00000000      1.00000000      1.00000000      1.00000000      1.00000000      1.00000000      1.00000000      1.00000000      1.00000000      1.00000000      1.00000000      1.00000000      1.00000000</v>
    <i name="NUPDOWN">     -1.00000000</i>
    <i type="logical" name="LSORBIT"> F  </i>
    <v name="SAXIS">      0.00000000      0.00000000      1.00000000</v>
    <i type="logical" name="LSPIRAL"> F  </i>
    <v name="QSPIRAL">      0.00000000      0.00000000      0.00000000</v>
    <i type="logical" name="LZEROZ"> F  </i>
   </separator>
   <separator name="electronic exchange-correlation" >
    <i type="logical" name="LASPH"> F  </i>
    <i type="logical" name="LMETAGGA"> F  </i>
   </separator>
   <separator name="electronic convergence" >
    <i type="int" name="NELM">    64</i>
    <i type="int" name="NELMDL">    -5</i>
    <i type="int" name="NELMIN">     2</i>
    <i name="ENINI">    450.00000000</i>
    <separator name="electronic convergence detail" >
     <i type="logical" name="LDIAG"> T  </i>
     <i type="logical" name="LSUBROT"> F  </i>
     <i name="WEIMIN">      0.00100000</i>
     <i name="EBREAK">      0.00000001</i>
     <i name="DEPER">      0.30000000</i>
     <i type="int" name="NRMM">     4</i>
     <i name="TIME">      0.40000000</i>
    </separator>
   </separator>
   <separator name="electronic mixer" >
    <i name="AMIX">      0.40000000</i>
    <i name="BMIX">      1.00000000</i>
    <i name="AMIN">      0.10000000</i>
    <i name="AMIX_MAG">      1.60000000</i>
    <i name="BMIX_MAG">      1.00000000</i>
    <separator name="electronic mixer details" >
     <i type="int" name="IMIX">     4</i>
     <i type="logical" name="MIXFIRST"> F  </i>
     <i type="int" name="MAXMIX">   -45</i>
     <i name="WC">    100.00000000</i>
     <i type="int" name="INIMIX">     1</i>
     <i type="int" name="MIXPRE">     1</i>
     <i type="int" name="MREMOVE">     5</i>
    </separator>
   </separator>
   <separator name="electronic dipolcorrection" >
    <i type="logical" name="LDIPOL"> F  </i>
    <i type="logical" name="LMONO"> F  </i>
    <i type="int" name="IDIPOL">     0</i>
    <i name="EPSILON">      1.00000000</i>
    <v name="DIPOL">   -100.00000000   -100.00000000   -100.00000000</v>
    <i name="EFIELD">      0.00000000</i>
   </separator>
  </separator>
  <separator name="grids" >
   <i type="int" name="NGX">    36</i>
   <i type="int" name="NGY">    36</i>
   <i type="int" name="NGZ">   108</i>
   <i type="int" name="NGXF">    72</i>
   <i type="int" name="NGYF">    72</i>
   <i type="int" name="NGZF">   216</i>
   <i type="logical" name="ADDGRID"> F  </i>
  </separator>
  <separator name="ionic" >
   <i type="int" name="NSW">   128</i>
   <i type="int" name="IBRION">     2</i>
   <i type="int" name="MDALGO">     0</i>
   <i type="int" name="ISIF">     2</i>
   <i name="PSTRESS">      0.00000000</i>
   <i name="EDIFFG">     -0.00100000</i>
   <i type="int" name="NFREE">     1</i>
   <i name="POTIM">      0.50000000</i>
   <i name="SMASS">     -3.00000000</i>
   <i name="SCALEE">      1.00000000</i>
  </separator>
  <separator name="ionic md" >
   <i name="TEBEG">      0.00010000</i>
   <i name="TEEND">      0.00010000</i>
   <i type="int" name="NBLOCK">     1</i>
   <i type="int" name="KBLOCK">   128</i>
   <i type="int" name="NPACO">   256</i>
   <i name="APACO">     16.00000000</i>
  </separator>
  <separator name="symmetry" >
   <i type="int" name="ISYM">     2</i>
   <i name="SYMPREC">      0.00001000</i>
  </separator>
  <separator name="dos" >
   <i type="int" name="LORBIT">     0</i>
   <v name="RWIGS">     -1.00000000     -1.00000000</v>
   <i type="int" name="NEDOS">   301</i>
   <i name="EMIN">     10.00000000</i>
   <i name="EMAX">    -10.00000000</i>
   <i name="EFERMI">      0.00000000</i>
  </separator>
  <separator name="writing" >
   <i type="int" name="NWRITE">     2</i>
   <i type="logical" name="LWAVE"> F  </i>
   <i type="logical" name="LDOWNSAMPLE"> F  </i>
   <i type="logical" name="LCHARG"> F  </i>
   <i type="logical" name="LPARD"> F  </i>
   <i type="logical" name="LVTOT"> F  </i>
   <i type="logical" name="LVHAR"> F  </i>
   <i type="logical" name="LELF"> F  </i>
   <i type="logical" name="LOPTICS"> F  </i>
   <v name="STM">      0.00000000      0.00000000      0.00000000      0.00000000      0.00000000      0.00000000      0.00000000</v>
  </separator>
  <separator name="performance" >
   <i type="int" name="NPAR">    16</i>
   <i type="int" name="NSIM">     4</i>
   <i type="int" name="NBLK">    -1</i>
   <i type="logical" name="LPLANE"> T  </i>
   <i type="logical" name="LSCALAPACK"> T  </i>
   <i type="logical" name="LSCAAWARE"> F  </i>
   <i type="logical" name="LSCALU"> F  </i>
   <i type="logical" name="LASYNC"> F  </i>
   <i type="logical" name="LORBITALREAL"> F  </i>
  </separator>
  <separator name="miscellaneous" >
   <i type="int" name="IDIOT">     3</i>
   <i type="int" name="ISPECIAL">     0</i>
   <i type="logical" name="LMUSIC"> F  </i>
   <v name="POMASS">     10.81100000     12.01100000</v>
   <v name="DARWINR">      0.00000000      0.00000000</v>
   <v name="DARWINV">      1.00000000      1.00000000</v>
   <i type="logical" name="LCORR"> T  </i>
  </separator>
  <i type="logical" name="GGA_COMPAT"> T  </i>
  <i type="logical" name="LBERRY"> F  </i>
  <i type="int" name="ICORELEVEL">     0</i>
  <i type="logical" name="LDAU"> F  </i>
  <i type="int" name="I_CONSTRAINED_M">     0</i>
  <separator name="electronic exchange-correlation" >
   <i type="string" name="GGA">PE</i>
   <i type="int" name="VOSKOWN">     0</i>
   <i type="logical" name="LHFCALC"> F  </i>
   <i type="string" name="PRECFOCK"></i>
   <i type="logical" name="LSYMGRAD"> F  </i>
   <i type="logical" name="LHFONE"> F  </i>
   <i type="logical" name="LRHFCALC"> F  </i>
   <i type="logical" name="LTHOMAS"> F  </i>
   <i type="logical" name="LMODELHF"> F  </i>
   <i name="ENCUT4O">     -1.00000000</i>
   <i type="int" name="EXXOEP">     0</i>
   <i type="int" name="FOURORBIT">     0</i>
   <i name="AEXX">      0.00000000</i>
   <i name="HFALPHA">      0.00000000</i>
   <i name="MCALPHA">      0.00000000</i>
   <i name="ALDAX">      1.00000000</i>
   <i name="AGGAX">      1.00000000</i>
   <i name="ALDAC">      1.00000000</i>
   <i name="AGGAC">      1.00000000</i>
   <i type="int" name="NKREDX">     1</i>
   <i type="int" name="NKREDY">     1</i>
   <i type="int" name="NKREDZ">     1</i>
   <i type="logical" name="SHIFTRED"> F  </i>
   <i type="logical" name="ODDONLY"> F  </i>
   <i type="logical" name="EVENONLY"> F  </i>
   <i type="int" name="LMAXFOCK">     0</i>
   <i type="int" name="NMAXFOCKAE">     0</i>
   <i type="logical" name="LFOCKAEDFT"> F  </i>
   <i name="HFSCREEN">      0.00000000</i>
   <i name="HFSCREENC">      0.00000000</i>
   <i type="int" name="NBANDSGWLOW">     0</i>
  </separator>
  <separator name="vdW DFT" >
   <i type="logical" name="LUSE_VDW"> F  </i>
   <i name="Zab_VDW">     -0.84910000</i>
   <i name="PARAM1">      0.12340000</i>
   <i name="PARAM2">      1.00000000</i>
   <i name="PARAM3">      0.00000000</i>
  </separator>
  <separator name="model GW" >
   <i type="int" name="MODEL_GW">     0</i>
   <i name="MODEL_EPS0">     12.36920750</i>
   <i name="MODEL_ALPHA">      1.00000000</i>
  </separator>
  <separator name="linear response parameters" >
   <i type="logical" name="LEPSILON"> F  </i>
   <i type="logical" name="LRPA"> F  </i>
   <i type="logical" name="LNABLA"> F  </i>
   <i type="logical" name="LVEL"> F  </i>
   <i type="int" name="KINTER">     0</i>
   <i name="CSHIFT">      0.10000000</i>
   <i name="OMEGAMAX">     -1.00000000</i>
   <i name="DEG_THRESHOLD">      0.00200000</i>
   <i name="RTIME">     -0.10000000</i>
   <i name="WPLASMAI">      0.00000000</i>
   <v name="DFIELD">      0.00000000      0.00000000      0.00000000</v>
   <v name="WPLASMA">      0.00000000      0.00000000      0.00000000      0.00000000      0.00000000      0.00000000      0.00000000      0.00000000      0.00000000</v>
  </separator>
  <separator name="orbital magnetization" >
   <i type="logical" name="NUCIND"> F  </i>
   <v name="MAGPOS">      0.00000000      0.00000000      0.00000000</v>
   <i type="logical" name="LNICSALL"> T  </i>
   <i type="logical" name="ORBITALMAG"> F  </i>
   <i type="logical" name="LMAGBLOCH"> F  </i>
   <i type="logical" name="LCHIMAG"> F  </i>
   <i type="logical" name="LGAUGE"> T  </i>
   <i type="int" name="MAGATOM">     0</i>
   <v name="MAGDIPOL">      0.00000000      0.00000000      0.00000000</v>
   <v name="AVECCONST">      0.00000000      0.00000000      0.00000000</v>
  </separator>
  <separator name="response functions" >
   <i type="logical" name="LADDER"> F  </i>
   <i type="logical" name="LRPAFORCE"> F  </i>
   <i type="logical" name="LFXC"> F  </i>
   <i type="logical" name="LHARTREE"> T  </i>
   <i type="int" name="IBSE">     0</i>
   <v type="int" name="KPOINT">    -1     0     0     0</v>
   <i type="logical" name="LTCTE"> F  </i>
   <i type="logical" name="LTETE"> F  </i>
   <i type="logical" name="LTRIPLET"> F  </i>
   <i type="logical" name="LFXCEPS"> F  </i>
   <i type="logical" name="LFXHEG"> F  </i>
   <i type="int" name="NATURALO">     2</i>
   <i type="logical" name="L2ORDER"> F  </i>
   <i type="logical" name="LMP2LT"> F  </i>
   <i type="logical" name="LUSEW"> F  </i>
   <i name="ENCUTGW">     -2.00000000</i>
   <i name="ENCUTGWSOFT">     -2.00000000</i>
   <i name="ENCUTLF">     -1.00000000</i>
   <i type="int" name="LMAXMP2">    -1</i>
   <i name="SCISSOR">      0.00000000</i>
   <i type="int" name="NOMEGA">     0</i>
   <i type="int" name="NOMEGAR">     0</i>
   <i type="int" name="NBANDSGW">    -1</i>
   <i type="int" name="NBANDSO">    -1</i>
   <i type="int" name="NBANDSV">    -1</i>
   <i type="int" name="NELM">    64</i>
   <i type="int" name="NELMHF">     1</i>
   <i type="int" name="DIM">     3</i>
   <i type="int" name="ANTIRES">     0</i>
   <i name="OMEGAMAX">    -30.00000000</i>
   <i name="OMEGAMIN">    -30.00000000</i>
   <i name="OMEGATL">   -200.00000000</i>
   <i type="int" name="OMEGAGRID">   140</i>
   <i name="CSHIFT">     -0.10000000</i>
   <i type="logical" name="SELFENERGY"> F  </i>
   <i type="logical" name="LSPECTRAL"> F  </i>
   <i type="logical" name="LSPECTRALGW"> F  </i>
   <i type="logical" name="LSINGLES"> F  </i>
   <i type="logical" name="LFERMIGW"> F  </i>
   <i type="logical" name="ODDONLYGW"> F  </i>
   <i type="logical" name="EVENONLYGW"> F  </i>
   <i type="int" name="NKREDLFX">     1</i>
   <i type="int" name="NKREDLFY">     1</i>
   <i type="int" name="NKREDLFZ">     1</i>
   <i type="int" name="MAXMEM">  2800</i>
   <i type="int" name="TELESCOPE">     0</i>
   <i type="int" name="TAUPAR">     1</i>
   <i type="int" name="OMEGAPAR">    -1</i>
   <i name="LAMBDA">      1.00000000</i>
  </separator>
  <separator name="External order field" >
   <i name="OFIELD_KAPPA">      0.00000000</i>
   <v name="OFIELD_K">      0.00000000      0.00000000      0.00000000</v>
   <i name="OFIELD_Q6_NEAR">      0.00000000</i>
   <i name="OFIELD_Q6_FAR">      0.00000000</i>
   <i name="OFIELD_A">      0.00000000</i>
  </separator>
 </parameters>
 <atominfo>
  <atoms>      16 </atoms>
  <types>       2 </types>
  <array name="atoms" >
   <dimension dim="1">ion</dimension>
   <field type="string">element</field>
   <field type="int">atomtype</field>
   <set>
    <rc><c>B </c><c>   1</c></rc>
    <rc><c>B </c><c>   1</c></rc>
    <rc><c>C </c><c>   2</c></rc>
    <rc><c>C </c><c>   2</c></rc>
    <rc><c>C </c><c>   2</c></rc>
    <rc><c>C </c><c>   2</c></rc>
    <rc><c>C </c><c>   2</c></rc>
    <rc><c>C </c><c>   2</c></rc>
    <rc><c>C </c><c>   2</c></rc>
    <rc><c>C </c><c>   2</c></rc>
    <rc><c>C </c><c>   2</c></rc>
    <rc><c>C </c><c>   2</c></rc>
    <rc><c>C </c><c>   2</c></rc>
    <rc><c>C </c><c>   2</c></rc>
    <rc><c>C </c><c>   2</c></rc>
    <rc><c>C </c><c>   2</c></rc>
   </set>
  </array>
  <array name="atomtypes" >
   <dimension dim="1">type</dimension>
   <field type="int">atomspertype</field>
   <field type="string">element</field>
   <field>mass</field>
   <field>valence</field>
   <field type="string">pseudopotential</field>
   <set>
    <rc><c>   2</c><c>B </c><c>     10.81100000</c><c>      3.00000000</c><c>  PAW_PBE B 06Sep2000                   </c></rc>
    <rc><c>  14</c><c>C </c><c>     12.01100000</c><c>      4.00000000</c><c>  PAW_PBE C 08Apr2002                   </c></rc>
   </set>
  </array>
 </atominfo>
 <structure name="initialpos" >
  <crystal>
   <varray name="basis" >
    <v>       4.36390201       2.51950000       0.00000000 </v>
    <v>      -4.36390201       2.51950000       0.00000000 </v>
    <v>       0.00000000       0.00000000      15.00000000 </v>
   </varray>
   <i name="volume">    329.84553340 </i>
   <varray name="rec_basis" >
    <v>       0.11457636       0.19845207       0.00000000 </v>
    <v>      -0.11457636       0.19845207       0.00000000 </v>
    <v>       0.00000000       0.00000000       0.06666667 </v>
   </varray>
  </crystal>
  <varray name="positions" >
   <v>       0.33833034       0.66916432       0.10000000 </v>
   <v>       0.67165522       0.33584146       0.10000000 </v>
   <v>       0.16373946       0.31999962       0.10000000 </v>
   <v>       0.32250218       0.16126397       0.10000000 </v>
   <v>       0.16376430       0.84376384       0.10000000 </v>
   <v>       0.84623863       0.16123684       0.10000000 </v>
   <v>       0.68749850       0.84373000       0.10000000 </v>
   <v>       0.84626736       0.68499594       0.10000000 </v>
   <v>       0.33333267       0.16666633       0.32553333 </v>
   <v>       0.49999967       0.99999933       0.32553333 </v>
   <v>       0.33333267       0.66666633       0.32553333 </v>
   <v>       0.49999967       0.49999933       0.32553333 </v>
   <v>       0.83333267       0.16666633       0.32553333 </v>
   <v>       0.99999967       0.99999933       0.32553333 </v>
   <v>       0.83333267       0.66666633       0.32553333 </v>
   <v>       0.99999967       0.49999933       0.32553333 </v>
  </varray>
 </structure>
 <calculation>
  <scstep>
   <time name="dav">   17.27   17.28</time>
   <time name="total">   17.41   17.42</time>
   <energy>
    <i name="alphaZ">     62.66378033 </i>
    <i name="ewald">   5474.17115736 </i>
    <i name="hartreedc">  -7291.33662784 </i>
    <i name="XCdc">    199.90355857 </i>
    <i name="pawpsdc">   1604.28699987 </i>
    <i name="pawaedc">  -1610.37247880 </i>
    <i name="eentropy">     -0.02025682 </i>
    <i name="bandstr">   -287.57479590 </i>
    <i name="atom">   2202.35892741 </i>
    <i name="e_fr_energy">    354.08026418 </i>
    <i name="e_wo_entrp">    354.10052100 </i>
    <i name="e_0_energy">    354.09039259 </i>
   </energy>
  </scstep>
  <scstep>
   <time name="dav">   23.87   23.89</time>
   <time name="total">   23.87   23.90</time>
   <energy>
    <i name="e_fr_energy">   -108.57541627 </i>
    <i name="e_wo_entrp">   -108.56127715 </i>
    <i name="e_0_energy">   -108.56834671 </i>
   </energy>
  </scstep>
  <scstep>
   <time name="dav">   21.48   21.49</time>
   <time name="total">   21.48   21.49</time>
   <energy>
    <i name="e_fr_energy">   -144.94482562 </i>
    <i name="e_wo_entrp">   -144.93818163 </i>
    <i name="e_0_energy">   -144.94150363 </i>
   </energy>
  </scstep>
  <scstep>
   <time name="dav">   21.99   22.00</time>
   <time name="total">   21.99   22.00</time>
   <energy>
    <i name="e_fr_energy">   -145.81737444 </i>
    <i name="e_wo_entrp">   -145.81097602 </i>
    <i name="e_0_energy">   -145.81417523 </i>
   </energy>
  </scstep>
  <scstep>
   <time name="dav">   23.25   23.26</time>
   <time name="total">   24.14   24.16</time>
   <energy>
    <i name="e_fr_energy">   -145.84576928 </i>
    <i name="e_wo_entrp">   -145.83936335 </i>
    <i name="e_0_energy">   -145.84256631 </i>
   </energy>
  </scstep>
  <scstep>
   <time name="dav">   20.21   20.21</time>
   <time name="total">   21.25   21.25</time>
   <energy>
    <i name="e_fr_energy">   -107.03351864 </i>
    <i name="e_wo_entrp">   -107.01173392 </i>
    <i name="e_0_energy">   -107.02262628 </i>
   </energy>
  </scstep>
  <scstep>
   <time name="dav">   20.17   20.18</time>
   <time name="total">   21.19   21.20</time>
   <energy>
    <i name="e_fr_energy">   -115.44978421 </i>
    <i name="e_wo_entrp">   -115.43060805 </i>
    <i name="e_0_energy">   -115.44019613 </i>
   </energy>
  </scstep>
  <scstep>
   <time name="dav">   20.81   20.82</time>
   <time name="total">   21.83   21.84</time>
   <energy>
    <i name="e_fr_energy">   -124.18221414 </i>
    <i name="e_wo_entrp">   -124.17446108 </i>
    <i name="e_0_energy">   -124.17833761 </i>
   </energy>
  </scstep>
  <scstep>
   <time name="dav">   18.54   18.55</time>
   <time name="total">   19.56   19.57</time>
   <energy>
    <i name="e_fr_energy">   -131.78944292 </i>
    <i name="e_wo_entrp">   -131.78444822 </i>
    <i name="e_0_energy">   -131.78694557 </i>
   </energy>
  </scstep>
  <scstep>
   <time name="dav">   19.44   19.45</time>
   <time name="total">   20.46   20.47</time>
   <energy>
    <i name="e_fr_energy">   -138.94824954 </i>
    <i name="e_wo_entrp">   -138.94598826 </i>
    <i name="e_0_energy">   -138.94711890 </i>
   </energy>
  </scstep>
  <scstep>
   <time name="dav">   19.37   19.38</time>
   <time name="total">   20.39   20.40</time>
   <energy>
    <i name="e_fr_energy">   -140.07221220 </i>
    <i name="e_wo_entrp">   -140.07000008 </i>
    <i name="e_0_energy">   -140.07110614 </i>
   </energy>
  </scstep>
  <scstep>
   <time name="dav">   19.93   19.94</time>
   <time name="total">   20.95   20.96</time>
   <energy>
    <i name="e_fr_energy">   -140.27755494 </i>
    <i name="e_wo_entrp">   -140.27553597 </i>
    <i name="e_0_energy">   -140.27654545 </i>
   </energy>
  </scstep>
  <scstep>
   <time name="dav">   18.23   18.23</time>
   <time name="total">   19.25   19.26</time>
   <energy>
    <i name="e_fr_energy">   -140.34590477 </i>
    <i name="e_wo_entrp">   -140.34359935 </i>
    <i name="e_0_energy">   -140.34475206 </i>
   </energy>
  </scstep>
  <scstep>
   <time name="dav">   18.95   18.96</time>
   <time name="total">   19.98   19.98</time>
   <energy>
    <i name="e_fr_energy">   -140.37005534 </i>
    <i name="e_wo_entrp">   -140.36754411 </i>
    <i name="e_0_energy">   -140.36879972 </i>
   </energy>
  </scstep>
  <scstep>
   <time name="dav">   18.44   18.45</time>
   <time name="total">   19.46   19.47</time>
   <energy>
    <i name="e_fr_energy">   -140.37766159 </i>
    <i name="e_wo_entrp">   -140.37507990 </i>
    <i name="e_0_energy">   -140.37637074 </i>
   </energy>
  </scstep>
  <scstep>
   <time name="dav">   17.61   17.63</time>
   <time name="total">   18.64   18.66</time>
   <energy>
    <i name="e_fr_energy">   -140.37912544 </i>
    <i name="e_wo_entrp">   -140.37654346 </i>
    <i name="e_0_energy">   -140.37783445 </i>
   </energy>
  </scstep>
  <scstep>
   <time name="dav">   17.55   17.57</time>
   <time name="total">   18.57   18.59</time>
   <energy>
    <i name="e_fr_energy">   -140.38086531 </i>
    <i name="e_wo_entrp">   -140.37829844 </i>
    <i name="e_0_energy">   -140.37958187 </i>
   </energy>
  </scstep>
  <scstep>
   <time name="dav">   17.66   17.69</time>
   <time name="total">   18.68   18.71</time>
   <energy>
    <i name="e_fr_energy">   -140.38190923 </i>
    <i name="e_wo_entrp">   -140.37935114 </i>
    <i name="e_0_energy">   -140.38063018 </i>
   </energy>
  </scstep>
  <scstep>
   <time name="dav">   18.44   18.45</time>
   <time name="total">   19.46   19.48</time>
   <energy>
    <i name="e_fr_energy">   -140.38246390 </i>
    <i name="e_wo_entrp">   -140.37990524 </i>
    <i name="e_0_energy">   -140.38118457 </i>
   </energy>
  </scstep>
  <scstep>
   <time name="dav">   18.01   18.02</time>
   <time name="total">   19.04   19.05</time>
   <energy>
    <i name="e_fr_energy">   -140.38260010 </i>
    <i name="e_wo_entrp">   -140.38003370 </i>
    <i name="e_0_energy">   -140.38131690 </i>
   </energy>
  </scstep>
  <scstep>
   <time name="dav">   18.97   18.98</time>
   <time name="total">   19.99   19.99</time>
   <energy>
    <i name="e_fr_energy">   -140.38265381 </i>
    <i name="e_wo_entrp">   -140.38008334 </i>
    <i name="e_0_energy">   -140.38136857 </i>
   </energy>
  </scstep>
  <scstep>
   <time name="dav">   19.02   19.03</time>
   <time name="total">   20.03   20.04</time>
   <energy>
    <i name="e_fr_energy">   -140.38268097 </i>
    <i name="e_wo_entrp">   -140.38011017 </i>
    <i name="e_0_energy">   -140.38139557 </i>
   </energy>
  </scstep>
  <scstep>
   <time name="dav">   17.78   17.79</time>
   <time name="total">   18.80   18.80</time>
   <energy>
    <i name="e_fr_energy">   -140.38268868 </i>
    <i name="e_wo_entrp">   -140.38011857 </i>
    <i name="e_0_energy">   -140.38140362 </i>
   </energy>
  </scstep>
  <scstep>
   <time name="dav">   17.45   17.45</time>
   <time name="total">   18.46   18.46</time>
   <energy>
    <i name="e_fr_energy">   -140.38269220 </i>
    <i name="e_wo_entrp">   -140.38012257 </i>
    <i name="e_0_energy">   -140.38140739 </i>
   </energy>
  </scstep>
  <scstep>
   <time name="dav">   15.80   15.81</time>
   <time name="total">   16.82   16.82</time>
   <energy>
    <i name="e_fr_energy">   -140.38269375 </i>
    <i name="e_wo_entrp">   -140.38012430 </i>
    <i name="e_0_energy">   -140.38140903 </i>
   </energy>
  </scstep>
  <scstep>
   <time name="dav">   15.42   15.43</time>
   <time name="total">   15.55   15.56</time>
   <energy>
    <i name="alphaZ">     62.66378033 </i>
    <i name="ewald">   5474.17115736 </i>
    <i name="hartreedc">  -7524.26472534 </i>
    <i name="XCdc">    206.54840871 </i>
    <i name="pawpsdc">   6341.39187311 </i>
    <i name="pawaedc">  -6349.41500325 </i>
    <i name="eentropy">     -0.00256941 </i>
    <i name="bandstr">   -553.83454361 </i>
    <i name="atom">   2202.35892741 </i>
    <i name="e_fr_energy">   -140.38269469 </i>
    <i name="e_wo_entrp">   -140.38012528 </i>
    <i name="e_0_energy">   -140.38140999 </i>
   </energy>
  </scstep>
  <structure>
   <crystal>
    <varray name="basis" >
     <v>       4.36390201       2.51950000       0.00000000 </v>
     <v>      -4.36390201       2.51950000       0.00000000 </v>
     <v>       0.00000000       0.00000000      15.00000000 </v>
    </varray>
    <i name="volume">    329.84553340 </i>
    <varray name="rec_basis" >
     <v>       0.11457636       0.19845207       0.00000000 </v>
     <v>      -0.11457636       0.19845207       0.00000000 </v>
     <v>       0.00000000       0.00000000       0.06666667 </v>
    </varray>
   </crystal>
   <varray name="positions" >
    <v>       0.33833034       0.66916432       0.10000000 </v>
    <v>       0.67165522       0.33584146       0.10000000 </v>
    <v>       0.16373946       0.31999962       0.10000000 </v>
    <v>       0.32250218       0.16126397       0.10000000 </v>
    <v>       0.16376430       0.84376384       0.10000000 </v>
    <v>       0.84623863       0.16123684       0.10000000 </v>
    <v>       0.68749850       0.84373000       0.10000000 </v>
    <v>       0.84626736       0.68499594       0.10000000 </v>
    <v>       0.33333267       0.16666633       0.32553333 </v>
    <v>       0.49999967       0.99999933       0.32553333 </v>
    <v>       0.33333267       0.66666633       0.32553333 </v>
    <v>       0.49999967       0.49999933       0.32553333 </v>
    <v>       0.83333267       0.16666633       0.32553333 </v>
    <v>       0.99999967       0.99999933       0.32553333 </v>
    <v>       0.83333267       0.66666633       0.32553333 </v>
    <v>       0.99999967       0.49999933       0.32553333 </v>
   </varray>
  </structure>
  <varray name="forces" >
   <v>       0.00066695       0.00107708       0.05340202 </v>
   <v>       0.00529385       0.00091169      -0.00645628 </v>
   <v>      -0.30528733       0.52824328      -0.01751567 </v>
   <v>       0.29309066       0.50685327       0.00491601 </v>
   <v>       0.61115739      -0.00027253      -0.01751532 </v>
   <v>      -0.58886322      -0.00091867       0.00477359 </v>
   <v>      -0.30689686      -0.52748686      -0.01760594 </v>
   <v>       0.29049711      -0.50901243       0.00476944 </v>
   <v>       0.00210730       0.00342150       0.00300917 </v>
   <v>      -0.01306650       0.02079351       0.01628531 </v>
   <v>      -0.00007343      -0.00034460      -0.06434728 </v>
   <v>       0.02434468      -0.00080570       0.01628252 </v>
   <v>      -0.00344765       0.00063742       0.00192132 </v>
   <v>       0.00014047       0.00046922      -0.00056022 </v>
   <v>       0.00247054      -0.00277565       0.00192865 </v>
   <v>      -0.01213397      -0.02079054       0.01671266 </v>
  </varray>
  <varray name="stress" >
   <v>       6.04967767      -0.00498163       0.00382283 </v>
   <v>      -0.00498160       6.04936971       0.00654703 </v>
   <v>       0.00382285       0.00654702      -2.50399912 </v>
  </varray>
  <energy>
   <i name="e_fr_energy">   -142.27729787 </i>
   <i name="e_wo_entrp">   -142.27601316 </i>
   <i name="e_0_energy">     -0.00256941 </i>
  </energy>
  <time name="totalsc">  532.13  532.40</time>
 </calculation>
 <calculation>
  <scstep>
   <time name="dav">   17.23   17.24</time>
   <time name="total">   18.25   18.26</time>
   <energy>
    <i name="alphaZ">     62.66378033 </i>
    <i name="ewald">   5465.45623455 </i>
    <i name="hartreedc">  -7518.01890001 </i>
    <i name="XCdc">    206.40323460 </i>
    <i name="pawpsdc">   6341.41481670 </i>
    <i name="pawaedc">  -6349.43793833 </i>
    <i name="eentropy">     -0.00275080 </i>
    <i name="bandstr">   -551.16024752 </i>
    <i name="atom">   2202.35892741 </i>
    <i name="e_fr_energy">   -140.32284306 </i>
    <i name="e_wo_entrp">   -140.32009227 </i>
    <i name="e_0_energy">   -140.32146767 </i>
   </energy>
  </scstep>
  <scstep>
   <time name="dav">   20.60   20.61</time>
   <time name="total">   21.63   21.63</time>
   <energy>
    <i name="e_fr_energy">   -140.29429455 </i>
    <i name="e_wo_entrp">   -140.29144500 </i>
    <i name="e_0_energy">   -140.29286978 </i>
   </energy>
  </scstep>
  <scstep>
   <time name="dav">   21.24   21.25</time>
   <time name="total">   22.26   22.27</time>
   <energy>
    <i name="e_fr_energy">   -140.28981023 </i>
    <i name="e_wo_entrp">   -140.28686825 </i>
    <i name="e_0_energy">   -140.28833924 </i>
   </energy>
  </scstep>
  <scstep>
   <time name="dav">   20.01   20.01</time>
   <time name="total">   21.03   21.03</time>
   <energy>
    <i name="e_fr_energy">   -140.28992655 </i>
    <i name="e_wo_entrp">   -140.28696495 </i>
    <i name="e_0_energy">   -140.28844575 </i>
   </energy>
  </scstep>
  <scstep>
   <time name="dav">   18.71   18.72</time>
   <time name="total">   19.74   19.74</time>
   <energy>
    <i name="e_fr_energy">   -140.28972778 </i>
    <i name="e_wo_entrp">   -140.28674732 </i>
    <i name="e_0_energy">   -140.28823755 </i>
   </energy>
  </scstep>
  <scstep>
   <time name="dav">   20.81   20.81</time>
   <time name="total">   21.83   21.83</time>
   <energy>
    <i name="e_fr_energy">   -140.28973202 </i>
    <i name="e_wo_entrp">   -140.28675307 </i>
    <i name="e_0_energy">   -140.28824255 </i>
   </energy>
  </scstep>
  <scstep>
   <time name="dav">   22.90   22.90</time>
   <time name="total">   23.92   23.93</time>
   <energy>
    <i name="e_fr_energy">   -140.28974473 </i>
    <i name="e_wo_entrp">   -140.28676585 </i>
    <i name="e_0_energy">   -140.28825529 </i>
   </energy>
  </scstep>
  <scstep>
   <time name="dav">   20.15   20.15</time>
   <time name="total">   21.17   21.18</time>
   <energy>
    <i name="e_fr_energy">   -140.28975125 </i>
    <i name="e_wo_entrp">   -140.28677196 </i>
    <i name="e_0_energy">   -140.28826161 </i>
   </energy>
  </scstep>
  <scstep>
   <time name="dav">   17.28   17.28</time>
   <time name="total">   18.30   18.30</time>
   <energy>
    <i name="e_fr_energy">   -140.28976557 </i>
    <i name="e_wo_entrp">   -140.28678599 </i>
    <i name="e_0_energy">   -140.28827578 </i>
   </energy>
  </scstep>
  <scstep>
   <time name="dav">   17.80   17.80</time>
   <time name="total">   18.82   18.83</time>
   <energy>
    <i name="e_fr_energy">   -140.28977290 </i>
    <i name="e_wo_entrp">   -140.28679324 </i>
    <i name="e_0_energy">   -140.28828307 </i>
   </energy>
  </scstep>
  <scstep>
   <time name="dav">   16.47   16.47</time>
   <time name="total">   17.49   17.49</time>
   <energy>
    <i name="e_fr_energy">   -140.28977989 </i>
    <i name="e_wo_entrp">   -140.28680018 </i>
    <i name="e_0_energy">   -140.28829003 </i>
   </energy>
  </scstep>
  <scstep>
   <time name="dav">   15.05   15.05</time>
   <time name="total">   16.08   16.08</time>
   <energy>
    <i name="e_fr_energy">   -140.28978328 </i>
    <i name="e_wo_entrp">   -140.28680355 </i>
    <i name="e_0_energy">   -140.28829341 </i>
   </energy>
  </scstep>
  <scstep>
   <time name="dav">   14.64   14.65</time>
   <time name="total">   14.77   14.77</time>
   <energy>
    <i name="alphaZ">     62.66378033 </i>
    <i name="ewald">   5465.45623455 </i>
    <i name="hartreedc">  -7515.27360067 </i>
    <i name="XCdc">    206.29459809 </i>
    <i name="pawpsdc">   6299.30912343 </i>
    <i name="pawaedc">  -6307.31774167 </i>
    <i name="eentropy">     -0.00297973 </i>
    <i name="bandstr">   -553.77812587 </i>
    <i name="atom">   2202.35892741 </i>
    <i name="e_fr_energy">   -140.28978413 </i>
    <i name="e_wo_entrp">   -140.28680440 </i>
    <i name="e_0_energy">   -140.28829426 </i>
   </energy>
  </scstep>
  <structure>
   <crystal>
    <varray name="basis" >
     <v>       4.36390201       2.51950000       0.00000000 </v>
     <v>      -4.36390201       2.51950000       0.00000000 </v>
     <v>       0.00000000       0.00000000      15.00000000 </v>
    </varray>
    <i name="volume">    329.84553340 </i>
    <varray name="rec_basis" >
     <v>       0.11457636       0.19845207       0.00000000 </v>
     <v>      -0.11457636       0.19845207       0.00000000 </v>
     <v>       0.00000000       0.00000000       0.06666667 </v>
    </varray>
   </crystal>
   <varray name="positions" >
    <v>       0.33834434       0.66917095       0.10017175 </v>
    <v>       0.67169321       0.33582093       0.09997924 </v>
    <v>       0.16710932       0.32674441       0.09994367 </v>
    <v>       0.32897477       0.16449646       0.10001581 </v>
    <v>       0.16713984       0.84038308       0.09994367 </v>
    <v>       0.84297492       0.16448297       0.10001535 </v>
    <v>       0.68075206       0.84037628       0.09994338 </v>
    <v>       0.84299986       0.67851702       0.10001534 </v>
    <v>       0.33337707       0.16668744       0.32554301 </v>
    <v>       0.50012652       0.00027063       0.32558571 </v>
    <v>       0.33332896       0.66666344       0.32532638 </v>
    <v>       0.50012652       0.49985706       0.32558570 </v>
    <v>       0.83331971       0.16669149       0.32553951 </v>
    <v>       0.00000494       0.00000305       0.32553153 </v>
    <v>       0.83331975       0.66662610       0.32553954 </v>
    <v>       0.99973355       0.49986736       0.32558708 </v>
   </varray>
  </structure>
  <varray name="forces" >
   <v>      -0.00021679      -0.00210910       0.00693815 </v>
   <v>      -0.01311054      -0.00274775      -0.00460228 </v>
   <v>       0.81390694      -1.41082476       0.01075859 </v>
   <v>      -0.78015402      -1.35436769      -0.01078272 </v>
   <v>      -1.63307760      -0.00310884       0.01075587 </v>
   <v>       1.57646233       0.00496040      -0.01076922 </v>
   <v>       0.81411224       1.40827919       0.01059566 </v>
   <v>      -0.77819529       1.35941454      -0.01075858 </v>
   <v>      -0.00340310      -0.00510693       0.00894047 </v>
   <v>       0.03176858      -0.04941742      -0.00822411 </v>
   <v>      -0.00003364       0.00066215       0.00028110 </v>
   <v>      -0.05803545       0.00242833      -0.00821284 </v>
   <v>       0.00437540      -0.00147348       0.00882125 </v>
   <v>       0.00014799      -0.00048212      -0.00425832 </v>
   <v>      -0.00412474       0.00341174       0.00879800 </v>
   <v>       0.02957771       0.05048172      -0.00828103 </v>
  </varray>
  <varray name="stress" >
   <v>      -1.76426502      -0.03019286       0.00345446 </v>
   <v>      -0.03019286      -1.82960129       0.00595941 </v>
   <v>       0.00345443       0.00595942      -2.41436769 </v>
  </varray>
  <energy>
   <i name="e_fr_energy">   -142.18931997 </i>
   <i name="e_wo_entrp">   -142.18783011 </i>
   <i name="e_0_energy">     -0.00297973 </i>
  </energy>
  <time name="totalsc">  270.12  270.21</time>
 </calculation>
 <calculation>
  <scstep>
   <time name="dav">   17.24   17.24</time>
   <time name="total">   18.26   18.27</time>
   <energy>
    <i name="alphaZ">     62.66378033 </i>
    <i name="ewald">   5471.57884263 </i>
    <i name="hartreedc">  -7519.53790245 </i>
    <i name="XCdc">    206.39222018 </i>
    <i name="pawpsdc">   6299.30971066 </i>
    <i name="pawaedc">  -6307.31833683 </i>
    <i name="eentropy">     -0.00194342 </i>
    <i name="bandstr">   -555.85853380 </i>
    <i name="atom">   2202.35892741 </i>
    <i name="e_fr_energy">   -140.41323530 </i>
    <i name="e_wo_entrp">   -140.41129188 </i>
    <i name="e_0_energy">   -140.41226359 </i>
   </energy>
  </scstep>
  <scstep>
   <time name="dav">   20.33   20.34</time>
   <time name="total">   21.36   21.36</time>
   <energy>
    <i name="e_fr_energy">   -140.39768406 </i>
    <i name="e_wo_entrp">   -140.39521734 </i>
    <i name="e_0_energy">   -140.39645070 </i>
   </energy>
  </scstep>
  <scstep>
   <time name="dav">   21.09   21.09</time>
   <time name="total">   22.11   22.12</time>
   <energy>
    <i name="e_fr_energy">   -140.39505951 </i>
    <i name="e_wo_entrp">   -140.39234067 </i>
    <i name="e_0_energy">   -140.39370009 </i>
   </energy>
  </scstep>
  <scstep>
   <time name="dav">   18.97   18.98</time>
   <time name="total">   19.99   20.00</time>
   <energy>
    <i name="e_fr_energy">   -140.39501402 </i>
    <i name="e_wo_entrp">   -140.39230303 </i>
    <i name="e_0_energy">   -140.39365853 </i>
   </energy>
  </scstep>
  <scstep>
   <time name="dav">   17.96   17.97</time>
   <time name="total">   19.00   19.00</time>
   <energy>
    <i name="e_fr_energy">   -140.39500510 </i>
    <i name="e_wo_entrp">   -140.39223645 </i>
    <i name="e_0_energy">   -140.39362077 </i>
   </energy>
  </scstep>
  <scstep>
   <time name="dav">   20.59   20.60</time>
   <time name="total">   21.62   21.62</time>
   <energy>
    <i name="e_fr_energy">   -140.39499928 </i>
    <i name="e_wo_entrp">   -140.39223998 </i>
    <i name="e_0_energy">   -140.39361963 </i>
   </energy>
  </scstep>
  <scstep>
   <time name="dav">   21.93   21.95</time>
   <time name="total">   22.95   22.96</time>
   <energy>
    <i name="e_fr_energy">   -140.39500509 </i>
    <i name="e_wo_entrp">   -140.39224642 </i>
    <i name="e_0_energy">   -140.39362575 </i>
   </energy>
  </scstep>
  <scstep>
   <time name="dav">   17.89   17.89</time>
   <time name="total">   18.91   18.91</time>
   <energy>
    <i name="e_fr_energy">   -140.39500840 </i>
    <i name="e_wo_entrp">   -140.39224864 </i>
    <i name="e_0_energy">   -140.39362852 </i>
   </energy>
  </scstep>
  <scstep>
   <time name="dav">   16.35   16.36</time>
   <time name="total">   17.38   17.38</time>
   <energy>
    <i name="e_fr_energy">   -140.39501839 </i>
    <i name="e_wo_entrp">   -140.39225645 </i>
    <i name="e_0_energy">   -140.39363742 </i>
   </energy>
  </scstep>
  <scstep>
   <time name="dav">   15.24   15.25</time>
   <time name="total">   16.27   16.27</time>
   <energy>
    <i name="e_fr_energy">   -140.39502200 </i>
    <i name="e_wo_entrp">   -140.39225989 </i>
    <i name="e_0_energy">   -140.39364094 </i>
   </energy>
  </scstep>
  <scstep>
   <time name="dav">   13.76   13.76</time>
   <time name="total">   14.79   14.79</time>
   <energy>
    <i name="e_fr_energy">   -140.39502488 </i>
    <i name="e_wo_entrp">   -140.39226269 </i>
    <i name="e_0_energy">   -140.39364378 </i>
   </energy>
  </scstep>
  <scstep>
   <time name="dav">   13.60   13.61</time>
   <time name="total">   14.62   14.63</time>
   <energy>
    <i name="e_fr_energy">   -140.39502671 </i>
    <i name="e_wo_entrp">   -140.39226431 </i>
    <i name="e_0_energy">   -140.39364551 </i>
   </energy>
  </scstep>
  <scstep>
   <time name="dav">   16.57   16.57</time>
   <time name="total">   16.70   16.71</time>
   <energy>
    <i name="alphaZ">     62.66378033 </i>
    <i name="ewald">   5471.57884263 </i>
    <i name="hartreedc">  -7521.64223150 </i>
    <i name="XCdc">    206.47479754 </i>
    <i name="pawpsdc">   6327.15402913 </i>
    <i name="pawaedc">  -6335.17206686 </i>
    <i name="eentropy">     -0.00276240 </i>
    <i name="bandstr">   -553.80834329 </i>
    <i name="atom">   2202.35892741 </i>
    <i name="e_fr_energy">   -140.39502702 </i>
    <i name="e_wo_entrp">   -140.39226462 </i>
    <i name="e_0_energy">   -140.39364582 </i>
   </energy>
  </scstep>
  <structure>
   <crystal>
    <varray name="basis" >
     <v>       4.36390201       2.51950000       0.00000000 </v>
     <v>      -4.36390201       2.51950000       0.00000000 </v>
     <v>       0.00000000       0.00000000      15.00000000 </v>
    </varray>
    <i name="volume">    329.84553340 </i>
    <varray name="rec_basis" >
     <v>       0.11457636       0.19845207       0.00000000 </v>
     <v>      -0.11457636       0.19845207       0.00000000 </v>
     <v>       0.00000000       0.00000000       0.06666667 </v>
    </varray>
   </crystal>
   <varray name="positions" >
    <v>       0.33833411       0.66916610       0.10004618 </v>
    <v>       0.67166543       0.33583594       0.09999442 </v>
    <v>       0.16464554       0.32181314       0.09998485 </v>
    <v>       0.32424251       0.16213311       0.10000425 </v>
    <v>       0.16467190       0.84285483       0.09998485 </v>
    <v>       0.84536110       0.16210965       0.10000413 </v>
    <v>       0.68568454       0.84282827       0.09998478 </v>
    <v>       0.84538880       0.68325391       0.10000412 </v>
    <v>       0.33334461       0.16667201       0.32553594 </v>
    <v>       0.50003377       0.00007228       0.32554742 </v>
    <v>       0.33333167       0.66666556       0.32547769 </v>
    <v>       0.50003377       0.49996108       0.32554741 </v>
    <v>       0.83332918       0.16667310       0.32553499 </v>
    <v>       0.00000108       0.00000033       0.32553285 </v>
    <v>       0.83332919       0.66665552       0.32553500 </v>
    <v>       0.99992811       0.49996385       0.32554779 </v>
   </varray>
  </structure>
  <varray name="forces" >
   <v>       0.00042485       0.00027770       0.03986435 </v>
   <v>       0.00070895      -0.00001845      -0.00594059 </v>
   <v>       0.00032918      -0.00139353      -0.00977146 </v>
   <v>      -0.00071022      -0.00263682       0.00085058 </v>
   <v>      -0.00175517      -0.00118006      -0.00977118 </v>
   <v>       0.00341352       0.00080967       0.00076708 </v>
   <v>      -0.00077165       0.00110138      -0.00988891 </v>
   <v>      -0.00193815       0.00250392       0.00076822 </v>
   <v>       0.00063630       0.00114061       0.00462894 </v>
   <v>      -0.00103831       0.00190255       0.00972861 </v>
   <v>      -0.00005360      -0.00006133      -0.04704286 </v>
   <v>       0.00219324       0.00003731       0.00972848 </v>
   <v>      -0.00133136       0.00008440       0.00379924 </v>
   <v>       0.00012705       0.00019077      -0.00154699 </v>
   <v>       0.00070818      -0.00109563       0.00379898 </v>
   <v>      -0.00094281      -0.00166248       0.01002753 </v>
  </varray>
  <varray name="stress" >
   <v>       3.40089728      -0.01271674       0.00373795 </v>
   <v>      -0.01271674       3.38440111       0.00645458 </v>
   <v>       0.00373795       0.00645458      -2.47808412 </v>
  </varray>
  <energy>
   <i name="e_fr_energy">   -142.29127726 </i>
   <i name="e_wo_entrp">   -142.28989606 </i>
   <i name="e_0_energy">     -0.00276240 </i>
  </energy>
  <time name="totalsc">  258.80  258.89</time>
 </calculation>
 <calculation>
  <scstep>
   <time name="dav">   14.55   14.56</time>
   <time name="total">   15.57   15.58</time>
   <energy>
    <i name="alphaZ">     62.66378033 </i>
    <i name="ewald">   5471.58027416 </i>
    <i name="hartreedc">  -7521.64420255 </i>
    <i name="XCdc">    206.47482354 </i>
    <i name="pawpsdc">   6327.15445003 </i>
    <i name="pawaedc">  -6335.17248424 </i>
    <i name="eentropy">     -0.00276214 </i>
    <i name="bandstr">   -553.80783459 </i>
    <i name="atom">   2202.35892741 </i>
    <i name="e_fr_energy">   -140.39502805 </i>
    <i name="e_wo_entrp">   -140.39226591 </i>
    <i name="e_0_energy">   -140.39364698 </i>
   </energy>
  </scstep>
  <scstep>
   <time name="dav">   17.03   17.03</time>
   <time name="total">   17.16   17.17</time>
   <energy>
    <i name="alphaZ">     62.66378033 </i>
    <i name="ewald">   5471.58027416 </i>
    <i name="hartreedc">  -7521.64478254 </i>
    <i name="XCdc">    206.47483545 </i>
    <i name="pawpsdc">   6327.14994312 </i>
    <i name="pawaedc">  -6335.16797863 </i>
    <i name="eentropy">     -0.00276219 </i>
    <i name="bandstr">   -553.80726520 </i>
    <i name="atom">   2202.35892741 </i>
    <i name="e_fr_energy">   -140.39502810 </i>
    <i name="e_wo_entrp">   -140.39226590 </i>
    <i name="e_0_energy">   -140.39364700 </i>
   </energy>
  </scstep>
  <structure>
   <crystal>
    <varray name="basis" >
     <v>       4.36390201       2.51950000       0.00000000 </v>
     <v>      -4.36390201       2.51950000       0.00000000 </v>
     <v>       0.00000000       0.00000000      15.00000000 </v>
    </varray>
    <i name="volume">    329.84553340 </i>
    <varray name="rec_basis" >
     <v>       0.11457636       0.19845207       0.00000000 </v>
     <v>      -0.11457636       0.19845207       0.00000000 </v>
     <v>       0.00000000       0.00000000       0.06666667 </v>
    </varray>
   </crystal>
   <varray name="positions" >
    <v>       0.33833410       0.66916610       0.10004615 </v>
    <v>       0.67166542       0.33583594       0.09999442 </v>
    <v>       0.16464502       0.32181210       0.09998486 </v>
    <v>       0.32424151       0.16213261       0.10000425 </v>
    <v>       0.16467138       0.84285535       0.09998486 </v>
    <v>       0.84536160       0.16210915       0.10000413 </v>
    <v>       0.68568558       0.84282878       0.09998478 </v>
    <v>       0.84538931       0.68325491       0.10000412 </v>
    <v>       0.33334460       0.16667201       0.32553593 </v>
    <v>       0.50003375       0.00007224       0.32554741 </v>
    <v>       0.33333167       0.66666556       0.32547772 </v>
    <v>       0.50003375       0.49996110       0.32554741 </v>
    <v>       0.83332919       0.16667309       0.32553499 </v>
    <v>       0.00000108       0.00000033       0.32553285 </v>
    <v>       0.83332920       0.66665552       0.32553500 </v>
    <v>       0.99992816       0.49996387       0.32554778 </v>
   </varray>
  </structure>
  <varray name="forces" >
   <v>       0.00042515       0.00027809       0.03987202 </v>
   <v>       0.00071174      -0.00001778      -0.00594153 </v>
   <v>       0.00014086      -0.00106578      -0.00977975 </v>
   <v>      -0.00053037      -0.00232466       0.00085060 </v>
   <v>      -0.00137671      -0.00117982      -0.00977947 </v>
   <v>       0.00304952       0.00080926       0.00076695 </v>
   <v>      -0.00096057       0.00077391      -0.00989725 </v>
   <v>      -0.00175879       0.00219027       0.00076815 </v>
   <v>       0.00063574       0.00113940       0.00463121 </v>
   <v>      -0.00104575       0.00191415       0.00973764 </v>
   <v>      -0.00005355      -0.00006147      -0.04705938 </v>
   <v>       0.00220692       0.00003672       0.00973751 </v>
   <v>      -0.00132944       0.00008486       0.00380121 </v>
   <v>       0.00012708       0.00019099      -0.00154551 </v>
   <v>       0.00070783      -0.00109387       0.00380091 </v>
   <v>      -0.00094965      -0.00167425       0.01003670 </v>
  </varray>
  <varray name="stress" >
   <v>       3.40271977      -0.01271528       0.00373830 </v>
   <v>      -0.01271530       3.38623560       0.00645521 </v>
   <v>       0.00373830       0.00645520      -2.47731819 </v>
  </varray>
  <energy>
   <i name="e_fr_energy">   -142.29127747 </i>
   <i name="e_wo_entrp">   -142.28989637 </i>
   <i name="e_0_energy">     -0.00276219 </i>
  </energy>
  <time name="totalsc">   47.59   47.61</time>
 </calculation>
 <calculation>
  <scstep>
   <time name="dav">   17.23   17.23</time>
   <time name="total">   18.25   18.25</time>
   <energy>
    <i name="alphaZ">     62.66378033 </i>
    <i name="ewald">   5471.64144573 </i>
    <i name="hartreedc">  -7521.70427583 </i>
    <i name="XCdc">    206.47510216 </i>
    <i name="pawpsdc">   6327.15169659 </i>
    <i name="pawaedc">  -6335.16973304 </i>
    <i name="eentropy">     -0.00275701 </i>
    <i name="bandstr">   -553.80929618 </i>
    <i name="atom">   2202.35892741 </i>
    <i name="e_fr_energy">   -140.39510984 </i>
    <i name="e_wo_entrp">   -140.39235283 </i>
    <i name="e_0_energy">   -140.39373133 </i>
   </energy>
  </scstep>
  <scstep>
   <time name="dav">   20.51   20.52</time>
   <time name="total">   21.52   21.54</time>
   <energy>
    <i name="e_fr_energy">   -140.39511253 </i>
    <i name="e_wo_entrp">   -140.39235699 </i>
    <i name="e_0_energy">   -140.39373476 </i>
   </energy>
  </scstep>
  <scstep>
   <time name="dav">   17.78   17.78</time>
   <time name="total">   18.79   18.79</time>
   <energy>
    <i name="e_fr_energy">   -140.39511562 </i>
    <i name="e_wo_entrp">   -140.39236186 </i>
    <i name="e_0_energy">   -140.39373874 </i>
   </energy>
  </scstep>
  <scstep>
   <time name="dav">   19.50   19.51</time>
   <time name="total">   19.63   19.64</time>
   <energy>
    <i name="alphaZ">     62.66378033 </i>
    <i name="ewald">   5471.64144573 </i>
    <i name="hartreedc">  -7521.69652765 </i>
    <i name="XCdc">    206.47508586 </i>
    <i name="pawpsdc">   6327.17423663 </i>
    <i name="pawaedc">  -6335.19227680 </i>
    <i name="eentropy">     -0.00275356 </i>
    <i name="bandstr">   -553.81703361 </i>
    <i name="atom">   2202.35892741 </i>
    <i name="e_fr_energy">   -140.39511567 </i>
    <i name="e_wo_entrp">   -140.39236211 </i>
    <i name="e_0_energy">   -140.39373889 </i>
   </energy>
  </scstep>
  <structure>
   <crystal>
    <varray name="basis" >
     <v>       4.36390201       2.51950000       0.00000000 </v>
     <v>      -4.36390201       2.51950000       0.00000000 </v>
     <v>       0.00000000       0.00000000      15.00000000 </v>
    </varray>
    <i name="volume">    329.84553340 </i>
    <varray name="rec_basis" >
     <v>       0.11457636       0.19845207       0.00000000 </v>
     <v>      -0.11457636       0.19845207       0.00000000 </v>
     <v>       0.00000000       0.00000000       0.06666667 </v>
    </varray>
   </crystal>
   <varray name="positions" >
    <v>       0.33833841       0.66916638       0.10015593 </v>
    <v>       0.67166870       0.33583240       0.09997807 </v>
    <v>       0.16464287       0.32181452       0.09995791 </v>
    <v>       0.32423133       0.16212176       0.10000661 </v>
    <v>       0.16466115       0.84284630       0.09995791 </v>
    <v>       0.84537690       0.16210705       0.10000626 </v>
    <v>       0.68567558       0.84283378       0.09995751 </v>
    <v>       0.84539319       0.68326978       0.10000626 </v>
    <v>       0.33335699       0.16667836       0.32554867 </v>
    <v>       0.50004469       0.00009329       0.32557424 </v>
    <v>       0.33333091       0.66666530       0.32534814 </v>
    <v>       0.50004469       0.49995074       0.32557423 </v>
    <v>       0.83332358       0.16668011       0.32554544 </v>
    <v>       0.00000325       0.00000130       0.32552860 </v>
    <v>       0.83332357       0.66664317       0.32554545 </v>
    <v>       0.99990952       0.49995443       0.32557543 </v>
   </varray>
  </structure>
  <varray name="forces" >
   <v>      -0.00155678      -0.00117923       0.01719552 </v>
   <v>      -0.00044026       0.00040970       0.00099043 </v>
   <v>       0.00398206       0.00029524       0.00339171 </v>
   <v>      -0.00018535       0.00047111      -0.00680471 </v>
   <v>      -0.00099337       0.00129314       0.00339198 </v>
   <v>      -0.00291508      -0.00101652      -0.00689541 </v>
   <v>       0.00288958       0.00242698       0.00329280 </v>
   <v>      -0.00107780      -0.00323661      -0.00690357 </v>
   <v>      -0.00095007      -0.00173123       0.00667421 </v>
   <v>       0.00195451      -0.00328780      -0.00481788 </v>
   <v>       0.00024644       0.00034655      -0.01179771 </v>
   <v>      -0.00390231       0.00009038      -0.00481529 </v>
   <v>       0.00243680       0.00007450       0.00641486 </v>
   <v>      -0.00016787      -0.00020440      -0.00088173 </v>
   <v>      -0.00108421       0.00211123       0.00640964 </v>
   <v>       0.00176371       0.00313696      -0.00484485 </v>
  </varray>
  <varray name="stress" >
   <v>       3.39870831      -0.00243716       0.00379019 </v>
   <v>      -0.00243718       3.40838191       0.00665244 </v>
   <v>       0.00379021       0.00665241      -2.49614723 </v>
  </varray>
  <energy>
   <i name="e_fr_energy">   -142.29139193 </i>
   <i name="e_wo_entrp">   -142.29001515 </i>
   <i name="e_0_energy">     -0.00275356 </i>
  </energy>
  <time name="totalsc">   93.04   93.08</time>
 </calculation>
 <calculation>
  <scstep>
   <time name="dav">   17.56   17.56</time>
   <time name="total">   18.57   18.58</time>
   <energy>
    <i name="alphaZ">     62.66378033 </i>
    <i name="ewald">   5471.65846101 </i>
    <i name="hartreedc">  -7521.71083337 </i>
    <i name="XCdc">    206.47513080 </i>
    <i name="pawpsdc">   6327.17402948 </i>
    <i name="pawaedc">  -6335.19206676 </i>
    <i name="eentropy">     -0.00275188 </i>
    <i name="bandstr">   -553.81979073 </i>
    <i name="atom">   2202.35892741 </i>
    <i name="e_fr_energy">   -140.39511370 </i>
    <i name="e_wo_entrp">   -140.39236183 </i>
    <i name="e_0_energy">   -140.39373776 </i>
   </energy>
  </scstep>
  <scstep>
   <time name="dav">   20.04   20.05</time>
   <time name="total">   20.17   20.18</time>
   <energy>
    <i name="alphaZ">     62.66378033 </i>
    <i name="ewald">   5471.65846101 </i>
    <i name="hartreedc">  -7521.70955612 </i>
    <i name="XCdc">    206.47512516 </i>
    <i name="pawpsdc">   6327.17558811 </i>
    <i name="pawaedc">  -6335.19362608 </i>
    <i name="eentropy">     -0.00275142 </i>
    <i name="bandstr">   -553.82106224 </i>
    <i name="atom">   2202.35892741 </i>
    <i name="e_fr_energy">   -140.39511383 </i>
    <i name="e_wo_entrp">   -140.39236241 </i>
    <i name="e_0_energy">   -140.39373812 </i>
   </energy>
  </scstep>
  <structure>
   <crystal>
    <varray name="basis" >
     <v>       4.36390201       2.51950000       0.00000000 </v>
     <v>      -4.36390201       2.51950000       0.00000000 </v>
     <v>       0.00000000       0.00000000      15.00000000 </v>
    </varray>
    <i name="volume">    329.84553340 </i>
    <varray name="rec_basis" >
     <v>       0.11457636       0.19845207       0.00000000 </v>
     <v>      -0.11457636       0.19845207       0.00000000 </v>
     <v>       0.00000000       0.00000000       0.06666667 </v>
    </varray>
   </crystal>
   <varray name="positions" >
    <v>       0.33833964       0.66916646       0.10018741 </v>
    <v>       0.67166964       0.33583139       0.09997338 </v>
    <v>       0.16464225       0.32181521       0.09995018 </v>
    <v>       0.32422841       0.16211865       0.10000729 </v>
    <v>       0.16465821       0.84284370       0.09995018 </v>
    <v>       0.84538128       0.16210645       0.10000687 </v>
    <v>       0.68567271       0.84283521       0.09994969 </v>
    <v>       0.84539431       0.68327405       0.10000687 </v>
    <v>       0.33336054       0.16668018       0.32555232 </v>
    <v>       0.50004782       0.00009933       0.32558193 </v>
    <v>       0.33333069       0.66666523       0.32531099 </v>
    <v>       0.50004783       0.49994777       0.32558193 </v>
    <v>       0.83332198       0.16668212       0.32554844 </v>
    <v>       0.00000387       0.00000158       0.32552738 </v>
    <v>       0.83332196       0.66663963       0.32554844 </v>
    <v>       0.99990418       0.49995173       0.32558336 </v>
   </varray>
  </structure>
  <varray name="forces" >
   <v>      -0.00212339      -0.00158473       0.01093177 </v>
   <v>      -0.00067204       0.00056385       0.00302718 </v>
   <v>       0.00495754       0.00048159       0.00734243 </v>
   <v>      -0.00015754       0.00113105      -0.00918468 </v>
   <v>      -0.00094953       0.00195192       0.00734171 </v>
   <v>      -0.00440079      -0.00153881      -0.00928823 </v>
   <v>       0.00395244       0.00306121       0.00723990 </v>
   <v>      -0.00089157      -0.00458983      -0.00928143 </v>
   <v>      -0.00128597      -0.00234530       0.00741508 </v>
   <v>       0.00268912      -0.00458530      -0.00914477 </v>
   <v>       0.00032075       0.00044540      -0.00209807 </v>
   <v>      -0.00542227       0.00009427      -0.00914080 </v>
   <v>       0.00326204       0.00008093       0.00731130 </v>
   <v>      -0.00024252      -0.00030182      -0.00050803 </v>
   <v>      -0.00146446       0.00281477       0.00730411 </v>
   <v>       0.00242818       0.00432080      -0.00926748 </v>
  </varray>
  <varray name="stress" >
   <v>       3.40033536      -0.00073142       0.00382322 </v>
   <v>      -0.00073140       3.41426494       0.00664485 </v>
   <v>       0.00382325       0.00664485      -2.49921063 </v>
  </varray>
  <energy>
   <i name="e_fr_energy">   -142.29139784 </i>
   <i name="e_wo_entrp">   -142.29002213 </i>
   <i name="e_0_energy">     -0.00275142 </i>
  </energy>
  <time name="totalsc">   53.58   53.60</time>
 </calculation>
 <calculation>
  <scstep>
   <time name="dav">   17.22   17.22</time>
   <time name="total">   18.23   18.24</time>
   <energy>
    <i name="alphaZ">     62.66378033 </i>
    <i name="ewald">   5471.82510276 </i>
    <i name="hartreedc">  -7521.87342481 </i>
    <i name="XCdc">    206.47524863 </i>
    <i name="pawpsdc">   6327.17845957 </i>
    <i name="pawaedc">  -6335.19649998 </i>
    <i name="eentropy">     -0.00275035 </i>
    <i name="bandstr">   -553.82392892 </i>
    <i name="atom">   2202.35892741 </i>
    <i name="e_fr_energy">   -140.39508535 </i>
    <i name="e_wo_entrp">   -140.39233500 </i>
    <i name="e_0_energy">   -140.39371017 </i>
   </energy>
  </scstep>
  <scstep>
   <time name="dav">   18.16   18.17</time>
   <time name="total">   19.18   19.18</time>
   <energy>
    <i name="e_fr_energy">   -140.39508597 </i>
    <i name="e_wo_entrp">   -140.39233647 </i>
    <i name="e_0_energy">   -140.39371122 </i>
   </energy>
  </scstep>
  <scstep>
   <time name="dav">   18.84   18.85</time>
   <time name="total">   18.97   18.98</time>
   <energy>
    <i name="alphaZ">     62.66378033 </i>
    <i name="ewald">   5471.82510276 </i>
    <i name="hartreedc">  -7521.86710072 </i>
    <i name="XCdc">    206.47515768 </i>
    <i name="pawpsdc">   6327.20257214 </i>
    <i name="pawaedc">  -6335.22060429 </i>
    <i name="eentropy">     -0.00274828 </i>
    <i name="bandstr">   -553.83017381 </i>
    <i name="atom">   2202.35892741 </i>
    <i name="e_fr_energy">   -140.39508678 </i>
    <i name="e_wo_entrp">   -140.39233850 </i>
    <i name="e_0_energy">   -140.39371264 </i>
   </energy>
  </scstep>
  <structure>
   <crystal>
    <varray name="basis" >
     <v>       4.36390201       2.51950000       0.00000000 </v>
     <v>      -4.36390201       2.51950000       0.00000000 </v>
     <v>       0.00000000       0.00000000      15.00000000 </v>
    </varray>
    <i name="volume">    329.84553340 </i>
    <varray name="rec_basis" >
     <v>       0.11457636       0.19845207       0.00000000 </v>
     <v>      -0.11457636       0.19845207       0.00000000 </v>
     <v>       0.00000000       0.00000000       0.06666667 </v>
    </varray>
   </crystal>
   <varray name="positions" >
    <v>       0.33831652       0.66916344       0.10024890 </v>
    <v>       0.67167205       0.33583865       0.09997774 </v>
    <v>       0.16467056       0.32179529       0.09996420 </v>
    <v>       0.32423464       0.16212628       0.09998126 </v>
    <v>       0.16466757       0.84286285       0.09996420 </v>
    <v>       0.84535017       0.16211454       0.09998048 </v>
    <v>       0.68571618       0.84284330       0.09996332 </v>
    <v>       0.84535125       0.68324286       0.09998050 </v>
    <v>       0.33333721       0.16666804       0.32557730 </v>
    <v>       0.50002457       0.00005199       0.32556265 </v>
    <v>       0.33333593       0.66666741       0.32526979 </v>
    <v>       0.50002455       0.49997283       0.32556266 </v>
    <v>       0.83333743       0.16666844       0.32557250 </v>
    <v>       0.00000064       0.00000044       0.32552476 </v>
    <v>       0.83333746       0.66666792       0.32557248 </v>
    <v>       0.99994859       0.49997440       0.32556395 </v>
   </varray>
  </structure>
  <varray name="forces" >
   <v>       0.00515080       0.00416735       0.00372847 </v>
   <v>      -0.00134045      -0.00300658      -0.00080322 </v>
   <v>      -0.01467421      -0.00460355       0.00185234 </v>
   <v>       0.00559488      -0.00006654      -0.00022329 </v>
   <v>      -0.00156776      -0.00881767       0.00184400 </v>
   <v>       0.01155059       0.00784002      -0.00041519 </v>
   <v>      -0.01244187      -0.00829294       0.00180037 </v>
   <v>       0.00739442       0.01218412      -0.00044095 </v>
   <v>       0.00234268       0.00437379      -0.00211203 </v>
   <v>      -0.00480613       0.00890296      -0.00297088 </v>
   <v>      -0.00063742      -0.00078288       0.00280261 </v>
   <v>       0.01039278       0.00014859      -0.00297948 </v>
   <v>      -0.00602079      -0.00009972      -0.00202561 </v>
   <v>       0.00070267       0.00090482       0.00505832 </v>
   <v>       0.00266196      -0.00512255      -0.00201562 </v>
   <v>      -0.00430214      -0.00772922      -0.00309983 </v>
  </varray>
  <varray name="stress" >
   <v>       3.46149170      -0.05025615       0.00404183 </v>
   <v>      -0.05025616       3.34927553       0.00675369 </v>
   <v>       0.00404183       0.00675374      -2.50400969 </v>
  </varray>
  <energy>
   <i name="e_fr_energy">   -142.29141672 </i>
   <i name="e_wo_entrp">   -142.29004257 </i>
   <i name="e_0_energy">     -0.00274828 </i>
  </energy>
  <time name="totalsc">   71.23   71.25</time>
 </calculation>
 <calculation>
  <scstep>
   <time name="dav">   19.30   19.30</time>
   <time name="total">   20.32   20.32</time>
   <energy>
    <i name="alphaZ">     62.66378033 </i>
    <i name="ewald">   5471.78349059 </i>
    <i name="hartreedc">  -7521.82292211 </i>
    <i name="XCdc">    206.47512155 </i>
    <i name="pawpsdc">   6327.19296266 </i>
    <i name="pawaedc">  -6335.21099451 </i>
    <i name="eentropy">     -0.00274823 </i>
    <i name="bandstr">   -553.83271757 </i>
    <i name="atom">   2202.35892741 </i>
    <i name="e_fr_energy">   -140.39509988 </i>
    <i name="e_wo_entrp">   -140.39235165 </i>
    <i name="e_0_energy">   -140.39372577 </i>
   </energy>
  </scstep>
  <scstep>
   <time name="dav">   18.23   18.23</time>
   <time name="total">   18.36   18.36</time>
   <energy>
    <i name="alphaZ">     62.66378033 </i>
    <i name="ewald">   5471.78349059 </i>
    <i name="hartreedc">  -7521.82142896 </i>
    <i name="XCdc">    206.47512650 </i>
    <i name="pawpsdc">   6327.17746241 </i>
    <i name="pawaedc">  -6335.19549539 </i>
    <i name="eentropy">     -0.00274835 </i>
    <i name="bandstr">   -553.83421446 </i>
    <i name="atom">   2202.35892741 </i>
    <i name="e_fr_energy">   -140.39509991 </i>
    <i name="e_wo_entrp">   -140.39235157 </i>
    <i name="e_0_energy">   -140.39372574 </i>
   </energy>
  </scstep>
  <structure>
   <crystal>
    <varray name="basis" >
     <v>       4.36390201       2.51950000       0.00000000 </v>
     <v>      -4.36390201       2.51950000       0.00000000 </v>
     <v>       0.00000000       0.00000000      15.00000000 </v>
    </varray>
    <i name="volume">    329.84553340 </i>
    <varray name="rec_basis" >
     <v>       0.11457636       0.19845207       0.00000000 </v>
     <v>      -0.11457636       0.19845207       0.00000000 </v>
     <v>       0.00000000       0.00000000       0.06666667 </v>
    </varray>
   </crystal>
   <varray name="positions" >
    <v>       0.33832230       0.66916419       0.10023352 </v>
    <v>       0.67167145       0.33583684       0.09997665 </v>
    <v>       0.16466348       0.32180027       0.09996069 </v>
    <v>       0.32423308       0.16212437       0.09998777 </v>
    <v>       0.16466523       0.84285806       0.09996069 </v>
    <v>       0.84535795       0.16211251       0.09998708 </v>
    <v>       0.68570530       0.84284127       0.09995991 </v>
    <v>       0.84536202       0.68325066       0.09998710 </v>
    <v>       0.33334305       0.16667108       0.32557105 </v>
    <v>       0.50003039       0.00006383       0.32556747 </v>
    <v>       0.33333462       0.66666686       0.32528009 </v>
    <v>       0.50003037       0.49996656       0.32556748 </v>
    <v>       0.83333357       0.16667186       0.32556648 </v>
    <v>       0.00000145       0.00000073       0.32552542 </v>
    <v>       0.83333358       0.66666084       0.32556647 </v>
    <v>       0.99993748       0.49996873       0.32556880 </v>
   </varray>
  </structure>
  <varray name="forces" >
   <v>       0.00351136       0.00284102       0.00563498 </v>
   <v>      -0.00149357      -0.00228594       0.00012478 </v>
   <v>      -0.00941383      -0.00330236       0.00332799 </v>
   <v>       0.00422314       0.00050270      -0.00258808 </v>
   <v>      -0.00163920      -0.00604455       0.00334817 </v>
   <v>       0.00744765       0.00546911      -0.00267752 </v>
   <v>      -0.00819697      -0.00543877       0.00325617 </v>
   <v>       0.00527429       0.00770085      -0.00267634 </v>
   <v>       0.00115065       0.00219551       0.00057952 </v>
   <v>      -0.00255336       0.00492034      -0.00470722 </v>
   <v>      -0.00038097      -0.00044205       0.00085846 </v>
   <v>       0.00571219       0.00016058      -0.00471293 </v>
   <v>      -0.00312147      -0.00007555       0.00059670 </v>
   <v>       0.00043454       0.00056056       0.00387394 </v>
   <v>       0.00132282      -0.00264292       0.00060517 </v>
   <v>      -0.00227727      -0.00411854      -0.00484378 </v>
  </varray>
  <varray name="stress" >
   <v>       3.45419587      -0.04403671       0.00393046 </v>
   <v>      -0.04403670       3.35785637       0.00682724 </v>
   <v>       0.00393045       0.00682725      -2.49858632 </v>
  </varray>
  <energy>
   <i name="e_fr_energy">   -142.29141836 </i>
   <i name="e_wo_entrp">   -142.29004419 </i>
   <i name="e_0_energy">     -0.00274835 </i>
  </energy>
  <time name="totalsc">   53.51   53.52</time>
 </calculation>
 <calculation>
  <scstep>
   <time name="dav">   17.22   17.22</time>
   <time name="total">   18.24   18.24</time>
   <energy>
    <i name="alphaZ">     62.66378033 </i>
    <i name="ewald">   5472.03806786 </i>
    <i name="hartreedc">  -7522.07425514 </i>
    <i name="XCdc">    206.47527772 </i>
    <i name="pawpsdc">   6327.17105587 </i>
    <i name="pawaedc">  -6335.18909170 </i>
    <i name="eentropy">     -0.00274777 </i>
    <i name="bandstr">   -553.83604631 </i>
    <i name="atom">   2202.35892741 </i>
    <i name="e_fr_energy">   -140.39503173 </i>
    <i name="e_wo_entrp">   -140.39228396 </i>
    <i name="e_0_energy">   -140.39365785 </i>
   </energy>
  </scstep>
  <scstep>
   <time name="dav">   17.41   17.41</time>
   <time name="total">   18.42   18.42</time>
   <energy>
    <i name="e_fr_energy">   -140.39503270 </i>
    <i name="e_wo_entrp">   -140.39228564 </i>
    <i name="e_0_energy">   -140.39365917 </i>
   </energy>
  </scstep>
  <scstep>
   <time name="dav">   17.62   17.62</time>
   <time name="total">   17.75   17.75</time>
   <energy>
    <i name="alphaZ">     62.66378033 </i>
    <i name="ewald">   5472.03806786 </i>
    <i name="hartreedc">  -7522.07122016 </i>
    <i name="XCdc">    206.47516845 </i>
    <i name="pawpsdc">   6327.17339011 </i>
    <i name="pawaedc">  -6335.19141967 </i>
    <i name="eentropy">     -0.00274629 </i>
    <i name="bandstr">   -553.83898082 </i>
    <i name="atom">   2202.35892741 </i>
    <i name="e_fr_energy">   -140.39503279 </i>
    <i name="e_wo_entrp">   -140.39228650 </i>
    <i name="e_0_energy">   -140.39365965 </i>
   </energy>
  </scstep>
  <structure>
   <crystal>
    <varray name="basis" >
     <v>       4.36390201       2.51950000       0.00000000 </v>
     <v>      -4.36390201       2.51950000       0.00000000 </v>
     <v>       0.00000000       0.00000000      15.00000000 </v>
    </varray>
    <i name="volume">    329.84553340 </i>
    <varray name="rec_basis" >
     <v>       0.11457636       0.19845207       0.00000000 </v>
     <v>      -0.11457636       0.19845207       0.00000000 </v>
     <v>       0.00000000       0.00000000       0.06666667 </v>
    </varray>
   </crystal>
   <varray name="positions" >
    <v>       0.33834930       0.66916918       0.10028355 </v>
    <v>       0.67164695       0.33582923       0.09997944 </v>
    <v>       0.16460763       0.32180661       0.09997773 </v>
    <v>       0.32426072       0.16211275       0.09996604 </v>
    <v>       0.16461308       0.84282695       0.09997779 </v>
    <v>       0.84542071       0.16212665       0.09996489 </v>
    <v>       0.68564618       0.84284001       0.09997653 </v>
    <v>       0.84542609       0.68327139       0.09996492 </v>
    <v>       0.33335344       0.16667684       0.32558666 </v>
    <v>       0.50004564       0.00008977       0.32554367 </v>
    <v>       0.33333213       0.66666626       0.32525935 </v>
    <v>       0.50004571       0.49995486       0.32554367 </v>
    <v>       0.83332682       0.16667836       0.32558162 </v>
    <v>       0.00000630       0.00000263       0.32553463 </v>
    <v>       0.83332684       0.66664874       0.32558162 </v>
    <v>       0.99991779       0.49995843       0.32554455 </v>
   </varray>
  </structure>
  <varray name="forces" >
   <v>      -0.00760666      -0.00655335       0.00093055 </v>
   <v>       0.00789350       0.00649773      -0.00322300 </v>
   <v>       0.02298691       0.01429465      -0.00249764 </v>
   <v>      -0.01664811      -0.00798604       0.00571469 </v>
[...]
       <r>     2.5182     1.4620    34.4543 </r>
       <r>     2.6218     1.5315    34.6130 </r>
       <r>     2.7254     1.4588    34.7641 </r>
       <r>     2.8291     1.0363    34.8715 </r>
       <r>     2.9327     0.9202    34.9668 </r>
       <r>     3.0363     1.5871    35.1313 </r>
       <r>     3.1399     1.7025    35.3077 </r>
       <r>     3.2435     1.7255    35.4864 </r>
       <r>     3.3471     1.6249    35.6548 </r>
       <r>     3.4507     1.0399    35.7625 </r>
       <r>     3.5543     1.2944    35.8967 </r>
       <r>     3.6580     1.6194    36.0644 </r>
       <r>     3.7616     1.3320    36.2025 </r>
       <r>     3.8652     1.4299    36.3506 </r>
       <r>     3.9688     2.2201    36.5806 </r>
       <r>     4.0724     2.1848    36.8070 </r>
       <r>     4.1760     1.5178    36.9643 </r>
       <r>     4.2796     2.0015    37.1717 </r>
       <r>     4.3832     2.3204    37.4121 </r>
       <r>     4.4868     1.7245    37.5908 </r>
       <r>     4.5905     1.6696    37.7637 </r>
       <r>     4.6941     1.6220    37.9318 </r>
       <r>     4.7977     2.1213    38.1516 </r>
       <r>     4.9013     2.3136    38.3913 </r>
       <r>     5.0049     2.5041    38.6508 </r>
       <r>     5.1085     2.2715    38.8861 </r>
       <r>     5.2121     2.1012    39.1038 </r>
       <r>     5.3157     1.8097    39.2913 </r>
       <r>     5.4194     2.3886    39.5388 </r>
       <r>     5.5230     2.5700    39.8051 </r>
       <r>     5.6266     1.8899    40.0009 </r>
       <r>     5.7302     1.7985    40.1873 </r>
       <r>     5.8338     2.2442    40.4198 </r>
       <r>     5.9374     2.8129    40.7112 </r>
       <r>     6.0410     3.0756    41.0299 </r>
       <r>     6.1446     3.7014    41.4134 </r>
       <r>     6.2483     3.4844    41.7744 </r>
       <r>     6.3519     3.1802    42.1040 </r>
       <r>     6.4555     2.7138    42.3851 </r>
       <r>     6.5591     2.0457    42.5971 </r>
       <r>     6.6627     3.2221    42.9309 </r>
       <r>     6.7663     4.4033    43.3872 </r>
       <r>     6.8699     3.7535    43.7761 </r>
       <r>     6.9735     3.7034    44.1598 </r>
       <r>     7.0771     4.2399    44.5991 </r>
       <r>     7.1808     4.2004    45.0343 </r>
       <r>     7.2844     3.4669    45.3935 </r>
       <r>     7.3880     4.6294    45.8732 </r>
       <r>     7.4916     4.7360    46.3639 </r>
       <r>     7.5952     3.3521    46.7112 </r>
       <r>     7.6988     3.3978    47.0633 </r>
       <r>     7.8024     3.4485    47.4206 </r>
       <r>     7.9060     2.4952    47.6791 </r>
       <r>     8.0097     1.5912    47.8440 </r>
       <r>     8.1133     0.7919    47.9260 </r>
       <r>     8.2169     0.2429    47.9512 </r>
       <r>     8.3205     0.1816    47.9700 </r>
       <r>     8.4241     0.2189    47.9927 </r>
       <r>     8.5277     0.0673    47.9997 </r>
       <r>     8.6313     0.0033    48.0000 </r>
       <r>     8.7349     0.0000    48.0000 </r>
       <r>     8.8385     0.0000    48.0000 </r>
       <r>     8.9422     0.0000    48.0000 </r>
       <r>     9.0458     0.0000    48.0000 </r>
       <r>     9.1494     0.0000    48.0000 </r>
       <r>     9.2530     0.0000    48.0000 </r>
       <r>     9.3566     0.0000    48.0000 </r>
       <r>     9.4602     0.0000    48.0000 </r>
       <r>     9.5638     0.0000    48.0000 </r>
       <r>     9.6674     0.0000    48.0000 </r>
       <r>     9.7711     0.0000    48.0000 </r>
      </set>
      <set comment="spin 2">
       <r>   -21.3125     0.0000     0.0000 </r>
       <r>   -21.2089     0.0000     0.0000 </r>
       <r>   -21.1053     0.0000     0.0000 </r>
       <r>   -21.0017     0.0000     0.0000 </r>
       <r>   -20.8981     0.0000     0.0000 </r>
       <r>   -20.7945     0.0000     0.0000 </r>
       <r>   -20.6909     0.0000     0.0000 </r>
       <r>   -20.5872     0.0000     0.0000 </r>
       <r>   -20.4836     0.0000     0.0000 </r>
       <r>   -20.3800     0.0000     0.0000 </r>
       <r>   -20.2764     0.0000     0.0000 </r>
       <r>   -20.1728     0.0000     0.0000 </r>
       <r>   -20.0692     0.0012     0.0001 </r>
       <r>   -19.9656     0.0400     0.0043 </r>
       <r>   -19.8620     0.2718     0.0324 </r>
       <r>   -19.7583     0.5631     0.0908 </r>
       <r>   -19.6547     0.6266     0.1557 </r>
       <r>   -19.5511     0.6606     0.2242 </r>
       <r>   -19.4475     0.5933     0.2856 </r>
       <r>   -19.3439     0.7256     0.3608 </r>
       <r>   -19.2403     0.5463     0.4174 </r>
       <r>   -19.1367     0.6708     0.4869 </r>
       <r>   -19.0331     0.7562     0.5653 </r>
       <r>   -18.9294     0.4678     0.6137 </r>
       <r>   -18.8258     0.6781     0.6840 </r>
       <r>   -18.7222     0.8136     0.7683 </r>
       <r>   -18.6186     0.5690     0.8273 </r>
       <r>   -18.5150     0.4311     0.8719 </r>
       <r>   -18.4114     0.8602     0.9610 </r>
       <r>   -18.3078     0.7707     1.0409 </r>
       <r>   -18.2042     0.5427     1.0971 </r>
       <r>   -18.1006     0.4462     1.1434 </r>
       <r>   -17.9969     0.9681     1.2437 </r>
       <r>   -17.8933     1.6162     1.4111 </r>
       <r>   -17.7897     1.4698     1.5634 </r>
       <r>   -17.6861     1.4410     1.7127 </r>
       <r>   -17.5825     1.6917     1.8880 </r>
       <r>   -17.4789     2.1998     2.1159 </r>
       <r>   -17.3753     2.7408     2.3999 </r>
       <r>   -17.2717     2.4220     2.6509 </r>
       <r>   -17.1680     1.0079     2.7553 </r>
       <r>   -17.0644     0.5917     2.8166 </r>
       <r>   -16.9608     0.9224     2.9122 </r>
       <r>   -16.8572     0.8683     3.0021 </r>
       <r>   -16.7536     0.7117     3.0759 </r>
       <r>   -16.6500     0.5898     3.1370 </r>
       <r>   -16.5464     0.3543     3.1737 </r>
       <r>   -16.4428     0.5338     3.2290 </r>
       <r>   -16.3391     1.1826     3.3515 </r>
       <r>   -16.2355     0.8208     3.4366 </r>
       <r>   -16.1319     0.6133     3.5001 </r>
       <r>   -16.0283     0.5501     3.5571 </r>
       <r>   -15.9247     0.5406     3.6132 </r>
       <r>   -15.8211     0.4756     3.6624 </r>
       <r>   -15.7175     1.1569     3.7823 </r>
       <r>   -15.6139     1.7334     3.9619 </r>
       <r>   -15.5103     1.8112     4.1496 </r>
       <r>   -15.4066     2.0856     4.3657 </r>
       <r>   -15.3030     1.8057     4.5528 </r>
       <r>   -15.1994     1.5370     4.7120 </r>
       <r>   -15.0958     1.7814     4.8966 </r>
       <r>   -14.9922     2.3701     5.1422 </r>
       <r>   -14.8886     1.9584     5.3451 </r>
       <r>   -14.7850     1.7280     5.5241 </r>
       <r>   -14.6814     1.2932     5.6581 </r>
       <r>   -14.5777     1.3012     5.7929 </r>
       <r>   -14.4741     1.9950     5.9996 </r>
       <r>   -14.3705     2.6459     6.2738 </r>
       <r>   -14.2669     1.8797     6.4685 </r>
       <r>   -14.1633     1.1996     6.5928 </r>
       <r>   -14.0597     0.9678     6.6931 </r>
       <r>   -13.9561     1.0282     6.7996 </r>
       <r>   -13.8525     1.0033     6.9036 </r>
       <r>   -13.7489     0.7345     6.9797 </r>
       <r>   -13.6452     0.4319     7.0244 </r>
       <r>   -13.5416     0.5957     7.0861 </r>
       <r>   -13.4380     0.5680     7.1450 </r>
       <r>   -13.3344     0.7733     7.2251 </r>
       <r>   -13.2308     0.7554     7.3034 </r>
       <r>   -13.1272     0.8092     7.3872 </r>
       <r>   -13.0236     1.0312     7.4941 </r>
       <r>   -12.9200     0.9410     7.5916 </r>
       <r>   -12.8163     1.0894     7.7044 </r>
       <r>   -12.7127     0.7682     7.7840 </r>
       <r>   -12.6091     0.8562     7.8728 </r>
       <r>   -12.5055     0.6901     7.9443 </r>
       <r>   -12.4019     0.5027     7.9964 </r>
       <r>   -12.2983     1.0965     8.1100 </r>
       <r>   -12.1947     0.9118     8.2044 </r>
       <r>   -12.0911     0.8654     8.2941 </r>
       <r>   -11.9874     1.5181     8.4514 </r>
       <r>   -11.8838     2.0812     8.6670 </r>
       <r>   -11.7802     1.9546     8.8696 </r>
       <r>   -11.6766     1.8698     9.0633 </r>
       <r>   -11.5730     2.0477     9.2755 </r>
       <r>   -11.4694     2.0029     9.4830 </r>
       <r>   -11.3658     1.0718     9.5940 </r>
       <r>   -11.2622     1.1735     9.7156 </r>
       <r>   -11.1586     1.4836     9.8693 </r>
       <r>   -11.0549     1.5521    10.0302 </r>
       <r>   -10.9513     0.8173    10.1148 </r>
       <r>   -10.8477     0.7076    10.1882 </r>
       <r>   -10.7441     1.8620    10.3811 </r>
       <r>   -10.6405     2.3481    10.6244 </r>
       <r>   -10.5369     1.1764    10.7463 </r>
       <r>   -10.4333     0.7643    10.8255 </r>
       <r>   -10.3297     1.4024    10.9708 </r>
       <r>   -10.2260     2.4604    11.2257 </r>
       <r>   -10.1224     2.0997    11.4432 </r>
       <r>   -10.0188     1.1106    11.5583 </r>
       <r>    -9.9152     1.1240    11.6748 </r>
       <r>    -9.8116     1.2166    11.8008 </r>
       <r>    -9.7080     1.5118    11.9575 </r>
       <r>    -9.6044     1.1759    12.0793 </r>
       <r>    -9.5008     1.3608    12.2203 </r>
       <r>    -9.3971     1.2311    12.3479 </r>
       <r>    -9.2935     1.2347    12.4758 </r>
       <r>    -9.1899     1.2047    12.6006 </r>
       <r>    -9.0863     0.4174    12.6439 </r>
       <r>    -8.9827     0.6115    12.7072 </r>
       <r>    -8.8791     1.6579    12.8790 </r>
       <r>    -8.7755     2.4098    13.1287 </r>
       <r>    -8.6719     2.1064    13.3469 </r>
       <r>    -8.5683     1.1173    13.4627 </r>
       <r>    -8.4646     1.0918    13.5758 </r>
       <r>    -8.3610     1.2844    13.7089 </r>
       <r>    -8.2574     2.2883    13.9460 </r>
       <r>    -8.1538     3.0319    14.2601 </r>
       <r>    -8.0502     2.9414    14.5649 </r>
       <r>    -7.9466     2.0490    14.7772 </r>
       <r>    -7.8430     1.7272    14.9562 </r>
       <r>    -7.7394     1.8130    15.1440 </r>
       <r>    -7.6357     3.2070    15.4763 </r>
       <r>    -7.5321     3.5483    15.8439 </r>
       <r>    -7.4285     2.7184    16.1256 </r>
       <r>    -7.3249     2.6861    16.4039 </r>
       <r>    -7.2213     3.0648    16.7215 </r>
       <r>    -7.1177     3.0671    17.0392 </r>
       <r>    -7.0141     3.4152    17.3931 </r>
       <r>    -6.9105     2.9060    17.6942 </r>
       <r>    -6.8069     2.5093    17.9542 </r>
       <r>    -6.7032     3.4536    18.3120 </r>
       <r>    -6.5996     3.0949    18.6327 </r>
       <r>    -6.4960     2.8195    18.9248 </r>
       <r>    -6.3924     3.1846    19.2548 </r>
       <r>    -6.2888     3.0761    19.5735 </r>
       <r>    -6.1852     2.9599    19.8802 </r>
       <r>    -6.0816     2.3311    20.1217 </r>
       <r>    -5.9780     2.2082    20.3505 </r>
       <r>    -5.8743     2.6950    20.6298 </r>
       <r>    -5.7707     3.3391    20.9757 </r>
       <r>    -5.6671     2.6132    21.2465 </r>
       <r>    -5.5635     2.5570    21.5114 </r>
       <r>    -5.4599     2.8780    21.8096 </r>
       <r>    -5.3563     3.4910    22.1713 </r>
       <r>    -5.2527     3.4670    22.5306 </r>
       <r>    -5.1491     2.0533    22.7433 </r>
       <r>    -5.0454     1.4346    22.8919 </r>
       <r>    -4.9418     2.2089    23.1208 </r>
       <r>    -4.8382     2.4659    23.3763 </r>
       <r>    -4.7346     2.2475    23.6092 </r>
       <r>    -4.6310     2.0202    23.8185 </r>
       <r>    -4.5274     2.1165    24.0378 </r>
       <r>    -4.4238     2.4418    24.2908 </r>
       <r>    -4.3202     2.6339    24.5637 </r>
       <r>    -4.2166     3.2816    24.9037 </r>
       <r>    -4.1129     5.1314    25.4354 </r>
       <r>    -4.0093     4.7572    25.9283 </r>
       <r>    -3.9057     3.4543    26.2862 </r>
       <r>    -3.8021     2.3055    26.5251 </r>
       <r>    -3.6985     1.7656    26.7080 </r>
       <r>    -3.5949     1.8954    26.9044 </r>
       <r>    -3.4913     2.2018    27.1325 </r>
       <r>    -3.3877     2.8323    27.4260 </r>
       <r>    -3.2840     2.0965    27.6432 </r>
       <r>    -3.1804     1.8332    27.8331 </r>
       <r>    -3.0768     2.0559    28.0461 </r>
       <r>    -2.9732     2.4846    28.3036 </r>
       <r>    -2.8696     3.3379    28.6494 </r>
       <r>    -2.7660     2.0885    28.8658 </r>
       <r>    -2.6624     1.7188    29.0439 </r>
       <r>    -2.5588     2.6619    29.3197 </r>
       <r>    -2.4552     2.7868    29.6085 </r>
       <r>    -2.3515     2.4022    29.8574 </r>
       <r>    -2.2479     2.7448    30.1417 </r>
       <r>    -2.1443     2.3388    30.3841 </r>
       <r>    -2.0407     0.8146    30.4685 </r>
       <r>    -1.9371     0.4322    30.5132 </r>
       <r>    -1.8335     1.0114    30.6180 </r>
       <r>    -1.7299     0.7875    30.6996 </r>
       <r>    -1.6263     0.5619    30.7578 </r>
       <r>    -1.5226     0.9448    30.8557 </r>
       <r>    -1.4190     0.7524    30.9337 </r>
       <r>    -1.3154     0.3848    30.9736 </r>
       <r>    -1.2118     0.1108    30.9850 </r>
       <r>    -1.1082     0.0121    30.9863 </r>
       <r>    -1.0046     0.0534    30.9918 </r>
       <r>    -0.9010     0.3136    31.0243 </r>
       <r>    -0.7974     0.5035    31.0765 </r>
       <r>    -0.6937     0.6007    31.1387 </r>
       <r>    -0.5901     1.2597    31.2692 </r>
       <r>    -0.4865     1.3527    31.4094 </r>
       <r>    -0.3829     1.2328    31.5371 </r>
       <r>    -0.2793     1.5986    31.7028 </r>
       <r>    -0.1757     1.4915    31.8573 </r>
       <r>    -0.0721     0.8929    31.9498 </r>
       <r>     0.0315     0.3563    31.9867 </r>
       <r>     0.1351     0.1134    31.9985 </r>
       <r>     0.2388     0.1187    32.0108 </r>
       <r>     0.3424     0.6610    32.0793 </r>
       <r>     0.4460     1.2824    32.2121 </r>
       <r>     0.5496     1.0579    32.3217 </r>
       <r>     0.6532     0.4684    32.3703 </r>
       <r>     0.7568     0.6935    32.4421 </r>
       <r>     0.8604     1.5145    32.5990 </r>
       <r>     0.9640     1.6934    32.7745 </r>
       <r>     1.0677     1.5243    32.9324 </r>
       <r>     1.1713     0.7468    33.0098 </r>
       <r>     1.2749     0.5762    33.0695 </r>
       <r>     1.3785     0.7039    33.1424 </r>
       <r>     1.4821     0.6511    33.2099 </r>
       <r>     1.5857     0.7968    33.2925 </r>
       <r>     1.6893     1.2935    33.4265 </r>
       <r>     1.7929     1.3145    33.5627 </r>
       <r>     1.8966     0.5667    33.6214 </r>
       <r>     2.0002     0.2939    33.6518 </r>
       <r>     2.1038     0.8876    33.7438 </r>
       <r>     2.2074     2.0156    33.9526 </r>
       <r>     2.3110     1.9150    34.1510 </r>
       <r>     2.4146     1.4645    34.3028 </r>
       <r>     2.5182     1.4620    34.4543 </r>
       <r>     2.6218     1.5315    34.6130 </r>
       <r>     2.7254     1.4589    34.7641 </r>
       <r>     2.8291     1.0364    34.8715 </r>
       <r>     2.9327     0.9205    34.9669 </r>
       <r>     3.0363     1.5872    35.1313 </r>
       <r>     3.1399     1.7023    35.3077 </r>
       <r>     3.2435     1.7257    35.4865 </r>
       <r>     3.3471     1.6247    35.6548 </r>
       <r>     3.4507     1.0399    35.7626 </r>
       <r>     3.5543     1.2948    35.8967 </r>
       <r>     3.6580     1.6190    36.0645 </r>
       <r>     3.7616     1.3320    36.2025 </r>
       <r>     3.8652     1.4303    36.3507 </r>
       <r>     3.9688     2.2203    36.5807 </r>
       <r>     4.0724     2.1843    36.8071 </r>
       <r>     4.1760     1.5178    36.9643 </r>
       <r>     4.2796     2.0019    37.1717 </r>
       <r>     4.3832     2.3205    37.4122 </r>
       <r>     4.4868     1.7244    37.5908 </r>
       <r>     4.5905     1.6693    37.7638 </r>
       <r>     4.6941     1.6229    37.9320 </r>
       <r>     4.7977     2.1231    38.1519 </r>
       <r>     4.9013     2.3142    38.3917 </r>
       <r>     5.0049     2.5033    38.6511 </r>
       <r>     5.1085     2.2723    38.8865 </r>
       <r>     5.2121     2.1000    39.1041 </r>
       <r>     5.3157     1.8100    39.2916 </r>
       <r>     5.4194     2.3905    39.5393 </r>
       <r>     5.5230     2.5685    39.8054 </r>
       <r>     5.6266     1.8890    40.0012 </r>
       <r>     5.7302     1.8001    40.1877 </r>
       <r>     5.8338     2.2445    40.4202 </r>
       <r>     5.9374     2.8107    40.7114 </r>
       <r>     6.0410     3.0762    41.0302 </r>
       <r>     6.1446     3.7034    41.4139 </r>
       <r>     6.2483     3.4843    41.7749 </r>
       <r>     6.3519     3.1789    42.1043 </r>
       <r>     6.4555     2.7122    42.3853 </r>
       <r>     6.5591     2.0460    42.5973 </r>
       <r>     6.6627     3.2252    42.9315 </r>
       <r>     6.7663     4.4029    43.3876 </r>
       <r>     6.8699     3.7513    43.7763 </r>
       <r>     6.9735     3.7043    44.1601 </r>
       <r>     7.0771     4.2395    44.5994 </r>
       <r>     7.1808     4.2011    45.0347 </r>
       <r>     7.2844     3.4693    45.3941 </r>
       <r>     7.3880     4.6284    45.8737 </r>
       <r>     7.4916     4.7354    46.3643 </r>
       <r>     7.5952     3.3513    46.7116 </r>
       <r>     7.6988     3.4000    47.0639 </r>
       <r>     7.8024     3.4480    47.4211 </r>
       <r>     7.9060     2.4933    47.6794 </r>
       <r>     8.0097     1.5900    47.8442 </r>
       <r>     8.1133     0.7909    47.9261 </r>
       <r>     8.2169     0.2420    47.9512 </r>
       <r>     8.3205     0.1819    47.9701 </r>
       <r>     8.4241     0.2187    47.9927 </r>
       <r>     8.5277     0.0670    47.9997 </r>
       <r>     8.6313     0.0033    48.0000 </r>
       <r>     8.7349     0.0000    48.0000 </r>
       <r>     8.8385     0.0000    48.0000 </r>
       <r>     8.9422     0.0000    48.0000 </r>
       <r>     9.0458     0.0000    48.0000 </r>
       <r>     9.1494     0.0000    48.0000 </r>
       <r>     9.2530     0.0000    48.0000 </r>
       <r>     9.3566     0.0000    48.0000 </r>
       <r>     9.4602     0.0000    48.0000 </r>
       <r>     9.5638     0.0000    48.0000 </r>
       <r>     9.6674     0.0000    48.0000 </r>
       <r>     9.7711     0.0000    48.0000 </r>
      </set>
     </set>
    </array>
   </total>
  </dos>
 </calculation>
 <structure name="finalpos" >
  <crystal>
   <varray name="basis" >
    <v>       4.36390201       2.51950000       0.00000000 </v>
    <v>      -4.36390201       2.51950000       0.00000000 </v>
    <v>       0.00000000       0.00000000      15.00000000 </v>
   </varray>
   <i name="volume">    329.84553340 </i>
   <varray name="rec_basis" >
    <v>       0.11457636       0.19845207       0.00000000 </v>
    <v>      -0.11457636       0.19845207       0.00000000 </v>
    <v>       0.00000000       0.00000000       0.06666667 </v>
   </varray>
  </crystal>
  <varray name="positions" >
   <v>       0.33825475       0.66912572       0.10048189 </v>
   <v>       0.67159060       0.33579312       0.10016890 </v>
   <v>       0.16457166       0.32176598       0.10017476 </v>
   <v>       0.32415350       0.16207698       0.10018482 </v>
   <v>       0.16457246       0.84280355       0.10017476 </v>
   <v>       0.84529968       0.16207407       0.10017205 </v>
   <v>       0.68560493       0.84280133       0.10016203 </v>
   <v>       0.84529899       0.68322426       0.10017205 </v>
   <v>       0.33343327       0.16671706       0.32537375 </v>
   <v>       0.50011995       0.00012489       0.32535006 </v>
   <v>       0.33341248       0.66670666       0.32506555 </v>
   <v>       0.50011995       0.49999631       0.32535007 </v>
   <v>       0.83340684       0.16671847       0.32536905 </v>
   <v>       0.00008205       0.00004166       0.32534715 </v>
   <v>       0.83340684       0.66668926       0.32536904 </v>
   <v>      -0.00000263       0.49999933       0.32535073 </v>
  </varray>
 </structure>
</modeling>
