  16  16   0  16
  0.2041944E+02  0.5015000E-09  0.5015000E-09  0.1500000E-08  0.5000000E-15
  1.000000000000000E-004
  CAR 
 Lattice                                 
      9.31243382    -20.95721480  301     -0.26236446      1.00000000
    -20.957  0.0000E+00  0.0000E+00  0.0000E+00  0.0000E+00
    -20.856  0.0000E+00  0.0000E+00  0.0000E+00  0.0000E+00
    -20.755  0.0000E+00  0.0000E+00  0.0000E+00  0.0000E+00
    -20.655  0.0000E+00  0.0000E+00  0.0000E+00  0.0000E+00
    -20.554  0.0000E+00  0.0000E+00  0.0000E+00  0.0000E+00
    -20.453  0.0000E+00  0.0000E+00  0.0000E+00  0.0000E+00
    -20.352  0.0000E+00  0.0000E+00  0.0000E+00  0.0000E+00
    -20.251  0.0000E+00  0.0000E+00  0.0000E+00  0.0000E+00
    -20.150  0.2388E-18  0.2388E-18  0.2409E-19  0.2409E-19
    -20.049  0.1107E-13  0.1107E-13  0.1117E-14  0.1117E-14
    -19.948  0.7106E-10  0.7106E-10  0.7171E-11  0.7171E-11
    -19.847  0.6986E-07  0.6986E-07  0.7056E-08  0.7056E-08
    -19.746  0.1132E-04  0.1132E-04  0.1150E-05  0.1150E-05
    -19.646  0.3315E-03  0.3315E-03  0.3460E-04  0.3460E-04
    -19.545  0.2112E-02  0.2112E-02  0.2477E-03  0.2477E-03
    -19.444  0.4338E-02  0.4338E-02  0.6854E-03  0.6854E-03
    -19.343  0.4827E-02  0.4827E-02  0.1172E-02  0.1172E-02
    -19.242  0.5166E-02  0.5166E-02  0.1694E-02  0.1694E-02
    -19.141  0.4523E-02  0.4523E-02  0.2150E-02  0.2150E-02
    -19.040  0.5606E-02  0.5606E-02  0.2716E-02  0.2716E-02
    -18.939  0.4498E-02  0.4498E-02  0.3170E-02  0.3170E-02
    -18.838  0.4648E-02  0.4648E-02  0.3639E-02  0.3639E-02
    -18.737  0.6205E-02  0.6205E-02  0.4265E-02  0.4265E-02
    -18.637  0.4069E-02  0.4069E-02  0.4675E-02  0.4675E-02
    -18.536  0.4303E-02  0.4303E-02  0.5109E-02  0.5109E-02
    -18.435  0.6399E-02  0.6399E-02  0.5755E-02  0.5755E-02
    -18.334  0.5394E-02  0.5394E-02  0.6299E-02  0.6299E-02
    -18.233  0.3203E-02  0.3203E-02  0.6622E-02  0.6622E-02
    -18.132  0.4942E-02  0.4942E-02  0.7121E-02  0.7121E-02
    -18.031  0.7104E-02  0.7104E-02  0.7838E-02  0.7838E-02
    -17.930  0.4816E-02  0.4816E-02  0.8324E-02  0.8324E-02
    -17.829  0.3905E-02  0.3905E-02  0.8718E-02  0.8718E-02
    -17.728  0.3519E-02  0.3519E-02  0.9073E-02  0.9073E-02
    -17.628  0.7169E-02  0.7169E-02  0.9796E-02  0.9796E-02
    -17.527  0.6671E-02  0.6671E-02  0.1047E-01  0.1047E-01
    -17.426  0.3638E-02  0.3638E-02  0.1084E-01  0.1084E-01
    -17.325  0.3665E-02  0.3665E-02  0.1121E-01  0.1121E-01
    -17.224  0.4551E-02  0.4551E-02  0.1167E-01  0.1167E-01
    -17.123  0.6880E-02  0.6880E-02  0.1236E-01  0.1236E-01
    -17.022  0.6853E-02  0.6853E-02  0.1305E-01  0.1305E-01
    -16.921  0.4744E-02  0.4744E-02  0.1353E-01  0.1353E-01
    -16.820  0.2498E-02  0.2498E-02  0.1378E-01  0.1378E-01
    -16.719  0.4172E-02  0.4172E-02  0.1420E-01  0.1420E-01
    -16.619  0.7176E-02  0.7176E-02  0.1493E-01  0.1493E-01
    -16.518  0.6727E-02  0.6727E-02  0.1561E-01  0.1561E-01
    -16.417  0.5579E-02  0.5579E-02  0.1617E-01  0.1617E-01
    -16.316  0.4648E-02  0.4648E-02  0.1664E-01  0.1664E-01
    -16.215  0.3079E-02  0.3079E-02  0.1695E-01  0.1695E-01
    -16.114  0.3329E-02  0.3329E-02  0.1728E-01  0.1728E-01
    -16.013  0.1044E-01  0.1044E-01  0.1834E-01  0.1834E-01
    -15.912  0.1221E-01  0.1221E-01  0.1957E-01  0.1957E-01
    -15.811  0.1104E-01  0.1104E-01  0.2068E-01  0.2068E-01
    -15.710  0.1068E-01  0.1068E-01  0.2176E-01  0.2176E-01
    -15.610  0.1109E-01  0.1109E-01  0.2288E-01  0.2288E-01
    -15.509  0.1009E-01  0.1009E-01  0.2390E-01  0.2390E-01
    -15.408  0.1326E-01  0.1326E-01  0.2524E-01  0.2524E-01
    -15.307  0.1734E-01  0.1734E-01  0.2699E-01  0.2699E-01
    -15.206  0.1610E-01  0.1610E-01  0.2861E-01  0.2861E-01
    -15.105  0.1352E-01  0.1352E-01  0.2998E-01  0.2998E-01
    -15.004  0.9940E-02  0.9940E-02  0.3098E-01  0.3098E-01
    -14.903  0.7980E-02  0.7980E-02  0.3178E-01  0.3178E-01
    -14.802  0.6300E-02  0.6300E-02  0.3242E-01  0.3242E-01
    -14.701  0.1011E-01  0.1011E-01  0.3344E-01  0.3344E-01
    -14.601  0.1180E-01  0.1180E-01  0.3463E-01  0.3463E-01
    -14.500  0.1254E-01  0.1254E-01  0.3590E-01  0.3590E-01
    -14.399  0.1271E-01  0.1271E-01  0.3718E-01  0.3718E-01
    -14.298  0.1015E-01  0.1015E-01  0.3820E-01  0.3820E-01
    -14.197  0.8898E-02  0.8898E-02  0.3910E-01  0.3910E-01
    -14.096  0.1083E-01  0.1083E-01  0.4019E-01  0.4019E-01
    -13.995  0.1376E-01  0.1376E-01  0.4158E-01  0.4158E-01
    -13.894  0.7675E-02  0.7675E-02  0.4236E-01  0.4236E-01
    -13.793  0.3511E-02  0.3511E-02  0.4271E-01  0.4271E-01
    -13.692  0.2983E-02  0.2983E-02  0.4301E-01  0.4301E-01
    -13.592  0.6170E-02  0.6170E-02  0.4363E-01  0.4363E-01
    -13.491  0.5920E-02  0.5920E-02  0.4423E-01  0.4423E-01
    -13.390  0.5995E-02  0.5995E-02  0.4484E-01  0.4484E-01
    -13.289  0.5839E-02  0.5839E-02  0.4543E-01  0.4543E-01
    -13.188  0.7577E-02  0.7577E-02  0.4619E-01  0.4619E-01
    -13.087  0.7109E-02  0.7109E-02  0.4691E-01  0.4691E-01
    -12.986  0.6339E-02  0.6339E-02  0.4755E-01  0.4755E-01
    -12.885  0.6874E-02  0.6874E-02  0.4824E-01  0.4824E-01
    -12.784  0.8747E-02  0.8747E-02  0.4912E-01  0.4912E-01
    -12.684  0.1305E-01  0.1305E-01  0.5044E-01  0.5044E-01
    -12.583  0.1266E-01  0.1266E-01  0.5172E-01  0.5172E-01
    -12.482  0.1484E-01  0.1484E-01  0.5321E-01  0.5321E-01
    -12.381  0.1478E-01  0.1478E-01  0.5471E-01  0.5471E-01
    -12.280  0.1421E-01  0.1421E-01  0.5614E-01  0.5614E-01
    -12.179  0.1787E-01  0.1787E-01  0.5794E-01  0.5794E-01
    -12.078  0.1513E-01  0.1513E-01  0.5947E-01  0.5947E-01
    -11.977  0.1634E-01  0.1634E-01  0.6112E-01  0.6112E-01
    -11.876  0.1670E-01  0.1670E-01  0.6280E-01  0.6280E-01
    -11.775  0.9988E-02  0.9988E-02  0.6381E-01  0.6381E-01
    -11.675  0.5995E-02  0.5995E-02  0.6442E-01  0.6442E-01
    -11.574  0.5087E-02  0.5087E-02  0.6493E-01  0.6493E-01
    -11.473  0.6613E-02  0.6613E-02  0.6560E-01  0.6560E-01
    -11.372  0.5981E-02  0.5981E-02  0.6620E-01  0.6620E-01
    -11.271  0.5606E-02  0.5606E-02  0.6677E-01  0.6677E-01
    -11.170  0.4656E-02  0.4656E-02  0.6723E-01  0.6723E-01
    -11.069  0.4166E-02  0.4166E-02  0.6766E-01  0.6766E-01
    -10.968  0.5471E-02  0.5471E-02  0.6821E-01  0.6821E-01
    -10.867  0.1091E-01  0.1091E-01  0.6931E-01  0.6931E-01
    -10.766  0.1211E-01  0.1211E-01  0.7053E-01  0.7053E-01
    -10.666  0.1216E-01  0.1216E-01  0.7176E-01  0.7176E-01
    -10.565  0.1463E-01  0.1463E-01  0.7323E-01  0.7323E-01
    -10.464  0.1277E-01  0.1277E-01  0.7452E-01  0.7452E-01
    -10.363  0.1213E-01  0.1213E-01  0.7575E-01  0.7575E-01
    -10.262  0.1093E-01  0.1093E-01  0.7685E-01  0.7685E-01
    -10.161  0.9882E-02  0.9882E-02  0.7785E-01  0.7785E-01
    -10.060  0.9801E-02  0.9801E-02  0.7884E-01  0.7884E-01
     -9.959  0.5934E-02  0.5934E-02  0.7943E-01  0.7943E-01
     -9.858  0.1123E-01  0.1123E-01  0.8057E-01  0.8057E-01
     -9.757  0.1181E-01  0.1181E-01  0.8176E-01  0.8176E-01
     -9.657  0.1458E-01  0.1458E-01  0.8323E-01  0.8323E-01
     -9.556  0.1827E-01  0.1827E-01  0.8507E-01  0.8507E-01
     -9.455  0.1170E-01  0.1170E-01  0.8625E-01  0.8625E-01
     -9.354  0.1682E-01  0.1682E-01  0.8795E-01  0.8795E-01
     -9.253  0.1686E-01  0.1686E-01  0.8965E-01  0.8965E-01
     -9.152  0.1190E-01  0.1190E-01  0.9085E-01  0.9085E-01
     -9.051  0.1087E-01  0.1087E-01  0.9195E-01  0.9195E-01
     -8.950  0.1871E-01  0.1871E-01  0.9384E-01  0.9384E-01
     -8.849  0.2313E-01  0.2313E-01  0.9617E-01  0.9617E-01
     -8.748  0.1053E-01  0.1053E-01  0.9723E-01  0.9723E-01
     -8.648  0.5870E-02  0.5870E-02  0.9783E-01  0.9783E-01
     -8.547  0.1299E-01  0.1299E-01  0.9914E-01  0.9914E-01
     -8.446  0.1769E-01  0.1769E-01  0.1009E+00  0.1009E+00
     -8.345  0.1566E-01  0.1566E-01  0.1025E+00  0.1025E+00
     -8.244  0.1601E-01  0.1601E-01  0.1041E+00  0.1041E+00
     -8.143  0.1263E-01  0.1263E-01  0.1054E+00  0.1054E+00
     -8.042  0.9802E-02  0.9802E-02  0.1064E+00  0.1064E+00
     -7.941  0.1277E-01  0.1277E-01  0.1077E+00  0.1077E+00
     -7.840  0.1737E-01  0.1737E-01  0.1094E+00  0.1094E+00
     -7.739  0.2305E-01  0.2305E-01  0.1117E+00  0.1117E+00
     -7.639  0.1768E-01  0.1768E-01  0.1135E+00  0.1135E+00
     -7.538  0.1399E-01  0.1399E-01  0.1149E+00  0.1149E+00
     -7.437  0.1302E-01  0.1302E-01  0.1163E+00  0.1163E+00
     -7.336  0.1487E-01  0.1487E-01  0.1178E+00  0.1178E+00
     -7.235  0.2147E-01  0.2147E-01  0.1199E+00  0.1199E+00
     -7.134  0.1656E-01  0.1656E-01  0.1216E+00  0.1216E+00
     -7.033  0.1752E-01  0.1752E-01  0.1234E+00  0.1234E+00
     -6.932  0.1998E-01  0.1998E-01  0.1254E+00  0.1254E+00
     -6.831  0.2211E-01  0.2211E-01  0.1276E+00  0.1276E+00
     -6.730  0.2563E-01  0.2563E-01  0.1302E+00  0.1302E+00
     -6.630  0.3276E-01  0.3276E-01  0.1335E+00  0.1335E+00
     -6.529  0.3677E-01  0.3677E-01  0.1372E+00  0.1372E+00
     -6.428  0.2314E-01  0.2314E-01  0.1395E+00  0.1395E+00
     -6.327  0.1614E-01  0.1614E-01  0.1412E+00  0.1412E+00
     -6.226  0.1758E-01  0.1758E-01  0.1429E+00  0.1429E+00
     -6.125  0.1778E-01  0.1778E-01  0.1447E+00  0.1447E+00
     -6.024  0.1853E-01  0.1853E-01  0.1466E+00  0.1466E+00
     -5.923  0.1559E-01  0.1559E-01  0.1482E+00  0.1482E+00
     -5.822  0.1548E-01  0.1548E-01  0.1497E+00  0.1497E+00
     -5.721  0.1877E-01  0.1877E-01  0.1516E+00  0.1516E+00
     -5.621  0.1538E-01  0.1538E-01  0.1532E+00  0.1532E+00
     -5.520  0.9872E-02  0.9872E-02  0.1542E+00  0.1542E+00
     -5.419  0.1284E-01  0.1284E-01  0.1555E+00  0.1555E+00
     -5.318  0.1918E-01  0.1918E-01  0.1574E+00  0.1574E+00
     -5.217  0.1827E-01  0.1827E-01  0.1593E+00  0.1593E+00
     -5.116  0.1279E-01  0.1279E-01  0.1605E+00  0.1605E+00
     -5.015  0.1476E-01  0.1476E-01  0.1620E+00  0.1620E+00
     -4.914  0.2135E-01  0.2135E-01  0.1642E+00  0.1642E+00
     -4.813  0.1460E-01  0.1460E-01  0.1657E+00  0.1657E+00
     -4.713  0.7939E-02  0.7939E-02  0.1665E+00  0.1665E+00
     -4.612  0.1520E-01  0.1520E-01  0.1680E+00  0.1680E+00
     -4.511  0.2032E-01  0.2032E-01  0.1701E+00  0.1701E+00
     -4.410  0.1963E-01  0.1963E-01  0.1720E+00  0.1720E+00
     -4.309  0.2262E-01  0.2262E-01  0.1743E+00  0.1743E+00
     -4.208  0.2181E-01  0.2181E-01  0.1765E+00  0.1765E+00
     -4.107  0.2173E-01  0.2173E-01  0.1787E+00  0.1787E+00
     -4.006  0.2358E-01  0.2358E-01  0.1811E+00  0.1811E+00
     -3.905  0.2807E-01  0.2807E-01  0.1839E+00  0.1839E+00
     -3.804  0.2785E-01  0.2785E-01  0.1867E+00  0.1867E+00
     -3.704  0.2021E-01  0.2021E-01  0.1888E+00  0.1888E+00
     -3.603  0.1966E-01  0.1966E-01  0.1908E+00  0.1908E+00
     -3.502  0.1720E-01  0.1720E-01  0.1925E+00  0.1925E+00
     -3.401  0.1421E-01  0.1421E-01  0.1939E+00  0.1939E+00
     -3.300  0.7405E-02  0.7405E-02  0.1947E+00  0.1947E+00
     -3.199  0.7090E-02  0.7090E-02  0.1954E+00  0.1954E+00
     -3.098  0.1280E-01  0.1280E-01  0.1967E+00  0.1967E+00
     -2.997  0.1650E-01  0.1650E-01  0.1983E+00  0.1983E+00
     -2.896  0.1354E-01  0.1354E-01  0.1997E+00  0.1997E+00
     -2.795  0.1250E-01  0.1250E-01  0.2010E+00  0.2010E+00
     -2.695  0.1142E-01  0.1142E-01  0.2021E+00  0.2021E+00
     -2.594  0.1066E-01  0.1066E-01  0.2032E+00  0.2032E+00
     -2.493  0.1375E-01  0.1375E-01  0.2046E+00  0.2046E+00
     -2.392  0.1521E-01  0.1521E-01  0.2061E+00  0.2061E+00
     -2.291  0.1005E-01  0.1005E-01  0.2071E+00  0.2071E+00
     -2.190  0.1181E-01  0.1181E-01  0.2083E+00  0.2083E+00
     -2.089  0.8792E-02  0.8792E-02  0.2092E+00  0.2092E+00
     -1.988  0.5065E-02  0.5065E-02  0.2097E+00  0.2097E+00
     -1.887  0.4939E-02  0.4939E-02  0.2102E+00  0.2102E+00
     -1.786  0.8695E-02  0.8695E-02  0.2111E+00  0.2111E+00
     -1.686  0.9421E-02  0.9421E-02  0.2120E+00  0.2120E+00
     -1.585  0.9220E-02  0.9220E-02  0.2130E+00  0.2130E+00
     -1.484  0.8305E-02  0.8305E-02  0.2138E+00  0.2138E+00
     -1.383  0.5262E-02  0.5262E-02  0.2143E+00  0.2143E+00
     -1.282  0.5005E-02  0.5005E-02  0.2148E+00  0.2148E+00
     -1.181  0.5412E-02  0.5412E-02  0.2154E+00  0.2154E+00
     -1.080  0.7361E-02  0.7361E-02  0.2161E+00  0.2161E+00
     -0.979  0.7093E-02  0.7093E-02  0.2169E+00  0.2169E+00
     -0.878  0.4167E-02  0.4167E-02  0.2173E+00  0.2173E+00
     -0.777  0.2211E-02  0.2211E-02  0.2175E+00  0.2175E+00
     -0.677  0.8876E-03  0.8876E-03  0.2176E+00  0.2176E+00
     -0.576  0.2333E-02  0.2333E-02  0.2178E+00  0.2178E+00
     -0.475  0.4072E-02  0.4072E-02  0.2182E+00  0.2182E+00
     -0.374  0.2302E-02  0.2302E-02  0.2185E+00  0.2185E+00
     -0.273  0.2449E-02  0.2449E-02  0.2187E+00  0.2187E+00
     -0.172  0.4080E-02  0.4080E-02  0.2191E+00  0.2191E+00
     -0.071  0.4363E-02  0.4363E-02  0.2196E+00  0.2196E+00
      0.030  0.3522E-02  0.3522E-02  0.2199E+00  0.2199E+00
      0.131  0.5917E-02  0.5917E-02  0.2205E+00  0.2205E+00
      0.232  0.1092E-01  0.1092E-01  0.2216E+00  0.2216E+00
      0.332  0.1216E-01  0.1216E-01  0.2228E+00  0.2228E+00
      0.433  0.1162E-01  0.1162E-01  0.2240E+00  0.2240E+00
      0.534  0.6219E-02  0.6219E-02  0.2246E+00  0.2246E+00
      0.635  0.4663E-02  0.4663E-02  0.2251E+00  0.2251E+00
      0.736  0.1051E-01  0.1051E-01  0.2262E+00  0.2262E+00
      0.837  0.8057E-02  0.8057E-02  0.2270E+00  0.2270E+00
      0.938  0.4253E-02  0.4253E-02  0.2274E+00  0.2274E+00
      1.039  0.4525E-02  0.4525E-02  0.2279E+00  0.2279E+00
      1.140  0.1116E-01  0.1116E-01  0.2290E+00  0.2290E+00
      1.241  0.1832E-01  0.1832E-01  0.2309E+00  0.2309E+00
      1.341  0.1869E-01  0.1869E-01  0.2327E+00  0.2327E+00
      1.442  0.1388E-01  0.1388E-01  0.2341E+00  0.2341E+00
      1.543  0.8328E-02  0.8328E-02  0.2350E+00  0.2350E+00
      1.644  0.1011E-01  0.1011E-01  0.2360E+00  0.2360E+00
      1.745  0.1064E-01  0.1064E-01  0.2371E+00  0.2371E+00
      1.846  0.8567E-02  0.8567E-02  0.2379E+00  0.2379E+00
      1.947  0.1395E-01  0.1395E-01  0.2393E+00  0.2393E+00
      2.048  0.1609E-01  0.1609E-01  0.2410E+00  0.2410E+00
      2.149  0.1251E-01  0.1251E-01  0.2422E+00  0.2422E+00
      2.250  0.8376E-02  0.8376E-02  0.2431E+00  0.2431E+00
      2.350  0.4760E-02  0.4760E-02  0.2436E+00  0.2436E+00
      2.451  0.8500E-02  0.8500E-02  0.2444E+00  0.2444E+00
      2.552  0.1172E-01  0.1172E-01  0.2456E+00  0.2456E+00
      2.653  0.1517E-01  0.1517E-01  0.2471E+00  0.2471E+00
      2.754  0.1662E-01  0.1662E-01  0.2488E+00  0.2488E+00
      2.855  0.1480E-01  0.1480E-01  0.2503E+00  0.2503E+00
      2.956  0.1225E-01  0.1225E-01  0.2515E+00  0.2515E+00
      3.057  0.1314E-01  0.1314E-01  0.2529E+00  0.2529E+00
      3.158  0.1287E-01  0.1287E-01  0.2542E+00  0.2542E+00
      3.259  0.1958E-01  0.1958E-01  0.2561E+00  0.2561E+00
      3.359  0.2066E-01  0.2066E-01  0.2582E+00  0.2582E+00
      3.460  0.1676E-01  0.1676E-01  0.2599E+00  0.2599E+00
      3.561  0.2158E-01  0.2158E-01  0.2621E+00  0.2621E+00
      3.662  0.2499E-01  0.2499E-01  0.2646E+00  0.2646E+00
      3.763  0.2525E-01  0.2525E-01  0.2672E+00  0.2672E+00
      3.864  0.1959E-01  0.1959E-01  0.2691E+00  0.2691E+00
      3.965  0.1754E-01  0.1754E-01  0.2709E+00  0.2709E+00
      4.066  0.1931E-01  0.1931E-01  0.2728E+00  0.2728E+00
      4.167  0.1808E-01  0.1808E-01  0.2747E+00  0.2747E+00
      4.267  0.2110E-01  0.2110E-01  0.2768E+00  0.2768E+00
      4.368  0.2462E-01  0.2462E-01  0.2793E+00  0.2793E+00
      4.469  0.1872E-01  0.1872E-01  0.2812E+00  0.2812E+00
      4.570  0.2130E-01  0.2130E-01  0.2833E+00  0.2833E+00
      4.671  0.2473E-01  0.2473E-01  0.2858E+00  0.2858E+00
      4.772  0.3077E-01  0.3077E-01  0.2889E+00  0.2889E+00
      4.873  0.2706E-01  0.2706E-01  0.2917E+00  0.2917E+00
      4.974  0.1662E-01  0.1662E-01  0.2933E+00  0.2933E+00
      5.075  0.2175E-01  0.2175E-01  0.2955E+00  0.2955E+00
      5.176  0.2566E-01  0.2566E-01  0.2981E+00  0.2981E+00
      5.276  0.2439E-01  0.2439E-01  0.3006E+00  0.3006E+00
      5.377  0.2465E-01  0.2465E-01  0.3031E+00  0.3031E+00
      5.478  0.2845E-01  0.2845E-01  0.3059E+00  0.3059E+00
      5.579  0.3004E-01  0.3004E-01  0.3090E+00  0.3090E+00
      5.680  0.2918E-01  0.2918E-01  0.3119E+00  0.3119E+00
      5.781  0.2613E-01  0.2613E-01  0.3145E+00  0.3145E+00
      5.882  0.1442E-01  0.1442E-01  0.3160E+00  0.3160E+00
      5.983  0.1800E-01  0.1800E-01  0.3178E+00  0.3178E+00
      6.084  0.2748E-01  0.2748E-01  0.3206E+00  0.3206E+00
      6.185  0.2957E-01  0.2957E-01  0.3236E+00  0.3236E+00
      6.285  0.3160E-01  0.3160E-01  0.3268E+00  0.3268E+00
      6.386  0.3040E-01  0.3040E-01  0.3298E+00  0.3298E+00
      6.487  0.2354E-01  0.2354E-01  0.3322E+00  0.3322E+00
      6.588  0.2202E-01  0.2202E-01  0.3344E+00  0.3344E+00
      6.689  0.3210E-01  0.3210E-01  0.3377E+00  0.3377E+00
      6.790  0.2869E-01  0.2869E-01  0.3406E+00  0.3406E+00
      6.891  0.3087E-01  0.3087E-01  0.3437E+00  0.3437E+00
      6.992  0.3823E-01  0.3823E-01  0.3475E+00  0.3475E+00
      7.093  0.3429E-01  0.3429E-01  0.3510E+00  0.3510E+00
      7.194  0.3346E-01  0.3345E-01  0.3544E+00  0.3544E+00
      7.294  0.3357E-01  0.3353E-01  0.3578E+00  0.3577E+00
      7.395  0.2829E-01  0.2826E-01  0.3606E+00  0.3606E+00
      7.496  0.3270E-01  0.3276E-01  0.3639E+00  0.3639E+00
      7.597  0.3389E-01  0.3391E-01  0.3673E+00  0.3673E+00
      7.698  0.2741E-01  0.2741E-01  0.3701E+00  0.3701E+00
      7.799  0.2213E-01  0.2213E-01  0.3723E+00  0.3723E+00
      7.900  0.1478E-01  0.1478E-01  0.3738E+00  0.3738E+00
      8.001  0.9488E-02  0.9488E-02  0.3748E+00  0.3748E+00
      8.102  0.2143E-02  0.2143E-02  0.3750E+00  0.3750E+00
      8.203  0.9509E-04  0.9509E-04  0.3750E+00  0.3750E+00
      8.303  0.6897E-06  0.6897E-06  0.3750E+00  0.3750E+00
      8.404  0.7461E-09  0.7461E-09  0.3750E+00  0.3750E+00
      8.505  0.1147E-12  0.1147E-12  0.3750E+00  0.3750E+00
      8.606  0.2507E-17  0.2507E-17  0.3750E+00  0.3750E+00
      8.707  0.0000E+00  0.0000E+00  0.3750E+00  0.3750E+00
      8.808  0.0000E+00  0.0000E+00  0.3750E+00  0.3750E+00
      8.909  0.0000E+00  0.0000E+00  0.3750E+00  0.3750E+00
      9.010  0.0000E+00  0.0000E+00  0.3750E+00  0.3750E+00
      9.111  0.0000E+00  0.0000E+00  0.3750E+00  0.3750E+00
      9.212  0.0000E+00  0.0000E+00  0.3750E+00  0.3750E+00
      9.312  0.0000E+00  0.0000E+00  0.3750E+00  0.3750E+00
