Lattice                                 
           1
     4.343117    2.507500    0.000000
    -4.343117    2.507500    0.000000
     0.000000    0.000000   15.000000
   B    C 
     8     8
Direct configuration=     1
   0.66888689  0.00000000  0.10000000
   0.33111211  0.00000000  0.10000000
   0.00000000  0.33111211  0.10000000
   0.00000000  0.66888689  0.10000000
   0.33111211  0.33111211  0.10000000
   0.66888689  0.66888689  0.10000000
   0.66666600  0.33333300  0.09922189
   0.33333300  0.66666600  0.10077811
   0.33333267  0.16666633  0.47060000
   0.49999967  0.99999933  0.47060000
   0.33333267  0.66666633  0.47060000
   0.49999967  0.49999933  0.47060000
   0.83333267  0.16666633  0.47060000
   0.99999967  0.99999933  0.47060000
   0.83333267  0.66666633  0.47060000
   0.99999967  0.49999933  0.47060000
Direct configuration=     2
   0.66969214 -0.00000004  0.10002528
   0.33030683 -0.00000004  0.10002528
   0.00000004  0.33030686  0.10002528
   0.00000004  0.66969217  0.10002528
   0.33030683  0.33030686  0.10002528
   0.66969214  0.66969217  0.10002528
   0.66666600  0.33333300  0.09925295
   0.33333300  0.66666600  0.10080459
   0.33332674  0.16666337  0.47057412
   0.50000087  0.00000174  0.47057359
   0.33333267  0.66666633  0.47057293
   0.50000087  0.49999813  0.47057359
   0.83333563  0.16666337  0.47057412
   0.99999967  0.99999933  0.47057472
   0.83333563  0.66667226  0.47057412
   0.99999726  0.49999813  0.47057359
Direct configuration=     3
   0.66933697 -0.00000002  0.10001413
   0.33066201 -0.00000002  0.10001413
   0.00000002  0.33066203  0.10001413
   0.00000002  0.66933699  0.10001413
   0.33066201  0.33066203  0.10001413
   0.66933697  0.66933699  0.10001413
   0.66666600  0.33333300  0.09923925
   0.33333300  0.66666600  0.10079291
   0.33332935  0.16666468  0.47058553
   0.50000034  0.00000068  0.47058524
   0.33333267  0.66666633  0.47058487
   0.50000034  0.49999866  0.47058524
   0.83333432  0.16666468  0.47058553
   0.99999967  0.99999933  0.47058587
   0.83333432  0.66666965  0.47058553
   0.99999832  0.49999866  0.47058524
Direct configuration=     4
   0.66933709 -0.00000003  0.10003792
   0.33066188 -0.00000003  0.10003792
   0.00000003  0.33066191  0.10003792
   0.00000003  0.66933712  0.10003792
   0.33066188  0.33066191  0.10003792
   0.66933709  0.66933712  0.10003792
   0.66666600  0.33333300  0.09926974
   0.33333300  0.66666600  0.10081591
   0.33333422  0.16666711  0.47056120
   0.49999927 -0.00000145  0.47056052
   0.33333267  0.66666633  0.47055973
   0.49999927  0.49999973  0.47056052
   0.83333189  0.16666711  0.47056120
   0.99999967  0.99999933  0.47056192
   0.83333189  0.66666478  0.47056120
   0.00000045  0.49999973  0.47056052
Direct configuration=     5
   0.66933744 -0.00000005  0.10010930
   0.33066151 -0.00000005  0.10010930
   0.00000005  0.33066156  0.10010930
   0.00000005  0.66933749  0.10010930
   0.33066151  0.33066156  0.10010930
   0.66933744  0.66933749  0.10010930
   0.66666600  0.33333300  0.09936120
   0.33333300  0.66666600  0.10088489
   0.33334884  0.16667442  0.47048821
   0.49999607 -0.00000785  0.47048637
   0.33333267  0.66666633  0.47048430
   0.49999607  0.50000293  0.47048637
   0.83332458  0.16667442  0.47048821
   0.99999967  0.99999933  0.47049006
   0.83332458  0.66665016  0.47048821
   0.00000685  0.50000293  0.47048637
Direct configuration=     6
   0.66933814 -0.00000009  0.10025206
   0.33066077 -0.00000009  0.10025206
   0.00000009  0.33066086  0.10025206
   0.00000009  0.66933823  0.10025206
   0.33066077  0.33066086  0.10025206
   0.66933814  0.66933823  0.10025206
   0.66666600  0.33333300  0.09954413
   0.33333300  0.66666600  0.10102286
   0.33337806  0.16668903  0.47034223
   0.49998967 -0.00002065  0.47033806
   0.33333267  0.66666633  0.47033345
   0.49998967  0.50000933  0.47033806
   0.83330997  0.16668903  0.47034223
   0.99999967  0.99999933  0.47034636
   0.83330997  0.66662094  0.47034223
   0.00001965  0.50000933  0.47033806
Direct configuration=     7
   0.66933955 -0.00000017  0.10053757
   0.33065929 -0.00000017  0.10053757
   0.00000017  0.33065945  0.10053757
   0.00000017  0.66933971  0.10053757
   0.33065929  0.33065945  0.10053757
   0.66933955  0.66933971  0.10053757
   0.66666600  0.33333300  0.09990999
   0.33333300  0.66666600  0.10129879
   0.33343651  0.16671826  0.47005027
   0.49997687 -0.00004625  0.47004143
   0.33333267  0.66666633  0.47003174
   0.49997687  0.50002213  0.47004143
   0.83328074  0.16671826  0.47005027
   0.99999967  0.99999933  0.47005895
   0.83328074  0.66656249  0.47005027
   0.00004525  0.50002213  0.47004143
Direct configuration=     8
   0.66934236 -0.00000032  0.10110859
   0.33065632 -0.00000032  0.10110859
   0.00000032  0.33065664  0.10110859
   0.00000032  0.66934268  0.10110859
   0.33065632  0.33065664  0.10110859
   0.66934236  0.66934268  0.10110859
   0.66666600  0.33333300  0.10064170
   0.33333300  0.66666600  0.10185066
   0.33355342  0.16677671  0.46946635
   0.49995127 -0.00009745  0.46944819
   0.33333267  0.66666633  0.46942833
   0.49995127  0.50004773  0.46944819
   0.83322229  0.16677671  0.46946635
   0.99999967  0.99999933  0.46948412
   0.83322229  0.66644558  0.46946635
   0.00009645  0.50004773  0.46944819
Direct configuration=     9
   0.66934798 -0.00000064  0.10225064
   0.33065038 -0.00000064  0.10225064
   0.00000064  0.33065102  0.10225064
   0.00000064  0.66934862  0.10225064
   0.33065038  0.33065102  0.10225064
   0.66934798  0.66934862  0.10225064
   0.66666600  0.33333300  0.10210513
   0.33333300  0.66666600  0.10295439
   0.33378722  0.16689361  0.46829851
   0.49990008 -0.00019985  0.46826170
   0.33333267  0.66666633  0.46822151
   0.49990008  0.50009892  0.46826170
   0.83310539  0.16689361  0.46829851
   0.99999967  0.99999933  0.46833448
   0.83310539  0.66621178  0.46829851
   0.00019885  0.50009892  0.46826170
Direct configuration=    10
   0.66935922 -0.00000127  0.10453473
   0.33063851 -0.00000127  0.10453473
   0.00000127  0.33063978  0.10453473
   0.00000127  0.66936049  0.10453473
   0.33063851  0.33063978  0.10453473
   0.66935922  0.66936049  0.10453473
   0.66666600  0.33333300  0.10503200
   0.33333300  0.66666600  0.10516185
   0.33425484  0.16712742  0.46596284
   0.49979768 -0.00040464  0.46588873
   0.33333267  0.66666633  0.46580787
   0.49979768  0.50020132  0.46588873
   0.83287158  0.16712742  0.46596284
   0.99999967  0.99999933  0.46603518
   0.83287158  0.66574416  0.46596284
   0.00040364  0.50020132  0.46588873
Direct configuration=    11
   0.66938170 -0.00000254  0.10910292
   0.33061477 -0.00000254  0.10910292
   0.00000254  0.33061730  0.10910292
   0.00000254  0.66938423  0.10910292
   0.33061477  0.33061730  0.10910292
   0.66938170  0.66938423  0.10910292
   0.66666600  0.33333300  0.11088573
   0.33333300  0.66666600  0.10957678
   0.33519006  0.16759503  0.46129148
   0.49959288 -0.00081424  0.46114278
   0.33333267  0.66666633  0.46098060
   0.49959288  0.50040612  0.46114278
   0.83240397  0.16759503  0.46129148
   0.99999967  0.99999933  0.46143660
   0.83240397  0.66480894  0.46129148
   0.00081324  0.50040612  0.46114278
Direct configuration=    12
   0.66942666 -0.00000506  0.11823930
   0.33056728 -0.00000506  0.11823930
   0.00000506  0.33057234  0.11823930
   0.00000506  0.66943172  0.11823930
   0.33056728  0.33057234  0.11823930
   0.66942666  0.66943172  0.11823930
   0.66666600  0.33333300  0.12259318
   0.33333300  0.66666600  0.11840663
   0.33706051  0.16853026  0.45194876
   0.49918329 -0.00163342  0.45165087
   0.33333267  0.66666633  0.45132604
   0.49918329  0.50081571  0.45165087
   0.83146874  0.16853026  0.45194876
   0.99999967  0.99999933  0.45223943
   0.83146874  0.66293849  0.45194876
   0.00163242  0.50081571  0.45165087
Direct configuration=    13
   0.66940729 -0.00000397  0.11430279
   0.33058774 -0.00000397  0.11430279
   0.00000397  0.33059171  0.11430279
   0.00000397  0.66941126  0.11430279
   0.33058774  0.33059171  0.11430279
   0.66940729  0.66941126  0.11430279
   0.66666600  0.33333300  0.11754889
   0.33333300  0.66666600  0.11460219
   0.33625461  0.16812730  0.45597418
   0.49935977 -0.00128047  0.45574057
   0.33333267  0.66666633  0.45548581
   0.49935977  0.50063923  0.45574057
   0.83187170  0.16812730  0.45597418
   0.99999967  0.99999933  0.45620213
   0.83187170  0.66374439  0.45597418
   0.00127947  0.50063923  0.45574057
Direct configuration=    14
   0.66940729 -0.00000397  0.11430387
   0.33058774 -0.00000397  0.11430387
   0.00000397  0.33059171  0.11430387
   0.00000397  0.66941126  0.11430387
   0.33058774  0.33059171  0.11430387
   0.66940729  0.66941126  0.11430387
   0.66666600  0.33333300  0.11755026
   0.33333300  0.66666600  0.11460322
   0.33625467  0.16812734  0.45597308
   0.49935975 -0.00128049  0.45573945
   0.33333267  0.66666633  0.45548468
   0.49935975  0.50063925  0.45573945
   0.83187166  0.16812734  0.45597308
   0.99999967  0.99999933  0.45620105
   0.83187166  0.66374433  0.45597308
   0.00127949  0.50063925  0.45573945
Direct configuration=    15
   0.66940730 -0.00000397  0.11430709
   0.33058773 -0.00000397  0.11430709
   0.00000397  0.33059170  0.11430709
   0.00000397  0.66941127  0.11430709
   0.33058773  0.33059170  0.11430709
   0.66940730  0.66941127  0.11430709
   0.66666600  0.33333300  0.11755438
   0.33333300  0.66666600  0.11460633
   0.33625487  0.16812744  0.45596978
   0.49935972 -0.00128057  0.45573611
   0.33333267  0.66666633  0.45548129
   0.49935972  0.50063928  0.45573611
   0.83187156  0.16812744  0.45596978
   0.99999967  0.99999933  0.45619780
   0.83187156  0.66374413  0.45596978
   0.00127957  0.50063928  0.45573611
Direct configuration=    16
   0.66940732 -0.00000396  0.11431353
   0.33058772 -0.00000396  0.11431353
   0.00000396  0.33059168  0.11431353
   0.00000396  0.66941128  0.11431353
   0.33058772  0.33059168  0.11431353
   0.66940732  0.66941128  0.11431353
   0.66666600  0.33333300  0.11756262
   0.33333300  0.66666600  0.11461254
   0.33625528  0.16812764  0.45596320
   0.49935964 -0.00128072  0.45572943
   0.33333267  0.66666633  0.45547450
   0.49935964  0.50063936  0.45572943
   0.83187136  0.16812764  0.45596320
   0.99999967  0.99999933  0.45619130
   0.83187136  0.66374372  0.45596320
   0.00127972  0.50063936  0.45572943
Direct configuration=    17
   0.66940735 -0.00000395  0.11432641
   0.33058770 -0.00000395  0.11432641
   0.00000395  0.33059165  0.11432641
   0.00000395  0.66941130  0.11432641
   0.33058770  0.33059165  0.11432641
   0.66940735  0.66941130  0.11432641
   0.66666600  0.33333300  0.11757908
   0.33333300  0.66666600  0.11462496
   0.33625608  0.16812804  0.45595002
   0.49935948 -0.00128103  0.45571606
   0.33333267  0.66666633  0.45546094
   0.49935948  0.50063952  0.45571606
   0.83187096  0.16812804  0.45595002
   0.99999967  0.99999933  0.45617831
   0.83187096  0.66374292  0.45595002
   0.00128003  0.50063952  0.45571606
Direct configuration=    18
   0.66940742 -0.00000392  0.11435217
   0.33058765 -0.00000392  0.11435217
   0.00000392  0.33059158  0.11435217
   0.00000392  0.66941135  0.11435217
   0.33058765  0.33059158  0.11435217
   0.66940742  0.66941135  0.11435217
   0.66666600  0.33333300  0.11761202
   0.33333300  0.66666600  0.11464980
   0.33625768  0.16812884  0.45592367
   0.49935918 -0.00128165  0.45568934
   0.33333267  0.66666633  0.45543380
   0.49935918  0.50063982  0.45568934
   0.83187016  0.16812884  0.45592367
   0.99999967  0.99999933  0.45615233
   0.83187016  0.66374132  0.45592367
   0.00128065  0.50063982  0.45568934
Direct configuration=    19
   0.66940757 -0.00000387  0.11440370
   0.33058756 -0.00000387  0.11440370
   0.00000387  0.33059143  0.11440370
   0.00000387  0.66941144  0.11440370
   0.33058756  0.33059143  0.11440370
   0.66940757  0.66941144  0.11440370
   0.66666600  0.33333300  0.11767789
   0.33333300  0.66666600  0.11469947
   0.33626089  0.16813045  0.45587098
   0.49935856 -0.00128288  0.45563588
   0.33333267  0.66666633  0.45537952
   0.49935856  0.50064044  0.45563588
   0.83186855  0.16813045  0.45587098
   0.99999967  0.99999933  0.45610037
   0.83186855  0.66373811  0.45587098
   0.00128188  0.50064044  0.45563588
Direct configuration=    20
   0.66940785 -0.00000377  0.11450675
   0.33058738 -0.00000377  0.11450675
   0.00000377  0.33059115  0.11450675
   0.00000377  0.66941162  0.11450675
   0.33058738  0.33059115  0.11450675
   0.66940785  0.66941162  0.11450675
   0.66666600  0.33333300  0.11780963
   0.33333300  0.66666600  0.11479883
   0.33626731  0.16813366  0.45576558
   0.49935732 -0.00128535  0.45552896
   0.33333267  0.66666633  0.45527097
   0.49935732  0.50064168  0.45552896
   0.83186534  0.16813366  0.45576558
   0.99999967  0.99999933  0.45599645
   0.83186534  0.66373169  0.45576558
   0.00128435  0.50064168  0.45552896
Direct configuration=    21
   0.66940843 -0.00000356  0.11471285
   0.33058701 -0.00000356  0.11471285
   0.00000356  0.33059057  0.11471285
   0.00000356  0.66941199  0.11471285
   0.33058701  0.33059057  0.11471285
   0.66940843  0.66941199  0.11471285
   0.66666600  0.33333300  0.11807312
   0.33333300  0.66666600  0.11499753
   0.33628016  0.16814008  0.45555480
   0.49935486 -0.00129029  0.45531513
   0.33333267  0.66666633  0.45505386
   0.49935486  0.50064414  0.45531513
   0.83185892  0.16814008  0.45555480
   0.99999967  0.99999933  0.45578860
   0.83185892  0.66371884  0.45555480
   0.00128929  0.50064414  0.45531513
Direct configuration=    22
   0.66940958 -0.00000315  0.11512505
   0.33058627 -0.00000315  0.11512505
   0.00000315  0.33058942  0.11512505
   0.00000315  0.66941273  0.11512505
   0.33058627  0.33058942  0.11512505
   0.66940958  0.66941273  0.11512505
   0.66666600  0.33333300  0.11860008
   0.33333300  0.66666600  0.11539495
   0.33630584  0.16815292  0.45513322
   0.49934992 -0.00130016  0.45488748
   0.33333267  0.66666633  0.45461964
   0.49934992  0.50064908  0.45488748
   0.83184608  0.16815292  0.45513322
   0.99999967  0.99999933  0.45537290
   0.83184608  0.66369316  0.45513322
   0.00129916  0.50064908  0.45488748
Direct configuration=    23
   0.66941188 -0.00000232  0.11594946
   0.33058480 -0.00000232  0.11594946
   0.00000232  0.33058712  0.11594946
   0.00000232  0.66941420  0.11594946
   0.33058480  0.33058712  0.11594946
   0.66941188  0.66941420  0.11594946
   0.66666600  0.33333300  0.11965402
   0.33333300  0.66666600  0.11618977
   0.33635720  0.16817860  0.45429008
   0.49934005 -0.00131990  0.45403216
   0.33333267  0.66666633  0.45375121
   0.49934005  0.50065895  0.45403216
   0.83182040  0.16817860  0.45429008
   0.99999967  0.99999933  0.45454151
   0.83182040  0.66364180  0.45429008
   0.00131890  0.50065895  0.45403216
Direct configuration=    24
   0.66941647 -0.00000066  0.11759828
   0.33058186 -0.00000066  0.11759828
   0.00000066  0.33058253  0.11759828
   0.00000066  0.66941714  0.11759828
   0.33058186  0.33058253  0.11759828
   0.66941647  0.66941714  0.11759828
   0.66666600  0.33333300  0.12176190
   0.33333300  0.66666600  0.11777943
   0.33645993  0.16822997  0.45260378
   0.49932031 -0.00135939  0.45232152
   0.33333267  0.66666633  0.45201435
   0.49932031  0.50067869  0.45232152
   0.83176903  0.16822997  0.45260378
   0.99999967  0.99999933  0.45287872
   0.83176903  0.66353907  0.45260378
   0.00135839  0.50067869  0.45232152
Direct configuration=    25
   0.66942567  0.00000266  0.12089592
   0.33057599  0.00000266  0.12089592
  -0.00000266  0.33057333  0.12089592
  -0.00000266  0.66942301  0.12089592
   0.33057599  0.33057333  0.12089592
   0.66942567  0.66942301  0.12089592
   0.66666600  0.33333300  0.12597764
   0.33333300  0.66666600  0.12095873
   0.33666540  0.16833270  0.44923119
   0.49928082 -0.00143836  0.44890025
   0.33333267  0.66666633  0.44854063
   0.49928082  0.50071818  0.44890025
   0.83166630  0.16833270  0.44923119
   0.99999967  0.99999933  0.44955314
   0.83166630  0.66333360  0.44923119
   0.00143736  0.50071818  0.44890025
Direct configuration=    26
   0.66944406  0.00000929  0.12749120
   0.33056423  0.00000929  0.12749120
  -0.00000929  0.33055494  0.12749120
  -0.00000929  0.66943477  0.12749120
   0.33056423  0.33055494  0.12749120
   0.66944406  0.66943477  0.12749120
   0.66666600  0.33333300  0.13440914
   0.33333300  0.66666600  0.12731735
   0.33707632  0.16853816  0.44248601
   0.49920185 -0.00159631  0.44205771
   0.33333267  0.66666633  0.44159318
   0.49920185  0.50079715  0.44205771
   0.83146084  0.16853816  0.44248601
   0.99999967  0.99999933  0.44290199
   0.83146084  0.66292268  0.44248601
   0.00159531  0.50079715  0.44205771
Direct configuration=    27
   0.66948084  0.00002255  0.14068175
   0.33054071  0.00002255  0.14068175
  -0.00002255  0.33051816  0.14068175
  -0.00002255  0.66945829  0.14068175
   0.33054071  0.33051816  0.14068175
   0.66948084  0.66945829  0.14068175
   0.66666600  0.33333300  0.15127214
   0.33333300  0.66666600  0.14003458
   0.33789817  0.16894908  0.42899565
   0.49904390 -0.00191220  0.42837262
   0.33333267  0.66666633  0.42769829
   0.49904390  0.50095510  0.42837262
   0.83104992  0.16894908  0.42899565
   0.99999967  0.99999933  0.42959968
   0.83104992  0.66210083  0.42899565
   0.00191120  0.50095510  0.42837262
Direct configuration=    28
   0.66955440  0.00004908  0.16706285
   0.33049367  0.00004908  0.16706285
  -0.00004908  0.33044460  0.16706285
  -0.00004908  0.66950533  0.16706285
   0.33049367  0.33044460  0.16706285
   0.66955440  0.66950533  0.16706285
   0.66666600  0.33333300  0.18499812
   0.33333300  0.66666600  0.16546903
   0.33954186  0.16977093  0.40201493
   0.49872801 -0.00254399  0.40100245
   0.33333267  0.66666633  0.39990850
   0.49872801  0.50127099  0.40100245
   0.83022807  0.16977093  0.40201493
   0.99999967  0.99999933  0.40299507
   0.83022807  0.66045714  0.40201493
   0.00254299  0.50127099  0.40100245
Direct configuration=    29
   0.66950558  0.00003147  0.14955234
   0.33052489  0.00003147  0.14955234
  -0.00003147  0.33049342  0.14955234
  -0.00003147  0.66947411  0.14955234
   0.33052489  0.33049342  0.14955234
   0.66950558  0.66947411  0.14955234
   0.66666600  0.33333300  0.16261242
   0.33333300  0.66666600  0.14858685
   0.33845086  0.16922543  0.41992345
   0.49893768 -0.00212464  0.41916946
   0.33333267  0.66666633  0.41835404
   0.49893768  0.50106132  0.41916946
   0.83077357  0.16922543  0.41992345
   0.99999967  0.99999933  0.42065394
   0.83077357  0.66154814  0.41992345
   0.00212364  0.50106132  0.41916946
Direct configuration=    30
   0.66952999  0.00004027  0.15830759
   0.33050928  0.00004027  0.15830759
  -0.00004027  0.33046901  0.15830759
  -0.00004027  0.66948972  0.15830759
   0.33050928  0.33046901  0.15830759
   0.66952999  0.66948972  0.15830759
   0.66666600  0.33333300  0.17380527
   0.33333300  0.66666600  0.15702794
   0.33899636  0.16949818  0.41096919
   0.49883284 -0.00233431  0.41008596
   0.33333267  0.66666633  0.40913127
   0.49883284  0.50116616  0.41008596
   0.83050082  0.16949818  0.41096919
   0.99999967  0.99999933  0.41182451
   0.83050082  0.66100264  0.41096919
   0.00233331  0.50116616  0.41008596
Direct configuration=    31
   0.66953825  0.00004325  0.16126872
   0.33050400  0.00004325  0.16126872
  -0.00004325  0.33046075  0.16126872
  -0.00004325  0.66949500  0.16126872
   0.33050400  0.33046075  0.16126872
   0.66953825  0.66949500  0.16126872
   0.66666600  0.33333300  0.17759082
   0.33333300  0.66666600  0.15988281
   0.33918086  0.16959043  0.40794076
   0.49879739 -0.00240523  0.40701382
   0.33333267  0.66666633  0.40601203
   0.49879739  0.50120161  0.40701382
   0.83040857  0.16959043  0.40794076
   0.99999967  0.99999933  0.40883830
   0.83040857  0.66081814  0.40794076
   0.00240423  0.50120161  0.40701382
Direct configuration=    32
   0.66952856  0.00010541  0.16589497
   0.33057584  0.00010541  0.16589497
  -0.00010541  0.33047044  0.16589497
  -0.00010541  0.66942316  0.16589497
   0.33057584  0.33047044  0.16589497
   0.66952856  0.66942316  0.16589497
   0.66666600  0.33333300  0.18346103
   0.33333300  0.66666600  0.16431993
   0.33883466  0.16941733  0.40321092
   0.49888462 -0.00223075  0.40223063
   0.33333267  0.66666633  0.40116849
   0.49888462  0.50111438  0.40223063
   0.83058167  0.16941733  0.40321092
   0.99999967  0.99999933  0.40415606
   0.83058167  0.66116434  0.40321092
   0.00222975  0.50111438  0.40223063
Direct configuration=    33
   0.66953116  0.00008872  0.16465301
   0.33055656  0.00008872  0.16465301
  -0.00008872  0.33046784  0.16465301
  -0.00008872  0.66944244  0.16465301
   0.33055656  0.33046784  0.16465301
   0.66953116  0.66944244  0.16465301
   0.66666600  0.33333300  0.18188512
   0.33333300  0.66666600  0.16312874
   0.33892760  0.16946380  0.40448069
   0.49886120 -0.00227759  0.40351473
   0.33333267  0.66666633  0.40246878
   0.49886120  0.50113780  0.40351473
   0.83053520  0.16946380  0.40448069
   0.99999967  0.99999933  0.40541305
   0.83053520  0.66107140  0.40448069
   0.00227659  0.50113780  0.40351473
Direct configuration=    34
   0.66950814  0.00014322  0.16450204
   0.33063408  0.00014322  0.16450204
  -0.00014322  0.33049086  0.16450204
  -0.00014322  0.66936492  0.16450204
   0.33063408  0.33049086  0.16450204
   0.66950814  0.66936492  0.16450204
   0.66666600  0.33333300  0.18164784
   0.33333300  0.66666600  0.16296079
   0.33836556  0.16918278  0.40463699
   0.49898648 -0.00202704  0.40368780
   0.33333267  0.66666633  0.40265591
   0.49898648  0.50101252  0.40368780
   0.83081622  0.16918278  0.40463699
   0.99999967  0.99999933  0.40554884
   0.83081622  0.66163344  0.40463699
   0.00202604  0.50101252  0.40368780
Direct configuration=    35
   0.66943907  0.00030674  0.16404913
   0.33086666  0.00030674  0.16404913
  -0.00030674  0.33055993  0.16404913
  -0.00030674  0.66913234  0.16404913
   0.33086666  0.33055993  0.16404913
   0.66943907  0.66913234  0.16404913
   0.66666600  0.33333300  0.18093603
   0.33333300  0.66666600  0.16245696
   0.33667942  0.16833971  0.40510588
   0.49936232 -0.00127537  0.40420704
   0.33333267  0.66666633  0.40321727
   0.49936232  0.50063668  0.40420704
   0.83165929  0.16833971  0.40510588
   0.99999967  0.99999933  0.40595622
   0.83165929  0.66331958  0.40510588
   0.00127437  0.50063668  0.40420704
Direct configuration=    36
   0.66930094  0.00063376  0.16314330
   0.33133183  0.00063376  0.16314330
  -0.00063376  0.33069806  0.16314330
  -0.00063376  0.66866717  0.16314330
   0.33133183  0.33069806  0.16314330
   0.66930094  0.66866717  0.16314330
   0.66666600  0.33333300  0.17951241
   0.33333300  0.66666600  0.16144929
   0.33330715  0.16665357  0.40604366
   0.50011399  0.00022797  0.40524551
   0.33333267  0.66666633  0.40434000
   0.50011399  0.49988501  0.40524551
   0.83334543  0.16665357  0.40604366
   0.99999967  0.99999933  0.40677097
   0.83334543  0.66669185  0.40604366
  -0.00022897  0.49988501  0.40524551
Direct configuration=    37
   0.66929649  0.00064429  0.16311414
   0.33134680  0.00064429  0.16311414
  -0.00064429  0.33070251  0.16311414
  -0.00064429  0.66865220  0.16311414
   0.33134680  0.33070251  0.16311414
   0.66929649  0.66865220  0.16311414
   0.66666600  0.33333300  0.17946659
   0.33333300  0.66666600  0.16141686
   0.33319860  0.16659930  0.40607384
   0.50013818  0.00027636  0.40527894
   0.33333267  0.66666633  0.40437614
   0.50013818  0.49986082  0.40527894
   0.83339970  0.16659930  0.40607384
   0.99999967  0.99999933  0.40679720
   0.83339970  0.66680040  0.40607384
  -0.00027736  0.49986082  0.40527894
Direct configuration=    38
   0.66924287  0.00066867  0.16312284
   0.33142480  0.00066867  0.16312284
  -0.00066867  0.33075613  0.16312284
  -0.00066867  0.66857420  0.16312284
   0.33142480  0.33075613  0.16312284
   0.66924287  0.66857420  0.16312284
   0.66666600  0.33333300  0.17936908
   0.33333300  0.66666600  0.16136295
   0.33319721  0.16659861  0.40606860
   0.50011223  0.00022445  0.40531055
   0.33333267  0.66666633  0.40444140
   0.50011223  0.49988677  0.40531055
   0.83340039  0.16659861  0.40606860
   0.99999967  0.99999933  0.40675209
   0.83340039  0.66680179  0.40606860
  -0.00022545  0.49988677  0.40531055
Direct configuration=    39
   0.66908201  0.00074179  0.16314893
   0.33165878  0.00074179  0.16314893
  -0.00074179  0.33091699  0.16314893
  -0.00074179  0.66834022  0.16314893
   0.33165878  0.33091699  0.16314893
   0.66908201  0.66834022  0.16314893
   0.66666600  0.33333300  0.17907656
   0.33333300  0.66666600  0.16120123
   0.33319306  0.16659653  0.40605287
   0.50003436  0.00006872  0.40540537
   0.33333267  0.66666633  0.40463718
   0.50003436  0.49996464  0.40540537
   0.83340247  0.16659653  0.40605287
   0.99999967  0.99999933  0.40661677
   0.83340247  0.66680594  0.40605287
  -0.00006972  0.49996464  0.40540537
Direct configuration=    40
   0.66876028  0.00088804  0.16320110
   0.33212676  0.00088804  0.16320110
  -0.00088804  0.33123872  0.16320110
  -0.00088804  0.66787224  0.16320110
   0.33212676  0.33123872  0.16320110
   0.66876028  0.66787224  0.16320110
   0.66666600  0.33333300  0.17849151
   0.33333300  0.66666600  0.16087779
   0.33318475  0.16659238  0.40602140
   0.49987863 -0.00024275  0.40559501
   0.33333267  0.66666633  0.40502873
   0.49987863  0.50012037  0.40559501
   0.83340662  0.16659238  0.40602140
   0.99999967  0.99999933  0.40634612
   0.83340662  0.66681425  0.40602140
   0.00024175  0.50012037  0.40559501
Direct configuration=    41
   0.66811682  0.00118055  0.16330545
   0.33306272  0.00118055  0.16330545
  -0.00118055  0.33188218  0.16330545
  -0.00118055  0.66693628  0.16330545
   0.33306272  0.33188218  0.16330545
   0.66811682  0.66693628  0.16330545
   0.66666600  0.33333300  0.17732141
   0.33333300  0.66666600  0.16023091
   0.33316813  0.16658407  0.40595848
   0.49956716 -0.00086567  0.40597429
   0.33333267  0.66666633  0.40581184
   0.49956716  0.50043184  0.40597429
   0.83341493  0.16658407  0.40595848
   0.99999967  0.99999933  0.40580484
   0.83341493  0.66683087  0.40595848
   0.00086467  0.50043184  0.40597429
Direct configuration=    42
   0.66839687  0.00105324  0.16326004
   0.33265537  0.00105324  0.16326004
  -0.00105324  0.33160213  0.16326004
  -0.00105324  0.66734363  0.16326004
   0.33265537  0.33160213  0.16326004
   0.66839687  0.66734363  0.16326004
   0.66666600  0.33333300  0.17783067
   0.33333300  0.66666600  0.16051245
   0.33317537  0.16658768  0.40598586
   0.49970272 -0.00059456  0.40580922
   0.33333267  0.66666633  0.40547101
   0.49970272  0.50029628  0.40580922
   0.83341132  0.16658768  0.40598586
   0.99999967  0.99999933  0.40604042
   0.83341132  0.66682363  0.40598586
   0.00059356  0.50029628  0.40580922
Direct configuration=    43
   0.66839276  0.00094873  0.16329924
   0.33255497  0.00094873  0.16329924
  -0.00094873  0.33160624  0.16329924
  -0.00094873  0.66744403  0.16329924
   0.33255497  0.33160624  0.16329924
   0.66839276  0.66744403  0.16329924
   0.66666600  0.33333300  0.17757493
   0.33333300  0.66666600  0.16035828
   0.33324345  0.16662173  0.40596667
   0.49979171 -0.00041659  0.40587403
   0.33333267  0.66666633  0.40561576
   0.49979171  0.50020729  0.40587403
   0.83337727  0.16662173  0.40596667
   0.99999967  0.99999933  0.40593350
   0.83337727  0.66675555  0.40596667
   0.00041559  0.50020729  0.40587403
Direct configuration=    44
   0.66838043  0.00063520  0.16341686
   0.33225377  0.00063520  0.16341686
  -0.00063520  0.33161857  0.16341686
  -0.00063520  0.66774523  0.16341686
   0.33225377  0.33161857  0.16341686
   0.66838043  0.66774523  0.16341686
   0.66666600  0.33333300  0.17680770
   0.33333300  0.66666600  0.15989577
   0.33344771  0.16672385  0.40590908
   0.50005867  0.00011734  0.40606846
   0.33333267  0.66666633  0.40605001
   0.50005867  0.49994033  0.40606846
   0.83327515  0.16672385  0.40590908
   0.99999967  0.99999933  0.40561274
   0.83327515  0.66655129  0.40590908
  -0.00011834  0.49994033  0.40606846
Direct configuration=    45
   0.66835576  0.00000813  0.16365211
   0.33165137  0.00000813  0.16365211
  -0.00000813  0.33164324  0.16365211
  -0.00000813  0.66834763  0.16365211
   0.33165137  0.33164324  0.16365211
   0.66835576  0.66834763  0.16365211
   0.66666600  0.33333300  0.17527325
   0.33333300  0.66666600  0.15897075
   0.33385622  0.16692811  0.40579389
   0.50059259  0.00118518  0.40645731
   0.33333267  0.66666633  0.40691851
   0.50059259  0.49940641  0.40645731
   0.83307089  0.16692811  0.40579389
   0.99999967  0.99999933  0.40497123
   0.83307089  0.66614278  0.40579389
  -0.00118618  0.49940641  0.40645731
Direct configuration=    46
   0.66836845  0.00033078  0.16353107
   0.33196133  0.00033078  0.16353107
  -0.00033078  0.33163055  0.16353107
  -0.00033078  0.66803767  0.16353107
   0.33196133  0.33163055  0.16353107
   0.66836845  0.66803767  0.16353107
   0.66666600  0.33333300  0.17606278
   0.33333300  0.66666600  0.15944670
   0.33364602  0.16682301  0.40585316
   0.50031787  0.00063574  0.40625723
   0.33333267  0.66666633  0.40647163
   0.50031787  0.49968113  0.40625723
   0.83317599  0.16682301  0.40585316
   0.99999967  0.99999933  0.40530131
   0.83317599  0.66635298  0.40585316
  -0.00063674  0.49968113  0.40625723
Direct configuration=    47
   0.66866560  0.00021832  0.16362880
   0.33155172  0.00021832  0.16362880
  -0.00021832  0.33133340  0.16362880
  -0.00021832  0.66844728  0.16362880
   0.33155172  0.33133340  0.16362880
   0.66866560  0.66844728  0.16362880
   0.66666600  0.33333300  0.17556028
   0.33333300  0.66666600  0.15914506
   0.33346681  0.16673341  0.40584233
   0.50016326  0.00032652  0.40631878
   0.33333267  0.66666633  0.40661313
   0.50016326  0.49983574  0.40631878
   0.83326559  0.16673341  0.40584233