Lattice                                 
           1
     4.226204    2.440000    0.000000
    -4.226204    2.440000    0.000000
     0.000000    0.000000   15.000000
   B    C 
     4    11
Direct configuration=     1
   0.00415361  0.00267210  0.12034134
   0.35695335  0.00285503  0.09748893
   0.00423858  0.35550699  0.09749256
   0.65142295  0.65006557  0.09747688
   0.32808646  0.32671938  0.10030508
   0.68027775  0.00278085  0.10027562
   0.00416530  0.67883808  0.10026559
   0.11111044  0.38888856  0.33726667
   0.27777744  0.22222156  0.33726667
   0.11111044  0.88888856  0.33726667
   0.27777744  0.72222156  0.33726667
   0.61111044  0.38888856  0.33726667
   0.77777744  0.22222156  0.33726667
   0.61111044  0.88888856  0.33726667
   0.77777744  0.72222156  0.33726667
Direct configuration=     2
   0.00416513  0.00268855  0.11884499
   0.35550836  0.00279553  0.09787941
   0.00419230  0.35429514  0.09793705
   0.65275645  0.65129093  0.09790724
   0.32413104  0.32260213  0.10031602
   0.68450452  0.00279372  0.10033124
   0.00422377  0.68281338  0.10028590
   0.11103642  0.38899006  0.33728243
   0.27790808  0.22233606  0.33735852
   0.11129713  0.88902740  0.33729553
   0.27797026  0.72221929  0.33720748
   0.61107382  0.38883714  0.33720239
   0.77773988  0.22227293  0.33729160
   0.61092549  0.88883372  0.33734598
   0.77741689  0.72208248  0.33729357
Direct configuration=     3
   0.00415972  0.00268082  0.11954843
   0.35618765  0.00282350  0.09769585
   0.00421406  0.35486483  0.09772810
   0.65212957  0.65071489  0.09770493
   0.32599049  0.32453765  0.10031088
   0.68251751  0.00278767  0.10030509
   0.00419629  0.68094458  0.10027635
   0.11107122  0.38894234  0.33727502
   0.27784667  0.22228223  0.33731534
   0.11120937  0.88896213  0.33728196
   0.27787962  0.72222035  0.33723530
   0.61109104  0.38886131  0.33723261
   0.77775754  0.22224878  0.33727988
   0.61101243  0.88885950  0.33730869
   0.77758639  0.72214786  0.33728092
Direct configuration=     4
   0.00416585  0.00271552  0.11823928
   0.35670236  0.00276200  0.09805689
   0.00421201  0.35537560  0.09814281
   0.65168167  0.65013514  0.09810501
   0.32621688  0.32463834  0.10028387
   0.68238416  0.00278355  0.10031994
   0.00424064  0.68076459  0.10025815
   0.11109815  0.38887919  0.33729391
   0.27767634  0.22224659  0.33739046
   0.11097640  0.88885827  0.33731462
   0.27765361  0.72226991  0.33719642
   0.61108444  0.38892687  0.33719274
   0.77773420  0.22222545  0.33730263
   0.61115017  0.88897028  0.33737508
   0.77787265  0.72232714  0.33730753
Direct configuration=     5
   0.00418426  0.00281965  0.11431182
   0.35824650  0.00257749  0.09914003
   0.00420586  0.35690789  0.09938694
   0.65033797  0.64839592  0.09930526
   0.32689606  0.32494040  0.10020285
   0.68198412  0.00277118  0.10036448
   0.00437372  0.68022461  0.10020356
   0.11117896  0.38868972  0.33735059
   0.27716538  0.22213968  0.33761583
   0.11027747  0.88854672  0.33741258
   0.27697557  0.72241858  0.33707979
   0.61106466  0.38912354  0.33707314
   0.77766420  0.22215545  0.33737089
   0.61156338  0.88930263  0.33757424
   0.77873142  0.72286500  0.33738734
Direct configuration=     6
   0.00419180  0.00282266  0.11370069
   0.35842315  0.00255812  0.09926519
   0.00422241  0.35705203  0.09952791
   0.65020532  0.64821711  0.09944177
   0.32704633  0.32505755  0.10024059
   0.68185264  0.00275344  0.10041582
   0.00438638  0.68009047  0.10024470
   0.11108154  0.38884022  0.33735903
   0.27736247  0.22219136  0.33763079
   0.11059106  0.88878882  0.33742575
   0.27726173  0.72239172  0.33708457
   0.61101560  0.38908597  0.33707885
   0.77766732  0.22224090  0.33737887
   0.61129693  0.88916189  0.33758767
   0.77824488  0.72262619  0.33739713
Direct configuration=     7
   0.00421151  0.00283054  0.11210214
   0.35888522  0.00250746  0.09959257
   0.00426569  0.35742905  0.09989662
   0.64985835  0.64774941  0.09979887
   0.32743939  0.32536401  0.10033928
   0.68150870  0.00270703  0.10055013
   0.00441948  0.67973959  0.10035232
   0.11082670  0.38923389  0.33738110
   0.27787802  0.22232655  0.33766994
   0.11141132  0.88942210  0.33746019
   0.27801021  0.72232146  0.33709707
   0.61088728  0.38898769  0.33709380
   0.77767550  0.22246440  0.33739975
   0.61059996  0.88879374  0.33762280
   0.77697223  0.72200153  0.33742275
Direct configuration=     8
   0.00423132  0.00281016  0.11134276
   0.35894647  0.00249740  0.09969159
   0.00430667  0.35743442  0.09999964
   0.64984967  0.64771091  0.09990043
   0.32754909  0.32546538  0.10045496
   0.68140540  0.00266633  0.10067247
   0.00442769  0.67963134  0.10047038
   0.11082741  0.38922638  0.33739107
   0.27789439  0.22245412  0.33766045
   0.11139471  0.88936491  0.33747196
   0.27802318  0.72234910  0.33713581
   0.61087823  0.38893917  0.33713477
   0.77761211  0.22247076  0.33740645
   0.61058274  0.88882502  0.33761483
   0.77692047  0.72203306  0.33743176
Direct configuration=     9
   0.00429076  0.00274904  0.10906461
   0.35913021  0.00246720  0.09998866
   0.00442961  0.35745052  0.10030870
   0.64982364  0.64759541  0.10020512
   0.32787820  0.32576948  0.10080199
   0.68109550  0.00254421  0.10103946
   0.00445230  0.67930661  0.10082455
   0.11082953  0.38920386  0.33742101
   0.27794352  0.22283684  0.33763199
   0.11134486  0.88919334  0.33750727
   0.27806210  0.72243202  0.33725202
   0.61085107  0.38879360  0.33725769
   0.77742196  0.22248984  0.33742656
   0.61053108  0.88891883  0.33759091
   0.77676521  0.72212765  0.33745879
Direct configuration=    10
   0.00440964  0.00262679  0.10450832
   0.35949770  0.00240682  0.10058280
   0.00467549  0.35748272  0.10092680
   0.64977156  0.64736439  0.10081449
   0.32853642  0.32637770  0.10149605
   0.68047570  0.00229997  0.10177346
   0.00450154  0.67865713  0.10153291
   0.11083379  0.38915881  0.33748088
   0.27804176  0.22360229  0.33757505
   0.11124516  0.88885019  0.33757790
   0.27813993  0.72259787  0.33748444
   0.61079676  0.38850248  0.33750353
   0.77704165  0.22252800  0.33746677
   0.61042777  0.88910646  0.33754308
   0.77645469  0.72231682  0.33751286
Direct configuration=    11
   0.00436795  0.00266966  0.10610631
   0.35936882  0.00242800  0.10037443
   0.00458926  0.35747142  0.10071002
   0.64978983  0.64744541  0.10060077
   0.32830557  0.32616439  0.10125263
   0.68069308  0.00238563  0.10151603
   0.00448427  0.67888492  0.10128447
   0.11083230  0.38917461  0.33745988
   0.27800730  0.22333383  0.33759502
   0.11128013  0.88897054  0.33755313
   0.27811263  0.72253971  0.33740292
   0.61081581  0.38860458  0.33741731
   0.77717503  0.22251461  0.33745267
   0.61046400  0.88904066  0.33755985
   0.77656359  0.72225047  0.33749390
Direct configuration=    12
   0.00442025  0.00261663  0.10485529
   0.35939223  0.00241893  0.10057209
   0.00464187  0.35747583  0.10089474
   0.64978856  0.64742944  0.10078901
   0.32824426  0.32607695  0.10142140
   0.68082529  0.00234112  0.10168086
   0.00451501  0.67889108  0.10145520
   0.11078427  0.38917390  0.33747663
   0.27754460  0.22266091  0.33758101
   0.11083967  0.88912422  0.33756886
   0.27757293  0.72246671  0.33747222
   0.61079945  0.38907532  0.33748481
   0.77738812  0.22242451  0.33746934
   0.61077330  0.88925326  0.33754590
   0.77731972  0.72244962  0.33751198
Direct configuration=    13
   0.00443425  0.00260244  0.10452048
   0.35939850  0.00241651  0.10062499
   0.00465595  0.35747701  0.10094418
   0.64978822  0.64742516  0.10083938
   0.32822786  0.32605355  0.10146657
   0.68086068  0.00232921  0.10172497
   0.00452324  0.67889274  0.10150089
   0.11077142  0.38917371  0.33748111
   0.27742077  0.22248082  0.33757726
   0.11072180  0.88916535  0.33757307
   0.27742849  0.72244718  0.33749076
   0.61079508  0.38920130  0.33750288
   0.77744514  0.22240040  0.33747380
   0.61085608  0.88931015  0.33754217
   0.77752208  0.72250292  0.33751682
Direct configuration=    14
   0.00445345  0.00257975  0.10434616
   0.35939422  0.00241720  0.10070665
   0.00464328  0.35749660  0.10100532
   0.64975950  0.64741888  0.10090685
   0.32806515  0.32586639  0.10144716
   0.68108184  0.00235154  0.10168949
   0.00454487  0.67901978  0.10148048
   0.11076531  0.38915654  0.33748534
   0.27739598  0.22241123  0.33758494
   0.11077418  0.88922407  0.33757327
   0.27742719  0.72252360  0.33749593
   0.61076996  0.38920250  0.33750283
   0.77747814  0.22251505  0.33748344
   0.61079958  0.88916261  0.33754789
   0.77749689  0.72253270  0.33752357
Direct configuration=    15
   0.00448031  0.00254801  0.10410230
   0.35938822  0.00241817  0.10082089
   0.00462556  0.35752401  0.10109085
   0.64971933  0.64741010  0.10100123
   0.32783755  0.32560457  0.10142002
   0.68139122  0.00238277  0.10163987
   0.00457513  0.67919750  0.10145193
   0.11075676  0.38913253  0.33749126
   0.27736131  0.22231388  0.33759569
   0.11084747  0.88930620  0.33757356
   0.27742536  0.72263051  0.33750317
   0.61073484  0.38920419  0.33750277
   0.77752430  0.22267543  0.33749691
   0.61072056  0.88895622  0.33755589
   0.77746165  0.72257436  0.33753301
Direct configuration=    16
   0.00449795  0.00250913  0.10391398
   0.35948483  0.00241432  0.10094579
   0.00460337  0.35757111  0.10117816
   0.64962348  0.64733924  0.10110011
   0.32778430  0.32551293  0.10137109
   0.68150255  0.00241896  0.10155872
   0.00460367  0.67924739  0.10140090
   0.11077439  0.38919787  0.33749993
   0.27744122  0.22249203  0.33761161
   0.11083362  0.88925600  0.33757495
   0.27747889  0.72256578  0.33750196
   0.61073081  0.38917305  0.33749604
   0.77742061  0.22255745  0.33751190
   0.61070695  0.88911375  0.33757211
   0.77736291  0.72250943  0.33754208
Direct configuration=    17
   0.00450921  0.00248432  0.10379384
   0.35954646  0.00241186  0.10102548
   0.00458921  0.35760116  0.10123386
   0.64956232  0.64729403  0.10116319
   0.32775034  0.32545446  0.10133988
   0.68157358  0.00244205  0.10150695
   0.00462188  0.67927923  0.10136834
   0.11078565  0.38923956  0.33750546
   0.27749221  0.22260569  0.33762177
   0.11082479  0.88922397  0.33757585
   0.27751305  0.72252448  0.33750119
   0.61072824  0.38915319  0.33749174
   0.77735446  0.22248218  0.33752146
   0.61069827  0.88921425  0.33758247
   0.77729991  0.72246800  0.33754787
Direct configuration=    18
   0.00451377  0.00245492  0.10367228
   0.35966910  0.00240534  0.10109902
   0.00458474  0.35761332  0.10127827
   0.64949859  0.64722482  0.10121654
   0.32791619  0.32559825  0.10131704
   0.68141383  0.00245031  0.10145544
   0.00463114  0.67915449  0.10134354
   0.11072384  0.38920347  0.33751538
   0.27742706  0.22256545  0.33763332
   0.11076176  0.88922324  0.33758059
   0.27745723  0.72253213  0.33749648
   0.61074288  0.38917773  0.33748855
   0.77740007  0.22250474  0.33753098
   0.61074196  0.88924386  0.33759965
   0.77736741  0.72252637  0.33755225
Direct configuration=    19
   0.00451553  0.00244356  0.10362535
   0.35971645  0.00240282  0.10112741
   0.00458302  0.35761801  0.10129541
   0.64947398  0.64719810  0.10123714
   0.32798023  0.32565377  0.10130822
   0.68135216  0.00245350  0.10143555
   0.00463472  0.67910633  0.10133396
   0.11069998  0.38918953  0.33751922
   0.27740190  0.22254991  0.33763778
   0.11073742  0.88922296  0.33758242
   0.27743567  0.72253509  0.33749466
   0.61074853  0.38918721  0.33748732
   0.77741768  0.22251345  0.33753466
   0.61075883  0.88925529  0.33760629
   0.77739347  0.72254890  0.33755394
Direct configuration=    20
   0.00452505  0.00243412  0.10355076
   0.35970117  0.00240133  0.10114366
   0.00459366  0.35757001  0.10129741
   0.64952069  0.64722494  0.10124353
   0.32802506  0.32569072  0.10131882
   0.68131477  0.00244026  0.10142810
   0.00463427  0.67906340  0.10134330
   0.11073238  0.38921058  0.33752651
   0.27739594  0.22251186  0.33764313
   0.11078350  0.88927040  0.33758784
   0.27743315  0.72258004  0.33749401
   0.61071976  0.38920086  0.33749007
   0.77740402  0.22256900  0.33753954
   0.61070717  0.88916599  0.33761665
   0.77735896  0.72254492  0.33755599
Direct configuration=    21
   0.00453032  0.00242889  0.10350949
   0.35969272  0.00240051  0.10115264
   0.00459955  0.35754344  0.10129851
   0.64954654  0.64723980  0.10124707
   0.32804987  0.32571117  0.10132469
   0.68129408  0.00243293  0.10142398
   0.00463402  0.67903965  0.10134847
   0.11075030  0.38922222  0.33753055
   0.27739265  0.22249080  0.33764609
   0.11080899  0.88929666  0.33759084
   0.27743176  0.72260491  0.33749366
   0.61070384  0.38920842  0.33749160
   0.77739646  0.22259974  0.33754224
   0.61067859  0.88911658  0.33762238
   0.77733987  0.72254271  0.33755713
Direct configuration=    22
   0.00454044  0.00242409  0.10344935
   0.35966588  0.00239902  0.10115931
   0.00461003  0.35750625  0.10129586
   0.64959103  0.64726643  0.10124727
   0.32805569  0.32570967  0.10133742
   0.68129973  0.00242004  0.10142329
   0.00463502  0.67902665  0.10136025
   0.11074848  0.38923473  0.33753588
   0.27739537  0.22250612  0.33765025
   0.11079804  0.88929819  0.33759512
   0.27742972  0.72260424  0.33749518
   0.61069265  0.38921439  0.33749492
   0.77738362  0.22259263  0.33754645
   0.61066987  0.88913423  0.33762926
   0.77733399  0.72254177  0.33755952
Direct configuration=    23
   0.00457080  0.00240969  0.10326895
   0.35958537  0.00239456  0.10117930
   0.00464144  0.35739467  0.10128790
   0.64972451  0.64734631  0.10124788
   0.32807315  0.32570515  0.10137562
   0.68131667  0.00238136  0.10142120
   0.00463802  0.67898766  0.10139560
   0.11074302  0.38927225  0.33755187
   0.27740354  0.22255208  0.33766271
   0.11076516  0.88930279  0.33760798
   0.27742362  0.72260222  0.33749975
   0.61065908  0.38923229  0.33750488
   0.77734509  0.22257132  0.33755909
   0.61064371  0.88918717  0.33764989
   0.77731637  0.72253894  0.33756670
Direct configuration=    24
   0.00463150  0.00238088  0.10290814
   0.35942436  0.00238563  0.10121928
   0.00470427  0.35717150  0.10127199
   0.64999147  0.64750607  0.10124910
   0.32810809  0.32569612  0.10145202
   0.68135056  0.00230402  0.10141703
   0.00464401  0.67890968  0.10146631
   0.11073210  0.38934729  0.33758384
   0.27741987  0.22264399  0.33768763
   0.11069941  0.88931198  0.33763370
   0.27741142  0.72259817  0.33750889
   0.61059194  0.38926809  0.33752481
   0.77726804  0.22252869  0.33758438
   0.61059140  0.88929305  0.33769115
   0.77728113  0.72253328  0.33758106
Direct configuration=    25
   0.00459711  0.00239720  0.10311256
   0.35951558  0.00239069  0.10119663
   0.00466867  0.35729794  0.10128100
   0.64984023  0.64741556  0.10124841
   0.32808830  0.32570124  0.10140874
   0.68133136  0.00234784  0.10141939
   0.00464061  0.67895386  0.10142625
   0.11073829  0.38930478  0.33756572
   0.27741062  0.22259192  0.33767351
   0.11073666  0.88930677  0.33761913
   0.27741833  0.72260046  0.33750371
   0.61062997  0.38924781  0.33751352
   0.77731169  0.22255284  0.33757005
   0.61062104  0.88923307  0.33766777
   0.77730109  0.72253648  0.33757293
Direct configuration=    26
   0.00461266  0.00238984  0.10301639
   0.35953123  0.00238128  0.10120713
   0.00468319  0.35729683  0.10128224
   0.64984807  0.64739604  0.10125245
   0.32809773  0.32568937  0.10142295
   0.68134676  0.00233213  0.10141654
   0.00465129  0.67894077  0.10143927
   0.11068741  0.38927795  0.33757223
   0.27736815  0.22260485  0.33768108
   0.11071018  0.88929894  0.33762465
   0.27739077  0.72260947  0.33751164
   0.61065116  0.38924560  0.33751988
   0.77732370  0.22257716  0.33757857
   0.61064760  0.88926094  0.33767441
   0.77729966  0.72257725  0.33757991
Direct configuration=    27
   0.00464346  0.00237527  0.10282587
   0.35956224  0.00236266  0.10122794
   0.00471195  0.35729464  0.10128468
   0.64986361  0.64735738  0.10126045
   0.32811643  0.32566584  0.10145109
   0.68137727  0.00230100  0.10141090
   0.00467243  0.67891484  0.10146505
   0.11058663  0.38922481  0.33758512
   0.27728401  0.22263048  0.33769608
   0.11065771  0.88928343  0.33763559
   0.27733617  0.72262732  0.33752735
   0.61069313  0.38924123  0.33753248
   0.77734748  0.22262535  0.33759544
   0.61070024  0.88931617  0.33768754
   0.77729681  0.72265802  0.33759373
Direct configuration=    28
   0.00465759  0.00236561  0.10272380
   0.35962239  0.00234610  0.10124110
   0.00472490  0.35732853  0.10129337
   0.64983014  0.64729605  0.10127048
   0.32813056  0.32564877  0.10145787
   0.68139277  0.00228963  0.10140491
   0.00469124  0.67890728  0.10147102
   0.11057507  0.38924274  0.33759127
   0.27727024  0.22262455  0.33770427
   0.11065151  0.88930912  0.33764131
   0.27732526  0.72263845  0.33753913
   0.61067701  0.38926048  0.33754064
   0.77733844  0.22264058  0.33760509
   0.61067963  0.88931760  0.33769202
   0.77728282  0.72266296  0.33760306
Direct configuration=    29
   0.00469998  0.00233665  0.10241760
   0.35980282  0.00229644  0.10128057
   0.00476375  0.35743021  0.10131943
   0.64972974  0.64711206  0.10130057
   0.32817295  0.32559753  0.10147819
   0.68143926  0.00225551  0.10138693
   0.00474768  0.67888460  0.10148890
   0.11054038  0.38929651  0.33760970
   0.27722895  0.22260676  0.33772885
   0.11063292  0.88938618  0.33765849
   0.27729252  0.72267182  0.33757448
   0.61062866  0.38931823  0.33756513
   0.77731132  0.22268625  0.33763401
   0.61061780  0.88932190  0.33770544
   0.77724083  0.72267778  0.33763105
Direct configuration=    30
   0.00478477  0.00227872  0.10180519
   0.36016369  0.00219711  0.10135952
   0.00484145  0.35763356  0.10137155
   0.64952893  0.64674409  0.10136075
   0.32825773  0.32549507  0.10151884
   0.68153224  0.00218728  0.10135098
   0.00486055  0.67883926  0.10152467
   0.11047102  0.38940406  0.33764656
   0.27714637  0.22257119  0.33777799
   0.11059572  0.88954030  0.33769283
   0.27722705  0.72273856  0.33764517
   0.61053195  0.38943372  0.33761410
   0.77725709  0.22277760  0.33769186
   0.61049415  0.88933050  0.33773229
   0.77715685  0.72270743  0.33768702
Direct configuration=    31
   0.00474032  0.00230909  0.10212623
   0.35997452  0.00224918  0.10131813
   0.00480072  0.35752696  0.10134423
   0.64963420  0.64693699  0.10132921
   0.32821329  0.32554878  0.10149753
   0.68148349  0.00222305  0.10136983
   0.00480138  0.67886303  0.10150592
   0.11050738  0.38934768  0.33762724
   0.27718966  0.22258984  0.33775223
   0.11061522  0.88945950  0.33767483
   0.27726137  0.72270357  0.33760811
   0.61058265  0.38937318  0.33758843
   0.77728552  0.22272971  0.33766154
   0.61055897  0.88932599  0.33771821
   0.77720088  0.72269189  0.33765768
Direct configuration=    32
   0.00476263  0.00227890  0.10192422
   0.36003390  0.00220945  0.10134978
   0.00482603  0.35752147  0.10137972
   0.64963939  0.64688673  0.10136343
   0.32821616  0.32547908  0.10148893
   0.68154929  0.00220391  0.10135189
   0.00484342  0.67888182  0.10149705
   0.11055545  0.38939468  0.33764440
   0.27722292  0.22270690  0.33776564
   0.11058025  0.88942754  0.33769256
   0.27724826  0.72274153  0.33762904
   0.61050953  0.38937007  0.33761063
   0.77718964  0.22271430  0.33767643
   0.61050476  0.88935781  0.33773130
   0.77716793  0.72270426  0.33767429
Direct configuration=    33
   0.00477807  0.00225801  0.10178444
   0.36007499  0.00218195  0.10137169
   0.00484354  0.35751767  0.10140428
   0.64964299  0.64685196  0.10138712
   0.32821815  0.32543085  0.10148298
   0.68159482  0.00219066  0.10133947
   0.00487252  0.67889483  0.10149092
   0.11058871  0.38942720  0.33765628
   0.27724593  0.22278790  0.33777492
   0.11055606  0.88940542  0.33770483
   0.27723918  0.72276780  0.33764352
   0.61045893  0.38936791  0.33762599
   0.77712329  0.22270364  0.33768674
   0.61046725  0.88937982  0.33774036
   0.77714514  0.72271282  0.33768579
Direct configuration=    34
   0.00480421  0.00221791  0.10156973
   0.36005451  0.00213880  0.10140725
   0.00487509  0.35742552  0.10145698
   0.64973709  0.64688407  0.10143441
   0.32823194  0.32536255  0.10145453
   0.68166604  0.00216904  0.10132013
   0.00491720  0.67889838  0.10146373
   0.11051941  0.38943931  0.33767934
   0.27718937  0.22280360  0.33778799
   0.11051827  0.88943986  0.33772997
   0.27719906  0.72278434  0.33766145
   0.61045348  0.38939824  0.33765350
   0.77711307  0.22273750  0.33769871
   0.61045976  0.88942848  0.33776006
   0.77711108  0.72275084  0.33770155
Direct configuration=    35
   0.00484461  0.00215594  0.10123790
   0.36002285  0.00207211  0.10146223
   0.00492384  0.35728310  0.10153844
   0.64988253  0.64693370  0.10150749
   0.32825324  0.32525698  0.10141055
   0.68177611  0.00213561  0.10129024
   0.00498625  0.67890387  0.10142171
   0.11041230  0.38945804  0.33771498
   0.27710193  0.22282788  0.33780818
   0.11045988  0.88949308  0.33776882
   0.27713705  0.72280992  0.33768915
   0.61044505  0.38944510  0.33769602
   0.77709728  0.22278984  0.33771721
   0.61044820  0.88950367  0.33779050
   0.77705844  0.72280960  0.33772591
Direct configuration=    36
   0.00489003  0.00213046  0.10106985
   0.36000970  0.00205015  0.10147548
   0.00496445  0.35722098  0.10157366
   0.64994656  0.64693633  0.10153599
   0.32837875  0.32532487  0.10138712
   0.68171924  0.00210640  0.10129467
   0.00501560  0.67876510  0.10140078
   0.11038597  0.38949917  0.33773063
   0.27706695  0.22277979  0.33782679
   0.11044916  0.88957035  0.33778728
   0.27711493  0.72285543  0.33770345
   0.61039453  0.38949629  0.33771108
   0.77709294  0.22285080  0.33773148
   0.61037846  0.88946492  0.33780782
   0.77704227  0.72282740  0.33774327
Direct configuration=    37
   0.00489563  0.00212733  0.10104915
   0.36000808  0.00204744  0.10147711
   0.00496945  0.35721333  0.10157799
   0.64995444  0.64693665  0.10153950
   0.32839421  0.32533322  0.10138424
   0.68171224  0.00210280  0.10129522
   0.00501922  0.67874801  0.10139820
   0.11038273  0.38950424  0.33773255
   0.27706264  0.22277387  0.33782908
   0.11044784  0.88957986  0.33778955
   0.27711221  0.72286104  0.33770522
   0.61038831  0.38950260  0.33771293
   0.77709241  0.22285830  0.33773324
   0.61036988  0.88946015  0.33780995
   0.77704028  0.72282959  0.33774540
Direct configuration=    38
   0.00493067  0.00211167  0.10095922
   0.36002307  0.00204217  0.10146841
   0.00500224  0.35718787  0.10158493
   0.64998257  0.64691822  0.10154178
   0.32846771  0.32537933  0.10137562
   0.68167347  0.00207363  0.10131742
   0.00503019  0.67865766  0.10139207
   0.11040313  0.38952125  0.33773876
   0.27706034  0.22285799  0.33784662
   0.11041982  0.88954848  0.33779768
   0.27708236  0.72287995  0.33771445
   0.61036390  0.38949844  0.33771558
   0.77702819  0.22284583  0.33774659
   0.61036650  0.88950505  0.33782063
   0.77701538  0.72285091  0.33775958
Direct configuration=    39
   0.00492829  0.00211273  0.10096532
   0.36002205  0.00204253  0.10146900
   0.00500002  0.35718960  0.10158446
   0.64998066  0.64691947  0.10154163
   0.32846272  0.32537620  0.10137620
   0.68167610  0.00207561  0.10131591
   0.00502945  0.67866379  0.10139248
   0.11040175  0.38952009  0.33773834
   0.27706050  0.22285228  0.33784543
   0.11042172  0.88955061  0.33779713
   0.27708439  0.72287867  0.33771382
   0.61036555  0.38949872  0.33771540
   0.77703255  0.22284668  0.33774568
   0.61036673  0.88950200  0.33781990
   0.77701707  0.72284946  0.33775862
Direct configuration=    40
   0.00495028  0.00209491  0.10091150
   0.36004763  0.00203854  0.10145317
   0.00502486  0.35717038  0.10157920
   0.65000426  0.64690369  0.10153334
   0.32845929  0.32535293  0.10137319
   0.68170337  0.00204874  0.10134229
   0.00503590  0.67865933  0.10139171
   0.11036281  0.38953095  0.33774249
   0.27704553  0.22287270  0.33785935
   0.11039815  0.88956410  0.33780239
   0.27707589  0.72287804  0.33772015
   0.61035885  0.38951165  0.33771584
   0.77702701  0.22285212  0.33775669
   0.61035917  0.88954013  0.33782872
   0.77699655  0.72286023  0.33776929
Direct configuration=    41
   0.00497116  0.00207799  0.10086041
   0.36007191  0.00203475  0.10143814
   0.00504844  0.35715213  0.10157421
   0.65002667  0.64688872  0.10152547
   0.32845602  0.32533084  0.10137034
   0.68172926  0.00202322  0.10136734
   0.00504203  0.67865511  0.10139098
   0.11032584  0.38954125  0.33774644
   0.27703131  0.22289208  0.33787256
   0.11037577  0.88957691  0.33780739
   0.27706783  0.72287744  0.33772617
   0.61035248  0.38952392  0.33771625
   0.77702176  0.22285729  0.33776713
   0.61035200  0.88957634  0.33783709
   0.77697707  0.72287046  0.33777943
Direct configuration=    42
   0.00499151  0.00205541  0.10081300
   0.36010698  0.00202320  0.10142404
   0.00506964  0.35714089  0.10156792
   0.65004234  0.64686375  0.10151708
   0.32844961  0.32529278  0.10136344
   0.68177250  0.00199970  0.10138983
   0.00505731  0.67865966  0.10138629
   0.11032539  0.38955746  0.33775424
   0.27700206  0.22287500  0.33788254
   0.11037600  0.88961018  0.33781561
   0.27704296  0.72291739  0.33773174
   0.61032733  0.38954525  0.33772173
   0.77700530  0.22290268  0.33777587
   0.61031785  0.88954256  0.33784831
   0.77696277  0.72289255  0.33778768
Direct configuration=    43
   0.00499303  0.00205373  0.10080947
   0.36010959  0.00202234  0.10142299
   0.00507122  0.35714005  0.10156745
   0.65004350  0.64686189  0.10151645
   0.32844913  0.32528994  0.10136293
   0.68177572  0.00199795  0.10139151
   0.00505844  0.67865999  0.10138594
   0.11032535  0.38955867  0.33775482
   0.27699989  0.22287372  0.33788329
   0.11037602  0.88961266  0.33781622
   0.27704111  0.72292036  0.33773216
   0.61032546  0.38954684  0.33772213
   0.77700408  0.22290606  0.33777652
   0.61031530  0.88954005  0.33784914
   0.77696171  0.72289420  0.33778830
Direct configuration=    44
   0.00500380  0.00204069  0.10079252
   0.36013151  0.00200796  0.10142104
   0.00507863  0.35714076  0.10156581
   0.65004261  0.64684025  0.10151489
   0.32846549  0.32527687  0.10135344
   0.68179184  0.00199130  0.10139371
   0.00507649  0.67864881  0.10137730
   0.11032949  0.38957452  0.33776215
   0.27699356  0.22288753  0.33788425
   0.11036066  0.88961714  0.33782294
   0.27702511  0.72293140  0.33773531
   0.61030535  0.38955969  0.33773026
   0.77698328  0.22290695  0.33777911
   0.61030281  0.88955194  0.33785616
   0.77695893  0.72290264  0.33779042
Direct configuration=    45
   0.00502610  0.00201372  0.10075745
   0.36017686  0.00197822  0.10141700
   0.00509395  0.35714224  0.10156241
   0.65004077  0.64679547  0.10151166
   0.32849935  0.32524982  0.10133382
   0.68182518  0.00197754  0.10139827
   0.00511384  0.67862566  0.10135943
   0.11033805  0.38960732  0.33777732
   0.27698047  0.22291609  0.33788623
   0.11032890  0.88962642  0.33783685
   0.27699200  0.72295422  0.33774183
   0.61026374  0.38958626  0.33774709
   0.77694024  0.22290880  0.33778446
   0.61027695  0.88957655  0.33787069
   0.77695317  0.72292012  0.33779482
Direct configuration=    46
   0.00503215  0.00200757  0.10074982
   0.36018587  0.00197052  0.10141654
   0.00509850  0.35713885  0.10156164
   0.65004338  0.64678678  0.10151107
   0.32850772  0.32524281  0.10132877
   0.68183282  0.00197394  0.10139797
   0.00512312  0.67862023  0.10135472
   0.11032709  0.38961076  0.33778057
   0.27697381  0.22292197  0.33788715
   0.11032307  0.88963212  0.33783975
   0.27698769  0.72295816  0.33774411
   0.61026036  0.38959044  0.33775088
   0.77693687  0.22291517  0.33778630
   0.61027206  0.88958345  0.33787363
   0.77694505  0.72292569  0.33779642
Direct configuration=    47
   0.00505029  0.00198912  0.10072693
   0.36021289  0.00194743  0.10141514
   0.00511214  0.35712866  0.10155930
   0.65005123  0.64676070  0.10150928
   0.32853284  0.32522178  0.10131361
   0.68185574  0.00196314  0.10139708
   0.00515093  0.67860397  0.10134061
   0.11029420  0.38962106  0.33779033
   0.27695384  0.22293958  0.33788991
   0.11030556  0.88964923  0.33784845
   0.27697479  0.72296995  0.33775096
   0.61025022  0.38960299  0.33776226
   0.77692678  0.22293429  0.33779180
   0.61025739  0.88960415  0.33788247
   0.77692071  0.72294240  0.33780122
Direct configuration=    48
   0.00508657  0.00195220  0.10068115
   0.36026694  0.00190126  0.10141235
   0.00513942  0.35710828  0.10155464
   0.65006691  0.64670856  0.10150570
   0.32858308  0.32517974  0.10128328
   0.68190159  0.00194155  0.10139530
   0.00520657  0.67857143  0.10131237
   0.11022841  0.38964168  0.33780984
   0.27691390  0.22297480  0.33789542
   0.11027056  0.88968344  0.33786586
   0.27694898  0.72299355  0.33776464
   0.61022995  0.38962807  0.33778502
   0.77690660  0.22297252  0.33780280
   0.61022805  0.88964554  0.33790015
   0.77687202  0.72297583  0.33781082
Direct configuration=    49
   0.00510068  0.00194227  0.10066911
   0.36027156  0.00188868  0.10141115
   0.00515430  0.35708321  0.10155191
   0.65009152  0.64670691  0.10150356
   0.32859182  0.32516323  0.10127592
   0.68191635  0.00192969  0.10139123
   0.00521936  0.67856555  0.10130526
   0.11021476  0.38965113  0.33781235
   0.27689855  0.22297985  0.33790136
   0.11026416  0.88969852  0.33786791
   0.27693761  0.72300598  0.33777205
   0.61022157  0.38963824  0.33778809
   0.77689636  0.22298884  0.33780969
   0.61021518  0.88964985  0.33790229
   0.77685577  0.72298650  0.33781745
Direct configuration=    50
   0.00514302  0.00191249  0.10063297
   0.36028543  0.00185093  0.10140756
   0.00519893  0.35700801  0.10154375
   0.65016534  0.64670196  0.10149715
   0.32861805  0.32511370  0.10125381
   0.68196063  0.00189410  0.10137905
   0.00525773  0.67854792  0.10128395
   0.11017379  0.38967949  0.33781988
   0.27685249  0.22299499  0.33791919
   0.11024498  0.88974375  0.33787406
   0.27690351  0.72304327  0.33779426
   0.61019643  0.38966877  0.33779732