Lattice                                 
           1
     4.369098    2.522500    0.000000
    -4.369098    2.522500    0.000000
     0.000000    0.000000   15.000000
   B    C 
     2    14
Direct configuration=     1
   0.33833034  0.66916432  0.10000000
   0.67165522  0.33584146  0.10000000
   0.16373946  0.31999962  0.10000000
   0.32250218  0.16126397  0.10000000
   0.16376430  0.84376384  0.10000000
   0.84623863  0.16123684  0.10000000
   0.68749850  0.84373000  0.10000000
   0.84626736  0.68499594  0.10000000
   0.33333267  0.16666633  0.32553333
   0.49999967  0.99999933  0.32553333
   0.33333267  0.66666633  0.32553333
   0.49999967  0.49999933  0.32553333
   0.83333267  0.16666633  0.32553333
   0.99999967  0.99999933  0.32553333
   0.83333267  0.66666633  0.32553333
   0.99999967  0.49999933  0.32553333
Direct configuration=     2
   0.33834428  0.66917090  0.10017282
   0.67169298  0.33582113  0.09997921
   0.16693762  0.32640055  0.09994270
   0.32862980  0.16432398  0.10001527
   0.16696797  0.84055512  0.09994270
   0.84314757  0.16431072  0.10001482
   0.68109599  0.84054818  0.09994239
   0.84317232  0.67886162  0.10001481
   0.33337684  0.16668734  0.32554335
   0.50012664  0.00027098  0.32558649
   0.33332898  0.66666346  0.32532592
   0.50012664  0.49985681  0.32558649
   0.83331983  0.16669143  0.32553984
   0.00000492  0.00000303  0.32553213
   0.83331987  0.66662630  0.32553986
   0.99973308  0.49986711  0.32558787
Direct configuration=     3
   0.33833413  0.66916611  0.10004691
   0.67166547  0.33583594  0.09999436
   0.16460764  0.32173723  0.09998444
   0.32416560  0.16209464  0.10000415
   0.16463397  0.84289280  0.09998444
   0.84539953  0.16207128  0.10000402
   0.68576047  0.84286626  0.09998436
   0.84542717  0.68333071  0.10000402
   0.33334466  0.16667204  0.32553605
   0.50003414  0.00007307  0.32554776
   0.33333167  0.66666555  0.32547703
   0.50003414  0.49996065  0.32554776
   0.83332918  0.16667315  0.32553510
   0.00000109  0.00000034  0.32553301
   0.83332919  0.66665547  0.32553511
   0.99992730  0.49996344  0.32554814
Direct configuration=     4
   0.33833412  0.66916611  0.10004689
   0.67166546  0.33583595  0.09999436
   0.16460720  0.32173635  0.09998445
   0.32416476  0.16209422  0.10000414
   0.16463354  0.84289323  0.09998445
   0.84539995  0.16207086  0.10000402
   0.68576134  0.84286669  0.09998437
   0.84542759  0.68333155  0.10000402
   0.33334465  0.16667203  0.32553605
   0.50003412  0.00007304  0.32554776
   0.33333167  0.66666555  0.32547706
   0.50003412  0.49996066  0.32554775
   0.83332918  0.16667314  0.32553510
   0.00000109  0.00000034  0.32553301
   0.83332919  0.66665547  0.32553510
   0.99992734  0.49996346  0.32554813
Direct configuration=     5
   0.33833845  0.66916642  0.10015750
   0.67166864  0.33583242  0.09997840
   0.16460470  0.32173806  0.09995697
   0.32415469  0.16208339  0.10000584
   0.16462289  0.84288454  0.09995697
   0.84541536  0.16206883  0.10000549
   0.68575196  0.84287197  0.09995656
   0.84543162  0.68334645  0.10000549
   0.33335741  0.16667856  0.32554920
   0.50004510  0.00009427  0.32557483
   0.33333090  0.66666529  0.32534743
   0.50004510  0.49995017  0.32557483
   0.83332342  0.16668035  0.32554595
   0.00000322  0.00000129  0.32552923
   0.83332340  0.66664276  0.32554596
   0.99990847  0.49995391  0.32557603
Direct configuration=     6
   0.33833972  0.66916651  0.10018979
   0.67166957  0.33583139  0.09997374
   0.16460397  0.32173856  0.09994894
   0.32415175  0.16208022  0.10000634
   0.16461978  0.84288200  0.09994894
   0.84541986  0.16206823  0.10000592
   0.68574922  0.84287351  0.09994844
   0.84543279  0.68335080  0.10000592
   0.33336113  0.16668047  0.32555303
   0.50004830  0.00010047  0.32558274
   0.33333067  0.66666522  0.32530958
   0.50004831  0.49994711  0.32558273
   0.83332173  0.16668245  0.32554912
   0.00000384  0.00000156  0.32552813
   0.83332171  0.66663905  0.32554913
   0.99990296  0.49995112  0.32558417
Direct configuration=     7
   0.33831649  0.66916340  0.10025057
   0.67167235  0.33583867  0.09997824
   0.16463319  0.32171961  0.09996271
   0.32415665  0.16208707  0.09997953
   0.16462967  0.84290070  0.09996272
   0.84538911  0.16207585  0.09997877
   0.68579200  0.84288143  0.09996181
   0.84538964  0.68332059  0.09997878
   0.33333721  0.16666805  0.32557859
   0.50002529  0.00005338  0.32556374
   0.33333582  0.66666736  0.32526876
   0.50002526  0.49997212  0.32556374
   0.83333729  0.16666848  0.32557375
   0.00000073  0.00000047  0.32552619
   0.83333731  0.66666774  0.32557374
   0.99994731  0.49997374  0.32556503
Direct configuration=     8
   0.33832158  0.66916408  0.10023727
   0.67167174  0.33583708  0.09997726
   0.16462679  0.32172376  0.09995969
   0.32415558  0.16208557  0.09998540
   0.16462750  0.84289661  0.09995970
   0.84539584  0.16207418  0.09998471
   0.68578264  0.84287970  0.09995889
   0.84539908  0.68332721  0.09998472
   0.33334245  0.16667077  0.32557300
   0.50003033  0.00006369  0.32556789
   0.33333469  0.66666689  0.32527769
   0.50003031  0.49996664  0.32556790
   0.83333388  0.16667154  0.32556836
   0.00000141  0.00000071  0.32552661
   0.83333390  0.66666146  0.32556835
   0.99993760  0.49996879  0.32556922
Direct configuration=     9
   0.33834941  0.66916931  0.10029084
   0.67164593  0.33582930  0.09997970
   0.16456828  0.32172929  0.09997713
   0.32418582  0.16207419  0.09996163
   0.16457239  0.84286432  0.09997718
   0.84546107  0.16208970  0.09996046
   0.68572191  0.84287883  0.09997586
   0.84546548  0.68334771  0.09996047
   0.33335256  0.16667638  0.32559030
   0.50004513  0.00008878  0.32554318
   0.33333238  0.66666636  0.32525532
   0.50004519  0.49995534  0.32554317
   0.83332749  0.16667787  0.32558515
   0.00000613  0.00000256  0.32553708
   0.83332751  0.66664985  0.32558515
   0.99991865  0.49995886  0.32554403
Direct configuration=    10
   0.33833134  0.66916591  0.10025606
   0.67166269  0.33583435  0.09997811
   0.16460627  0.32172570  0.09996581
   0.32416619  0.16208158  0.09997706
   0.16460817  0.84288528  0.09996583
   0.84541873  0.16207962  0.09997621
   0.68576133  0.84287939  0.09996484
   0.84542237  0.68333440  0.09997621
   0.33334600  0.16667274  0.32557907
   0.50003552  0.00007249  0.32555922
   0.33333388  0.66666670  0.32526985
   0.50003553  0.49996268  0.32555923
   0.83333164  0.16667376  0.32557425
   0.00000307  0.00000136  0.32553029
   0.83333165  0.66665739  0.32557424
   0.99993096  0.49996531  0.32556039
Direct configuration=    11
   0.33833198  0.66916603  0.10025729
   0.67166209  0.33583417  0.09997817
   0.16460492  0.32172583  0.09996621
   0.32416688  0.16208132  0.09997651
   0.16460690  0.84288454  0.09996624
   0.84542023  0.16207998  0.09997565
   0.68575994  0.84287937  0.09996523
   0.84542390  0.68333487  0.09997565
   0.33334623  0.16667287  0.32557946
   0.50003586  0.00007307  0.32555866
   0.33333383  0.66666669  0.32526933
   0.50003587  0.49996242  0.32555866
   0.83333149  0.16667390  0.32557464
   0.00000318  0.00000140  0.32553053
   0.83333151  0.66665712  0.32557463
   0.99993052  0.49996508  0.32555980
Direct configuration=    12
   0.33833079  0.66916511  0.10027979
   0.67167308  0.33583076  0.09997480
   0.16462271  0.32174104  0.09997320
   0.32413927  0.16207264  0.09997234
   0.16462462  0.84287852  0.09997321
   0.84541305  0.16206731  0.09997111
   0.68575310  0.84287636  0.09997187
   0.84541235  0.68335029  0.09997112
   0.33336329  0.16668165  0.32557782
   0.50005243  0.00010507  0.32554779
   0.33333259  0.66666627  0.32526596
   0.50005243  0.49994660  0.32554778
   0.83332356  0.16668369  0.32557304
   0.00000638  0.00000282  0.32554527
   0.83332354  0.66663983  0.32557304
   0.99990215  0.49995069  0.32554852
Direct configuration=    13
   0.33833135  0.66916555  0.10026926
   0.67166794  0.33583236  0.09997638
   0.16461439  0.32173392  0.09996993
   0.32415220  0.16207670  0.09997430
   0.16461633  0.84288133  0.09996995
   0.84541641  0.16207324  0.09997324
   0.68575630  0.84287777  0.09996876
   0.84541776  0.68334307  0.09997324
   0.33335531  0.16667754  0.32557859
   0.50004467  0.00009009  0.32555287
   0.33333317  0.66666647  0.32526754
   0.50004468  0.49995401  0.32555287
   0.83332727  0.16667911  0.32557379
   0.00000488  0.00000216  0.32553837
   0.83332727  0.66664793  0.32557379
   0.99991543  0.49995743  0.32555380
Direct configuration=    14
   0.33832956  0.66916417  0.10027954
   0.67166760  0.33583282  0.09997220
   0.16461378  0.32172950  0.09997216
   0.32415440  0.16207779  0.09997746
   0.16461346  0.84288290  0.09997216
   0.84541297  0.16207557  0.09997610
   0.68576146  0.84287986  0.09997078
   0.84541240  0.68333768  0.09997614
   0.33335439  0.16667690  0.32557232
   0.50004124  0.00008317  0.32554861
   0.33333525  0.66666732  0.32526717
   0.50004123  0.49995795  0.32554861
   0.83333048  0.16667826  0.32556766
   0.00000449  0.00000219  0.32554882
   0.83333047  0.66665159  0.32556766
   0.99992214  0.49996101  0.32554927
Direct configuration=    15
   0.33832885  0.66916363  0.10028358
   0.67166747  0.33583299  0.09997056
   0.16461355  0.32172776  0.09997304
   0.32415526  0.16207821  0.09997870
   0.16461233  0.84288352  0.09997302
   0.84541162  0.16207648  0.09997722
   0.68576349  0.84288068  0.09997157
   0.84541030  0.68333556  0.09997728
   0.33335403  0.16667665  0.32556986
   0.50003988  0.00008044  0.32554694
   0.33333607  0.66666765  0.32526702
   0.50003988  0.49995951  0.32554694
   0.83333175  0.16667793  0.32556525
   0.00000434  0.00000220  0.32555293
   0.83333173  0.66665303  0.32556525
   0.99992478  0.49996242  0.32554749
Direct configuration=    16
   0.33833135  0.66916510  0.10029020
   0.67166025  0.33583133  0.09996891
   0.16460575  0.32172954  0.09997749
   0.32415746  0.16207519  0.09998301
   0.16460575  0.84287797  0.09997747
   0.84542102  0.16207696  0.09998115
   0.68575109  0.84287808  0.09997569
   0.84542112  0.68333997  0.09998121
   0.33335276  0.16667650  0.32556489
   0.50004541  0.00008599  0.32554206
   0.33333476  0.66666753  0.32526512
   0.50004540  0.49995853  0.32554206
   0.83333048  0.16667778  0.32556033
   0.00000806  0.00000358  0.32555425
   0.83333049  0.66665296  0.32556033
   0.99992418  0.49996165  0.32554251
Direct configuration=    17
   0.33833065  0.66916469  0.10028834
   0.67166228  0.33583180  0.09996937
   0.16460794  0.32172904  0.09997624
   0.32415684  0.16207604  0.09998180
   0.16460760  0.84287953  0.09997622
   0.84541838  0.16207682  0.09998004
   0.68575458  0.84287881  0.09997453
   0.84541807  0.68333873  0.09998011
   0.33335312  0.16667654  0.32556628
   0.50004385  0.00008443  0.32554343
   0.33333513  0.66666757  0.32526565
   0.50004385  0.49995880  0.32554343
   0.83333083  0.16667782  0.32556171
   0.00000701  0.00000319  0.32555388
   0.83333083  0.66665298  0.32556172
   0.99992435  0.49996187  0.32554391
Direct configuration=    18
   0.33832913  0.66916462  0.10029137
   0.67166156  0.33583126  0.09996943
   0.16460988  0.32173046  0.09997952
   0.32415333  0.16207450  0.09998456
   0.16460942  0.84287875  0.09997950
   0.84541700  0.16207493  0.09998255
   0.68575283  0.84287751  0.09997758
   0.84541677  0.68334010  0.09998261
   0.33335423  0.16667719  0.32556374
   0.50004629  0.00008757  0.32554038
   0.33333548  0.66666784  0.32526383
   0.50004628  0.49995796  0.32554038
   0.83333088  0.16667851  0.32555918
   0.00000835  0.00000378  0.32555199
   0.83333089  0.66665254  0.32555918
   0.99992302  0.49996113  0.32554085
Direct configuration=    19
   0.33832458  0.66916443  0.10030046
   0.67165938  0.33582965  0.09996961
   0.16461569  0.32173472  0.09998936
   0.32414278  0.16206986  0.09999285
   0.16461488  0.84287639  0.09998936
   0.84541288  0.16206925  0.09999008
   0.68574758  0.84287359  0.09998674
   0.84541287  0.68334424  0.09999012
   0.33335756  0.16667914  0.32555612
   0.50005359  0.00009699  0.32553123
   0.33333651  0.66666867  0.32525836
   0.50005357  0.49995544  0.32553123
   0.83333103  0.16668058  0.32555157
   0.00001235  0.00000557  0.32554632
   0.83333105  0.66665123  0.32555158
   0.99991903  0.49995892  0.32553166
Direct configuration=    20
   0.33831547  0.66916406  0.10031864
   0.67165503  0.33582642  0.09996996
   0.16462732  0.32174323  0.10000905
   0.32412169  0.16206058  0.10000941
   0.16462580  0.84287167  0.10000907
   0.84540464  0.16205790  0.10000515
   0.68573707  0.84286575  0.10000505
   0.84540507  0.68335250  0.10000514
   0.33336421  0.16668305  0.32554088
   0.50006820  0.00011582  0.32551294
   0.33333857  0.66667032  0.32524743
   0.50006814  0.49995039  0.32551294
   0.83333131  0.16668473  0.32553636
   0.00002037  0.00000915  0.32553498
   0.83333137  0.66664860  0.32553638
   0.99991104  0.49995450  0.32551329
Direct configuration=    21
   0.33832299  0.66916437  0.10030363
   0.67165862  0.33582909  0.09996967
   0.16461772  0.32173620  0.09999279
   0.32413910  0.16206824  0.09999573
   0.16461678  0.84287556  0.09999280
   0.84541145  0.16206728  0.09999271
   0.68574574  0.84287222  0.09998993
   0.84541151  0.68334568  0.09999274
   0.33335872  0.16667982  0.32555347
   0.50005614  0.00010027  0.32552804
   0.33333687  0.66666896  0.32525646
   0.50005611  0.49995456  0.32552804
   0.83333108  0.16668131  0.32554892
   0.00001375  0.00000620  0.32554434
   0.83333111  0.66665077  0.32554893
   0.99991764  0.49995815  0.32552846
Direct configuration=    22
   0.33832259  0.66916401  0.10030514
   0.67165828  0.33582890  0.09997013
   0.16461703  0.32173563  0.09999461
   0.32413897  0.16206815  0.09999726
   0.16461600  0.84287548  0.09999462
   0.84541087  0.16206726  0.09999410
   0.68574569  0.84287220  0.09999162
   0.84541087  0.68334511  0.09999412
   0.33335954  0.16668019  0.32555210
   0.50005616  0.00010011  0.32552647
   0.33333760  0.66666928  0.32525516
   0.50005613  0.49995487  0.32552648
   0.83333178  0.16668168  0.32554755
   0.00001391  0.00000634  0.32554285
   0.83333181  0.66665100  0.32554756
   0.99991810  0.49995845  0.32552689
Direct configuration=    23
   0.33832138  0.66916294  0.10030967
   0.67165725  0.33582833  0.09997151
   0.16461497  0.32173393  0.10000007
   0.32413858  0.16206789  0.10000184
   0.16461364  0.84287524  0.10000008
   0.84540915  0.16206720  0.09999827
   0.68574551  0.84287211  0.09999670
   0.84540893  0.68334343  0.09999827
   0.33336201  0.16668128  0.32554800
   0.50005624  0.00009965  0.32552177
   0.33333981  0.66667023  0.32525125
   0.50005621  0.49995582  0.32552177
   0.83333389  0.16668278  0.32554344
   0.00001438  0.00000678  0.32553837
   0.83333390  0.66665170  0.32554345
   0.99991949  0.49995935  0.32552219
Direct configuration=    24
   0.33831896  0.66916081  0.10031872
   0.67165519  0.33582720  0.09997426
   0.16461083  0.32173053  0.10001099
   0.32413781  0.16206737  0.10001099
   0.16460892  0.84287477  0.10001102
   0.84540570  0.16206709  0.10000660
   0.68574516  0.84287195  0.10000685
   0.84540505  0.68334006  0.10000658
   0.33336696  0.16668346  0.32553981
   0.50005638  0.00009871  0.32551236
   0.33334422  0.66667213  0.32524345
   0.50005635  0.49995771  0.32551236
   0.83333810  0.16668499  0.32553522
   0.00001532  0.00000765  0.32552940
   0.83333810  0.66665309  0.32553524
   0.99992227  0.49996114  0.32551280
Direct configuration=    25
   0.33831411  0.66915654  0.10033684
   0.67165108  0.33582494  0.09997978
   0.16460256  0.32172371  0.10003283
   0.32413625  0.16206633  0.10002930
   0.16459949  0.84287381  0.10003289
   0.84539881  0.16206687  0.10002328
   0.68574447  0.84287163  0.10002715
   0.84539729  0.68333331  0.10002320
   0.33337685  0.16668783  0.32552342
   0.50005667  0.00009684  0.32549355
   0.33335304  0.66667594  0.32522784
   0.50005665  0.49996149  0.32549355
   0.83334653  0.16668940  0.32551878
   0.00001720  0.00000941  0.32551146
   0.83334649  0.66665588  0.32551881
   0.99992784  0.49996474  0.32549401
Direct configuration=    26
   0.33831445  0.66915611  0.10033935
   0.67164941  0.33582449  0.09998496
   0.16459681  0.32172117  0.10003499
   0.32413933  0.16206752  0.10003207
   0.16459478  0.84287239  0.10003504
   0.84540059  0.16206867  0.10002581
   0.68574265  0.84287202  0.10002905
   0.84539877  0.68333098  0.10002574
   0.33337220  0.16668608  0.32552053
   0.50005831  0.00009388  0.32549219
   0.33335143  0.66667570  0.32522312
   0.50005829  0.49996502  0.32549219
   0.83334607  0.16668747  0.32551587
   0.00002058  0.00001056  0.32550719
   0.83334604  0.66665850  0.32551590
   0.99993563  0.49996810  0.32549268
Direct configuration=    27
   0.33831544  0.66915485  0.10034688
   0.67164440  0.33582312  0.10000050
   0.16457953  0.32171355  0.10004145
   0.32414856  0.16207110  0.10004038
   0.16458066  0.84286813  0.10004149
   0.84540596  0.16207409  0.10003343
   0.68573721  0.84287321  0.10003476
   0.84540319  0.68332397  0.10003335
   0.33335827  0.16668082  0.32551187
   0.50006323  0.00008499  0.32548811
   0.33334660  0.66667499  0.32520897
   0.50006321  0.49997561  0.32548811
   0.83334469  0.16668166  0.32550715
   0.00003071  0.00001404  0.32549436
   0.83334468  0.66666637  0.32550716
   0.99995899  0.49997818  0.32548871
Direct configuration=    28
   0.33831518  0.66915519  0.10034487
   0.67164573  0.33582349  0.09999635
   0.16458415  0.32171558  0.10003972
   0.32414609  0.16207014  0.10003816
   0.16458443  0.84286927  0.10003977
   0.84540452  0.16207264  0.10003140
   0.68573866  0.84287289  0.10003324
   0.84540201  0.68332584  0.10003132
   0.33336199  0.16668222  0.32551418
   0.50006192  0.00008737  0.32548920
   0.33334789  0.66667518  0.32521275
   0.50006190  0.49997278  0.32548920
   0.83334506  0.16668321  0.32550948
   0.00002800  0.00001311  0.32549778
   0.83334504  0.66666427  0.32550949
   0.99995275  0.49997549  0.32548977
Direct configuration=    29
   0.33831404  0.66915473  0.10034648
   0.67164565  0.33582323  0.10000078
   0.16458436  0.32171532  0.10004093
   0.32414484  0.16206997  0.10004008
   0.16458472  0.84286944  0.10004097
   0.84540277  0.16207192  0.10003317
   0.68573888  0.84287262  0.10003428
   0.84540028  0.68332511  0.10003309
   0.33336164  0.16668210  0.32551222
   0.50006241  0.00008691  0.32548834
   0.33334838  0.66667548  0.32520940
   0.50006239  0.49997365  0.32548835
   0.83334583  0.16668306  0.32550750
   0.00002883  0.00001349  0.32549462
   0.83334582  0.66666532  0.32550752
   0.99995448  0.49997632  0.32548894
Direct configuration=    30
   0.33831063  0.66915334  0.10035129
   0.67164541  0.33582246  0.10001406
   0.16458500  0.32171452  0.10004456
   0.32414110  0.16206947  0.10004584
   0.16458557  0.84286994  0.10004459
   0.84539751  0.16206975  0.10003848
   0.68573955  0.84287180  0.10003740
   0.84539508  0.68332293  0.10003841
   0.33336060  0.16668175  0.32550634
   0.50006388  0.00008555  0.32548578
   0.33334985  0.66667637  0.32519935
   0.50006388  0.49997627  0.32548578
   0.83334815  0.16668262  0.32550158
   0.00003129  0.00001462  0.32548515
   0.83334817  0.66666846  0.32550159
   0.99995968  0.49997881  0.32548646
Direct configuration=    31
   0.33830381  0.66915058  0.10036091
   0.67164492  0.33582092  0.10004062
   0.16458628  0.32171293  0.10005181
   0.32413360  0.16206846  0.10005737
   0.16458726  0.84287094  0.10005183
   0.84538700  0.16206541  0.10004911
   0.68574087  0.84287016  0.10004364
   0.84538469  0.68331857  0.10004905
   0.33335850  0.16668103  0.32549458
   0.50006681  0.00008282  0.32548066
   0.33335278  0.66667816  0.32517925
   0.50006684  0.49998152  0.32548066
   0.83335278  0.16668174  0.32548974
   0.00003623  0.00001690  0.32546620
   0.83335287  0.66667474  0.32548974
   0.99997008  0.49998381  0.32548149
Direct configuration=    32
   0.33830664  0.66915173  0.10035692
   0.67164512  0.33582156  0.10002960
   0.16458575  0.32171359  0.10004880
   0.32413671  0.16206888  0.10005259
   0.16458656  0.84287052  0.10004883
   0.84539136  0.16206721  0.10004470
   0.68574032  0.84287084  0.10004105
   0.84538901  0.68332038  0.10004464
   0.33335937  0.16668133  0.32549946
   0.50006559  0.00008395  0.32548278
   0.33335157  0.66667742  0.32518759
   0.50006561  0.49997934  0.32548279
   0.83335086  0.16668211  0.32549466
   0.00003418  0.00001595  0.32547406
   0.83335092  0.66667213  0.32549466
   0.99996577  0.49998174  0.32548355
Direct configuration=    33
   0.33830560  0.66915169  0.10035829
   0.67164388  0.33582069  0.10003439
   0.16458817  0.32171581  0.10004990
   0.32413241  0.16206634  0.10005463
   0.16458823  0.84287044  0.10004992
   0.84538990  0.16206442  0.10004661
   0.68573817  0.84286856  0.10004199
   0.84538885  0.68332351  0.10004655
   0.33336921  0.16668536  0.32549795
   0.50006509  0.00008984  0.32548071
   0.33335647  0.66667898  0.32518603
   0.50006512  0.49997478  0.32548071
   0.83335389  0.16668646  0.32549314
   0.00003090  0.00001523  0.32547123
   0.83335394  0.66666903  0.32549314
   0.99995551  0.49997753  0.32548148
Direct configuration=    34
   0.33830401  0.66915164  0.10036040
   0.67164198  0.33581937  0.10004173
   0.16459188  0.32171922  0.10005159
   0.32412582  0.16206246  0.10005775
   0.16459080  0.84287031  0.10005160
   0.84538767  0.16206016  0.10004954
   0.68573486  0.84286505  0.10004344
   0.84538860  0.68332830  0.10004948
   0.33338428  0.16669154  0.32549562
   0.50006431  0.00009885  0.32547752
   0.33336398  0.66668137  0.32518363
   0.50006436  0.49996779  0.32547753
   0.83335853  0.16669313  0.32549082
   0.00002587  0.00001412  0.32546689
   0.83335857  0.66666427  0.32549082
   0.99993980  0.49997108  0.32547831
Direct configuration=    35
   0.33830460  0.66915191  0.10036132
   0.67163970  0.33581879  0.10004518
   0.16458866  0.32171861  0.10005262
   0.32412674  0.16206219  0.10005960
   0.16458823  0.84286892  0.10005262
   0.84538996  0.16206037  0.10005130
   0.68573190  0.84286438  0.10004436
   0.84539099  0.68332888  0.10005126
   0.33338633  0.16669274  0.32549452
   0.50006704  0.00010211  0.32547466
   0.33336354  0.66668136  0.32518412
   0.50006709  0.49996694  0.32547467
   0.83335719  0.16669434  0.32548975
   0.00002752  0.00001477  0.32546551
   0.83335724  0.66666206  0.32548975
   0.99993857  0.49997029  0.32547541
Direct configuration=    36
   0.33830536  0.66915225  0.10036250
   0.67163680  0.33581805  0.10004958
   0.16458455  0.32171782  0.10005394
   0.32412791  0.16206185  0.10006197
   0.16458495  0.84286714  0.10005394
   0.84539289  0.16206064  0.10005355
   0.68572812  0.84286352  0.10004554
   0.84539405  0.68332962  0.10005352
   0.33338894  0.16669428  0.32549312
   0.50007052  0.00010627  0.32547100
   0.33336298  0.66668134  0.32518475
   0.50007057  0.49996585  0.32547101
   0.83335549  0.16669590  0.32548839
   0.00002964  0.00001559  0.32546376
   0.83335554  0.66665924  0.32548837
   0.99993701  0.49996929  0.32547172
Direct configuration=    37
   0.33830332  0.66915131  0.10036350
   0.67163779  0.33581840  0.10005271
   0.16458477  0.32171613  0.10005553
   0.32412738  0.16206284  0.10006421
   0.16458549  0.84286777  0.10005551
   0.84538962  0.16206084  0.10005570
   0.68573064  0.84286455  0.10004701
   0.84538985  0.68332613  0.10005570
   0.33338314  0.16669209  0.32549134
   0.50007240  0.00010289  0.32546757
   0.33336056  0.66668081  0.32518549
   0.50007242  0.49996975  0.32546760
   0.83335441  0.16669346  0.32548665
   0.00003348  0.00001684  0.32546328
   0.83335444  0.66666196  0.32548663
   0.99994565  0.49997292  0.32546825
Direct configuration=    38
   0.33830164  0.66915054  0.10036433
   0.67163860  0.33581869  0.10005528
   0.16458495  0.32171473  0.10005683
   0.32412694  0.16206365  0.10006605
   0.16458593  0.84286828  0.10005681
   0.84538692  0.16206100  0.10005748
   0.68573271  0.84286539  0.10004822
   0.84538639  0.68332324  0.10005749
   0.33337835  0.16669028  0.32548988
   0.50007394  0.00010009  0.32546475
   0.33335856  0.66668037  0.32518610
   0.50007394  0.49997297  0.32546478
   0.83335352  0.16669146  0.32548521
   0.00003664  0.00001786  0.32546288
   0.83335352  0.66666420  0.32548519
   0.99995277  0.49997591  0.32546539
Direct configuration=    39
   0.33830100  0.66914969  0.10036540
   0.67163840  0.33581823  0.10005711
   0.16458433  0.32171459  0.10005878
   0.32412643  0.16206313  0.10006812
   0.16458461  0.84286806  0.10005875
   0.84538555  0.16206097  0.10005947
   0.68573240  0.84286502  0.10005009
   0.84538560  0.68332288  0.10005950
   0.33337875  0.16668998  0.32548741
   0.50007062  0.00009641  0.32546251
   0.33336197  0.66668156  0.32518531
   0.50007061  0.49997434  0.32546254
   0.83335806  0.16669113  0.32548277
   0.00003468  0.00001741  0.32546305
   0.83335806  0.66666809  0.32548275
   0.99995427  0.49997718  0.32546312
Direct configuration=    40
   0.33830026  0.66914873  0.10036662
   0.67163816  0.33581770  0.10005921
   0.16458361  0.32171444  0.10006101
   0.32412585  0.16206255  0.10007048
   0.16458309  0.84286780  0.10006097
   0.84538398  0.16206092  0.10006176
   0.68573205  0.84286460  0.10005224
   0.84538469  0.68332246  0.10006180
   0.33337922  0.16668964  0.32548458
   0.50006680  0.00009218  0.32545995
   0.33336588  0.66668292  0.32518440
   0.50006679  0.49997593  0.32545996
   0.83336327  0.16669075  0.32547996
   0.00003242  0.00001689  0.32546325
   0.83336326  0.66667254  0.32547994
   0.99995599  0.49997863  0.32546051
Direct configuration=    41
   0.33830026  0.66914870  0.10036795
   0.67163660  0.33581706  0.10006048
   0.16458214  0.32171440  0.10006312
   0.32412508  0.16206170  0.10007247
   0.16458186  0.84286683  0.10006308
   0.84538481  0.16206035  0.10006368
   0.68572971  0.84286376  0.10005430
   0.84538557  0.68332352  0.10006374
   0.33338191  0.16669086  0.32548208
   0.50006794  0.00009460  0.32545831
   0.33336706  0.66668340  0.32518247
   0.50006793  0.49997490  0.32545833
   0.83336391  0.16669209  0.32547746
   0.00003266  0.00001712  0.32546288
   0.83336390  0.66667161  0.32547745
   0.99995398  0.49997776  0.32545887
Direct configuration=    42
   0.33830025  0.66914861  0.10037192
   0.67163193  0.33581514  0.10006428
   0.16457774  0.32171430  0.10006946
   0.32412279  0.16205917  0.10007842
   0.16457815  0.84286392  0.10006941
   0.84538729  0.16205864  0.10006945
   0.68572271  0.84286123  0.10006048
   0.84538820  0.68332667  0.10006953
   0.33339000  0.16669453  0.32547460
   0.50007136  0.00010186  0.32545342
   0.33337060  0.66668485  0.32517667
   0.50007136  0.49997182  0.32545341
   0.83336581  0.16669611  0.32546995
   0.00003339  0.00001783  0.32546175
   0.83336580  0.66666881  0.32546996
   0.99994796  0.49997516  0.32545396
Direct configuration=    43
   0.33829875  0.66914823  0.10037356
   0.67163185  0.33581512  0.10006543
   0.16457862  0.32171395  0.10007152
   0.32412114  0.16205887  0.10008034
   0.16457911  0.84286416  0.10007148
   0.84538534  0.16205776  0.10007131
   0.68572325  0.84286122  0.10006250
   0.84538582  0.68332575  0.10007139
   0.33339032  0.16669502  0.32547261
   0.50007415  0.00010385  0.32545179
   0.33336963  0.66668471  0.32517438
   0.50007414  0.49997198  0.32545178
   0.83336429  0.16669662  0.32546796
   0.00003564  0.00001864  0.32546031
   0.83336428  0.66666742  0.32546797
   0.99994901  0.49997537  0.32545233
Direct configuration=    44
   0.33829517  0.66914734  0.10037749
   0.67163165  0.33581508  0.10006817
   0.16458074  0.32171312  0.10007646
   0.32411719  0.16205815  0.10008493
   0.16458140  0.84286472  0.10007642
   0.84538068  0.16205565  0.10007576
   0.68572455  0.84286120  0.10006732
   0.84538012  0.68332353  0.10007586
   0.33339110  0.16669618  0.32546786
   0.50008081  0.00010860  0.32544790
   0.33336732  0.66668435  0.32516891
   0.50008079  0.49997237  0.32544788
   0.83336065  0.16669784  0.32546318
   0.00004103  0.00002058  0.32545685
   0.83336062  0.66666411  0.32546321
   0.99995151  0.49997587  0.32544845
Direct configuration=    45
   0.33829342  0.66914690  0.10037941
   0.67163156  0.33581506  0.10006952
   0.16458178  0.32171271  0.10007888
   0.32411526  0.16205779  0.10008717
   0.16458253  0.84286500  0.10007884
   0.84537840  0.16205462  0.10007794
   0.68572518  0.84286118  0.10006968
   0.84537733  0.68332244  0.10007805
   0.33339147  0.16669674  0.32546554
   0.50008407  0.00011093  0.32544600
   0.33336619  0.66668417  0.32516623
   0.50008404  0.49997256  0.32544598
   0.83335887  0.16669843  0.32546085
   0.00004367  0.00002152  0.32545516
   0.83335884  0.66666249  0.32546087
   0.99995274  0.49997611  0.32544655
Direct configuration=    46
   0.33829255  0.66914645  0.10038139
   0.67163097  0.33581484  0.10007079
   0.16458092  0.32171204  0.10008100
   0.32411508  0.16205770  0.10008918
   0.16458151  0.84286468  0.10008096
   0.84537751  0.16205468  0.10007990
   0.68572488  0.84286106  0.10007176
   0.84537644  0.68332142  0.10008000
   0.33339146  0.16669685  0.32546381
   0.50008502  0.00011083  0.32544414
   0.33336642  0.66668440  0.32516376
   0.50008498  0.49997340  0.32544412
   0.83335915  0.16669849  0.32545911
   0.00004484  0.00002201  0.32545291
   0.83335911  0.66666292  0.32545913
   0.99995452  0.49997690  0.32544471
Direct configuration=    47
   0.33828993  0.66914510  0.10038735
   0.67162920  0.33581418  0.10007461
   0.16457834  0.32171002  0.10008736
   0.32411456  0.16205744  0.10009520
   0.16457846  0.84286372  0.10008733
   0.84537486  0.16205486  0.10008575
   0.68572401  0.84286068  0.10007798
   0.84537377  0.68331835  0.10008587
   0.33339140  0.16669716  0.32545864
   0.50008785  0.00011051  0.32543857
   0.33336710  0.66668508  0.32515636
   0.50008779  0.49997594  0.32543854
   0.83335997  0.16669867  0.32545388