   8   8   0  16
  0.4025466E+02  0.4979000E-09  0.4979000E-09  0.1500000E-08  0.5000000E-15
  1.000000000000000E-004
  CAR 
 SC                                      
     13.37654488    -19.42402936  301     -2.26265412      1.00000000
    -19.424  0.0000E+00  0.0000E+00
    -19.315  0.0000E+00  0.0000E+00
    -19.205  0.0000E+00  0.0000E+00
    -19.096  0.0000E+00  0.0000E+00
    -18.987  0.0000E+00  0.0000E+00
    -18.877  0.0000E+00  0.0000E+00
    -18.768  0.0000E+00  0.0000E+00
    -18.659  0.0000E+00  0.0000E+00
    -18.549  0.0000E+00  0.0000E+00
    -18.440  0.6274E-13  0.6860E-14
    -18.331  0.1738E-08  0.1900E-09
    -18.221  0.5197E-05  0.5684E-06
    -18.112  0.1830E-02  0.2006E-03
    -18.003  0.8502E-01  0.9497E-02
    -17.893  0.6636E+00  0.8205E-01
    -17.784  0.1407E+01  0.2359E+00
    -17.675  0.1606E+01  0.4115E+00
    -17.565  0.1627E+01  0.5893E+00
    -17.456  0.1754E+01  0.7811E+00
    -17.347  0.1734E+01  0.9707E+00
    -17.237  0.1968E+01  0.1186E+01
    -17.128  0.2361E+01  0.1444E+01
    -17.019  0.2252E+01  0.1690E+01
    -16.909  0.1718E+01  0.1878E+01
    -16.800  0.6577E+00  0.1950E+01
    -16.691  0.4107E+00  0.1995E+01
    -16.581  0.2332E+00  0.2020E+01
    -16.472  0.5533E+00  0.2081E+01
    -16.363  0.1054E+01  0.2196E+01
    -16.253  0.2373E+01  0.2456E+01
    -16.144  0.1639E+01  0.2635E+01
    -16.035  0.1582E+01  0.2808E+01
    -15.925  0.1534E+01  0.2975E+01
    -15.816  0.8903E+00  0.3073E+01
    -15.707  0.7634E+00  0.3156E+01
    -15.597  0.1335E+01  0.3302E+01
    -15.488  0.7597E+00  0.3385E+01
    -15.379  0.5051E+00  0.3441E+01
    -15.269  0.5623E+00  0.3502E+01
    -15.160  0.9638E+00  0.3607E+01
    -15.051  0.6553E+00  0.3679E+01
    -14.941  0.1181E+00  0.3692E+01
    -14.832  0.4119E+00  0.3737E+01
    -14.723  0.6118E+00  0.3804E+01
    -14.613  0.7520E+00  0.3886E+01
    -14.504  0.1015E+01  0.3997E+01
    -14.395  0.1339E+01  0.4144E+01
    -14.285  0.1996E+01  0.4362E+01
    -14.176  0.1967E+01  0.4577E+01
    -14.067  0.2243E+01  0.4822E+01
    -13.957  0.2824E+01  0.5131E+01
    -13.848  0.2755E+01  0.5432E+01
    -13.739  0.2369E+01  0.5691E+01
    -13.629  0.1762E+01  0.5884E+01
    -13.520  0.1001E+01  0.5993E+01
    -13.411  0.2061E+00  0.6016E+01
    -13.301  0.9295E-02  0.6017E+01
    -13.192  0.5931E-01  0.6023E+01
    -13.083  0.4091E+00  0.6068E+01
    -12.973  0.3872E+00  0.6110E+01
    -12.864  0.7710E-01  0.6119E+01
    -12.755  0.5550E+00  0.6179E+01
    -12.645  0.1930E+01  0.6390E+01
    -12.536  0.1796E+01  0.6587E+01
    -12.427  0.2430E+01  0.6852E+01
    -12.317  0.3240E+01  0.7206E+01
    -12.208  0.8754E+00  0.7302E+01
    -12.099  0.1798E+00  0.7322E+01
    -11.989  0.7418E+00  0.7403E+01
    -11.880  0.1902E+01  0.7611E+01
    -11.771  0.1548E+01  0.7780E+01
    -11.661  0.2101E+00  0.7803E+01
    -11.552  0.4935E+00  0.7857E+01
    -11.443  0.2779E+01  0.8161E+01
    -11.333  0.3265E+01  0.8518E+01
    -11.224  0.1668E+01  0.8700E+01
    -11.115  0.1998E+01  0.8919E+01
    -11.005  0.3576E+01  0.9310E+01
    -10.896  0.1863E+01  0.9513E+01
    -10.787  0.8494E+00  0.9606E+01
    -10.677  0.1973E+01  0.9822E+01
    -10.568  0.3364E+01  0.1019E+02
    -10.459  0.1829E+01  0.1039E+02
    -10.349  0.7821E+00  0.1048E+02
    -10.240  0.2489E+01  0.1075E+02
    -10.131  0.2038E+01  0.1097E+02
    -10.021  0.5387E+00  0.1103E+02
     -9.912  0.1773E+01  0.1122E+02
     -9.803  0.2410E+01  0.1149E+02
     -9.693  0.1366E+01  0.1164E+02
     -9.584  0.1906E+01  0.1184E+02
     -9.475  0.1705E+01  0.1203E+02
     -9.365  0.6707E+00  0.1210E+02
     -9.256  0.3684E+00  0.1214E+02
     -9.147  0.1202E+01  0.1228E+02
     -9.037  0.1494E+01  0.1244E+02
     -8.928  0.9042E+00  0.1254E+02
     -8.819  0.1010E+01  0.1265E+02
     -8.709  0.1947E+01  0.1286E+02
     -8.600  0.2999E+01  0.1319E+02
     -8.491  0.4186E+01  0.1365E+02
     -8.381  0.3821E+01  0.1406E+02
     -8.272  0.3589E+01  0.1446E+02
     -8.162  0.1368E+01  0.1461E+02
     -8.053  0.1073E+01  0.1472E+02
     -7.944  0.1423E+01  0.1488E+02
     -7.834  0.8036E+00  0.1497E+02
     -7.725  0.9482E+00  0.1507E+02
     -7.616  0.1687E+01  0.1526E+02
     -7.506  0.1328E+01  0.1540E+02
     -7.397  0.1025E+01  0.1551E+02
     -7.288  0.2018E+01  0.1573E+02
     -7.178  0.1379E+01  0.1588E+02
     -7.069  0.2573E+00  0.1591E+02
     -6.960  0.7028E+00  0.1599E+02
     -6.850  0.9271E+00  0.1609E+02
     -6.741  0.6934E+00  0.1617E+02
     -6.632  0.9774E+00  0.1627E+02
     -6.522  0.1780E+01  0.1647E+02
     -6.413  0.1945E+01  0.1668E+02
     -6.304  0.2663E+01  0.1697E+02
     -6.194  0.3191E+01  0.1732E+02
     -6.085  0.3062E+01  0.1766E+02
     -5.976  0.3199E+01  0.1801E+02
     -5.866  0.2944E+01  0.1833E+02
     -5.757  0.3961E+01  0.1876E+02
     -5.648  0.5396E+01  0.1935E+02
     -5.538  0.4292E+01  0.1982E+02
     -5.429  0.2570E+01  0.2010E+02
     -5.320  0.1500E+01  0.2026E+02
     -5.210  0.1499E+01  0.2043E+02
     -5.101  0.1688E+01  0.2061E+02
     -4.992  0.1255E+01  0.2075E+02
     -4.882  0.6979E+00  0.2083E+02
     -4.773  0.1298E+01  0.2097E+02
     -4.664  0.1833E+01  0.2117E+02
     -4.554  0.1361E+01  0.2132E+02
     -4.445  0.1907E+01  0.2153E+02
     -4.336  0.1494E+01  0.2169E+02
     -4.226  0.1180E+01  0.2182E+02
     -4.117  0.1157E+01  0.2194E+02
     -4.008  0.1875E+01  0.2215E+02
     -3.898  0.1310E+01  0.2229E+02
     -3.789  0.7761E+00  0.2238E+02
     -3.680  0.1946E+01  0.2259E+02
     -3.570  0.2191E+01  0.2283E+02
     -3.461  0.1186E+01  0.2296E+02
     -3.352  0.1011E+01  0.2307E+02
     -3.242  0.7573E+00  0.2315E+02
     -3.133  0.1407E+01  0.2331E+02
     -3.024  0.1846E+01  0.2351E+02
     -2.914  0.9712E+00  0.2361E+02
     -2.805  0.4487E+00  0.2366E+02
     -2.696  0.2906E+00  0.2370E+02
     -2.586  0.9120E+00  0.2380E+02
     -2.477  0.6124E+00  0.2386E+02
     -2.368  0.3610E+00  0.2390E+02
     -2.258  0.9383E+00  0.2400E+02
     -2.149  0.1054E+01  0.2412E+02
     -2.040  0.8374E+00  0.2421E+02
     -1.930  0.6369E+00  0.2428E+02
     -1.821  0.5961E+00  0.2435E+02
     -1.712  0.1368E+01  0.2450E+02
     -1.602  0.2146E+01  0.2473E+02
     -1.493  0.2174E+01  0.2497E+02
     -1.384  0.2067E+01  0.2519E+02
     -1.274  0.9544E+00  0.2530E+02
     -1.165  0.3732E+00  0.2534E+02
     -1.056  0.7688E+00  0.2542E+02
     -0.946  0.8061E+00  0.2551E+02
     -0.837  0.1233E+01  0.2565E+02
     -0.728  0.2250E+01  0.2589E+02
     -0.618  0.1947E+01  0.2611E+02
     -0.509  0.7540E+00  0.2619E+02
     -0.400  0.9025E+00  0.2629E+02
     -0.290  0.8442E+00  0.2638E+02
     -0.181  0.9084E+00  0.2648E+02
     -0.072  0.1340E+01  0.2662E+02
      0.038  0.1680E+01  0.2681E+02
      0.147  0.2007E+01  0.2703E+02
      0.256  0.1823E+01  0.2723E+02
      0.366  0.1078E+01  0.2734E+02
      0.475  0.3687E+00  0.2739E+02
      0.584  0.8902E+00  0.2748E+02
      0.694  0.2066E+01  0.2771E+02
      0.803  0.4057E+01  0.2815E+02
      0.912  0.2952E+01  0.2847E+02
      1.022  0.2001E+01  0.2869E+02
      1.131  0.2045E+01  0.2892E+02
      1.240  0.3089E+01  0.2925E+02
      1.350  0.3213E+01  0.2961E+02
      1.459  0.2387E+01  0.2987E+02
      1.568  0.4234E+01  0.3033E+02
      1.678  0.4448E+01  0.3082E+02
      1.787  0.3516E+01  0.3120E+02
      1.896  0.4203E+01  0.3166E+02
      2.006  0.5746E+01  0.3229E+02
      2.115  0.4193E+01  0.3275E+02
      2.224  0.3524E+01  0.3313E+02
      2.334  0.3594E+01  0.3353E+02
      2.443  0.4203E+01  0.3398E+02
      2.552  0.7057E+01  0.3476E+02
      2.662  0.6372E+01  0.3545E+02
      2.771  0.6483E+01  0.3616E+02
      2.880  0.6792E+01  0.3690E+02
      2.990  0.6381E+01  0.3760E+02
      3.099  0.5746E+01  0.3823E+02
      3.208  0.4789E+01  0.3875E+02
      3.318  0.5592E+01  0.3937E+02
      3.427  0.5999E+01  0.4002E+02
      3.536  0.7239E+01  0.4081E+02
      3.646  0.6003E+01  0.4147E+02
      3.755  0.4764E+01  0.4199E+02
      3.864  0.5306E+01  0.4257E+02
      3.974  0.4115E+01  0.4302E+02
      4.083  0.4067E+01  0.4346E+02
      4.192  0.5190E+01  0.4403E+02
      4.302  0.5049E+01  0.4458E+02
      4.411  0.5413E+01  0.4518E+02
      4.520  0.6406E+01  0.4588E+02
      4.630  0.5206E+01  0.4645E+02
      4.739  0.4209E+01  0.4691E+02
      4.848  0.5948E+01  0.4756E+02
      4.958  0.7586E+01  0.4839E+02
      5.067  0.7932E+01  0.4925E+02
      5.176  0.7706E+01  0.5010E+02
      5.286  0.6947E+01  0.5085E+02
      5.395  0.5480E+01  0.5145E+02
      5.504  0.5778E+01  0.5209E+02
      5.614  0.6674E+01  0.5282E+02
      5.723  0.7107E+01  0.5359E+02
      5.832  0.7174E+01  0.5438E+02
      5.942  0.7019E+01  0.5514E+02
      6.051  0.6421E+01  0.5585E+02
      6.160  0.7175E+01  0.5663E+02
      6.270  0.6208E+01  0.5731E+02
      6.379  0.5969E+01  0.5796E+02
      6.488  0.5212E+01  0.5853E+02
      6.598  0.3853E+01  0.5895E+02
      6.707  0.5138E+01  0.5951E+02
      6.816  0.9000E+01  0.6050E+02
      6.926  0.8500E+01  0.6143E+02
      7.035  0.6848E+01  0.6218E+02
      7.144  0.5439E+01  0.6277E+02
      7.254  0.4590E+01  0.6327E+02
      7.363  0.4353E+01  0.6375E+02
      7.472  0.6169E+01  0.6442E+02
      7.582  0.6815E+01  0.6517E+02
      7.691  0.6904E+01  0.6592E+02
      7.800  0.8924E+01  0.6690E+02
      7.910  0.6897E+01  0.6765E+02
      8.019  0.4525E+01  0.6815E+02
      8.128  0.3900E+01  0.6857E+02
      8.238  0.3955E+01  0.6901E+02
      8.347  0.4726E+01  0.6952E+02
      8.456  0.7030E+01  0.7029E+02
      8.566  0.7468E+01  0.7111E+02
      8.675  0.6508E+01  0.7182E+02
      8.784  0.4847E+01  0.7235E+02
      8.894  0.5094E+01  0.7291E+02
      9.003  0.6515E+01  0.7362E+02
      9.112  0.5944E+01  0.7427E+02
      9.222  0.6063E+01  0.7493E+02
      9.331  0.6608E+01  0.7565E+02
      9.440  0.6144E+01  0.7633E+02
      9.550  0.9232E+01  0.7734E+02
      9.659  0.9377E+01  0.7836E+02
      9.768  0.8751E+01  0.7932E+02
      9.878  0.8352E+01  0.8023E+02
      9.987  0.7486E+01  0.8105E+02
     10.096  0.8823E+01  0.8201E+02
     10.206  0.1053E+02  0.8317E+02
     10.315  0.8768E+01  0.8412E+02
     10.424  0.8570E+01  0.8506E+02
     10.534  0.8718E+01  0.8601E+02
     10.643  0.9287E+01  0.8703E+02
     10.752  0.1027E+02  0.8815E+02
     10.862  0.1113E+02  0.8937E+02
     10.971  0.7330E+01  0.9017E+02
     11.081  0.6078E+01  0.9084E+02
     11.190  0.8315E+01  0.9175E+02
     11.299  0.6293E+01  0.9243E+02
     11.409  0.4838E+01  0.9296E+02
     11.518  0.7576E+01  0.9379E+02
     11.627  0.7934E+01  0.9466E+02
     11.737  0.5000E+01  0.9520E+02
     11.846  0.4201E+01  0.9566E+02
     11.955  0.2580E+01  0.9595E+02
     12.065  0.4801E+00  0.9600E+02
     12.174  0.1455E-01  0.9600E+02
     12.283  0.5338E-04  0.9600E+02
     12.393  0.2073E-07  0.9600E+02
     12.502  0.8007E-12  0.9600E+02
     12.611  0.0000E+00  0.9600E+02
     12.721  0.0000E+00  0.9600E+02
     12.830  0.0000E+00  0.9600E+02
     12.939  0.0000E+00  0.9600E+02
     13.049  0.0000E+00  0.9600E+02
     13.158  0.0000E+00  0.9600E+02
     13.267  0.0000E+00  0.9600E+02
     13.377  0.0000E+00  0.9600E+02
