       N       E                     dE             d eps       ncg     rms          rms(c)
DAV:   1     0.203665368810E+03    0.20367E+03   -0.25759E+04 14208   0.860E+02
DAV:   2    -0.116462523818E+03   -0.32013E+03   -0.31859E+03 20256   0.163E+02
DAV:   3    -0.129521688526E+03   -0.13059E+02   -0.13041E+02 26736   0.431E+01
DAV:   4    -0.129545579254E+03   -0.23891E-01   -0.23888E-01 20880   0.180E+00
DAV:   5    -0.129545635507E+03   -0.56253E-04   -0.56252E-04 25296   0.840E-02    0.245E+01
DAV:   6    -0.920746057188E+02    0.37471E+02   -0.71800E+01 25536   0.255E+01    0.139E+01
DAV:   7    -0.100525631927E+03   -0.84510E+01   -0.10044E+01 22464   0.102E+01    0.811E+00
DAV:   8    -0.110503432214E+03   -0.99778E+01   -0.88140E+00 24096   0.897E+00    0.434E+00
DAV:   9    -0.117212306510E+03   -0.67089E+01   -0.38687E+00 19728   0.608E+00    0.277E+00
DAV:  10    -0.123467965907E+03   -0.62557E+01   -0.81276E+00 23664   0.696E+00    0.161E+00
DAV:  11    -0.125299555705E+03   -0.18316E+01   -0.30953E+00 24384   0.390E+00    0.101E+00
DAV:  12    -0.125424683011E+03   -0.12513E+00   -0.21601E-01 20832   0.127E+00    0.491E-01
DAV:  13    -0.125451351391E+03   -0.26668E-01   -0.21353E-02 17280   0.521E-01    0.199E-01
DAV:  14    -0.125475217857E+03   -0.23866E-01   -0.59750E-03 21840   0.266E-01    0.866E-02
DAV:  15    -0.125483329600E+03   -0.81117E-02   -0.32878E-03 18048   0.154E-01    0.463E-02
DAV:  16    -0.125485412414E+03   -0.20828E-02   -0.66512E-04 17664   0.803E-02    0.230E-02
DAV:  17    -0.125486707968E+03   -0.12956E-02   -0.17636E-04 14736   0.504E-02    0.181E-02
DAV:  18    -0.125487399483E+03   -0.69151E-03   -0.88780E-05 17232   0.370E-02    0.130E-02
DAV:  19    -0.125487866760E+03   -0.46728E-03   -0.43580E-05 18672   0.242E-02    0.769E-03
DAV:  20    -0.125487914711E+03   -0.47951E-04   -0.22792E-05 22896   0.177E-02    0.473E-03
DAV:  21    -0.125487941475E+03   -0.26763E-04   -0.65712E-06 20640   0.946E-03    0.232E-03
DAV:  22    -0.125487961977E+03   -0.20503E-04   -0.21538E-06 21456   0.547E-03    0.145E-03
DAV:  23    -0.125487979252E+03   -0.17275E-04   -0.18366E-06 20256   0.405E-03    0.765E-04
DAV:  24    -0.125487982932E+03   -0.36803E-05   -0.38327E-07 23280   0.220E-03    0.392E-04
DAV:  25    -0.125487983947E+03   -0.10151E-05   -0.12066E-07 23376   0.114E-03    0.195E-04
DAV:  26    -0.125487984476E+03   -0.52853E-06   -0.31114E-08 20832   0.596E-04
   1 F= -.12707687E+03 E0= -.12707609E+03  d E =-.127077E+03  mag=    -0.0000
       N       E                     dE             d eps       ncg     rms          rms(c)
DAV:   1    -0.125497644508E+03   -0.96606E-02   -0.27551E+00 14208   0.509E+00    0.453E-01
DAV:   2    -0.125490393915E+03    0.72506E-02   -0.55624E-02 26016   0.651E-01    0.200E-01
DAV:   3    -0.125489597091E+03    0.79682E-03   -0.45104E-03 20208   0.183E-01    0.787E-02
DAV:   4    -0.125489567062E+03    0.30029E-04   -0.52873E-04 27312   0.637E-02    0.205E-02
DAV:   5    -0.125489570174E+03   -0.31125E-05   -0.13622E-05 24720   0.115E-02    0.837E-03
DAV:   6    -0.125489570397E+03   -0.22264E-06   -0.16004E-06 22272   0.383E-03
   2 F= -.12707781E+03 E0= -.12707703E+03  d E =-.936400E-03  mag=    -0.0000
       N       E                     dE             d eps       ncg     rms          rms(c)
DAV:   1    -0.125497015192E+03   -0.74450E-02   -0.63708E-01 14304   0.245E+00    0.218E-01
DAV:   2    -0.125495301565E+03    0.17136E-02   -0.12822E-02 25344   0.312E-01    0.959E-02
DAV:   3    -0.125495122837E+03    0.17873E-03   -0.10358E-03 21648   0.884E-02    0.383E-02
DAV:   4    -0.125495116595E+03    0.62428E-05   -0.12087E-04 24000   0.303E-02    0.945E-03
DAV:   5    -0.125495117246E+03   -0.65165E-06   -0.38277E-06 19440   0.595E-03
   3 F= -.12708367E+03 E0= -.12708288E+03  d E =-.679245E-02  mag=    -0.0000
       N       E                     dE             d eps       ncg     rms          rms(c)
DAV:   1    -0.125502422851E+03   -0.73063E-02   -0.36817E-01 14304   0.208E+00    0.126E-01
DAV:   2    -0.125502498825E+03   -0.75974E-04   -0.22184E-03 27744   0.182E-01    0.741E-02
DAV:   3    -0.125502494248E+03    0.45760E-05   -0.22147E-04 22032   0.510E-02    0.147E-02
DAV:   4    -0.125502495700E+03   -0.14515E-05   -0.22218E-05 26688   0.173E-02    0.570E-03
DAV:   5    -0.125502496013E+03   -0.31289E-06   -0.95063E-07 21552   0.409E-03
   4 F= -.12709077E+03 E0= -.12708999E+03  d E =-.710265E-02  mag=     0.0000
       N       E                     dE             d eps       ncg     rms          rms(c)
DAV:   1    -0.125513221871E+03   -0.10726E-01   -0.33367E+00 14208   0.625E+00    0.376E-01
DAV:   2    -0.125514078374E+03   -0.85650E-03   -0.20852E-02 26928   0.557E-01    0.221E-01
DAV:   3    -0.125514020097E+03    0.58278E-04   -0.20335E-03 20880   0.154E-01    0.444E-02
DAV:   4    -0.125514035686E+03   -0.15589E-04   -0.20171E-04 27552   0.519E-02    0.172E-02
DAV:   5    -0.125514038605E+03   -0.29194E-05   -0.83472E-06 20928   0.120E-02    0.773E-03
DAV:   6    -0.125514038757E+03   -0.15169E-06   -0.59317E-06 24960   0.905E-03
   5 F= -.12710149E+03 E0= -.12710071E+03  d E =-.178237E-01  mag=    -0.0000
       N       E                     dE             d eps       ncg     rms          rms(c)
DAV:   1    -0.125517329073E+03   -0.32905E-02   -0.10338E-01 14304   0.126E+00    0.756E-02
DAV:   2    -0.125517321300E+03    0.77731E-05   -0.90262E-04 25968   0.133E-01    0.421E-02
DAV:   3    -0.125517299661E+03    0.21638E-04   -0.10603E-04 19536   0.392E-02    0.121E-02
DAV:   4    -0.125517300636E+03   -0.97473E-06   -0.15516E-05 26112   0.149E-02    0.488E-03
DAV:   5    -0.125517301077E+03   -0.44046E-06   -0.75227E-07 21840   0.357E-03
   6 F= -.12710461E+03 E0= -.12710383E+03  d E =-.312244E-02  mag=    -0.0000
       N       E                     dE             d eps       ncg     rms          rms(c)
DAV:   1    -0.125520693866E+03   -0.33932E-02   -0.51934E-01 14208   0.281E+00    0.169E-01
DAV:   2    -0.125520654106E+03    0.39760E-04   -0.44817E-03 26496   0.296E-01    0.941E-02
DAV:   3    -0.125520546196E+03    0.10791E-03   -0.52901E-04 20832   0.873E-02    0.267E-02
DAV:   4    -0.125520551091E+03   -0.48950E-05   -0.73409E-05 25920   0.323E-02    0.108E-02
DAV:   5    -0.125520551859E+03   -0.76760E-06   -0.28797E-06 19488   0.706E-03
   7 F= -.12710753E+03 E0= -.12710675E+03  d E =-.604369E-02  mag=     0.0000
       N       E                     dE             d eps       ncg     rms          rms(c)
DAV:   1    -0.125522740738E+03   -0.21896E-02   -0.88383E-02 14208   0.969E-01    0.560E-02
DAV:   2    -0.125522762411E+03   -0.21672E-04   -0.48558E-04 24288   0.789E-02    0.335E-02
DAV:   3    -0.125522760914E+03    0.14966E-05   -0.53915E-05 20640   0.218E-02    0.562E-03
DAV:   4    -0.125522760983E+03   -0.68533E-07   -0.32268E-06 24288   0.705E-03
   8 F= -.12710954E+03 E0= -.12710876E+03  d E =-.200933E-02  mag=     0.0000
       N       E                     dE             d eps       ncg     rms          rms(c)
DAV:   1    -0.125527595481E+03   -0.48346E-02   -0.79645E-01 14208   0.291E+00    0.167E-01
DAV:   2    -0.125527789821E+03   -0.19434E-03   -0.41366E-03 26688   0.231E-01    0.999E-02
DAV:   3    -0.125527773728E+03    0.16093E-04   -0.47269E-04 21312   0.635E-02    0.153E-02
DAV:   4    -0.125527774005E+03   -0.27745E-06   -0.26298E-05 24336   0.202E-02    0.766E-03
DAV:   5    -0.125527772147E+03    0.18578E-05   -0.40550E-06 22512   0.756E-03    0.294E-03
DAV:   6    -0.125527771751E+03    0.39663E-06   -0.11980E-06 23280   0.387E-03
   9 F= -.12711396E+03 E0= -.12711318E+03  d E =-.642550E-02  mag=    -0.0000
       N       E                     dE             d eps       ncg     rms          rms(c)
DAV:   1    -0.125530909133E+03   -0.31370E-02   -0.31899E+00 14208   0.581E+00    0.330E-01
DAV:   2    -0.125531694702E+03   -0.78557E-03   -0.16063E-02 26400   0.457E-01    0.198E-01
DAV:   3    -0.125531621680E+03    0.73022E-04   -0.19050E-03 22704   0.127E-01    0.288E-02
DAV:   4    -0.125531622364E+03   -0.68427E-06   -0.99521E-05 23040   0.397E-02    0.149E-02
DAV:   5    -0.125531617222E+03    0.51423E-05   -0.15917E-05 24192   0.153E-02    0.458E-03
DAV:   6    -0.125531616636E+03    0.58581E-06   -0.51047E-06 23856   0.815E-03
  10 F= -.12711664E+03 E0= -.12711585E+03  d E =-.910362E-02  mag=     0.0000
       N       E                     dE             d eps       ncg     rms          rms(c)
DAV:   1    -0.125533376182E+03   -0.17590E-02   -0.78677E-01 14208   0.351E+00    0.199E-01
DAV:   2    -0.125533279269E+03    0.96913E-04   -0.87256E-03 26784   0.405E-01    0.115E-01
DAV:   3    -0.125533194017E+03    0.85252E-04   -0.10639E-03 18864   0.117E-01    0.442E-02
DAV:   4    -0.125533194436E+03   -0.41839E-06   -0.25214E-04 26064   0.516E-02    0.220E-02
DAV:   5    -0.125533198365E+03   -0.39295E-05   -0.14988E-05 24144   0.156E-02    0.654E-03
DAV:   6    -0.125533200207E+03   -0.18421E-05   -0.18703E-06 21456   0.569E-03    0.350E-03
DAV:   7    -0.125533201569E+03   -0.13618E-05   -0.34882E-07 25104   0.230E-03    0.132E-03
DAV:   8    -0.125533203716E+03   -0.21470E-05   -0.38004E-07 21216   0.214E-03    0.912E-04
DAV:   9    -0.125533206496E+03   -0.27799E-05   -0.36708E-07 21408   0.184E-03    0.706E-04
DAV:  10    -0.125533208178E+03   -0.16823E-05   -0.12719E-07 22800   0.104E-03    0.343E-04
DAV:  11    -0.125533208825E+03   -0.64612E-06   -0.19867E-08 22800   0.385E-04
  11 F= -.12711776E+03 E0= -.12711698E+03  d E =-.112267E-02  mag=     0.0000
       N       E                     dE             d eps       ncg     rms          rms(c)
DAV:   1    -0.125533654494E+03   -0.44632E-03   -0.10848E-01 14208   0.130E+00    0.738E-02
DAV:   2    -0.125533643607E+03    0.10887E-04   -0.12259E-03 27744   0.152E-01    0.426E-02
DAV:   3    -0.125533633013E+03    0.10594E-04   -0.14190E-04 20400   0.427E-02    0.165E-02
DAV:   4    -0.125533633282E+03   -0.26845E-06   -0.33114E-05 26208   0.187E-02    0.802E-03
DAV:   5    -0.125533633813E+03   -0.53121E-06   -0.18465E-06 21888   0.552E-03
  12 F= -.12711837E+03 E0= -.12711759E+03  d E =-.173377E-02  mag=    -0.0000
       N       E                     dE             d eps       ncg     rms          rms(c)
DAV:   1    -0.125534928833E+03   -0.12956E-02   -0.72357E-02 14208   0.988E-01    0.589E-02
DAV:   2    -0.125534901279E+03    0.27554E-04   -0.65660E-04 22656   0.899E-02    0.301E-02
DAV:   3    -0.125534898892E+03    0.23877E-05   -0.40322E-05 23616   0.215E-02    0.127E-02
DAV:   4    -0.125534900075E+03   -0.11838E-05   -0.58424E-06 21024   0.837E-03    0.276E-03
DAV:   5    -0.125534900182E+03   -0.10634E-06   -0.39908E-07 26016   0.227E-03
  13 F= -.12711951E+03 E0= -.12711873E+03  d E =-.114149E-02  mag=     0.0000
       N       E                     dE             d eps       ncg     rms          rms(c)
DAV:   1    -0.125535227315E+03   -0.32724E-03   -0.34311E-02 14208   0.680E-01    0.407E-02
DAV:   2    -0.125535214227E+03    0.13088E-04   -0.30994E-04 21408   0.618E-02    0.208E-02
DAV:   3    -0.125535213421E+03    0.80555E-06   -0.19162E-05 20304   0.149E-02    0.883E-03
DAV:   4    -0.125535214092E+03   -0.67032E-06   -0.28867E-06 19968   0.589E-03
  14 F= -.12711974E+03 E0= -.12711896E+03  d E =-.136972E-02  mag=    -0.0000
       N       E                     dE             d eps       ncg     rms          rms(c)
DAV:   1    -0.125535490249E+03   -0.27683E-03   -0.48465E-02 15552   0.907E-01    0.573E-02
DAV:   2    -0.125535459537E+03    0.30712E-04   -0.64172E-04 21072   0.109E-01    0.303E-02
DAV:   3    -0.125535443973E+03    0.15564E-04   -0.80759E-05 22224   0.350E-02    0.999E-03
DAV:   4    -0.125535443815E+03    0.15745E-06   -0.11226E-05 20736   0.125E-02    0.427E-03
DAV:   5    -0.125535443994E+03   -0.17855E-06   -0.56311E-07 24384   0.300E-03
  15 F= -.12711990E+03 E0= -.12711912E+03  d E =-.160976E-03  mag=    -0.0000
       N       E                     dE             d eps       ncg     rms          rms(c)
DAV:   1    -0.125535480100E+03   -0.36285E-04   -0.54303E-03 15360   0.304E-01    0.190E-02
DAV:   2    -0.125535476988E+03    0.31123E-05   -0.73115E-05 21792   0.367E-02    0.101E-02
DAV:   3    -0.125535475381E+03    0.16064E-05   -0.88818E-06 17040   0.117E-02    0.334E-03
DAV:   4    -0.125535475524E+03   -0.14284E-06   -0.13809E-06 22944   0.436E-03
  16 F= -.12711996E+03 E0= -.12711917E+03  d E =-.216124E-03  mag=     0.0000
       N       E                     dE             d eps       ncg     rms          rms(c)
DAV:   1    -0.125535685547E+03   -0.21017E-03   -0.11570E-02 14208   0.415E-01    0.226E-02
DAV:   2    -0.125535677783E+03    0.77646E-05   -0.13790E-04 21504   0.429E-02    0.116E-02
DAV:   3    -0.125535677014E+03    0.76905E-06   -0.12315E-05 20016   0.123E-02    0.462E-03
DAV:   4    -0.125535677266E+03   -0.25197E-06   -0.15265E-06 18384   0.443E-03
  17 F= -.12712010E+03 E0= -.12711932E+03  d E =-.144745E-03  mag=     0.0000
       N       E                     dE             d eps       ncg     rms          rms(c)
DAV:   1    -0.125535719955E+03   -0.42941E-04   -0.23572E-03 14208   0.187E-01    0.103E-02
DAV:   2    -0.125535718386E+03    0.15682E-05   -0.27852E-05 15264   0.194E-02    0.533E-03
DAV:   3    -0.125535718369E+03    0.17726E-07   -0.29302E-06 18048   0.604E-03
  18 F= -.12712012E+03 E0= -.12711933E+03  d E =-.160034E-03  mag=    -0.0000
       N       E                     dE             d eps       ncg     rms          rms(c)
DAV:   1    -0.125535905129E+03   -0.18674E-03   -0.74563E-03 14208   0.325E-01    0.214E-02
DAV:   2    -0.125535900552E+03    0.45769E-05   -0.11408E-04 17904   0.395E-02    0.116E-02
DAV:   3    -0.125535899395E+03    0.11568E-05   -0.10468E-05 21696   0.115E-02    0.395E-03
DAV:   4    -0.125535899567E+03   -0.17260E-06   -0.13171E-06 14880   0.407E-03
  19 F= -.12712020E+03 E0= -.12711941E+03  d E =-.802323E-04  mag=     0.0000
       N       E                     dE             d eps       ncg     rms          rms(c)
DAV:   1    -0.125535927391E+03   -0.27996E-04   -0.43376E-04 14208   0.785E-02    0.518E-03
DAV:   2    -0.125535927227E+03    0.16352E-06   -0.67394E-06 19968   0.963E-03
  20 F= -.12712020E+03 E0= -.12711942E+03  d E =-.835301E-04  mag=    -0.0000
       N       E                     dE             d eps       ncg     rms          rms(c)
DAV:   1    -0.125536103313E+03   -0.17592E-03   -0.74494E-03 14208   0.340E-01    0.204E-02
DAV:   2    -0.125536101566E+03    0.17465E-05   -0.88013E-05 25296   0.396E-02    0.117E-02
DAV:   3    -0.125536099860E+03    0.17062E-05   -0.97524E-06 24096   0.121E-02    0.289E-03
DAV:   4    -0.125536099969E+03   -0.10881E-06   -0.99983E-07 22560   0.389E-03
  21 F= -.12712025E+03 E0= -.12711947E+03  d E =-.531239E-04  mag=    -0.0000
       N       E                     dE             d eps       ncg     rms          rms(c)
DAV:   1    -0.125536106792E+03   -0.69317E-05   -0.23381E-05 24048   0.190E-02    0.138E-03
DAV:   2    -0.125536106791E+03    0.84219E-09   -0.22215E-07 23856   0.202E-03
  22 F= -.12712025E+03 E0= -.12711947E+03  d E =-.533002E-04  mag=    -0.0000
       N       E                     dE             d eps       ncg     rms          rms(c)
DAV:   1    -0.125536230674E+03   -0.12388E-03   -0.19345E-03 14208   0.153E-01    0.852E-03
DAV:   2    -0.125536231086E+03   -0.41169E-06   -0.13792E-05 15456   0.150E-02    0.516E-03
DAV:   3    -0.125536231182E+03   -0.95938E-07   -0.13316E-06 20928   0.411E-03
  23 F= -.12712030E+03 E0= -.12711952E+03  d E =-.500611E-04  mag=     0.0000
       N       E                     dE             d eps       ncg     rms          rms(c)
DAV:   1    -0.125536575727E+03   -0.34464E-03   -0.17447E-02 14208   0.460E-01    0.252E-02
DAV:   2    -0.125536580310E+03   -0.45830E-05   -0.11982E-04 20400   0.441E-02    0.152E-02
DAV:   3    -0.125536580301E+03    0.89467E-08   -0.11372E-05 24864   0.116E-02    0.279E-03
DAV:   4    -0.125536580328E+03   -0.27300E-07   -0.10823E-06 21264   0.405E-03
  24 F= -.12712043E+03 E0= -.12711965E+03  d E =-.176358E-03  mag=     0.0000
       N       E                     dE             d eps       ncg     rms          rms(c)
DAV:   1    -0.125537152547E+03   -0.57225E-03   -0.69804E-02 14208   0.920E-01    0.502E-02
DAV:   2    -0.125537171895E+03   -0.19348E-04   -0.47696E-04 22848   0.877E-02    0.303E-02
DAV:   3    -0.125537169840E+03    0.20545E-05   -0.44801E-05 25056   0.228E-02    0.551E-03
DAV:   4    -0.125537169891E+03   -0.51285E-07   -0.41125E-06 22752   0.791E-03
  25 F= -.12712057E+03 E0= -.12711979E+03  d E =-.320842E-03  mag=    -0.0000
       N       E                     dE             d eps       ncg     rms          rms(c)
DAV:   1    -0.125537396227E+03   -0.22639E-03   -0.86340E-03 14208   0.358E-01    0.196E-02
DAV:   2    -0.125537398049E+03   -0.18227E-05   -0.90325E-05 24912   0.408E-02    0.119E-02
DAV:   3    -0.125537396899E+03    0.11499E-05   -0.10627E-05 22032   0.127E-02    0.273E-03
DAV:   4    -0.125537397067E+03   -0.16721E-06   -0.13834E-06 18672   0.500E-03
  26 F= -.12712066E+03 E0= -.12711988E+03  d E =-.894179E-04  mag=     0.0000
       N       E                     dE             d eps       ncg     rms          rms(c)
DAV:   1    -0.125537515387E+03   -0.11849E-03   -0.44759E-03 14208   0.258E-01    0.142E-02
DAV:   2    -0.125537516471E+03   -0.10840E-05   -0.46755E-05 25488   0.294E-02    0.862E-03
DAV:   3    -0.125537516134E+03    0.33716E-06   -0.52035E-06 15216   0.905E-03
  27 F= -.12712068E+03 E0= -.12711990E+03  d E =-.109085E-03  mag=    -0.0000
       N       E                     dE             d eps       ncg     rms          rms(c)
DAV:   1    -0.125537727788E+03   -0.21132E-03   -0.76967E-03 14208   0.310E-01    0.167E-02
DAV:   2    -0.125537730843E+03   -0.30553E-05   -0.65493E-05 23712   0.318E-02    0.103E-02
DAV:   3    -0.125537731399E+03   -0.55558E-06   -0.57683E-06 17424   0.870E-03
  28 F= -.12712075E+03 E0= -.12711997E+03  d E =-.704480E-04  mag=     0.0000
       N       E                     dE             d eps       ncg     rms          rms(c)
DAV:   1    -0.125538255786E+03   -0.52494E-03   -0.69232E-02 14208   0.929E-01    0.492E-02
DAV:   2    -0.125538281205E+03   -0.25419E-04   -0.56887E-04 23376   0.934E-02    0.300E-02
DAV:   3    -0.125538282332E+03   -0.11264E-05   -0.51794E-05 23952   0.252E-02    0.672E-03
DAV:   4    -0.125538282900E+03   -0.56836E-06   -0.68608E-06 15936   0.100E-02
  29 F= -.12712087E+03 E0= -.12712009E+03  d E =-.188121E-03  mag=    -0.0000
       N       E                     dE             d eps       ncg     rms          rms(c)
DAV:   1    -0.125538596600E+03   -0.31427E-03   -0.15924E-02 14208   0.487E-01    0.248E-02
DAV:   2    -0.125538601539E+03   -0.49394E-05   -0.16789E-04 25632   0.543E-02    0.153E-02
DAV:   3    -0.125538601040E+03    0.49912E-06   -0.17632E-05 19248   0.163E-02    0.400E-03
DAV:   4    -0.125538601233E+03   -0.19301E-06   -0.29904E-06 16176   0.739E-03
  30 F= -.12712100E+03 E0= -.12712022E+03  d E =-.127350E-03  mag=    -0.0000
       N       E                     dE             d eps       ncg     rms          rms(c)
DAV:   1    -0.125538738272E+03   -0.13723E-03   -0.59497E-03 14304   0.298E-01    0.154E-02
DAV:   2    -0.125538740160E+03   -0.18890E-05   -0.63484E-05 25920   0.335E-02    0.946E-03
DAV:   3    -0.125538740179E+03   -0.18264E-07   -0.65815E-06 15648   0.103E-02
  31 F= -.12712102E+03 E0= -.12712024E+03  d E =-.149263E-03  mag=    -0.0000
       N       E                     dE             d eps       ncg     rms          rms(c)
DAV:   1    -0.125538957111E+03   -0.21695E-03   -0.99538E-03 14208   0.363E-01    0.211E-02
DAV:   2    -0.125538958913E+03   -0.18025E-05   -0.10937E-04 22944   0.416E-02    0.124E-02
DAV:   3    -0.125538958595E+03    0.31843E-06   -0.10628E-05 16896   0.122E-02    0.355E-03
DAV:   4    -0.125538958788E+03   -0.19332E-06   -0.19746E-06 14880   0.578E-03
  32 F= -.12712108E+03 E0= -.12712030E+03  d E =-.596275E-04  mag=    -0.0000
       N       E                     dE             d eps       ncg     rms          rms(c)
DAV:   1    -0.125539054509E+03   -0.95914E-04   -0.30349E-03 14208   0.200E-01    0.115E-02
DAV:   2    -0.125539055180E+03   -0.67037E-06   -0.33946E-05 22464   0.232E-02    0.677E-03
DAV:   3    -0.125539055231E+03   -0.51405E-07   -0.31911E-06 14976   0.696E-03
  33 F= -.12712109E+03 E0= -.12712031E+03  d E =-.682786E-04  mag=     0.0000
       N       E                     dE             d eps       ncg     rms          rms(c)
DAV:   1    -0.125539181993E+03   -0.12681E-03   -0.37527E-03 14208   0.244E-01    0.127E-02
DAV:   2    -0.125539182803E+03   -0.80974E-06   -0.42140E-05 22176   0.284E-02    0.769E-03
DAV:   3    -0.125539182840E+03   -0.36479E-07   -0.51193E-06 14880   0.913E-03
  34 F= -.12712112E+03 E0= -.12712034E+03  d E =-.338808E-04  mag=    -0.0000
       N       E                     dE             d eps       ncg     rms          rms(c)
DAV:   1    -0.125539211993E+03   -0.29190E-04   -0.32097E-04 14784   0.715E-02    0.458E-03
DAV:   2    -0.125539212103E+03   -0.10963E-06   -0.39376E-06 15552   0.915E-03
  35 F= -.12712113E+03 E0= -.12712034E+03  d E =-.360318E-04  mag=     0.0000
       N       E                     dE             d eps       ncg     rms          rms(c)
DAV:   1    -0.125539327861E+03   -0.11587E-03   -0.28057E-03 14208   0.201E-01    0.121E-02
DAV:   2    -0.125539327238E+03    0.62290E-06   -0.33422E-05 15744   0.240E-02    0.689E-03
DAV:   3    -0.125539327071E+03    0.16723E-06   -0.42504E-06 15936   0.848E-03
  36 F= -.12712116E+03 E0= -.12712037E+03  d E =-.309697E-04  mag=     0.0000
       N       E                     dE             d eps       ncg     rms          rms(c)
DAV:   1    -0.125539397883E+03   -0.70645E-04   -0.15858E-03 14304   0.151E-01    0.935E-03
DAV:   2    -0.125539397553E+03    0.33079E-06   -0.18891E-05 14496   0.181E-02    0.534E-03
DAV:   3    -0.125539397562E+03   -0.95506E-08   -0.26575E-06 14304   0.700E-03
  37 F= -.12712116E+03 E0= -.12712038E+03  d E =-.386017E-04  mag=    -0.0000
       N       E                     dE             d eps       ncg     rms          rms(c)
DAV:   1    -0.125539511525E+03   -0.11397E-03   -0.29846E-03 14304   0.219E-01    0.108E-02
DAV:   2    -0.125539512115E+03   -0.58990E-06   -0.30243E-05 15072   0.243E-02    0.680E-03
DAV:   3    -0.125539512243E+03   -0.12827E-06   -0.47355E-06 14592   0.930E-03
  38 F= -.12712118E+03 E0= -.12712040E+03  d E =-.194111E-04  mag=     0.0000
       N       E                     dE             d eps       ncg     rms          rms(c)
DAV:   1    -0.125539521168E+03   -0.90534E-05   -0.28839E-05 14736   0.221E-02    0.206E-03
DAV:   2    -0.125539521141E+03    0.27002E-07   -0.64902E-07 21312   0.424E-03
  39 F= -.12712118E+03 E0= -.12712040E+03  d E =-.195280E-04  mag=     0.0000
       N       E                     dE             d eps       ncg     rms          rms(c)
DAV:   1    -0.125539618794E+03   -0.97626E-04   -0.18611E-03 14400   0.163E-01    0.961E-03
DAV:   2    -0.125539618300E+03    0.49398E-06   -0.22540E-05 14208   0.198E-02    0.549E-03
DAV:   3    -0.125539618250E+03    0.50453E-07   -0.30225E-06 14400   0.736E-03
  40 F= -.12712120E+03 E0= -.12712042E+03  d E =-.163106E-04  mag=    -0.0000
       N       E                     dE             d eps       ncg     rms          rms(c)
DAV:   1    -0.125539665099E+03   -0.46799E-04   -0.55976E-04 14208   0.893E-02    0.566E-03
DAV:   2    -0.125539664943E+03    0.15589E-06   -0.69752E-06 14400   0.113E-02
  41 F= -.12712120E+03 E0= -.12712042E+03  d E =-.189107E-04  mag=    -0.0000
       N       E                     dE             d eps       ncg     rms          rms(c)
DAV:   1    -0.125539763416E+03   -0.98317E-04   -0.21944E-03 14208   0.185E-01    0.102E-02
DAV:   2    -0.125539763533E+03   -0.11732E-06   -0.24812E-05 14592   0.220E-02    0.619E-03
DAV:   3    -0.125539763634E+03   -0.10150E-06   -0.38199E-06 14304   0.908E-03
  42 F= -.12712121E+03 E0= -.12712043E+03  d E =-.114834E-04  mag=     0.0000
       N       E                     dE             d eps       ncg     rms          rms(c)
DAV:   1    -0.125539764421E+03   -0.88843E-06   -0.16466E-06 14400   0.659E-03    0.105E-03
DAV:   2    -0.125539764349E+03    0.72140E-07   -0.43632E-07 16128   0.340E-03
  43 F= -.12712121E+03 E0= -.12712043E+03  d E =-.113403E-04  mag=     0.0000
       N       E                     dE             d eps       ncg     rms          rms(c)
DAV:   1    -0.125539864448E+03   -0.10003E-03   -0.18659E-03 14400   0.161E-01    0.849E-03
DAV:   2    -0.125539864459E+03   -0.10774E-07   -0.19250E-05 16560   0.179E-02    0.503E-03
DAV:   3    -0.125539864552E+03   -0.93755E-07   -0.20369E-06 14976   0.569E-03
  44 F= -.12712123E+03 E0= -.12712044E+03  d E =-.143783E-04  mag=    -0.0000
       N       E                     dE             d eps       ncg     rms          rms(c)
DAV:   1    -0.125540014665E+03   -0.15021E-03   -0.49906E-03 14208   0.263E-01    0.140E-02
DAV:   2    -0.125540014834E+03   -0.16922E-06   -0.50656E-05 17856   0.290E-02    0.829E-03
DAV:   3    -0.125540014950E+03   -0.11518E-06   -0.51391E-06 14928   0.885E-03
  45 F= -.12712124E+03 E0= -.12712045E+03  d E =-.246206E-04  mag=    -0.0000
       N       E                     dE             d eps       ncg     rms          rms(c)
DAV:   1    -0.125540081519E+03   -0.66685E-04   -0.77130E-04 14400   0.106E-01    0.574E-03
DAV:   2    -0.125540081667E+03   -0.14746E-06   -0.79182E-06 14208   0.122E-02
  46 F= -.12712125E+03 E0= -.12712046E+03  d E =-.974755E-05  mag=     0.0000
       N       E                     dE             d eps       ncg     rms          rms(c)
DAV:   1    -0.125540261652E+03   -0.18013E-03   -0.68205E-03 14208   0.315E-01    0.160E-02
DAV:   2    -0.125540263019E+03   -0.13669E-05   -0.66023E-05 14976   0.343E-02    0.100E-02
DAV:   3    -0.125540263402E+03   -0.38343E-06   -0.84965E-06 14208   0.126E-02
  47 F= -.12712126E+03 E0= -.12712048E+03  d E =-.205343E-04  mag=     0.0000
       N       E                     dE             d eps       ncg     rms          rms(c)
DAV:   1    -0.125540233216E+03    0.29803E-04   -0.21037E-04 14304   0.557E-02    0.250E-03
DAV:   2    -0.125540233108E+03    0.10791E-06   -0.34952E-06 14208   0.875E-03
  48 F= -.12712126E+03 E0= -.12712048E+03  d E =-.205600E-04  mag=    -0.0000
       N       E                     dE             d eps       ncg     rms          rms(c)
DAV:   1    -0.125540314069E+03   -0.80853E-04   -0.10579E-03 14304   0.120E-01    0.596E-03
DAV:   2    -0.125540314051E+03    0.18033E-07   -0.11856E-05 14208   0.144E-02    0.350E-03
DAV:   3    -0.125540314168E+03   -0.11688E-06   -0.14877E-06 14304   0.570E-03
  49 F= -.12712127E+03 E0= -.12712049E+03  d E =-.103060E-04  mag=    -0.0000
       N       E                     dE             d eps       ncg     rms          rms(c)
DAV:   1    -0.125540526457E+03   -0.21241E-03   -0.83215E-03 14208   0.337E-01    0.179E-02
DAV:   2    -0.125540526230E+03    0.22754E-06   -0.83268E-05 15072   0.371E-02    0.106E-02
DAV:   3    -0.125540526345E+03   -0.11487E-06   -0.89494E-06 14784   0.119E-02
  50 F= -.12712128E+03 E0= -.12712050E+03  d E =-.232496E-04  mag=     0.0000
       N       E                     dE             d eps       ncg     rms          rms(c)
DAV:   1    -0.125540644384E+03   -0.11815E-03   -0.25014E-03 14208   0.188E-01    0.103E-02
DAV:   2    -0.125540644634E+03   -0.24983E-06   -0.24524E-05 14304   0.218E-02    0.641E-03
DAV:   3    -0.125540645232E+03   -0.59760E-06   -0.43257E-06 14544   0.972E-03
  51 F= -.12712129E+03 E0= -.12712051E+03  d E =-.116990E-04  mag=     0.0000
       N       E                     dE             d eps       ncg     rms          rms(c)
DAV:   1    -0.125540708822E+03   -0.64188E-04   -0.84033E-04 14208   0.109E-01    0.605E-03
DAV:   2    -0.125540708860E+03   -0.37897E-07   -0.89415E-06 15984   0.137E-02
  52 F= -.12712130E+03 E0= -.12712051E+03  d E =-.134831E-04  mag=     0.0000
       N       E                     dE             d eps       ncg     rms          rms(c)
DAV:   1    -0.125540814887E+03   -0.10606E-03   -0.19365E-03 14208   0.164E-01    0.941E-03
DAV:   2    -0.125540814435E+03    0.45212E-06   -0.22169E-05 14208   0.203E-02    0.564E-03
DAV:   3    -0.125540814980E+03   -0.54544E-06   -0.36936E-06 14976   0.923E-03
  53 F= -.12712131E+03 E0= -.12712052E+03  d E =-.115859E-04  mag=    -0.0000
       N       E                     dE             d eps       ncg     rms          rms(c)
DAV:   1    -0.125540891507E+03   -0.77072E-04   -0.11968E-03 14208   0.129E-01    0.724E-03
DAV:   2    -0.125540891196E+03    0.31056E-06   -0.14006E-05 14784   0.164E-02    0.436E-03
DAV:   3    -0.125540891682E+03   -0.48533E-06   -0.26631E-06 14688   0.804E-03
  54 F= -.12712131E+03 E0= -.12712053E+03  d E =-.146678E-04  mag=    -0.0000
       N       E                     dE             d eps       ncg     rms          rms(c)
DAV:   1    -0.125540982592E+03   -0.91396E-04   -0.14488E-03 14208   0.146E-01    0.793E-03
DAV:   2    -0.125540982447E+03    0.14509E-06   -0.15394E-05 16416   0.178E-02    0.483E-03
DAV:   3    -0.125540982793E+03   -0.34629E-06   -0.29103E-06 15072   0.829E-03
  55 F= -.12712132E+03 E0= -.12712053E+03  d E =-.575283E-05  mag=    -0.0000
       N       E                     dE             d eps       ncg     rms          rms(c)
DAV:   1    -0.125540996996E+03   -0.14549E-04   -0.43031E-05 14208   0.261E-02    0.194E-03
DAV:   2    -0.125540996861E+03    0.13499E-06   -0.10999E-06 17808   0.559E-03
  56 F= -.12712132E+03 E0= -.12712053E+03  d E =-.564834E-05  mag=    -0.0000
       N       E                     dE             d eps       ncg     rms          rms(c)
DAV:   1    -0.125541071954E+03   -0.74959E-04   -0.89893E-04 14208   0.114E-01    0.651E-03
DAV:   2    -0.125541071568E+03    0.38635E-06   -0.11358E-05 14208   0.141E-02    0.383E-03
DAV:   3    -0.125541071705E+03   -0.13721E-06   -0.17168E-06 14208   0.599E-03
  57 F= -.12712132E+03 E0= -.12712054E+03  d E =-.454403E-05  mag=     0.0000
       N       E                     dE             d eps       ncg     rms          rms(c)
DAV:   1    -0.125541095520E+03   -0.23952E-04   -0.10212E-04 14208   0.386E-02    0.241E-03
DAV:   2    -0.125541095405E+03    0.11421E-06   -0.16782E-06 14208   0.617E-03
  58 F= -.12712132E+03 E0= -.12712054E+03  d E =-.484487E-05  mag=     0.0000
       N       E                     dE             d eps       ncg     rms          rms(c)
DAV:   1    -0.125541141844E+03   -0.46325E-04   -0.40410E-04 14208   0.799E-02    0.448E-03
DAV:   2    -0.125541141655E+03    0.18919E-06   -0.54147E-06 14208   0.108E-02
  59 F= -.12712132E+03 E0= -.12712054E+03  d E =-.208713E-05  mag=     0.0000
       N       E                     dE             d eps       ncg     rms          rms(c)
DAV:   1    -0.125541152837E+03   -0.10992E-04   -0.22800E-05 15216   0.199E-02    0.183E-03
DAV:   2    -0.125541152727E+03    0.10947E-06   -0.81503E-07 14400   0.476E-03
  60 F= -.12712132E+03 E0= -.12712054E+03  d E =-.214682E-05  mag=     0.0000
       N       E                     dE             d eps       ncg     rms          rms(c)
DAV:   1    -0.125541189001E+03   -0.36164E-04   -0.21401E-04 15024   0.560E-02    0.311E-03
DAV:   2    -0.125541188849E+03    0.15188E-06   -0.28110E-06 14592   0.769E-03
  61 F= -.12712132E+03 E0= -.12712054E+03  d E =-.154294E-05  mag=     0.0000
       N       E                     dE             d eps       ncg     rms          rms(c)
DAV:   1    -0.125541270579E+03   -0.81579E-04   -0.11438E-03 14208   0.130E-01    0.693E-03
DAV:   2    -0.125541270180E+03    0.39910E-06   -0.12820E-05 14208   0.153E-02    0.411E-03
DAV:   3    -0.125541270392E+03   -0.21179E-06   -0.20600E-06 14304   0.656E-03
  62 F= -.12712133E+03 E0= -.12712054E+03  d E =-.274472E-05  mag=    -0.0000
       N       E                     dE             d eps       ncg     rms          rms(c)
DAV:   1    -0.125541310222E+03   -0.40041E-04   -0.24500E-04 14208   0.610E-02    0.317E-03
DAV:   2    -0.125541310124E+03    0.97297E-07   -0.30706E-06 14208   0.841E-03
  63 F= -.12712133E+03 E0= -.12712054E+03  d E =-.177220E-05  mag=    -0.0000
       N       E                     dE             d eps       ncg     rms          rms(c)
DAV:   1    -0.125541403632E+03   -0.93410E-04   -0.14115E-03 14208   0.146E-01    0.744E-03
DAV:   2    -0.125541403434E+03    0.19742E-06   -0.15013E-05 14208   0.172E-02    0.467E-03
DAV:   3    -0.125541403788E+03   -0.35340E-06   -0.29583E-06 14640   0.840E-03
  64 F= -.12712133E+03 E0= -.12712054E+03  d E =-.295116E-05  mag=    -0.0000
       N       E                     dE             d eps       ncg     rms          rms(c)
DAV:   1    -0.125541368958E+03    0.34476E-04   -0.20153E-04 14208   0.556E-02    0.248E-03
DAV:   2    -0.125541368860E+03    0.98887E-07   -0.30831E-06 14208   0.829E-03
  65 F= -.12712133E+03 E0= -.12712054E+03  d E =-.299364E-05  mag=     0.0000
       N       E                     dE             d eps       ncg     rms          rms(c)
DAV:   1    -0.125541407263E+03   -0.38304E-04   -0.22088E-04 16320   0.573E-02    0.279E-03
DAV:   2    -0.125541407142E+03    0.12061E-06   -0.31869E-06 15504   0.808E-03
  66 F= -.12712133E+03 E0= -.12712055E+03  d E =-.227254E-05  mag=     0.0000
       N       E                     dE             d eps       ncg     rms          rms(c)
DAV:   1    -0.125541478578E+03   -0.71315E-04   -0.79922E-04 14208   0.110E-01    0.620E-03
DAV:   2    -0.125541478135E+03    0.44204E-06   -0.99755E-06 14208   0.135E-02
  67 F= -.12712133E+03 E0= -.12712055E+03  d E =-.340835E-05  mag=    -0.0000
       N       E                     dE             d eps       ncg     rms          rms(c)
DAV:   1    -0.125541521115E+03   -0.42537E-04   -0.22150E-04 14208   0.586E-02    0.363E-03
DAV:   2    -0.125541521018E+03    0.97164E-07   -0.28327E-06 14208   0.798E-03
  68 F= -.12712133E+03 E0= -.12712055E+03  d E =-.893531E-06  mag=    -0.0000
       N       E                     dE             d eps       ncg     rms          rms(c)
DAV:   1    -0.125541552843E+03   -0.31729E-04   -0.12566E-04 15888   0.441E-02    0.258E-03
DAV:   2    -0.125541552714E+03    0.12983E-06   -0.19540E-06 14592   0.710E-03
  69 F= -.12712133E+03 E0= -.12712055E+03  d E =-.117865E-05  mag=     0.0000
       N       E                     dE             d eps       ncg     rms          rms(c)
DAV:   1    -0.125541593341E+03   -0.40498E-04   -0.19471E-04 14352   0.539E-02    0.318E-03
DAV:   2    -0.125541593189E+03    0.15189E-06   -0.29990E-06 14352   0.839E-03
  70 F= -.12712133E+03 E0= -.12712055E+03  d E =-.161313E-05  mag=     0.0000
       N       E                     dE             d eps       ncg     rms          rms(c)
DAV:   1    -0.125541680844E+03   -0.87503E-04   -0.95807E-04 14208   0.119E-01    0.658E-03
DAV:   2    -0.125541680573E+03    0.27126E-06   -0.11640E-05 14208   0.153E-02    0.409E-03
DAV:   3    -0.125541680896E+03   -0.32390E-06   -0.24364E-06 14208   0.761E-03
  71 F= -.12712134E+03 E0= -.12712055E+03  d E =-.302890E-05  mag=    -0.0000
       N       E                     dE             d eps       ncg     rms          rms(c)
DAV:   1    -0.125541659836E+03    0.20736E-04   -0.56675E-05 14208   0.296E-02    0.140E-03
DAV:   2    -0.125541659751E+03    0.84800E-07   -0.14061E-06 14928   0.584E-03
  72 F= -.12712134E+03 E0= -.12712055E+03  d E =-.280204E-05  mag=    -0.0000
       N       E                     dE             d eps       ncg     rms          rms(c)
DAV:   1    -0.125541690531E+03   -0.30694E-04   -0.12529E-04 14208   0.442E-02    0.192E-03
DAV:   2    -0.125541690509E+03    0.21882E-07   -0.17590E-06 18384   0.619E-03
  73 F= -.12712134E+03 E0= -.12712055E+03  d E =-.743040E-06  mag=    -0.0000
       N       E                     dE             d eps       ncg     rms          rms(c)
DAV:   1    -0.125541710822E+03   -0.20292E-04   -0.53317E-05 14784   0.293E-02    0.178E-03
DAV:   2    -0.125541710772E+03    0.50766E-07   -0.78580E-07 14208   0.439E-03
  74 F= -.12712134E+03 E0= -.12712055E+03  d E =-.823752E-06  mag=    -0.0000
       N       E                     dE             d eps       ncg     rms          rms(c)
DAV:   1    -0.125541742837E+03   -0.32015E-04   -0.11253E-04 17040   0.413E-02    0.222E-03
DAV:   2    -0.125541742767E+03    0.69826E-07   -0.13558E-06 14592   0.553E-03
  75 F= -.12712134E+03 E0= -.12712055E+03  d E =-.648440E-06  mag=    -0.0000
       N       E                     dE             d eps       ncg     rms          rms(c)
DAV:   1    -0.125541833786E+03   -0.90949E-04   -0.94023E-04 14208   0.119E-01    0.595E-03
DAV:   2    -0.125541833626E+03    0.16039E-06   -0.10296E-05 14208   0.140E-02    0.375E-03
DAV:   3    -0.125541833797E+03   -0.17149E-06   -0.17217E-06 14256   0.609E-03
  76 F= -.12712134E+03 E0= -.12712055E+03  d E =-.135314E-05  mag=    -0.0000
       N       E                     dE             d eps       ncg     rms          rms(c)
DAV:   1    -0.125541805771E+03    0.27854E-04   -0.89541E-05 14208   0.370E-02    0.162E-03
DAV:   2    -0.125541805722E+03    0.49127E-07   -0.15714E-06 14208   0.599E-03
  77 F= -.12712134E+03 E0= -.12712055E+03  d E =-.130627E-05  mag=     0.0000
       N       E                     dE             d eps       ncg     rms          rms(c)
DAV:   1    -0.125541843431E+03   -0.37660E-04   -0.18001E-04 14208   0.530E-02    0.225E-03
DAV:   2    -0.125541843409E+03    0.22143E-07   -0.24628E-06 14832   0.724E-03
  78 F= -.12712134E+03 E0= -.12712056E+03  d E =-.940538E-06  mag=     0.0000
       N       E                     dE             d eps       ncg     rms          rms(c)
DAV:   1    -0.125541870268E+03   -0.26837E-04   -0.89019E-05 14304   0.379E-02    0.218E-03
DAV:   2    -0.125541870204E+03    0.63714E-07   -0.12643E-06 14304   0.545E-03
  79 F= -.12712134E+03 E0= -.12712056E+03  d E =-.103414E-05  mag=     0.0000
       N       E                     dE             d eps       ncg     rms          rms(c)
DAV:   1    -0.125541866319E+03    0.39486E-05   -0.30117E-06 15264   0.731E-03    0.562E-04
DAV:   2    -0.125541866286E+03    0.33496E-07   -0.41205E-07 14208   0.334E-03
  80 F= -.12712134E+03 E0= -.12712056E+03  d E =-.109659E-05  mag=     0.0000
       N       E                     dE             d eps       ncg     rms          rms(c)
DAV:   1    -0.125541890278E+03   -0.23959E-04   -0.67176E-05 20256   0.317E-02    0.145E-03
DAV:   2    -0.125541890247E+03    0.31193E-07   -0.61020E-07 17280   0.329E-03
  81 F= -.12712134E+03 E0= -.12712056E+03  d E =-.302102E-06  mag=     0.0000
       N       E                     dE             d eps       ncg     rms          rms(c)
DAV:   1    -0.125541961950E+03   -0.71672E-04   -0.59259E-04 14208   0.946E-02    0.444E-03
DAV:   2    -0.125541961762E+03    0.18879E-06   -0.56223E-06 14208   0.998E-03
  82 F= -.12712134E+03 E0= -.12712056E+03  d E =-.846467E-06  mag=     0.0000
       N       E                     dE             d eps       ncg     rms          rms(c)
DAV:   1    -0.125542103097E+03   -0.14115E-03   -0.23548E-03 14208   0.189E-01    0.896E-03
DAV:   2    -0.125542102625E+03    0.47220E-06   -0.22869E-05 15552   0.199E-02    0.558E-03
DAV:   3    -0.125542102721E+03   -0.95898E-07   -0.31532E-06 22560   0.665E-03
  83 F= -.12712134E+03 E0= -.12712056E+03  d E =0.103902E-06  mag=     0.0000
       N       E                     dE             d eps       ncg     rms          rms(c)
DAV:   1    -0.125541993912E+03    0.10871E-03   -0.14253E-03 14208   0.147E-01    0.626E-03
DAV:   2    -0.125541993720E+03    0.19240E-06   -0.15308E-05 20928   0.160E-02    0.387E-03
DAV:   3    -0.125541993672E+03    0.47844E-07   -0.18177E-06 17664   0.512E-03
  84 F= -.12712134E+03 E0= -.12712056E+03  d E =-.946402E-06  mag=     0.0000
       N       E                     dE             d eps       ncg     rms          rms(c)
DAV:   1    -0.125542005715E+03   -0.11995E-04   -0.15446E-05 15648   0.156E-02    0.595E-04
DAV:   2    -0.125542005723E+03   -0.77607E-08   -0.32996E-07 18576   0.276E-03
  85 F= -.12712134E+03 E0= -.12712056E+03  d E =-.274410E-06  mag=     0.0000
       N       E                     dE             d eps       ncg     rms          rms(c)
DAV:   1    -0.125542041606E+03   -0.35891E-04   -0.14573E-04 14208   0.470E-02    0.222E-03
DAV:   2    -0.125542041540E+03    0.66147E-07   -0.15724E-06 17808   0.529E-03
  86 F= -.12712134E+03 E0= -.12712056E+03  d E =-.764641E-06  mag=     0.0000
       N       E                     dE             d eps       ncg     rms          rms(c)
DAV:   1    -0.125542112822E+03   -0.71217E-04   -0.57604E-04 14208   0.935E-02    0.446E-03
DAV:   2    -0.125542112639E+03    0.18287E-06   -0.55646E-06 14592   0.999E-03
  87 F= -.12712134E+03 E0= -.12712056E+03  d E =-.121581E-05  mag=     0.0000
       N       E                     dE             d eps       ncg     rms          rms(c)
DAV:   1    -0.125542253173E+03   -0.14035E-03   -0.23075E-03 14208   0.187E-01    0.885E-03
DAV:   2    -0.125542252743E+03    0.43017E-06   -0.22807E-05 15600   0.199E-02    0.554E-03
DAV:   3    -0.125542252853E+03   -0.11013E-06   -0.31505E-06 21216   0.677E-03
  88 F= -.12712134E+03 E0= -.12712056E+03  d E =-.156541E-06  mag=     0.0000
       N       E                     dE             d eps       ncg     rms          rms(c)
DAV:   1    -0.125542138946E+03    0.11380E-03   -0.15461E-03 14208   0.153E-01    0.653E-03
DAV:   2    -0.125542138741E+03    0.20457E-06   -0.16836E-05 20640   0.169E-02    0.406E-03
DAV:   3    -0.125542138669E+03    0.72775E-07   -0.20336E-06 17280   0.551E-03
  89 F= -.12712134E+03 E0= -.12712056E+03  d E =-.127928E-05  mag=     0.0000
       N       E                     dE             d eps       ncg     rms          rms(c)
DAV:   1    -0.125542168056E+03   -0.29315E-04   -0.99066E-05 15792   0.388E-02    0.152E-03
DAV:   2    -0.125542168060E+03   -0.37835E-08   -0.13248E-06 18960   0.508E-03
  90 F= -.12712134E+03 E0= -.12712056E+03  d E =-.126548E-05  mag=     0.0000
       N       E                     dE             d eps       ncg     rms          rms(c)
DAV:   1    -0.125542151830E+03    0.16226E-04   -0.33216E-05 14208   0.221E-02    0.773E-04
DAV:   2    -0.125542151844E+03   -0.13335E-07   -0.48819E-07 14208   0.328E-03
  91 F= -.12712134E+03 E0= -.12712056E+03  d E =-.132481E-05  mag=     0.0000
       N       E                     dE             d eps       ncg     rms          rms(c)
DAV:   1    -0.125542145164E+03    0.66666E-05   -0.50719E-06 14640   0.900E-03    0.610E-04
DAV:   2    -0.125542145157E+03    0.70613E-08   -0.88246E-08 16512   0.145E-03
  92 F= -.12712134E+03 E0= -.12712056E+03  d E =-.133328E-05  mag=     0.0000
       N       E                     dE             d eps       ncg     rms          rms(c)
DAV:   1    -0.125542142288E+03    0.28759E-05   -0.92012E-07 17280   0.390E-03    0.309E-04
DAV:   2    -0.125542142286E+03    0.14643E-08   -0.32699E-08 14208   0.949E-04
  93 F= -.12712134E+03 E0= -.12712056E+03  d E =-.134274E-05  mag=     0.0000
       N       E                     dE             d eps       ncg     rms          rms(c)
DAV:   1    -0.125542140512E+03    0.17756E-05   -0.37285E-07 14208   0.246E-03    0.200E-04
DAV:   2    -0.125542140512E+03    0.31650E-09   -0.10495E-08 18528   0.535E-04
  94 F= -.12712134E+03 E0= -.12712056E+03  d E =-.134543E-05  mag=     0.0000
       N       E                     dE             d eps       ncg     rms          rms(c)
DAV:   1    -0.125542160516E+03   -0.20004E-04   -0.42480E-05 14208   0.252E-02    0.113E-03
DAV:   2    -0.125542160500E+03    0.15415E-07   -0.46346E-07 14832   0.286E-03
  95 F= -.12712134E+03 E0= -.12712056E+03  d E =-.266926E-06  mag=     0.0000
       N       E                     dE             d eps       ncg     rms          rms(c)
DAV:   1    -0.125542220303E+03   -0.59788E-04   -0.37645E-04 14208   0.752E-02    0.363E-03
DAV:   2    -0.125542220161E+03    0.14231E-06   -0.38487E-06 14976   0.821E-03
  96 F= -.12712134E+03 E0= -.12712056E+03  d E =-.766631E-06  mag=     0.0000
       N       E                     dE             d eps       ncg     rms          rms(c)
DAV:   1    -0.125542338644E+03   -0.11834E-03   -0.14950E-03 14208   0.150E-01    0.730E-03
DAV:   2    -0.125542338355E+03    0.28889E-06   -0.15808E-05 20304   0.164E-02    0.456E-03
DAV:   3    -0.125542338429E+03   -0.74236E-07   -0.19874E-06 23232   0.515E-03
  97 F= -.12712134E+03 E0= -.12712056E+03  d E =-.730585E-06  mag=    -0.0000
       N       E                     dE             d eps       ncg     rms          rms(c)
DAV:   1    -0.125542272739E+03    0.65617E-04   -0.46528E-04 14208   0.835E-02    0.356E-03
DAV:   2    -0.125542272681E+03    0.57299E-07   -0.53145E-06 20016   0.942E-03
  98 F= -.12712134E+03 E0= -.12712056E+03  d E =-.100763E-05  mag=    -0.0000
       N       E                     dE             d eps       ncg     rms          rms(c)
DAV:   1    -0.125542312680E+03   -0.39942E-04   -0.16967E-04 14208   0.497E-02    0.196E-03
DAV:   2    -0.125542312706E+03   -0.26150E-07   -0.22023E-06 17616   0.617E-03
  99 F= -.12712134E+03 E0= -.12712056E+03  d E =-.536696E-06  mag=    -0.0000
       N       E                     dE             d eps       ncg     rms          rms(c)
DAV:   1    -0.125542411678E+03   -0.98998E-04   -0.98293E-04 14208   0.122E-01    0.602E-03
DAV:   2    -0.125542411483E+03    0.19544E-06   -0.10637E-05 15504   0.136E-02    0.380E-03
DAV:   3    -0.125542411527E+03   -0.44769E-07   -0.14488E-06 22080   0.457E-03
 100 F= -.12712134E+03 E0= -.12712056E+03  d E =-.260304E-06  mag=     0.0000
       N       E                     dE             d eps       ncg     rms          rms(c)
DAV:   1    -0.125542350730E+03    0.60753E-04   -0.37386E-04 14208   0.750E-02    0.326E-03
DAV:   2    -0.125542350727E+03    0.30022E-08   -0.45451E-06 20640   0.876E-03
 101 F= -.12712134E+03 E0= -.12712056E+03  d E =-.696437E-06  mag=     0.0000
       N       E                     dE             d eps       ncg     rms          rms(c)
DAV:   1    -0.125542342803E+03    0.79268E-05   -0.49065E-06 17184   0.934E-03    0.961E-04
DAV:   2    -0.125542342793E+03    0.98844E-08   -0.65794E-08 14640   0.133E-03
 102 F= -.12712134E+03 E0= -.12712056E+03  d E =-.683921E-06  mag=     0.0000
       N       E                     dE             d eps       ncg     rms          rms(c)
DAV:   1    -0.125542369050E+03   -0.26247E-04   -0.68017E-05 14208   0.321E-02    0.145E-03
DAV:   2    -0.125542369043E+03    0.65611E-08   -0.91885E-07 14208   0.419E-03
 103 F= -.12712134E+03 E0= -.12712056E+03  d E =-.386656E-06  mag=     0.0000
       N       E                     dE             d eps       ncg     rms          rms(c)
DAV:   1    -0.125542399723E+03   -0.30673E-04   -0.91923E-05 14208   0.376E-02    0.208E-03
DAV:   2    -0.125542399679E+03    0.43585E-07   -0.11401E-06 14208   0.467E-03
 104 F= -.12712134E+03 E0= -.12712056E+03  d E =-.462362E-06  mag=     0.0000
       N       E                     dE             d eps       ncg     rms          rms(c)
DAV:   1    -0.125542425573E+03   -0.25850E-04   -0.62629E-05 14208   0.310E-02    0.170E-03
DAV:   2    -0.125542425546E+03    0.26887E-07   -0.76687E-07 14208   0.400E-03
 105 F= -.12712134E+03 E0= -.12712056E+03  d E =-.213573E-06  mag=     0.0000
       N       E                     dE             d eps       ncg     rms          rms(c)
DAV:   1    -0.125542448976E+03   -0.23403E-04   -0.52125E-05 14208   0.283E-02    0.158E-03
DAV:   2    -0.125542448950E+03    0.25790E-07   -0.67437E-07 14208   0.384E-03
 106 F= -.12712134E+03 E0= -.12712056E+03  d E =-.261260E-06  mag=     0.0000
       N       E                     dE             d eps       ncg     rms          rms(c)
DAV:   1    -0.125542460272E+03   -0.11297E-04   -0.17563E-05 14208   0.169E-02    0.107E-03
DAV:   2    -0.125542460251E+03    0.21830E-07   -0.34808E-07 14208   0.291E-03
 107 F= -.12712134E+03 E0= -.12712056E+03  d E =-.214449E-06  mag=     0.0000
       N       E                     dE             d eps       ncg     rms          rms(c)
DAV:   1    -0.125542472466E+03   -0.12193E-04   -0.21237E-05 14208   0.184E-02    0.116E-03
DAV:   2    -0.125542472440E+03    0.25794E-07   -0.36008E-07 14208   0.287E-03
 108 F= -.12712134E+03 E0= -.12712056E+03  d E =-.270753E-06  mag=     0.0000
       N       E                     dE             d eps       ncg     rms          rms(c)
DAV:   1    -0.125542484380E+03   -0.11914E-04   -0.21738E-05 14208   0.187E-02    0.105E-03
DAV:   2    -0.125542484358E+03    0.21113E-07   -0.35274E-07 14208   0.286E-03
 109 F= -.12712134E+03 E0= -.12712056E+03  d E =-.156713E-06  mag=     0.0000
       N       E                     dE             d eps       ncg     rms          rms(c)
DAV:   1    -0.125542492009E+03   -0.76290E-05   -0.89607E-06 14208   0.121E-02    0.786E-04
DAV:   2    -0.125542491994E+03    0.14831E-07   -0.18287E-07 14208   0.217E-03
 110 F= -.12712134E+03 E0= -.12712056E+03  d E =-.180710E-06  mag=     0.0000
       N       E                     dE             d eps       ncg     rms          rms(c)
DAV:   1    -0.125542499982E+03   -0.79732E-05   -0.10210E-05 14208   0.127E-02    0.703E-04
DAV:   2    -0.125542499970E+03    0.11918E-07   -0.17914E-07 14208   0.208E-03
 111 F= -.12712134E+03 E0= -.12712056E+03  d E =-.115247E-06  mag=     0.0000
       N       E                     dE             d eps       ncg     rms          rms(c)
DAV:   1    -0.125542516288E+03   -0.16306E-04   -0.43351E-05 14208   0.261E-02    0.133E-03
DAV:   2    -0.125542516254E+03    0.34035E-07   -0.53426E-07 14208   0.325E-03
 112 F= -.12712134E+03 E0= -.12712056E+03  d E =-.186849E-06  mag=     0.0000
       N       E                     dE             d eps       ncg     rms          rms(c)
DAV:   1    -0.125542523282E+03   -0.69937E-05   -0.70957E-06 14208   0.109E-02    0.643E-04
DAV:   2    -0.125542523275E+03    0.71905E-08   -0.13537E-07 14208   0.189E-03
 113 F= -.12712134E+03 E0= -.12712056E+03  d E =-.829369E-07  mag=     0.0000
       N       E                     dE             d eps       ncg     rms          rms(c)
DAV:   1    -0.125542533546E+03   -0.10265E-04   -0.16171E-05 14832   0.160E-02    0.858E-04
DAV:   2    -0.125542533534E+03    0.12618E-07   -0.22782E-07 14208   0.229E-03
 114 F= -.12712134E+03 E0= -.12712056E+03  d E =-.130377E-06  mag=     0.0000
       N       E                     dE             d eps       ncg     rms          rms(c)
DAV:   1    -0.125542538067E+03   -0.45203E-05   -0.32752E-06 15264   0.746E-03    0.481E-04
DAV:   2    -0.125542538061E+03    0.61473E-08   -0.98230E-08 14208   0.161E-03
 115 F= -.12712134E+03 E0= -.12712056E+03  d E =-.730729E-07  mag=     0.0000
       N       E                     dE             d eps       ncg     rms          rms(c)
DAV:   1    -0.125542549479E+03   -0.11412E-04   -0.21816E-05 14208   0.188E-02    0.103E-03
DAV:   2    -0.125542549457E+03    0.22759E-07   -0.30897E-07 14208   0.247E-03
 116 F= -.12712134E+03 E0= -.12712056E+03  d E =-.135744E-06  mag=     0.0000
       N       E                     dE             d eps       ncg     rms          rms(c)
DAV:   1    -0.125542554450E+03   -0.49705E-05   -0.32195E-06 14208   0.737E-03    0.477E-04
DAV:   2    -0.125542554447E+03    0.27085E-08   -0.70771E-08 14208   0.138E-03
 117 F= -.12712134E+03 E0= -.12712056E+03  d E =-.634650E-07  mag=     0.0000
