  16  16   0   4
  0.2066447E+02  0.5045000E-09  0.5045000E-09  0.1500000E-08  0.5000000E-15
  1.000000000000000E-004
  CAR 
 Lattice                                 
      9.68771654    -21.32390816  301     -0.98758899      1.00000000
    -21.324  0.0000E+00  0.0000E+00  0.0000E+00  0.0000E+00
    -21.221  0.0000E+00  0.0000E+00  0.0000E+00  0.0000E+00
    -21.117  0.0000E+00  0.0000E+00  0.0000E+00  0.0000E+00
    -21.014  0.0000E+00  0.0000E+00  0.0000E+00  0.0000E+00
    -20.910  0.0000E+00  0.0000E+00  0.0000E+00  0.0000E+00
    -20.807  0.0000E+00  0.0000E+00  0.0000E+00  0.0000E+00
    -20.704  0.0000E+00  0.0000E+00  0.0000E+00  0.0000E+00
    -20.600  0.0000E+00  0.0000E+00  0.0000E+00  0.0000E+00
    -20.497  0.5827E-19  0.5827E-19  0.6023E-20  0.6023E-20
    -20.394  0.3547E-14  0.3547E-14  0.3667E-15  0.3667E-15
    -20.290  0.3454E-10  0.3454E-10  0.3571E-11  0.3571E-11
    -20.187  0.4664E-07  0.4664E-07  0.4825E-08  0.4825E-08
    -20.083  0.9435E-05  0.9435E-05  0.9801E-06  0.9801E-06
    -19.980  0.3153E-03  0.3153E-03  0.3358E-04  0.3358E-04
    -19.877  0.2129E-02  0.2129E-02  0.2537E-03  0.2537E-03
    -19.773  0.4407E-02  0.4407E-02  0.7092E-03  0.7092E-03
    -19.670  0.4908E-02  0.4908E-02  0.1217E-02  0.1217E-02
    -19.567  0.5171E-02  0.5171E-02  0.1751E-02  0.1751E-02
    -19.463  0.4650E-02  0.4650E-02  0.2232E-02  0.2232E-02
    -19.360  0.5677E-02  0.5677E-02  0.2819E-02  0.2819E-02
    -19.256  0.4282E-02  0.4282E-02  0.3261E-02  0.3261E-02
    -19.153  0.5253E-02  0.5253E-02  0.3804E-02  0.3804E-02
    -19.050  0.5917E-02  0.5917E-02  0.4416E-02  0.4416E-02
    -18.946  0.3669E-02  0.3669E-02  0.4795E-02  0.4795E-02
    -18.843  0.5308E-02  0.5308E-02  0.5344E-02  0.5344E-02
    -18.740  0.6368E-02  0.6368E-02  0.6002E-02  0.6002E-02
    -18.636  0.4456E-02  0.4456E-02  0.6463E-02  0.6463E-02
    -18.533  0.3382E-02  0.3382E-02  0.6812E-02  0.6812E-02
    -18.429  0.6728E-02  0.6728E-02  0.7508E-02  0.7508E-02
    -18.326  0.6035E-02  0.6035E-02  0.8132E-02  0.8132E-02
    -18.223  0.4248E-02  0.4248E-02  0.8571E-02  0.8571E-02
    -18.119  0.3379E-02  0.3379E-02  0.8920E-02  0.8920E-02
    -18.016  0.6432E-02  0.6432E-02  0.9585E-02  0.9585E-02
    -17.913  0.1071E-01  0.1071E-01  0.1069E-01  0.1069E-01
    -17.809  0.1074E-01  0.1074E-01  0.1180E-01  0.1180E-01
    -17.706  0.1091E-01  0.1091E-01  0.1293E-01  0.1293E-01
    -17.603  0.1270E-01  0.1270E-01  0.1424E-01  0.1424E-01
    -17.499  0.1596E-01  0.1596E-01  0.1589E-01  0.1589E-01
    -17.396  0.1944E-01  0.1944E-01  0.1790E-01  0.1790E-01
    -17.292  0.2065E-01  0.2065E-01  0.2004E-01  0.2004E-01
    -17.189  0.1277E-01  0.1277E-01  0.2136E-01  0.2136E-01
    -17.086  0.6218E-02  0.6218E-02  0.2200E-01  0.2200E-01
    -16.982  0.7318E-02  0.7318E-02  0.2276E-01  0.2276E-01
    -16.879  0.6796E-02  0.6796E-02  0.2346E-01  0.2346E-01
    -16.776  0.5568E-02  0.5568E-02  0.2403E-01  0.2403E-01
    -16.672  0.4613E-02  0.4613E-02  0.2451E-01  0.2451E-01
    -16.569  0.2766E-02  0.2766E-02  0.2480E-01  0.2480E-01
    -16.465  0.4227E-02  0.4227E-02  0.2523E-01  0.2523E-01
    -16.362  0.9255E-02  0.9255E-02  0.2619E-01  0.2619E-01
    -16.259  0.6410E-02  0.6410E-02  0.2685E-01  0.2685E-01
    -16.155  0.4806E-02  0.4806E-02  0.2735E-01  0.2735E-01
    -16.052  0.4316E-02  0.4316E-02  0.2780E-01  0.2780E-01
    -15.949  0.4220E-02  0.4220E-02  0.2823E-01  0.2823E-01
    -15.845  0.3725E-02  0.3725E-02  0.2862E-01  0.2862E-01
    -15.742  0.8521E-02  0.8521E-02  0.2950E-01  0.2950E-01
    -15.638  0.1079E-01  0.1079E-01  0.3061E-01  0.3061E-01
    -15.535  0.1184E-01  0.1184E-01  0.3184E-01  0.3184E-01
    -15.432  0.1525E-01  0.1525E-01  0.3341E-01  0.3341E-01
    -15.328  0.1602E-01  0.1602E-01  0.3507E-01  0.3507E-01
    -15.225  0.1307E-01  0.1307E-01  0.3642E-01  0.3642E-01
    -15.122  0.1462E-01  0.1462E-01  0.3793E-01  0.3793E-01
    -15.018  0.1766E-01  0.1766E-01  0.3976E-01  0.3976E-01
    -14.915  0.1621E-01  0.1621E-01  0.4143E-01  0.4143E-01
    -14.811  0.1277E-01  0.1277E-01  0.4275E-01  0.4275E-01
    -14.708  0.9619E-02  0.9619E-02  0.4375E-01  0.4375E-01
    -14.605  0.9780E-02  0.9780E-02  0.4476E-01  0.4476E-01
    -14.501  0.1552E-01  0.1552E-01  0.4636E-01  0.4636E-01
    -14.398  0.1886E-01  0.1886E-01  0.4831E-01  0.4831E-01
    -14.295  0.1524E-01  0.1524E-01  0.4989E-01  0.4989E-01
    -14.191  0.1098E-01  0.1098E-01  0.5102E-01  0.5102E-01
    -14.088  0.8971E-02  0.8971E-02  0.5195E-01  0.5195E-01
    -13.984  0.7975E-02  0.7975E-02  0.5277E-01  0.5277E-01
    -13.881  0.8893E-02  0.8893E-02  0.5369E-01  0.5369E-01
    -13.778  0.7252E-02  0.7252E-02  0.5444E-01  0.5444E-01
    -13.674  0.4051E-02  0.4051E-02  0.5486E-01  0.5486E-01
    -13.571  0.4664E-02  0.4664E-02  0.5534E-01  0.5534E-01
    -13.468  0.4427E-02  0.4427E-02  0.5580E-01  0.5580E-01
    -13.364  0.6001E-02  0.6001E-02  0.5642E-01  0.5642E-01
    -13.261  0.6001E-02  0.6001E-02  0.5704E-01  0.5704E-01
    -13.158  0.6236E-02  0.6236E-02  0.5769E-01  0.5769E-01
    -13.054  0.8137E-02  0.8137E-02  0.5853E-01  0.5853E-01
    -12.951  0.7477E-02  0.7477E-02  0.5930E-01  0.5930E-01
    -12.847  0.8453E-02  0.8453E-02  0.6017E-01  0.6017E-01
    -12.744  0.6045E-02  0.6045E-02  0.6080E-01  0.6080E-01
    -12.641  0.6711E-02  0.6711E-02  0.6149E-01  0.6149E-01
    -12.537  0.5487E-02  0.5487E-02  0.6206E-01  0.6206E-01
    -12.434  0.3923E-02  0.3923E-02  0.6247E-01  0.6247E-01
    -12.331  0.8393E-02  0.8393E-02  0.6333E-01  0.6333E-01
    -12.227  0.6316E-02  0.6316E-02  0.6399E-01  0.6399E-01
    -12.124  0.5036E-02  0.5036E-02  0.6451E-01  0.6451E-01
    -12.020  0.9579E-02  0.9579E-02  0.6550E-01  0.6550E-01
    -11.917  0.1505E-01  0.1505E-01  0.6705E-01  0.6705E-01
    -11.814  0.1591E-01  0.1591E-01  0.6870E-01  0.6870E-01
    -11.710  0.1385E-01  0.1385E-01  0.7013E-01  0.7013E-01
    -11.607  0.1453E-01  0.1453E-01  0.7163E-01  0.7163E-01
    -11.504  0.1728E-01  0.1728E-01  0.7342E-01  0.7342E-01
    -11.400  0.1259E-01  0.1259E-01  0.7472E-01  0.7472E-01
    -11.297  0.9540E-02  0.9540E-02  0.7570E-01  0.7570E-01
    -11.193  0.9312E-02  0.9312E-02  0.7667E-01  0.7667E-01
    -11.090  0.1091E-01  0.1091E-01  0.7780E-01  0.7780E-01
    -10.987  0.9368E-02  0.9368E-02  0.7876E-01  0.7876E-01
    -10.883  0.6783E-02  0.6783E-02  0.7946E-01  0.7946E-01
    -10.780  0.1207E-01  0.1207E-01  0.8071E-01  0.8071E-01
    -10.677  0.1564E-01  0.1564E-01  0.8233E-01  0.8233E-01
    -10.573  0.1200E-01  0.1200E-01  0.8357E-01  0.8357E-01
    -10.470  0.6904E-02  0.6904E-02  0.8428E-01  0.8428E-01
    -10.366  0.9521E-02  0.9521E-02  0.8527E-01  0.8527E-01
    -10.263  0.1759E-01  0.1759E-01  0.8709E-01  0.8709E-01
    -10.160  0.1718E-01  0.1718E-01  0.8886E-01  0.8886E-01
    -10.056  0.1065E-01  0.1065E-01  0.8996E-01  0.8996E-01
     -9.953  0.9563E-02  0.9563E-02  0.9095E-01  0.9095E-01
     -9.850  0.9206E-02  0.9206E-02  0.9190E-01  0.9190E-01
     -9.746  0.1169E-01  0.1169E-01  0.9311E-01  0.9311E-01
     -9.643  0.8679E-02  0.8679E-02  0.9401E-01  0.9401E-01
     -9.539  0.1111E-01  0.1111E-01  0.9516E-01  0.9516E-01
     -9.436  0.1091E-01  0.1091E-01  0.9629E-01  0.9629E-01
     -9.333  0.1052E-01  0.1052E-01  0.9737E-01  0.9737E-01
     -9.229  0.9876E-02  0.9876E-02  0.9839E-01  0.9839E-01
     -9.126  0.3225E-02  0.3225E-02  0.9873E-01  0.9873E-01
     -9.023  0.1923E-02  0.1923E-02  0.9893E-01  0.9893E-01
     -8.919  0.1094E-01  0.1094E-01  0.1001E+00  0.1001E+00
     -8.816  0.1952E-01  0.1952E-01  0.1021E+00  0.1021E+00
     -8.713  0.1724E-01  0.1724E-01  0.1039E+00  0.1039E+00
     -8.609  0.1038E-01  0.1038E-01  0.1049E+00  0.1049E+00
     -8.506  0.7744E-02  0.7744E-02  0.1057E+00  0.1057E+00
     -8.402  0.8923E-02  0.8923E-02  0.1067E+00  0.1067E+00
     -8.299  0.1318E-01  0.1318E-01  0.1080E+00  0.1080E+00
     -8.196  0.2466E-01  0.2466E-01  0.1106E+00  0.1106E+00
     -8.092  0.2262E-01  0.2262E-01  0.1129E+00  0.1129E+00
     -7.989  0.1912E-01  0.1912E-01  0.1149E+00  0.1149E+00
     -7.886  0.1525E-01  0.1525E-01  0.1165E+00  0.1165E+00
     -7.782  0.1329E-01  0.1329E-01  0.1178E+00  0.1178E+00
     -7.679  0.2083E-01  0.2083E-01  0.1200E+00  0.1200E+00
     -7.575  0.2536E-01  0.2536E-01  0.1226E+00  0.1226E+00
     -7.472  0.2349E-01  0.2349E-01  0.1250E+00  0.1250E+00
     -7.369  0.2253E-01  0.2253E-01  0.1274E+00  0.1274E+00
     -7.265  0.2582E-01  0.2582E-01  0.1300E+00  0.1300E+00
     -7.162  0.2306E-01  0.2306E-01  0.1324E+00  0.1324E+00
     -7.059  0.2548E-01  0.2548E-01  0.1350E+00  0.1350E+00
     -6.955  0.2483E-01  0.2483E-01  0.1376E+00  0.1376E+00
     -6.852  0.1761E-01  0.1761E-01  0.1394E+00  0.1394E+00
     -6.748  0.2330E-01  0.2330E-01  0.1418E+00  0.1418E+00
     -6.645  0.2666E-01  0.2666E-01  0.1446E+00  0.1446E+00
     -6.542  0.2310E-01  0.2310E-01  0.1470E+00  0.1470E+00
     -6.438  0.2458E-01  0.2458E-01  0.1495E+00  0.1495E+00
     -6.335  0.2315E-01  0.2315E-01  0.1519E+00  0.1519E+00
     -6.232  0.2513E-01  0.2513E-01  0.1545E+00  0.1545E+00
     -6.128  0.1931E-01  0.1931E-01  0.1565E+00  0.1565E+00
     -6.025  0.1604E-01  0.1604E-01  0.1582E+00  0.1582E+00
     -5.921  0.1994E-01  0.1994E-01  0.1602E+00  0.1602E+00
     -5.818  0.2610E-01  0.2610E-01  0.1629E+00  0.1629E+00
     -5.715  0.2203E-01  0.2203E-01  0.1652E+00  0.1652E+00
     -5.611  0.1777E-01  0.1777E-01  0.1670E+00  0.1670E+00
     -5.508  0.2197E-01  0.2197E-01  0.1693E+00  0.1693E+00
     -5.405  0.2666E-01  0.2666E-01  0.1721E+00  0.1721E+00
     -5.301  0.2862E-01  0.2862E-01  0.1750E+00  0.1750E+00
     -5.198  0.2009E-01  0.2009E-01  0.1771E+00  0.1771E+00
     -5.094  0.1263E-01  0.1263E-01  0.1784E+00  0.1784E+00
     -4.991  0.1561E-01  0.1561E-01  0.1800E+00  0.1800E+00
     -4.888  0.1848E-01  0.1848E-01  0.1819E+00  0.1819E+00
     -4.784  0.1679E-01  0.1679E-01  0.1837E+00  0.1837E+00
     -4.681  0.1670E-01  0.1670E-01  0.1854E+00  0.1854E+00
     -4.578  0.1742E-01  0.1742E-01  0.1872E+00  0.1872E+00
     -4.474  0.1630E-01  0.1630E-01  0.1889E+00  0.1889E+00
     -4.371  0.1875E-01  0.1875E-01  0.1908E+00  0.1908E+00
     -4.268  0.2305E-01  0.2305E-01  0.1932E+00  0.1932E+00
     -4.164  0.3128E-01  0.3128E-01  0.1964E+00  0.1964E+00
     -4.061  0.4045E-01  0.4045E-01  0.2006E+00  0.2006E+00
     -3.957  0.3291E-01  0.3291E-01  0.2040E+00  0.2040E+00
     -3.854  0.2231E-01  0.2231E-01  0.2063E+00  0.2063E+00
     -3.751  0.1516E-01  0.1516E-01  0.2079E+00  0.2079E+00
     -3.647  0.1556E-01  0.1556E-01  0.2095E+00  0.2095E+00
     -3.544  0.1664E-01  0.1664E-01  0.2112E+00  0.2112E+00
     -3.441  0.2072E-01  0.2072E-01  0.2134E+00  0.2134E+00
     -3.337  0.2066E-01  0.2066E-01  0.2155E+00  0.2155E+00
     -3.234  0.1404E-01  0.1404E-01  0.2170E+00  0.2170E+00
     -3.130  0.1318E-01  0.1318E-01  0.2183E+00  0.2183E+00
     -3.027  0.1854E-01  0.1854E-01  0.2202E+00  0.2202E+00
     -2.924  0.2581E-01  0.2581E-01  0.2229E+00  0.2229E+00
     -2.820  0.1945E-01  0.1945E-01  0.2249E+00  0.2249E+00
     -2.717  0.1021E-01  0.1021E-01  0.2260E+00  0.2260E+00
     -2.614  0.1306E-01  0.1306E-01  0.2273E+00  0.2273E+00
     -2.510  0.2141E-01  0.2141E-01  0.2295E+00  0.2295E+00
     -2.407  0.2018E-01  0.2018E-01  0.2316E+00  0.2316E+00
     -2.303  0.1868E-01  0.1868E-01  0.2336E+00  0.2336E+00
     -2.200  0.2339E-01  0.2339E-01  0.2360E+00  0.2360E+00
     -2.097  0.1658E-01  0.1658E-01  0.2377E+00  0.2377E+00
     -1.993  0.4698E-02  0.4698E-02  0.2382E+00  0.2382E+00
     -1.890  0.5586E-02  0.5586E-02  0.2387E+00  0.2387E+00
     -1.787  0.7412E-02  0.7412E-02  0.2395E+00  0.2395E+00
     -1.683  0.5398E-02  0.5398E-02  0.2401E+00  0.2401E+00
     -1.580  0.6687E-02  0.6687E-02  0.2408E+00  0.2408E+00
     -1.476  0.6126E-02  0.6126E-02  0.2414E+00  0.2414E+00
     -1.373  0.4060E-02  0.4060E-02  0.2418E+00  0.2418E+00
     -1.270  0.2096E-02  0.2096E-02  0.2420E+00  0.2420E+00
     -1.166  0.4355E-03  0.4355E-03  0.2421E+00  0.2421E+00
     -1.063  0.2619E-03  0.2619E-03  0.2421E+00  0.2421E+00
     -0.960  0.1281E-02  0.1281E-02  0.2422E+00  0.2422E+00
     -0.856  0.2570E-02  0.2570E-02  0.2425E+00  0.2425E+00
     -0.753  0.3250E-02  0.3250E-02  0.2428E+00  0.2428E+00
     -0.649  0.4490E-02  0.4490E-02  0.2433E+00  0.2433E+00
     -0.546  0.8874E-02  0.8874E-02  0.2442E+00  0.2442E+00
     -0.443  0.9522E-02  0.9522E-02  0.2452E+00  0.2452E+00
     -0.339  0.9151E-02  0.9151E-02  0.2462E+00  0.2462E+00
     -0.236  0.9936E-02  0.9936E-02  0.2472E+00  0.2472E+00
     -0.133  0.1066E-01  0.1066E-01  0.2483E+00  0.2483E+00
     -0.029  0.9993E-02  0.9993E-02  0.2493E+00  0.2493E+00
      0.074  0.3641E-02  0.3641E-02  0.2497E+00  0.2497E+00
      0.177  0.4956E-02  0.4956E-02  0.2502E+00  0.2502E+00
      0.281  0.9853E-02  0.9853E-02  0.2512E+00  0.2512E+00
      0.384  0.8051E-02  0.8051E-02  0.2521E+00  0.2521E+00
      0.488  0.6355E-02  0.6355E-02  0.2527E+00  0.2527E+00
      0.591  0.7762E-02  0.7762E-02  0.2535E+00  0.2535E+00
      0.694  0.1055E-01  0.1055E-01  0.2546E+00  0.2546E+00
      0.798  0.9407E-02  0.9407E-02  0.2556E+00  0.2556E+00
      0.901  0.1060E-01  0.1060E-01  0.2567E+00  0.2567E+00
      1.004  0.8516E-02  0.8516E-02  0.2576E+00  0.2576E+00
      1.108  0.4543E-02  0.4543E-02  0.2580E+00  0.2580E+00
      1.211  0.5661E-02  0.5661E-02  0.2586E+00  0.2586E+00
      1.315  0.4908E-02  0.4908E-02  0.2591E+00  0.2591E+00
      1.418  0.4139E-02  0.4139E-02  0.2595E+00  0.2595E+00
      1.521  0.4085E-02  0.4085E-02  0.2600E+00  0.2600E+00
      1.625  0.9720E-02  0.9720E-02  0.2610E+00  0.2610E+00
      1.728  0.1117E-01  0.1117E-01  0.2621E+00  0.2621E+00
      1.831  0.3398E-02  0.3398E-02  0.2625E+00  0.2625E+00
      1.935  0.3534E-02  0.3534E-02  0.2628E+00  0.2628E+00
      2.038  0.5295E-02  0.5295E-02  0.2634E+00  0.2634E+00
      2.142  0.6360E-02  0.6360E-02  0.2640E+00  0.2640E+00
      2.245  0.1315E-01  0.1315E-01  0.2654E+00  0.2654E+00
      2.348  0.1528E-01  0.1528E-01  0.2670E+00  0.2670E+00
      2.452  0.1231E-01  0.1231E-01  0.2683E+00  0.2683E+00
      2.555  0.1325E-01  0.1325E-01  0.2696E+00  0.2696E+00
      2.658  0.1143E-01  0.1143E-01  0.2708E+00  0.2708E+00
      2.762  0.7832E-02  0.7832E-02  0.2716E+00  0.2716E+00
      2.865  0.8997E-02  0.8997E-02  0.2725E+00  0.2725E+00
      2.969  0.1089E-01  0.1089E-01  0.2737E+00  0.2737E+00
      3.072  0.1279E-01  0.1279E-01  0.2750E+00  0.2750E+00
      3.175  0.1543E-01  0.1543E-01  0.2766E+00  0.2766E+00
      3.279  0.1403E-01  0.1403E-01  0.2780E+00  0.2780E+00
      3.382  0.8918E-02  0.8918E-02  0.2790E+00  0.2790E+00
      3.485  0.7604E-02  0.7604E-02  0.2797E+00  0.2797E+00
      3.589  0.1313E-01  0.1313E-01  0.2811E+00  0.2811E+00
      3.692  0.1196E-01  0.1196E-01  0.2823E+00  0.2823E+00
      3.796  0.8671E-02  0.8671E-02  0.2832E+00  0.2832E+00
      3.899  0.1385E-01  0.1385E-01  0.2847E+00  0.2847E+00
      4.002  0.1834E-01  0.1834E-01  0.2866E+00  0.2866E+00
      4.106  0.1558E-01  0.1558E-01  0.2882E+00  0.2882E+00
      4.209  0.1447E-01  0.1447E-01  0.2897E+00  0.2897E+00
      4.312  0.1402E-01  0.1402E-01  0.2911E+00  0.2911E+00
      4.416  0.1571E-01  0.1571E-01  0.2927E+00  0.2927E+00
      4.519  0.1327E-01  0.1327E-01  0.2941E+00  0.2941E+00
      4.622  0.1345E-01  0.1345E-01  0.2955E+00  0.2955E+00
      4.726  0.1549E-01  0.1549E-01  0.2971E+00  0.2971E+00
      4.829  0.1866E-01  0.1866E-01  0.2990E+00  0.2990E+00
      4.933  0.1909E-01  0.1909E-01  0.3010E+00  0.3010E+00
      5.036  0.1805E-01  0.1805E-01  0.3029E+00  0.3029E+00
      5.139  0.1632E-01  0.1632E-01  0.3046E+00  0.3046E+00
      5.243  0.1498E-01  0.1498E-01  0.3061E+00  0.3061E+00
      5.346  0.1540E-01  0.1540E-01  0.3077E+00  0.3077E+00
      5.449  0.2035E-01  0.2035E-01  0.3098E+00  0.3098E+00
      5.553  0.1870E-01  0.1870E-01  0.3117E+00  0.3117E+00
      5.656  0.1445E-01  0.1445E-01  0.3132E+00  0.3132E+00
      5.760  0.1628E-01  0.1628E-01  0.3149E+00  0.3149E+00
      5.863  0.2466E-01  0.2466E-01  0.3175E+00  0.3175E+00
      5.966  0.2245E-01  0.2245E-01  0.3198E+00  0.3198E+00
      6.070  0.2508E-01  0.2508E-01  0.3224E+00  0.3224E+00
      6.173  0.2825E-01  0.2825E-01  0.3253E+00  0.3253E+00
      6.276  0.2605E-01  0.2605E-01  0.3280E+00  0.3280E+00
      6.380  0.2442E-01  0.2442E-01  0.3305E+00  0.3305E+00
      6.483  0.1951E-01  0.1951E-01  0.3325E+00  0.3325E+00
      6.587  0.2044E-01  0.2044E-01  0.3346E+00  0.3346E+00
      6.690  0.2939E-01  0.2939E-01  0.3377E+00  0.3377E+00
      6.793  0.3134E-01  0.3134E-01  0.3409E+00  0.3409E+00
      6.897  0.2947E-01  0.2947E-01  0.3440E+00  0.3440E+00
      7.000  0.3381E-01  0.3381E-01  0.3475E+00  0.3475E+00
      7.103  0.3323E-01  0.3323E-01  0.3509E+00  0.3509E+00
      7.207  0.2963E-01  0.2963E-01  0.3540E+00  0.3540E+00
      7.310  0.3387E-01  0.3387E-01  0.3575E+00  0.3575E+00
      7.414  0.3713E-01  0.3713E-01  0.3613E+00  0.3613E+00
      7.517  0.2909E-01  0.2909E-01  0.3643E+00  0.3643E+00
      7.620  0.2366E-01  0.2366E-01  0.3668E+00  0.3668E+00
      7.724  0.2819E-01  0.2819E-01  0.3697E+00  0.3697E+00
      7.827  0.1975E-01  0.1975E-01  0.3717E+00  0.3717E+00
      7.930  0.1432E-01  0.1432E-01  0.3732E+00  0.3732E+00
      8.034  0.9766E-02  0.9766E-02  0.3742E+00  0.3742E+00
      8.137  0.3354E-02  0.3354E-02  0.3745E+00  0.3745E+00
      8.241  0.1909E-02  0.1909E-02  0.3747E+00  0.3747E+00
      8.344  0.1894E-02  0.1894E-02  0.3749E+00  0.3749E+00
      8.447  0.5385E-03  0.5385E-03  0.3750E+00  0.3750E+00
      8.551  0.2625E-04  0.2625E-04  0.3750E+00  0.3750E+00
      8.654  0.1827E-06  0.1828E-06  0.3750E+00  0.3750E+00
      8.757  0.1670E-09  0.1670E-09  0.3750E+00  0.3750E+00
      8.861  0.1919E-13  0.1920E-13  0.3750E+00  0.3750E+00
      8.964  0.3496E-18  0.3496E-18  0.3750E+00  0.3750E+00
      9.067  0.0000E+00  0.0000E+00  0.3750E+00  0.3750E+00
      9.171  0.0000E+00  0.0000E+00  0.3750E+00  0.3750E+00
      9.274  0.0000E+00  0.0000E+00  0.3750E+00  0.3750E+00
      9.378  0.0000E+00  0.0000E+00  0.3750E+00  0.3750E+00
      9.481  0.0000E+00  0.0000E+00  0.3750E+00  0.3750E+00
      9.584  0.0000E+00  0.0000E+00  0.3750E+00  0.3750E+00
      9.688  0.0000E+00  0.0000E+00  0.3750E+00  0.3750E+00
