Lattice                                 
           1
     4.369098    2.522500    0.000000
    -4.369098    2.522500    0.000000
     0.000000    0.000000   15.000000
   B    C 
     2    14
Direct configuration=     1
   0.33833034  0.66916432  0.10000000
   0.67165522  0.33584146  0.10000000
   0.16373946  0.31999962  0.10000000
   0.32250218  0.16126397  0.10000000
   0.16376430  0.84376384  0.10000000
   0.84623863  0.16123684  0.10000000
   0.68749850  0.84373000  0.10000000
   0.84626736  0.68499594  0.10000000
   0.16666600  0.33333300  0.32880000
   0.33333300  0.16666600  0.32880000
   0.16666600  0.83333300  0.32880000
   0.33333300  0.66666600  0.32880000
   0.66666600  0.33333300  0.32880000
   0.83333300  0.16666600  0.32880000
   0.66666600  0.83333300  0.32880000
   0.83333300  0.66666600  0.32880000
Direct configuration=     2
   0.33832818  0.66916291  0.10014673
   0.67167596  0.33581259  0.10014672
   0.16693726  0.32640491  0.09994613
   0.32890084  0.16445947  0.09994579
   0.16696770  0.84055038  0.09994615
   0.84302724  0.16443738  0.09994650
   0.68111758  0.84055895  0.09994669
   0.84305194  0.67861464  0.09994649
   0.16636050  0.33271840  0.32887176
   0.33271779  0.16635946  0.32887236
   0.16636054  0.83364003  0.32887176
   0.33332701  0.66666408  0.32860122
   0.66666154  0.33332977  0.32860122
   0.83363963  0.16636139  0.32887040
   0.66727868  0.83363833  0.32886966
   0.83363960  0.66727931  0.32887042
Direct configuration=     3
   0.33832975  0.66916394  0.10003996
   0.67166087  0.33583360  0.10003996
   0.16461038  0.32174410  0.09998533
   0.32424485  0.16213426  0.09998524
   0.16463674  0.84288866  0.09998533
   0.84536401  0.16210850  0.09998543
   0.68576067  0.84286637  0.09998548
   0.84539164  0.68325800  0.09998543
   0.16658280  0.33316561  0.32881954
   0.33316545  0.16658252  0.32881971
   0.16658281  0.83341662  0.32881954
   0.33333137  0.66666548  0.32874586
   0.66666478  0.33333212  0.32874586
   0.83341651  0.16658304  0.32881917
   0.66683286  0.83341616  0.32881897
   0.83341650  0.66683303  0.32881918
Direct configuration=     4
   0.33833483  0.66916457  0.10013986
   0.67166465  0.33583040  0.10013984
   0.16460400  0.32172997  0.09994856
   0.32423301  0.16212250  0.09994823
   0.16462212  0.84289194  0.09994857
   0.84538192  0.16210998  0.09994901
   0.68576966  0.84288087  0.09994915
   0.84539813  0.68327183  0.09994901
   0.16654624  0.33309433  0.32886592
   0.33309353  0.16654645  0.32886651
   0.16654624  0.83345160  0.32886592
   0.33333007  0.66666472  0.32861814
   0.66666338  0.33333151  0.32861814
   0.83345089  0.16654709  0.32886462
   0.66690243  0.83345105  0.32886390
   0.83345090  0.66690320  0.32886462
Direct configuration=     5
   0.33833658  0.66916478  0.10017428
   0.67166595  0.33582930  0.10017427
   0.16460180  0.32172510  0.09993589
   0.32422893  0.16211844  0.09993548
   0.16461709  0.84289307  0.09993590
   0.84538810  0.16211048  0.09993646
   0.68577276  0.84288587  0.09993663
   0.84540036  0.68327659  0.09993646
   0.16653365  0.33306976  0.32888191
   0.33306874  0.16653402  0.32888263
   0.16653363  0.83346366  0.32888191
   0.33332962  0.66666446  0.32857412
   0.66666289  0.33333131  0.32857412
   0.83346273  0.16653470  0.32888028
   0.66692640  0.83346307  0.32887938
   0.83346276  0.66692739  0.32888028
Direct configuration=     6
   0.33831991  0.66916564  0.10023890
   0.67166797  0.33583696  0.10023888
   0.16464243  0.32174163  0.09991107
   0.32423317  0.16212548  0.09991034
   0.16463665  0.84288503  0.09991107
   0.84536711  0.16210632  0.09991212
   0.68579102  0.84288002  0.09991241
   0.84536593  0.68326871  0.09991207
   0.16662344  0.33325139  0.32889618
   0.33324963  0.16662489  0.32889723
   0.16662346  0.83337106  0.32889618
   0.33332836  0.66666426  0.32854161
   0.66666203  0.33333053  0.32854160
   0.83336932  0.16662533  0.32889387
   0.66674227  0.83337064  0.32889261
   0.83336931  0.66674410  0.32889387
Direct configuration=     7
   0.33832965  0.66916514  0.10020114
   0.67166679  0.33583248  0.10020112
   0.16461869  0.32173197  0.09992557
   0.32423069  0.16212137  0.09992503
   0.16462522  0.84288972  0.09992558
   0.84537937  0.16210875  0.09992634
   0.68578035  0.84288344  0.09992656
   0.84538605  0.68327332  0.09992632
   0.16657097  0.33314526  0.32888784
   0.33314393  0.16657180  0.32888870
   0.16657097  0.83342517  0.32888784
   0.33332909  0.66666438  0.32856060
   0.66666253  0.33333098  0.32856060
   0.83342391  0.16657237  0.32888593
   0.66684986  0.83342465  0.32888488
   0.83342391  0.66685120  0.32888593
Direct configuration=     8
   0.33832991  0.66916512  0.10020013
   0.67166676  0.33583236  0.10020011
   0.16461805  0.32173171  0.09992596
   0.32423063  0.16212126  0.09992542
   0.16462491  0.84288985  0.09992597
   0.84537970  0.16210882  0.09992673
   0.68578006  0.84288353  0.09992694
   0.84538659  0.68327344  0.09992671
   0.16656956  0.33314241  0.32888762
   0.33314109  0.16657037  0.32888847
   0.16656956  0.83342662  0.32888762
   0.33332911  0.66666438  0.32856111
   0.66666255  0.33333100  0.32856111
   0.83342537  0.16657095  0.32888572
   0.66685275  0.83342610  0.32888467
   0.83342538  0.66685408  0.32888572
Direct configuration=     9
   0.33834050  0.66916790  0.10022053
   0.67166011  0.33583344  0.10022052
   0.16460105  0.32172970  0.09991684
   0.32424307  0.16211576  0.09991611
   0.16460751  0.84288634  0.09991684
   0.84540177  0.16211843  0.09991794
   0.68576337  0.84288630  0.09991833
   0.84540858  0.68327282  0.09991793
   0.16656858  0.33314240  0.32888518
   0.33314048  0.16656996  0.32888619
   0.16656859  0.83342590  0.32888518
   0.33332795  0.66666370  0.32857530
   0.66666127  0.33333050  0.32857530
   0.83342405  0.16657052  0.32888300
   0.66685108  0.83342540  0.32888181
   0.83342404  0.66685294  0.32888300
Direct configuration=    10
   0.33833988  0.66916774  0.10021934
   0.67166050  0.33583338  0.10021932
   0.16460204  0.32172981  0.09991737
   0.32424234  0.16211608  0.09991665
   0.16460853  0.84288654  0.09991737
   0.84540048  0.16211787  0.09991845
   0.68576435  0.84288614  0.09991883
   0.84540729  0.68327286  0.09991844
   0.16656864  0.33314240  0.32888533
   0.33314052  0.16656998  0.32888632
   0.16656864  0.83342594  0.32888533
   0.33332802  0.66666374  0.32857447
   0.66666135  0.33333053  0.32857447
   0.83342413  0.16657055  0.32888316
   0.66685117  0.83342544  0.32888198
   0.83342412  0.66685300  0.32888316
Direct configuration=    11
   0.33833677  0.66916781  0.10022920
   0.67166473  0.33583372  0.10022919
   0.16461214  0.32173063  0.09991264
   0.32423751  0.16211651  0.09991179
   0.16461544  0.84288756  0.09991263
   0.84539475  0.16211687  0.09991392
   0.68577157  0.84288692  0.09991441
   0.84539844  0.68327333  0.09991392
   0.16656632  0.33313887  0.32888417
   0.33313662  0.16656805  0.32888524
   0.16656632  0.83342715  0.32888417
   0.33332727  0.66666337  0.32858221
   0.66666059  0.33333015  0.32858221
   0.83342497  0.16656862  0.32888185
   0.66685359  0.83342665  0.32888060
   0.83342496  0.66685581  0.32888185
Direct configuration=    12
   0.33833480  0.66916785  0.10023544
   0.67166741  0.33583393  0.10023543
   0.16461852  0.32173115  0.09990964
   0.32423446  0.16211678  0.09990871
   0.16461982  0.84288820  0.09990964
   0.84539112  0.16211624  0.09991106
   0.68577614  0.84288741  0.09991161
   0.84539284  0.68327363  0.09991106
   0.16656485  0.33313663  0.32888343
   0.33313415  0.16656682  0.32888455
   0.16656485  0.83342791  0.32888343
   0.33332680  0.66666315  0.32858711
   0.66666012  0.33332991  0.32858711
   0.83342551  0.16656739  0.32888102
   0.66685512  0.83342741  0.32887973
   0.83342550  0.66685758  0.32888102
Direct configuration=    13
   0.33833487  0.66916785  0.10023522
   0.67166732  0.33583393  0.10023521
   0.16461829  0.32173113  0.09990975
   0.32423457  0.16211677  0.09990882
   0.16461966  0.84288818  0.09990974
   0.84539125  0.16211627  0.09991116
   0.68577598  0.84288739  0.09991171
   0.84539304  0.68327362  0.09991116
   0.16656490  0.33313671  0.32888346
   0.33313424  0.16656686  0.32888457
   0.16656491  0.83342788  0.32888346
   0.33332681  0.66666315  0.32858694
   0.66666013  0.33332992  0.32858694
   0.83342549  0.16656744  0.32888105
   0.66685506  0.83342738  0.32887976
   0.83342548  0.66685752  0.32888105
Direct configuration=    14
   0.33833497  0.66916785  0.10023489
   0.67166718  0.33583392  0.10023488
   0.16461796  0.32173110  0.09990991
   0.32423473  0.16211676  0.09990899
   0.16461943  0.84288814  0.09990990
   0.84539144  0.16211630  0.09991132
   0.68577574  0.84288737  0.09991185
   0.84539333  0.68327360  0.09991131
   0.16656498  0.33313683  0.32888350
   0.33313437  0.16656693  0.32888461
   0.16656498  0.83342784  0.32888349
   0.33332684  0.66666317  0.32858668
   0.66666016  0.33332993  0.32858668
   0.83342546  0.16656750  0.32888110
   0.66685498  0.83342734  0.32887981
   0.83342545  0.66685742  0.32888109
Direct configuration=    15
   0.33833491  0.66916785  0.10023509
   0.67166726  0.33583392  0.10023508
   0.16461816  0.32173112  0.09990981
   0.32423463  0.16211677  0.09990889
   0.16461957  0.84288816  0.09990981
   0.84539132  0.16211628  0.09991122
   0.68577589  0.84288738  0.09991176
   0.84539315  0.68327361  0.09991122
   0.16656493  0.33313676  0.32888347
   0.33313429  0.16656689  0.32888459
   0.16656494  0.83342787  0.32888347
   0.33332682  0.66666316  0.32858683
   0.66666014  0.33332992  0.32858683
   0.83342548  0.16656746  0.32888107
   0.66685503  0.83342737  0.32887978
   0.83342547  0.66685748  0.32888107
Direct configuration=    16
   0.33833459  0.66916728  0.10023397
   0.67166761  0.33583365  0.10023395
   0.16461900  0.32173196  0.09990969
   0.32423538  0.16211783  0.09990874
   0.16462014  0.84288766  0.09990969
   0.84539039  0.16211520  0.09991118
   0.68577811  0.84288809  0.09991176
   0.84539175  0.68327444  0.09991118
   0.16656472  0.33313664  0.32888406
   0.33313403  0.16656681  0.32888518
   0.16656472  0.83342768  0.32888406
   0.33332656  0.66666308  0.32858642
   0.66665994  0.33332977  0.32858642
   0.83342515  0.16656739  0.32888166
   0.66685475  0.83342717  0.32888037
   0.83342515  0.66685735  0.32888166
