  15  15   1   0
  0.2033749E+02  0.4846000E-09  0.4846000E-09  0.1500000E-08  0.5000000E-15
  1.000000000000000E-004
  CAR 
 BS_HSE06                                
     24.71321840    -25.15433524  301     -0.37921500      1.00000000
    -25.154  0.0000E+00  0.0000E+00
    -24.988  0.0000E+00  0.0000E+00
    -24.822  0.0000E+00  0.0000E+00
    -24.656  0.0000E+00  0.0000E+00
    -24.489  0.0000E+00  0.0000E+00
    -24.323  0.0000E+00  0.0000E+00
    -24.157  0.0000E+00  0.0000E+00
    -23.991  0.0000E+00  0.0000E+00
    -23.825  0.0000E+00  0.0000E+00
    -23.658  0.0000E+00  0.0000E+00
    -23.492  0.0000E+00  0.0000E+00
    -23.326  0.2067E-10  0.3436E-11
    -23.160  0.6477E-05  0.1077E-05
    -22.993  0.1374E-01  0.2284E-02
    -22.827  0.4341E+00  0.7445E-01
    -22.661  0.1042E+01  0.2476E+00
    -22.495  0.1090E+01  0.4289E+00
    -22.329  0.1091E+01  0.6103E+00
    -22.162  0.1122E+01  0.7969E+00
    -21.996  0.1107E+01  0.9809E+00
    -21.830  0.1030E+01  0.1152E+01
    -21.664  0.1205E+01  0.1352E+01
    -21.497  0.1007E+01  0.1520E+01
    -21.331  0.1199E+01  0.1719E+01
    -21.165  0.1024E+01  0.1889E+01
    -20.999  0.1220E+01  0.2092E+01
    -20.832  0.9445E+00  0.2249E+01
    -20.666  0.1318E+01  0.2468E+01
    -20.500  0.9057E+00  0.2619E+01
    -20.334  0.1347E+01  0.2842E+01
    -20.168  0.9813E+00  0.3006E+01
    -20.001  0.1087E+01  0.3186E+01
    -19.835  0.1361E+01  0.3413E+01
    -19.669  0.1154E+01  0.3604E+01
    -19.503  0.2758E+01  0.4063E+01
    -19.336  0.2982E+01  0.4559E+01
    -19.170  0.3018E+01  0.5060E+01
    -19.004  0.4803E+01  0.5859E+01
    -18.838  0.3858E+01  0.6500E+01
    -18.672  0.1160E+01  0.6693E+01
    -18.505  0.1349E+01  0.6917E+01
    -18.339  0.1320E+01  0.7136E+01
    -18.173  0.8575E+00  0.7279E+01
    -18.007  0.1336E+01  0.7501E+01
    -17.840  0.1412E+01  0.7736E+01
    -17.674  0.9319E+00  0.7891E+01
    -17.508  0.1198E+01  0.8090E+01
    -17.342  0.1602E+01  0.8356E+01
    -17.176  0.1282E+01  0.8569E+01
    -17.009  0.1983E+01  0.8899E+01
    -16.843  0.4502E+01  0.9647E+01
    -16.677  0.4036E+01  0.1032E+02
    -16.511  0.2123E+01  0.1067E+02
    -16.344  0.2706E+01  0.1112E+02
    -16.178  0.2674E+01  0.1157E+02
    -16.012  0.2208E+01  0.1193E+02
    -15.846  0.3451E+01  0.1251E+02
    -15.680  0.4860E+01  0.1331E+02
    -15.513  0.3603E+01  0.1391E+02
    -15.347  0.2879E+01  0.1439E+02
    -15.181  0.1279E+01  0.1460E+02
    -15.015  0.1323E+01  0.1482E+02
    -14.848  0.1281E+01  0.1504E+02
    -14.682  0.1796E+01  0.1534E+02
    -14.516  0.1389E+01  0.1557E+02
    -14.350  0.1256E+01  0.1577E+02
    -14.183  0.1351E+01  0.1600E+02
    -14.017  0.1159E+01  0.1619E+02
    -13.851  0.1164E+01  0.1639E+02
    -13.685  0.1092E+01  0.1657E+02
    -13.519  0.1132E+01  0.1676E+02
    -13.352  0.1032E+01  0.1693E+02
    -13.186  0.9213E+00  0.1708E+02
    -13.020  0.1201E+01  0.1728E+02
    -12.854  0.7758E+00  0.1741E+02
    -12.687  0.1463E+01  0.1765E+02
    -12.521  0.1284E+01  0.1786E+02
    -12.355  0.1027E+01  0.1804E+02
    -12.189  0.2117E+01  0.1839E+02
    -12.023  0.2865E+01  0.1886E+02
    -11.856  0.3128E+01  0.1938E+02
    -11.690  0.3995E+01  0.2005E+02
    -11.524  0.3447E+01  0.2062E+02
    -11.358  0.3144E+01  0.2114E+02
    -11.191  0.2778E+01  0.2161E+02
    -11.025  0.3340E+01  0.2216E+02
    -10.859  0.3470E+01  0.2274E+02
    -10.693  0.2848E+01  0.2321E+02
    -10.527  0.2774E+01  0.2367E+02
    -10.360  0.3853E+01  0.2431E+02
    -10.194  0.2691E+01  0.2476E+02
    -10.028  0.3474E+01  0.2534E+02
     -9.862  0.2810E+01  0.2580E+02
     -9.695  0.3453E+01  0.2638E+02
     -9.529  0.4295E+01  0.2709E+02
     -9.363  0.4059E+01  0.2777E+02
     -9.197  0.5304E+01  0.2865E+02
     -9.030  0.4812E+01  0.2945E+02
     -8.864  0.3411E+01  0.3002E+02
     -8.698  0.3379E+01  0.3058E+02
     -8.532  0.2612E+01  0.3101E+02
     -8.366  0.4118E+01  0.3170E+02
     -8.199  0.3909E+01  0.3235E+02
     -8.033  0.4114E+01  0.3303E+02
     -7.867  0.3946E+01  0.3369E+02
     -7.701  0.3630E+01  0.3429E+02
     -7.534  0.4652E+01  0.3506E+02
     -7.368  0.3980E+01  0.3572E+02
     -7.202  0.5020E+01  0.3656E+02
     -7.036  0.6311E+01  0.3761E+02
     -6.870  0.5864E+01  0.3858E+02
     -6.703  0.4904E+01  0.3940E+02
     -6.537  0.4679E+01  0.4017E+02
     -6.371  0.9016E+01  0.4167E+02
     -6.205  0.4644E+01  0.4245E+02
     -6.038  0.3027E+01  0.4295E+02
     -5.872  0.3331E+01  0.4350E+02
     -5.706  0.1643E+01  0.4378E+02
     -5.540  0.2665E+01  0.4422E+02
     -5.374  0.2818E+01  0.4469E+02
     -5.207  0.3597E+01  0.4528E+02
     -5.041  0.4755E+01  0.4608E+02
     -4.875  0.5500E+01  0.4699E+02
     -4.709  0.3690E+01  0.4760E+02
     -4.542  0.3612E+01  0.4820E+02
     -4.376  0.4523E+01  0.4896E+02
     -4.210  0.3695E+01  0.4957E+02
     -4.044  0.2779E+01  0.5003E+02
     -3.878  0.2791E+01  0.5050E+02
     -3.711  0.3234E+01  0.5103E+02
     -3.545  0.2931E+01  0.5152E+02
     -3.379  0.2301E+01  0.5190E+02
     -3.213  0.3112E+01  0.5242E+02
     -3.046  0.2970E+01  0.5291E+02
     -2.880  0.1836E+01  0.5322E+02
     -2.714  0.2021E+01  0.5355E+02
     -2.548  0.1548E+01  0.5381E+02
     -2.381  0.3112E+01  0.5433E+02
     -2.215  0.2211E+01  0.5470E+02
     -2.049  0.1631E+01  0.5497E+02
     -1.883  0.1912E+01  0.5529E+02
     -1.717  0.1012E+01  0.5545E+02
     -1.550  0.9799E+00  0.5562E+02
     -1.384  0.9860E+00  0.5578E+02
     -1.218  0.7529E+00  0.5591E+02
     -1.052  0.1683E+00  0.5593E+02
     -0.885  0.1494E+00  0.5596E+02
     -0.719  0.1486E+00  0.5598E+02
     -0.553  0.1001E+00  0.5600E+02
     -0.387  0.1200E-02  0.5600E+02
     -0.221  0.6340E-03  0.5600E+02
     -0.054  0.8076E-01  0.5601E+02
      0.112  0.1661E+00  0.5604E+02
      0.278  0.1556E+00  0.5607E+02
      0.444  0.1195E+00  0.5609E+02
      0.611  0.3887E+00  0.5615E+02
      0.777  0.4932E+00  0.5623E+02
      0.943  0.2297E+00  0.5627E+02
      1.109  0.1136E+01  0.5646E+02
      1.275  0.3752E+01  0.5708E+02
      1.442  0.3682E+01  0.5770E+02
      1.608  0.2261E+01  0.5807E+02
      1.774  0.2469E+01  0.5848E+02
      1.940  0.2760E+01  0.5894E+02
      2.107  0.2497E+01  0.5936E+02
      2.273  0.2878E+01  0.5983E+02
      2.439  0.1972E+01  0.6016E+02
      2.605  0.2039E+01  0.6050E+02
      2.771  0.1966E+01  0.6083E+02
      2.938  0.1854E+01  0.6114E+02
      3.104  0.1961E+01  0.6146E+02
      3.270  0.2967E+01  0.6196E+02
      3.436  0.2194E+01  0.6232E+02
      3.603  0.2352E+01  0.6271E+02
      3.769  0.2399E+01  0.6311E+02
      3.935  0.3891E+01  0.6376E+02
      4.101  0.3252E+01  0.6430E+02
      4.268  0.3923E+01  0.6495E+02
      4.434  0.5712E+01  0.6590E+02
      4.600  0.6798E+01  0.6703E+02
      4.766  0.5645E+01  0.6797E+02
      4.932  0.6840E+01  0.6910E+02
      5.099  0.5913E+01  0.7009E+02
      5.265  0.6310E+01  0.7114E+02
      5.431  0.6807E+01  0.7227E+02
      5.597  0.5396E+01  0.7316E+02
      5.764  0.5258E+01  0.7404E+02
      5.930  0.5303E+01  0.7492E+02
      6.096  0.6139E+01  0.7594E+02
      6.262  0.6232E+01  0.7698E+02
      6.428  0.4801E+01  0.7777E+02
      6.595  0.5728E+01  0.7873E+02
      6.761  0.5421E+01  0.7963E+02
      6.927  0.4603E+01  0.8039E+02
      7.093  0.5634E+01  0.8133E+02
      7.260  0.5386E+01  0.8222E+02
      7.426  0.7636E+01  0.8349E+02
      7.592  0.8316E+01  0.8488E+02
      7.758  0.6845E+01  0.8601E+02
      7.924  0.5208E+01  0.8688E+02
      8.091  0.6000E+01  0.8788E+02
      8.257  0.6149E+01  0.8890E+02
      8.423  0.7070E+01  0.9007E+02
      8.589  0.8051E+01  0.9141E+02
      8.756  0.7290E+01  0.9262E+02
      8.922  0.8116E+01  0.9397E+02
      9.088  0.8579E+01  0.9540E+02
      9.254  0.1008E+02  0.9707E+02
      9.421  0.1275E+02  0.9919E+02
      9.587  0.9758E+01  0.1008E+03
      9.753  0.9826E+01  0.1024E+03
      9.919  0.8476E+01  0.1039E+03
     10.085  0.9433E+01  0.1054E+03
     10.252  0.9422E+01  0.1070E+03
     10.418  0.8415E+01  0.1084E+03
     10.584  0.8730E+01  0.1098E+03
     10.750  0.9615E+01  0.1114E+03
     10.917  0.1075E+02  0.1132E+03
     11.083  0.9186E+01  0.1148E+03
     11.249  0.7075E+01  0.1159E+03
     11.415  0.8347E+01  0.1173E+03
     11.581  0.7895E+01  0.1186E+03
     11.748  0.6786E+01  0.1198E+03
     11.914  0.6288E+01  0.1208E+03
     12.080  0.7980E+01  0.1221E+03
     12.246  0.7247E+01  0.1233E+03
     12.413  0.8436E+01  0.1247E+03
     12.579  0.8057E+01  0.1261E+03
     12.745  0.7868E+01  0.1274E+03
     12.911  0.7198E+01  0.1286E+03
     13.077  0.6680E+01  0.1297E+03
     13.244  0.8390E+01  0.1311E+03
     13.410  0.7864E+01  0.1324E+03
     13.576  0.7345E+01  0.1336E+03
     13.742  0.7618E+01  0.1349E+03
     13.909  0.6144E+01  0.1359E+03
     14.075  0.7010E+01  0.1371E+03
     14.241  0.1045E+02  0.1388E+03
     14.407  0.1241E+02  0.1409E+03
     14.573  0.1162E+02  0.1428E+03
     14.740  0.9775E+01  0.1444E+03
     14.906  0.8482E+01  0.1458E+03
     15.072  0.8991E+01  0.1473E+03
     15.238  0.9907E+01  0.1490E+03
     15.405  0.9077E+01  0.1505E+03
     15.571  0.8606E+01  0.1519E+03
     15.737  0.8365E+01  0.1533E+03
     15.903  0.8658E+01  0.1547E+03
     16.070  0.8526E+01  0.1562E+03
     16.236  0.7721E+01  0.1574E+03
     16.402  0.6495E+01  0.1585E+03
     16.568  0.6667E+01  0.1596E+03
     16.734  0.7000E+01  0.1608E+03
     16.901  0.6970E+01  0.1620E+03
     17.067  0.7171E+01  0.1631E+03
     17.233  0.7560E+01  0.1644E+03
     17.399  0.7256E+01  0.1656E+03
     17.566  0.7619E+01  0.1669E+03
     17.732  0.7652E+01  0.1681E+03
     17.898  0.7227E+01  0.1693E+03
     18.064  0.6805E+01  0.1705E+03
     18.230  0.6924E+01  0.1716E+03
     18.397  0.7576E+01  0.1729E+03
     18.563  0.7192E+01  0.1741E+03
     18.729  0.7661E+01  0.1754E+03
     18.895  0.7307E+01  0.1766E+03
     19.062  0.7241E+01  0.1778E+03
     19.228  0.6491E+01  0.1789E+03
     19.394  0.6670E+01  0.1800E+03
     19.560  0.6794E+01  0.1811E+03
     19.726  0.7195E+01  0.1823E+03
     19.893  0.6984E+01  0.1834E+03
     20.059  0.6008E+01  0.1844E+03
     20.225  0.5263E+01  0.1853E+03
     20.391  0.5655E+01  0.1863E+03
     20.558  0.5237E+01  0.1871E+03
     20.724  0.4653E+01  0.1879E+03
     20.890  0.3706E+01  0.1885E+03
     21.056  0.3784E+01  0.1892E+03
     21.222  0.3986E+01  0.1898E+03
     21.389  0.3765E+01  0.1904E+03
     21.555  0.3765E+01  0.1911E+03
     21.721  0.2321E+01  0.1915E+03
     21.887  0.1455E+01  0.1917E+03
     22.054  0.7642E+00  0.1918E+03
     22.220  0.5844E+00  0.1919E+03
     22.386  0.2972E+00  0.1920E+03
     22.552  0.1890E+00  0.1920E+03
     22.719  0.9594E-02  0.1920E+03
     22.885  0.6567E-05  0.1920E+03
     23.051  0.2761E-10  0.1920E+03
     23.217  0.0000E+00  0.1920E+03
     23.383  0.0000E+00  0.1920E+03
     23.550  0.0000E+00  0.1920E+03
     23.716  0.0000E+00  0.1920E+03
     23.882  0.0000E+00  0.1920E+03
     24.048  0.0000E+00  0.1920E+03
     24.215  0.0000E+00  0.1920E+03
     24.381  0.0000E+00  0.1920E+03
     24.547  0.0000E+00  0.1920E+03
     24.713  0.0000E+00  0.1920E+03
     24.71321840    -25.15433524  301     -0.37921500      1.00000000
    -25.154  0.0000E+00  0.0000E+00  0.0000E+00  0.0000E+00  0.0000E+00  0.0000E+00  0.0000E+00  0.0000E+00  0.0000E+00
    -24.988  0.0000E+00  0.0000E+00  0.0000E+00  0.0000E+00  0.0000E+00  0.0000E+00  0.0000E+00  0.0000E+00  0.0000E+00
    -24.822  0.0000E+00  0.0000E+00  0.0000E+00  0.0000E+00  0.0000E+00  0.0000E+00  0.0000E+00  0.0000E+00  0.0000E+00
    -24.656  0.0000E+00  0.0000E+00  0.0000E+00  0.0000E+00  0.0000E+00  0.0000E+00  0.0000E+00  0.0000E+00  0.0000E+00
    -24.489  0.0000E+00  0.0000E+00  0.0000E+00  0.0000E+00  0.0000E+00  0.0000E+00  0.0000E+00  0.0000E+00  0.0000E+00
    -24.323  0.0000E+00  0.0000E+00  0.0000E+00  0.0000E+00  0.0000E+00  0.0000E+00  0.0000E+00  0.0000E+00  0.0000E+00
    -24.157  0.0000E+00  0.0000E+00  0.0000E+00  0.0000E+00  0.0000E+00  0.0000E+00  0.0000E+00  0.0000E+00  0.0000E+00
    -23.991  0.0000E+00  0.0000E+00  0.0000E+00  0.0000E+00  0.0000E+00  0.0000E+00  0.0000E+00  0.0000E+00  0.0000E+00
    -23.825  0.0000E+00  0.0000E+00  0.0000E+00  0.0000E+00  0.0000E+00  0.0000E+00  0.0000E+00  0.0000E+00  0.0000E+00
    -23.658  0.0000E+00  0.0000E+00  0.0000E+00  0.0000E+00  0.0000E+00  0.0000E+00  0.0000E+00  0.0000E+00  0.0000E+00
    -23.492  0.0000E+00  0.0000E+00  0.0000E+00  0.0000E+00  0.0000E+00  0.0000E+00  0.0000E+00  0.0000E+00  0.0000E+00
    -23.326  0.9654E-15  0.2959E-18  0.5028E-16  0.2960E-18  0.0000E+00  0.0000E+00  0.0000E+00  0.0000E+00  0.0000E+00
    -23.160  0.3025E-09  0.1466E-12  0.1574E-10  0.1467E-12  0.0000E+00  0.0000E+00  0.0000E+00  0.0000E+00  0.0000E+00
    -22.993  0.6414E-06  0.5400E-09  0.3333E-07  0.5402E-09  0.0000E+00  0.0000E+00  0.0000E+00  0.0000E+00  0.0000E+00
    -22.827  0.2027E-04  0.3711E-07  0.1047E-05  0.3712E-07  0.0000E+00  0.0000E+00  0.0000E+00  0.0000E+00  0.0000E+00
    -22.661  0.4868E-04  0.2206E-06  0.2470E-05  0.2207E-06  0.0000E+00  0.0000E+00  0.0000E+00  0.0000E+00  0.0000E+00
    -22.495  0.5111E-04  0.4649E-06  0.2514E-05  0.4649E-06  0.0000E+00  0.0000E+00  0.0000E+00  0.0000E+00  0.0000E+00
    -22.329  0.5146E-04  0.7038E-06  0.2446E-05  0.7038E-06  0.0000E+00  0.0000E+00  0.0000E+00  0.0000E+00  0.0000E+00
    -22.162  0.5340E-04  0.9693E-06  0.2448E-05  0.9694E-06  0.0000E+00  0.0000E+00  0.0000E+00  0.0000E+00  0.0000E+00
    -21.996  0.5339E-04  0.1202E-05  0.2345E-05  0.1202E-05  0.0000E+00  0.0000E+00  0.0000E+00  0.0000E+00  0.0000E+00
    -21.830  0.5045E-04  0.1303E-05  0.2132E-05  0.1304E-05  0.0000E+00  0.0000E+00  0.0000E+00  0.0000E+00  0.0000E+00
    -21.664  0.6029E-04  0.1773E-05  0.2427E-05  0.1773E-05  0.0000E+00  0.0000E+00  0.0000E+00  0.0000E+00  0.0000E+00
    -21.497  0.5199E-04  0.1691E-05  0.1969E-05  0.1692E-05  0.0000E+00  0.0000E+00  0.0000E+00  0.0000E+00  0.0000E+00
    -21.331  0.6384E-04  0.2195E-05  0.2299E-05  0.2196E-05  0.0000E+00  0.0000E+00  0.0000E+00  0.0000E+00  0.0000E+00
    -21.165  0.5748E-04  0.2101E-05  0.1902E-05  0.2102E-05  0.0000E+00  0.0000E+00  0.0000E+00  0.0000E+00  0.0000E+00
    -20.999  0.7031E-04  0.2695E-05  0.2189E-05  0.2696E-05  0.0000E+00  0.0000E+00  0.0000E+00  0.0000E+00  0.0000E+00
    -20.832  0.5898E-04  0.2274E-05  0.1642E-05  0.2275E-05  0.0000E+00  0.0000E+00  0.0000E+00  0.0000E+00  0.0000E+00
    -20.666  0.8674E-04  0.3365E-05  0.2224E-05  0.3367E-05  0.0000E+00  0.0000E+00  0.0000E+00  0.0000E+00  0.0000E+00
    -20.500  0.6716E-04  0.2408E-05  0.1488E-05  0.2409E-05  0.0000E+00  0.0000E+00  0.0000E+00  0.0000E+00  0.0000E+00
    -20.334  0.1117E-03  0.3861E-05  0.2128E-05  0.3863E-05  0.0000E+00  0.0000E+00  0.0000E+00  0.0000E+00  0.0000E+00
    -20.168  0.9444E-04  0.2803E-05  0.1516E-05  0.2805E-05  0.0000E+00  0.0000E+00  0.0000E+00  0.0000E+00  0.0000E+00
    -20.001  0.1324E-03  0.3251E-05  0.1599E-05  0.3254E-05  0.0000E+00  0.0000E+00  0.0000E+00  0.0000E+00  0.0000E+00
    -19.835  0.8682E-03  0.4326E-05  0.1949E-05  0.4330E-05  0.0000E+00  0.0000E+00  0.0000E+00  0.0000E+00  0.0000E+00
    -19.669  0.6236E-01  0.5328E-04  0.3306E-05  0.5328E-04  0.0000E+00  0.0000E+00  0.0000E+00  0.0000E+00  0.0000E+00
    -19.503  0.2740E+00  0.5110E-03  0.1133E-04  0.5110E-03  0.0000E+00  0.0000E+00  0.0000E+00  0.0000E+00  0.0000E+00
    -19.336  0.3607E+00  0.1205E-02  0.1405E-04  0.1205E-02  0.0000E+00  0.0000E+00  0.0000E+00  0.0000E+00  0.0000E+00
    -19.170  0.4622E+00  0.1706E-02  0.1873E-04  0.1706E-02  0.0000E+00  0.0000E+00  0.0000E+00  0.0000E+00  0.0000E+00
    -19.004  0.7710E+00  0.1637E-02  0.3172E-04  0.1636E-02  0.0000E+00  0.0000E+00  0.0000E+00  0.0000E+00  0.0000E+00
    -18.838  0.6538E+00  0.5951E-03  0.2800E-04  0.5950E-03  0.0000E+00  0.0000E+00  0.0000E+00  0.0000E+00  0.0000E+00
    -18.672  0.5504E-01  0.3372E-04  0.3584E-05  0.3372E-04  0.0000E+00  0.0000E+00  0.0000E+00  0.0000E+00  0.0000E+00
    -18.505  0.2457E-03  0.1175E-04  0.1947E-05  0.1176E-04  0.0000E+00  0.0000E+00  0.0000E+00  0.0000E+00  0.0000E+00
    -18.339  0.4963E-04  0.1194E-04  0.1810E-05  0.1195E-04  0.0000E+00  0.0000E+00  0.0000E+00  0.0000E+00  0.0000E+00
    -18.173  0.5763E-05  0.8031E-05  0.1120E-05  0.8040E-05  0.0000E+00  0.0000E+00  0.0000E+00  0.0000E+00  0.0000E+00
    -18.007  0.1198E-04  0.1256E-04  0.1697E-05  0.1258E-04  0.0000E+00  0.0000E+00  0.0000E+00  0.0000E+00  0.0000E+00
    -17.840  0.7741E-05  0.1413E-04  0.1751E-05  0.1415E-04  0.0000E+00  0.0000E+00  0.0000E+00  0.0000E+00  0.0000E+00
    -17.674  0.7496E-06  0.9881E-05  0.1134E-05  0.9893E-05  0.0000E+00  0.0000E+00  0.0000E+00  0.0000E+00  0.0000E+00
    -17.508  0.1350E-05  0.1396E-04  0.1420E-05  0.1399E-04  0.0000E+00  0.0000E+00  0.0000E+00  0.0000E+00  0.0000E+00
    -17.342  0.2031E-05  0.2118E-04  0.1849E-05  0.2123E-04  0.0000E+00  0.0000E+00  0.0000E+00  0.0000E+00  0.0000E+00
    -17.176  0.1830E-04  0.9679E-03  0.1477E-05  0.9667E-03  0.0000E+00  0.0000E+00  0.0000E+00  0.0000E+00  0.0000E+00
    -17.009  0.1603E-02  0.3968E-01  0.1446E-05  0.3965E-01  0.0000E+00  0.0000E+00  0.0000E+00  0.0000E+00  0.0000E+00
    -16.843  0.1185E-01  0.1233E+00  0.2850E-05  0.1233E+00  0.0000E+00  0.0000E+00  0.0000E+00  0.0000E+00  0.0000E+00
    -16.677  0.2522E-01  0.1352E+00  0.2805E-05  0.1352E+00  0.0000E+00  0.0000E+00  0.0000E+00  0.0000E+00  0.0000E+00
    -16.511  0.2556E-01  0.8878E-01  0.1829E-05  0.8877E-01  0.0000E+00  0.0000E+00  0.0000E+00  0.0000E+00  0.0000E+00
    -16.344  0.2340E-01  0.9197E-01  0.2324E-05  0.9196E-01  0.0000E+00  0.0000E+00  0.0000E+00  0.0000E+00  0.0000E+00
    -16.178  0.2068E-01  0.1046E+00  0.2010E-05  0.1046E+00  0.0000E+00  0.0000E+00  0.0000E+00  0.0000E+00  0.0000E+00
    -16.012  0.1751E-01  0.1284E+00  0.1081E-05  0.1284E+00  0.0000E+00  0.0000E+00  0.0000E+00  0.0000E+00  0.0000E+00
    -15.846  0.1542E-01  0.1817E+00  0.1480E-05  0.1817E+00  0.0000E+00  0.0000E+00  0.0000E+00  0.0000E+00  0.0000E+00
    -15.680  0.1192E-01  0.2568E+00  0.1556E-05  0.2567E+00  0.0000E+00  0.0000E+00  0.0000E+00  0.0000E+00  0.0000E+00
    -15.513  0.5630E-02  0.2031E+00  0.8598E-06  0.2031E+00  0.0000E+00  0.0000E+00  0.0000E+00  0.0000E+00  0.0000E+00
    -15.347  0.1524E-02  0.1248E+00  0.8592E-06  0.1248E+00  0.0000E+00  0.0000E+00  0.0000E+00  0.0000E+00  0.0000E+00
    -15.181  0.9929E-04  0.1661E-01  0.6128E-06  0.1664E-01  0.0000E+00  0.0000E+00  0.0000E+00  0.0000E+00  0.0000E+00
    -15.015  0.9148E-05  0.1678E-03  0.7066E-06  0.1685E-03  0.0000E+00  0.0000E+00  0.0000E+00  0.0000E+00  0.0000E+00
    -14.848  0.3656E-05  0.3298E-04  0.7202E-06  0.3307E-04  0.0000E+00  0.0000E+00  0.0000E+00  0.0000E+00  0.0000E+00
    -14.682  0.5624E-05  0.1744E-04  0.1053E-05  0.1753E-04  0.0000E+00  0.0000E+00  0.0000E+00  0.0000E+00  0.0000E+00
    -14.516  0.3375E-05  0.7977E-05  0.7914E-06  0.8024E-05  0.0000E+00  0.0000E+00  0.0000E+00  0.0000E+00  0.0000E+00
    -14.350  0.3404E-05  0.4293E-05  0.7125E-06  0.4327E-05  0.0000E+00  0.0000E+00  0.0000E+00  0.0000E+00  0.0000E+00
    -14.183  0.3797E-05  0.3391E-05  0.7427E-06  0.3424E-05  0.0000E+00  0.0000E+00  0.0000E+00  0.0000E+00  0.0000E+00
    -14.017  0.2436E-05  0.1325E-05  0.6323E-06  0.1341E-05  0.0000E+00  0.0000E+00  0.0000E+00  0.0000E+00  0.0000E+00
    -13.851  0.3634E-05  0.1547E-05  0.6108E-06  0.1566E-05  0.0000E+00  0.0000E+00  0.0000E+00  0.0000E+00  0.0000E+00
    -13.685  0.2391E-05  0.6733E-06  0.5657E-06  0.6843E-06  0.0000E+00  0.0000E+00  0.0000E+00  0.0000E+00  0.0000E+00
    -13.519  0.3110E-05  0.9958E-06  0.5729E-06  0.1006E-05  0.0000E+00  0.0000E+00  0.0000E+00  0.0000E+00  0.0000E+00
    -13.352  0.2818E-05  0.7179E-06  0.5090E-06  0.7253E-06  0.0000E+00  0.0000E+00  0.0000E+00  0.0000E+00  0.0000E+00
    -13.186  0.2355E-05  0.7018E-06  0.4438E-06  0.7060E-06  0.0000E+00  0.0000E+00  0.0000E+00  0.0000E+00  0.0000E+00
    -13.020  0.3418E-05  0.1385E-05  0.5687E-06  0.1389E-05  0.0000E+00  0.0000E+00  0.0000E+00  0.0000E+00  0.0000E+00
    -12.854  0.2369E-05  0.1005E-05  0.3025E-06  0.1003E-05  0.0000E+00  0.0000E+00  0.0000E+00  0.0000E+00  0.0000E+00
    -12.687  0.3782E-05  0.2587E-05  0.5625E-06  0.2580E-05  0.0000E+00  0.0000E+00  0.0000E+00  0.0000E+00  0.0000E+00
    -12.521  0.3436E-05  0.3205E-05  0.3596E-06  0.3188E-05  0.0000E+00  0.0000E+00  0.0000E+00  0.0000E+00  0.0000E+00
    -12.355  0.6472E-03  0.2346E-03  0.3949E-06  0.2348E-03  0.0000E+00  0.0000E+00  0.0000E+00  0.0000E+00  0.0000E+00
    -12.189  0.2158E-01  0.8294E-02  0.2122E-05  0.8299E-02  0.0000E+00  0.0000E+00  0.0000E+00  0.0000E+00  0.0000E+00
    -12.023  0.5855E-01  0.2257E-01  0.4910E-05  0.2258E-01  0.0000E+00  0.0000E+00  0.0000E+00  0.0000E+00  0.0000E+00
    -11.856  0.1119E+00  0.3307E-01  0.9828E-05  0.3308E-01  0.0000E+00  0.0000E+00  0.0000E+00  0.0000E+00  0.0000E+00
    -11.690  0.1634E+00  0.3536E-01  0.1517E-04  0.3536E-01  0.0000E+00  0.0000E+00  0.0000E+00  0.0000E+00  0.0000E+00
    -11.524  0.1101E+00  0.4956E-01  0.1010E-04  0.4957E-01  0.0000E+00  0.0000E+00  0.0000E+00  0.0000E+00  0.0000E+00
    -11.358  0.3907E-01  0.4273E-01  0.3995E-05  0.4273E-01  0.0000E+00  0.0000E+00  0.0000E+00  0.0000E+00  0.0000E+00
    -11.191  0.3219E-01  0.5307E-01  0.3514E-05  0.5308E-01  0.0000E+00  0.0000E+00  0.0000E+00  0.0000E+00  0.0000E+00
    -11.025  0.6713E-01  0.6345E-01  0.7091E-05  0.6345E-01  0.0000E+00  0.0000E+00  0.0000E+00  0.0000E+00  0.0000E+00
    -10.859  0.3689E-01  0.4024E-01  0.4408E-05  0.4024E-01  0.0000E+00  0.0000E+00  0.0000E+00  0.0000E+00  0.0000E+00
    -10.693  0.7337E-01  0.6699E-01  0.8020E-05  0.6699E-01  0.0000E+00  0.0000E+00  0.0000E+00  0.0000E+00  0.0000E+00
    -10.527  0.2217E-01  0.3807E-01  0.3244E-05  0.3807E-01  0.0000E+00  0.0000E+00  0.0000E+00  0.0000E+00  0.0000E+00
    -10.360  0.6864E-01  0.9931E-01  0.8312E-05  0.9931E-01  0.0000E+00  0.0000E+00  0.0000E+00  0.0000E+00  0.0000E+00
    -10.194  0.2061E-01  0.6122E-01  0.3528E-05  0.6122E-01  0.0000E+00  0.0000E+00  0.0000E+00  0.0000E+00  0.0000E+00
    -10.028  0.2591E-01  0.8741E-01  0.4717E-05  0.8741E-01  0.0000E+00  0.0000E+00  0.0000E+00  0.0000E+00  0.0000E+00
     -9.862  0.2687E-01  0.9259E-01  0.3090E-04  0.9259E-01  0.0000E+00  0.0000E+00  0.0000E+00  0.0000E+00  0.0000E+00
     -9.695  0.9409E-02  0.7590E-01  0.1423E-02  0.7590E-01  0.0000E+00  0.0000E+00  0.0000E+00  0.0000E+00  0.0000E+00
     -9.529  0.2242E-01  0.1144E+00  0.4523E-02  0.1144E+00  0.0000E+00  0.0000E+00  0.0000E+00  0.0000E+00  0.0000E+00
     -9.363  0.3190E-01  0.8634E-01  0.5025E-02  0.8635E-01  0.0000E+00  0.0000E+00  0.0000E+00  0.0000E+00  0.0000E+00
     -9.197  0.4677E-01  0.9666E-01  0.5024E-02  0.9666E-01  0.0000E+00  0.0000E+00  0.0000E+00  0.0000E+00  0.0000E+00
     -9.030  0.5059E-01  0.1033E+00  0.5146E-02  0.1033E+00  0.0000E+00  0.0000E+00  0.0000E+00  0.0000E+00  0.0000E+00
     -8.864  0.1224E-01  0.1710E-01  0.5808E-02  0.1710E-01  0.0000E+00  0.0000E+00  0.0000E+00  0.0000E+00  0.0000E+00
     -8.698  0.2745E-03  0.4729E-03  0.5031E-02  0.4730E-03  0.0000E+00  0.0000E+00  0.0000E+00  0.0000E+00  0.0000E+00
     -8.532  0.1076E-04  0.2426E-03  0.6422E-02  0.2426E-03  0.0000E+00  0.0000E+00  0.0000E+00  0.0000E+00  0.0000E+00
     -8.366  0.1185E-04  0.5561E-03  0.5594E-02  0.5561E-03  0.0000E+00  0.0000E+00  0.0000E+00  0.0000E+00  0.0000E+00
     -8.199  0.1957E-04  0.3341E-03  0.7397E-02  0.3341E-03  0.0000E+00  0.0000E+00  0.0000E+00  0.0000E+00  0.0000E+00
     -8.033  0.1898E-04  0.1109E-02  0.6375E-02  0.1109E-02  0.0000E+00  0.0000E+00  0.0000E+00  0.0000E+00  0.0000E+00
     -7.867  0.4645E-04  0.8216E-03  0.2297E-01  0.8216E-03  0.0000E+00  0.0000E+00  0.0000E+00  0.0000E+00  0.0000E+00
     -7.701  0.5602E-04  0.1079E-02  0.8722E-01  0.1079E-02  0.0000E+00  0.0000E+00  0.0000E+00  0.0000E+00  0.0000E+00
     -7.534  0.9485E-04  0.2182E-02  0.1171E+00  0.2182E-02  0.0000E+00  0.0000E+00  0.0000E+00  0.0000E+00  0.0000E+00
     -7.368  0.2706E-03  0.2571E-02  0.1196E+00  0.2572E-02  0.0000E+00  0.0000E+00  0.0000E+00  0.0000E+00  0.0000E+00
     -7.202  0.1902E-02  0.1139E-01  0.1342E+00  0.1139E-01  0.0000E+00  0.0000E+00  0.0000E+00  0.0000E+00  0.0000E+00
     -7.036  0.8215E-02  0.2342E-01  0.1635E+00  0.2342E-01  0.0000E+00  0.0000E+00  0.0000E+00  0.0000E+00  0.0000E+00
     -6.870  0.1136E-01  0.2169E-01  0.2073E+00  0.2168E-01  0.0000E+00  0.0000E+00  0.0000E+00  0.0000E+00  0.0000E+00
     -6.703  0.6534E-02  0.1721E-01  0.1451E+00  0.1721E-01  0.0000E+00  0.0000E+00  0.0000E+00  0.0000E+00  0.0000E+00
     -6.537  0.7787E-02  0.2907E-01  0.1457E+00  0.2907E-01  0.0000E+00  0.0000E+00  0.0000E+00  0.0000E+00  0.0000E+00
     -6.371  0.3861E-01  0.6531E-01  0.2702E+00  0.6532E-01  0.0000E+00  0.0000E+00  0.0000E+00  0.0000E+00  0.0000E+00
     -6.205  0.2670E-01  0.3239E-01  0.9446E-01  0.3239E-01  0.0000E+00  0.0000E+00  0.0000E+00  0.0000E+00  0.0000E+00
     -6.038  0.4705E-02  0.6262E-02  0.5546E-01  0.6263E-02  0.0000E+00  0.0000E+00  0.0000E+00  0.0000E+00  0.0000E+00
     -5.872  0.5963E-02  0.6192E-02  0.1397E-01  0.6190E-02  0.0000E+00  0.0000E+00  0.0000E+00  0.0000E+00  0.0000E+00
     -5.706  0.1399E-02  0.2998E-02  0.3161E-03  0.2998E-02  0.0000E+00  0.0000E+00  0.0000E+00  0.0000E+00  0.0000E+00
     -5.540  0.1414E-02  0.3523E-02  0.8954E-03  0.3523E-02  0.0000E+00  0.0000E+00  0.0000E+00  0.0000E+00  0.0000E+00
     -5.374  0.4165E-02  0.7723E-02  0.3844E-03  0.7723E-02  0.0000E+00  0.0000E+00  0.0000E+00  0.0000E+00  0.0000E+00
     -5.207  0.5903E-02  0.6288E-02  0.7654E-04  0.6287E-02  0.0000E+00  0.0000E+00  0.0000E+00  0.0000E+00  0.0000E+00
     -5.041  0.7404E-02  0.1646E-01  0.1482E-03  0.1646E-01  0.0000E+00  0.0000E+00  0.0000E+00  0.0000E+00  0.0000E+00
     -4.875  0.5957E-02  0.2241E-01  0.1936E-03  0.2241E-01  0.0000E+00  0.0000E+00  0.0000E+00  0.0000E+00  0.0000E+00
     -4.709  0.3365E-02  0.1494E-01  0.6716E-03  0.1493E-01  0.0000E+00  0.0000E+00  0.0000E+00  0.0000E+00  0.0000E+00
     -4.542  0.1896E-02  0.1288E-01  0.4186E-02  0.1288E-01  0.0000E+00  0.0000E+00  0.0000E+00  0.0000E+00  0.0000E+00
     -4.376  0.1754E-02  0.1260E-01  0.1115E-01  0.1260E-01  0.0000E+00  0.0000E+00  0.0000E+00  0.0000E+00  0.0000E+00
     -4.210  0.9362E-03  0.1009E-01  0.1716E-01  0.1009E-01  0.0000E+00  0.0000E+00  0.0000E+00  0.0000E+00  0.0000E+00
     -4.044  0.5396E-03  0.8946E-02  0.2110E-01  0.8946E-02  0.0000E+00  0.0000E+00  0.0000E+00  0.0000E+00  0.0000E+00
     -3.878  0.3213E-03  0.7475E-02  0.2218E-01  0.7474E-02  0.0000E+00  0.0000E+00  0.0000E+00  0.0000E+00  0.0000E+00
     -3.711  0.1199E-03  0.5822E-02  0.1729E-01  0.5821E-02  0.0000E+00  0.0000E+00  0.0000E+00  0.0000E+00  0.0000E+00
     -3.545  0.4629E-04  0.2094E-02  0.2141E-01  0.2092E-02  0.0000E+00  0.0000E+00  0.0000E+00  0.0000E+00  0.0000E+00
     -3.379  0.2632E-04  0.7235E-04  0.1836E-01  0.7251E-04  0.0000E+00  0.0000E+00  0.0000E+00  0.0000E+00  0.0000E+00
     -3.213  0.4174E-04  0.1688E-04  0.1892E-01  0.1745E-04  0.0000E+00  0.0000E+00  0.0000E+00  0.0000E+00  0.0000E+00
     -3.046  0.3764E-04  0.1609E-04  0.1717E-01  0.1663E-04  0.0000E+00  0.0000E+00  0.0000E+00  0.0000E+00  0.0000E+00
     -2.880  0.2033E-04  0.8106E-05  0.1675E-01  0.8318E-05  0.0000E+00  0.0000E+00  0.0000E+00  0.0000E+00  0.0000E+00
     -2.714  0.1959E-04  0.8064E-05  0.1489E-01  0.8263E-05  0.0000E+00  0.0000E+00  0.0000E+00  0.0000E+00  0.0000E+00
     -2.548  0.1004E-04  0.1233E-04  0.1239E-01  0.1255E-04  0.0000E+00  0.0000E+00  0.0000E+00  0.0000E+00  0.0000E+00
     -2.381  0.1302E-04  0.3147E-04  0.1848E-01  0.3210E-04  0.0000E+00  0.0000E+00  0.0000E+00  0.0000E+00  0.0000E+00
     -2.215  0.7696E-05  0.1947E-04  0.1158E-01  0.1986E-04  0.0000E+00  0.0000E+00  0.0000E+00  0.0000E+00  0.0000E+00
     -2.049  0.8577E-05  0.1392E-04  0.8414E-02  0.1422E-04  0.0000E+00  0.0000E+00  0.0000E+00  0.0000E+00  0.0000E+00
     -1.883  0.1427E-04  0.1581E-04  0.8318E-02  0.1618E-04  0.0000E+00  0.0000E+00  0.0000E+00  0.0000E+00  0.0000E+00
     -1.717  0.5290E-05  0.8316E-05  0.3913E-02  0.8503E-05  0.0000E+00  0.0000E+00  0.0000E+00  0.0000E+00  0.0000E+00
     -1.550  0.4721E-05  0.7969E-05  0.4235E-02  0.8145E-05  0.0000E+00  0.0000E+00  0.0000E+00  0.0000E+00  0.0000E+00
     -1.384  0.6737E-05  0.8089E-05  0.1544E-02  0.8298E-05  0.0000E+00  0.0000E+00  0.0000E+00  0.0000E+00  0.0000E+00
     -1.218  0.6207E-05  0.6189E-05  0.8494E-03  0.6369E-05  0.0000E+00  0.0000E+00  0.0000E+00  0.0000E+00  0.0000E+00
     -1.052  0.2136E-05  0.1336E-05  0.6412E-04  0.1385E-05  0.0000E+00  0.0000E+00  0.0000E+00  0.0000E+00  0.0000E+00
     -0.885  0.2662E-05  0.1161E-05  0.5971E-04  0.1196E-05  0.0000E+00  0.0000E+00  0.0000E+00  0.0000E+00  0.0000E+00
     -0.719  0.2928E-05  0.1164E-05  0.6305E-04  0.1190E-05  0.0000E+00  0.0000E+00  0.0000E+00  0.0000E+00  0.0000E+00
     -0.553  0.1979E-05  0.7847E-06  0.4256E-04  0.8021E-06  0.0000E+00  0.0000E+00  0.0000E+00  0.0000E+00  0.0000E+00
     -0.387  0.2372E-07  0.9406E-08  0.5101E-06  0.9613E-08  0.0000E+00  0.0000E+00  0.0000E+00  0.0000E+00  0.0000E+00
     -0.221  0.1413E-07  0.5944E-08  0.2991E-06  0.6041E-08  0.0000E+00  0.0000E+00  0.0000E+00  0.0000E+00  0.0000E+00
     -0.054  0.1799E-05  0.7578E-06  0.3810E-04  0.7690E-06  0.0000E+00  0.0000E+00  0.0000E+00  0.0000E+00  0.0000E+00
      0.112  0.3709E-05  0.1568E-05  0.7891E-04  0.1589E-05  0.0000E+00  0.0000E+00  0.0000E+00  0.0000E+00  0.0000E+00
      0.278  0.3738E-05  0.1727E-05  0.9016E-04  0.1735E-05  0.0000E+00  0.0000E+00  0.0000E+00  0.0000E+00  0.0000E+00
      0.444  0.2923E-05  0.1352E-05  0.7190E-04  0.1360E-05  0.0000E+00  0.0000E+00  0.0000E+00  0.0000E+00  0.0000E+00
      0.611  0.1007E-04  0.4764E-05  0.2702E-03  0.4789E-05  0.0000E+00  0.0000E+00  0.0000E+00  0.0000E+00  0.0000E+00
      0.777  0.1285E-04  0.7452E-05  0.4371E-03  0.7435E-05  0.0000E+00  0.0000E+00  0.0000E+00  0.0000E+00  0.0000E+00