       N       E                     dE             d eps       ncg     rms          ort
SDA:   1    -0.143238323192E+03   -0.14324E+03   -0.14282E+00 13920   0.357E+00 0.000E+00
DMP:   2    -0.143343789916E+03   -0.10547E+00   -0.72615E-01 13920   0.117E+00 0.169E+00
DMP:   3    -0.143393628037E+03   -0.49838E-01   -0.24962E-01 13920   0.368E-01 0.670E-01
DMP:   4    -0.143410407480E+03   -0.16779E-01   -0.88926E-02 13920   0.139E-01 0.219E-01
DMP:   5    -0.143416803443E+03   -0.63960E-02   -0.40130E-02 13920   0.641E-02 0.947E-02
DMP:   6    -0.143419934142E+03   -0.31307E-02   -0.21746E-02 13920   0.339E-02 0.535E-02
DMP:   7    -0.143421695958E+03   -0.17618E-02   -0.11901E-02 13920   0.174E-02 0.324E-02
DMP:   8    -0.143422663650E+03   -0.96769E-03   -0.61061E-03 13920   0.832E-03 0.182E-02
DMP:   9    -0.143423159559E+03   -0.49591E-03   -0.29785E-03 13920   0.387E-03 0.937E-03
DMP:  10    -0.143423401494E+03   -0.24194E-03   -0.13966E-03 13920   0.174E-03 0.458E-03
DMP:  11    -0.143423515616E+03   -0.11412E-03   -0.65003E-04 13920   0.793E-04 0.218E-03
DMP:  12    -0.143423569234E+03   -0.53618E-04   -0.30408E-04 13920   0.364E-04 0.104E-03
DMP:  13    -0.143423594422E+03   -0.25188E-04   -0.14068E-04 13920   0.164E-04 0.491E-04
DMP:  14    -0.143423606069E+03   -0.11647E-04   -0.63878E-05 13920   0.730E-05 0.227E-04
DMP:  15    -0.143423611363E+03   -0.52944E-05   -0.28848E-05 13920   0.327E-05 0.103E-04
DMP:  16    -0.143423613771E+03   -0.24071E-05   -0.13218E-05 13920   0.151E-05 0.470E-05
DMP:  17    -0.143423614888E+03   -0.11172E-05   -0.62666E-06 13920   0.727E-06 0.220E-05
DMP:  18    -0.143423615427E+03   -0.53930E-06   -0.31295E-06 13920   0.373E-06 0.107E-05
   1 F= -.14342362E+03 E0= -.14342362E+03  d E =-.690618E-08
       N       E                     dE             ncg
DAV:   1    -0.150630838712E+05   -0.10608E+06    27648
DAV:   2    -0.497317758315E+05   -0.34669E+05    36864
DAV:   3    -0.514265066381E+05   -0.16947E+04    36864
DAV:   4    -0.514869468131E+05   -0.60440E+02    36864
DAV:   5    -0.514897656139E+05   -0.28188E+01    36864
DAV:   6    -0.514899230246E+05   -0.15741E+00    36864
DAV:   7    -0.514899327001E+05   -0.96755E-02    36864
DAV:   8    -0.514899333433E+05   -0.64316E-03    36864
DAV:   9    -0.514899333884E+05   -0.45177E-04    36864
DAV:  10    -0.514899333918E+05   -0.33327E-05    36864
DAV:  11    -0.514899333920E+05   -0.25559E-06    36864
