Lattice                                 
           1
     4.408069    2.545000    0.000000
    -4.408069    2.545000    0.000000
     0.000000    0.000000   15.000000
   B    C 
     2    14
Direct configuration=     1
   0.33833034  0.66916432  0.10000000
   0.67165522  0.33584146  0.10000000
   0.16373946  0.31999962  0.10000000
   0.32250218  0.16126397  0.10000000
   0.16376430  0.84376384  0.10000000
   0.84623863  0.16123684  0.10000000
   0.68749850  0.84373000  0.10000000
   0.84626736  0.68499594  0.10000000
   0.24999933  0.24999967  0.32633333
   0.41666633  0.08333267  0.32633333
   0.24999933  0.74999967  0.32633333
   0.41666633  0.58333267  0.32633333
   0.74999933  0.24999967  0.32633333
   0.91666633  0.08333267  0.32633333
   0.74999933  0.74999967  0.32633333
   0.91666633  0.58333267  0.32633333
Direct configuration=     2
   0.33844361  0.66905212  0.10014714
   0.67179527  0.33569912  0.10008531
   0.16579802  0.32406239  0.09993647
   0.32624757  0.16317029  0.09996749
   0.16562210  0.84190186  0.09994812
   0.84418404  0.16327743  0.09995505
   0.68345267  0.84169885  0.09993668
   0.84433647  0.68126039  0.09996774
   0.24985821  0.24958714  0.32641094
   0.41629962  0.08328335  0.32640247
   0.24982388  0.75018699  0.32627218
   0.41676871  0.58322644  0.32623141
   0.75003230  0.24995797  0.32620900
   0.91687370  0.08311751  0.32638706
   0.75041190  0.75014709  0.32641249
   0.91671060  0.58369640  0.32639712
Direct configuration=     3
   0.33836349  0.66913149  0.10004306
   0.67169620  0.33579980  0.10002496
   0.16434188  0.32118855  0.09998141
   0.32359823  0.16182183  0.09999049
   0.16430797  0.84321895  0.09998482
   0.84563738  0.16183400  0.09998685
   0.68631453  0.84313561  0.09998147
   0.84570230  0.68390277  0.09999056
   0.24995803  0.24987894  0.32635604
   0.41655902  0.08331823  0.32635357
   0.24994799  0.75005448  0.32631544
   0.41669629  0.58330158  0.32630351
   0.75000898  0.24998746  0.32629695
   0.91672702  0.08326970  0.32634906
   0.75012007  0.75004281  0.32635650
   0.91667929  0.58343911  0.32635200
Direct configuration=     4
   0.33836429  0.66913600  0.10013963
   0.67169674  0.33579891  0.10008163
   0.16428640  0.32118747  0.09994025
   0.32359894  0.16185883  0.09996420
   0.16428378  0.84322884  0.09995373
   0.84566567  0.16182555  0.09995157
   0.68630770  0.84319615  0.09994046
   0.84566134  0.68390697  0.09996456
   0.24995288  0.24982103  0.32641029
   0.41652648  0.08329079  0.32639511
   0.24993097  0.75007078  0.32627754
   0.41671883  0.58327882  0.32623833
   0.75001540  0.24997869  0.32622223
   0.91676703  0.08322835  0.32638551
   0.75017623  0.75004681  0.32641158
   0.91670600  0.58347134  0.32639005
Direct configuration=     5
   0.33836449  0.66913713  0.10016378
   0.67169687  0.33579868  0.10009579
   0.16427253  0.32118719  0.09992996
   0.32359911  0.16186808  0.09995762
   0.16427773  0.84323132  0.09994596
   0.84567274  0.16182344  0.09994275
   0.68630599  0.84321129  0.09993020
   0.84565110  0.68390802  0.09995806
   0.24995159  0.24980655  0.32642385
   0.41651835  0.08328393  0.32640550
   0.24992671  0.75007486  0.32626807
   0.41672447  0.58327313  0.32622204
   0.75001701  0.24997649  0.32620356
   0.91677703  0.08321802  0.32639462
   0.75019027  0.75004782  0.32642535
   0.91671267  0.58347939  0.32639956
Direct configuration=     6
   0.33830046  0.66918229  0.10022723
   0.67169592  0.33581411  0.10013649
   0.16441775  0.32123003  0.09990284
   0.32351047  0.16182278  0.09992820
   0.16425001  0.84327767  0.09993255
   0.84557252  0.16189705  0.09990038
   0.68629537  0.84310520  0.09990341
   0.84566258  0.68398326  0.09992901
   0.25000401  0.24987059  0.32646268
   0.41661826  0.08329426  0.32641616
   0.24999925  0.75000065  0.32625054
   0.41671863  0.58327550  0.32619616
   0.75004650  0.24994856  0.32618576
   0.91674089  0.08325274  0.32642308
   0.75012623  0.74999432  0.32646392
   0.91669983  0.58337632  0.32640825
Direct configuration=     7
   0.33833697  0.66915653  0.10019104
   0.67169646  0.33580531  0.10011328
   0.16433494  0.32120560  0.09991830
   0.32356102  0.16184861  0.09994498
   0.16426582  0.84325124  0.09994020
   0.84562968  0.16185507  0.09992454
   0.68630143  0.84316570  0.09991869
   0.84565603  0.68394035  0.09994558
   0.24997411  0.24983407  0.32644054
   0.41656128  0.08328836  0.32641008
   0.24995788  0.75004297  0.32626054
   0.41672196  0.58327415  0.32621092
   0.75002968  0.24996449  0.32619591
   0.91676150  0.08323294  0.32640685
   0.75016275  0.75002483  0.32644192
   0.91670715  0.58343510  0.32640329
Direct configuration=     8
   0.33831715  0.66918565  0.10021801
   0.67165113  0.33584440  0.10012965
   0.16429456  0.32123037  0.09990311
   0.32357852  0.16184142  0.09992527
   0.16422675  0.84326845  0.09993690
   0.84564588  0.16186413  0.09989250
   0.68626487  0.84319795  0.09990384
   0.84567436  0.68393638  0.09992616
   0.25000230  0.24985446  0.32645951
   0.41661637  0.08328273  0.32640675
   0.24999542  0.75000339  0.32625661
   0.41673148  0.58326264  0.32621411
   0.75004996  0.24994359  0.32620881
   0.91675726  0.08323634  0.32642593
   0.75014107  0.74999500  0.32646022
   0.91671159  0.58337842  0.32639929
Direct configuration=     9
   0.33832533  0.66917364  0.10020688
   0.67166983  0.33582827  0.10012289
   0.16431122  0.32122015  0.09990938
   0.32357130  0.16184439  0.09993340
   0.16424287  0.84326135  0.09993826
   0.84563919  0.16186039  0.09990572
   0.68627995  0.84318465  0.09990996
   0.84566680  0.68393802  0.09993417
   0.24999067  0.24984605  0.32645168
   0.41659364  0.08328506  0.32640812
   0.24997993  0.75001972  0.32625823
   0.41672755  0.58326739  0.32621280
   0.75004159  0.24995221  0.32620349
   0.91675901  0.08323494  0.32641806
   0.75015002  0.75000731  0.32645267
   0.91670976  0.58340181  0.32640094
Direct configuration=    10
   0.33830265  0.66919775  0.10022390
   0.67165288  0.33584840  0.10012986
   0.16428197  0.32123006  0.09989466
   0.32356060  0.16188556  0.09991824
   0.16423668  0.84326766  0.09993628
   0.84563189  0.16187382  0.09987748
   0.68627079  0.84322177  0.09989558
   0.84562043  0.68394732  0.09991938
   0.25000390  0.24981522  0.32646481
   0.41660179  0.08326114  0.32640420
   0.24999039  0.75000763  0.32625710
   0.41674982  0.58324382  0.32622478
   0.75005833  0.24993335  0.32622219
   0.91678535  0.08320707  0.32643645
   0.75017890  0.74999231  0.32646507
   0.91673233  0.58339246  0.32639668
Direct configuration=    11
   0.33829207  0.66920900  0.10023184
   0.67164497  0.33585779  0.10013310
   0.16426832  0.32123468  0.09988779
   0.32355560  0.16190477  0.09991118
   0.16423380  0.84327060  0.09993536
   0.84562848  0.16188008  0.09986430
   0.68626651  0.84323908  0.09988888
   0.84559880  0.68395166  0.09991248
   0.25001006  0.24980083  0.32647093
   0.41660559  0.08324999  0.32640237
   0.24999526  0.75000199  0.32625657
   0.41676020  0.58323283  0.32623036
   0.75006614  0.24992455  0.32623092
   0.91679763  0.08319407  0.32644503
   0.75019237  0.74998531  0.32647085
   0.91674285  0.58338810  0.32639469
Direct configuration=    12
   0.33828039  0.66921908  0.10023574
   0.67163996  0.33586583  0.10012713
   0.16427582  0.32126949  0.09987227
   0.32351493  0.16190621  0.09990403
   0.16419906  0.84330633  0.09993296
   0.84559015  0.16191668  0.09984374
   0.68623921  0.84323996  0.09987373
   0.84559289  0.68399364  0.09990567
   0.25002786  0.24976680  0.32647896
   0.41661141  0.08322585  0.32640545
   0.25000955  0.74998650  0.32625800
   0.41677999  0.58321130  0.32624569
   0.75008543  0.24990369  0.32624550
   0.91682210  0.08316743  0.32646174
   0.75022496  0.74996619  0.32647842
   0.91676495  0.58338036  0.32639764
Direct configuration=    13
   0.33827579  0.66922305  0.10023727
   0.67163799  0.33586899  0.10012478
   0.16427877  0.32128318  0.09986617
   0.32349893  0.16190678  0.09990122
   0.16418539  0.84332039  0.09993202
   0.84557507  0.16193107  0.09983565
   0.68622847  0.84324031  0.09986777
   0.84559056  0.68401015  0.09990299
   0.25003486  0.24975341  0.32648212
   0.41661370  0.08321635  0.32640666
   0.25001517  0.74998041  0.32625857
   0.41678778  0.58320283  0.32625171
   0.75009302  0.24989549  0.32625124
   0.91683173  0.08315695  0.32646831
   0.75023779  0.74995867  0.32648140
   0.91677364  0.58337732  0.32639880
Direct configuration=    14
   0.33826195  0.66923998  0.10023187
   0.67161861  0.33588818  0.10011322
   0.16425552  0.32130385  0.09985345
   0.32348460  0.16191985  0.09989881
   0.16416067  0.84334127  0.09993047
   0.84556226  0.16195037  0.09982200
   0.68620664  0.84326256  0.09985538
   0.84558159  0.68402891  0.09990085
   0.25005383  0.24973765  0.32648772
   0.41663422  0.08319846  0.32641367
   0.25003489  0.74995918  0.32626258
   0.41680421  0.58318484  0.32626384
   0.75011066  0.24987650  0.32626027
   0.91684685  0.08314031  0.32647990
   0.75025216  0.74993826  0.32648684
   0.91678998  0.58335517  0.32640580
Direct configuration=    15
   0.33822044  0.66929076  0.10021568
   0.67156046  0.33594576  0.10007854
   0.16418577  0.32136588  0.09981530
   0.32344163  0.16195905  0.09989160
   0.16408652  0.84340392  0.09992581
   0.84552386  0.16200825  0.09978105
   0.68614114  0.84332930  0.09981823
   0.84555467  0.68408520  0.09989442
   0.25011073  0.24969036  0.32650453
   0.41669580  0.08314477  0.32643470
   0.25009404  0.74989549  0.32627460
   0.41685353  0.58313088  0.32630022
   0.75016359  0.24981956  0.32628736
   0.91689223  0.08309038  0.32651468
   0.75029528  0.74987703  0.32650315
   0.91683900  0.58328873  0.32642679
Direct configuration=    16
   0.33813741  0.66939234  0.10018329
   0.67144416  0.33606093  0.10000918
   0.16404626  0.32148994  0.09973899
   0.32335567  0.16203747  0.09987718
   0.16393822  0.84352922  0.09991650
   0.84544705  0.16212402  0.09969917
   0.68601014  0.84346278  0.09974392
   0.84550084  0.68419777  0.09988157
   0.25022452  0.24959579  0.32653816
   0.41681894  0.08303741  0.32647676
   0.25021234  0.74976810  0.32629866
   0.41695216  0.58302295  0.32637299
   0.75026944  0.24970567  0.32634154
   0.91698298  0.08299053  0.32658424
   0.75038152  0.74975458  0.32653578
   0.91693703  0.58315584  0.32646876
Direct configuration=    17
   0.33818374  0.66933566  0.10020136
   0.67150905  0.33599667  0.10004788
   0.16412410  0.32142072  0.09978157
   0.32340363  0.16199372  0.09988523
   0.16402097  0.84345931  0.09992169
   0.84548991  0.16205943  0.09974486
   0.68608323  0.84338830  0.09978538
   0.84553088  0.68413495  0.09988874
   0.25016102  0.24964856  0.32651940
   0.41675023  0.08309731  0.32645329
   0.25014633  0.74983918  0.32628524
   0.41689713  0.58308317  0.32633239
   0.75021037  0.24976922  0.32631130
   0.91693234  0.08304624  0.32654543
   0.75033340  0.74982291  0.32651758
   0.91688233  0.58322999  0.32644534
Direct configuration=    18
   0.33817690  0.66934287  0.10019882
   0.67150279  0.33600369  0.10004388
   0.16411806  0.32142644  0.09977745
   0.32339763  0.16200167  0.09988424
   0.16401616  0.84346501  0.09992139
   0.84548388  0.16206577  0.09974006
   0.68607824  0.84339549  0.09978137
   0.84552280  0.68414104  0.09988785
   0.25016734  0.24964275  0.32652165
   0.41675724  0.08309087  0.32645584
   0.25015290  0.74983206  0.32628714
   0.41690323  0.58307656  0.32633605
   0.75021649  0.24976257  0.32631431
   0.91693805  0.08304004  0.32654893
   0.75033869  0.74981605  0.32651979
   0.91688827  0.58322245  0.32644789
Direct configuration=    19
   0.33815639  0.66936452  0.10019120
   0.67148399  0.33602477  0.10003189
   0.16409993  0.32144362  0.09976508
   0.32337963  0.16202553  0.09988129
   0.16400176  0.84348211  0.09992050
   0.84546580  0.16208481  0.09972567
   0.68606325  0.84341707  0.09976934
   0.84549858  0.68415930  0.09988517
   0.25018629  0.24962530  0.32652839
   0.41677830  0.08307152  0.32646350
   0.25017260  0.74981071  0.32629285
   0.41692152  0.58305672  0.32634702
   0.75023484  0.24974263  0.32632334
   0.91695516  0.08302144  0.32655943
   0.75035456  0.74979547  0.32652644
   0.91690608  0.58319982  0.32645554
Direct configuration=    20
   0.33811536  0.66940780  0.10017597
   0.67144641  0.33606691  0.10000789
   0.16406368  0.32147798  0.09974035
   0.32334362  0.16207326  0.09987539
   0.16397294  0.84351632  0.09991870
   0.84542965  0.16212290  0.09969690
   0.68603327  0.84346023  0.09974528
   0.84545013  0.68419581  0.09987982
   0.25022418  0.24959041  0.32654189
   0.41682040  0.08303282  0.32647882
   0.25021200  0.74976799  0.32630428
   0.41695812  0.58301703  0.32636898
   0.75027153  0.24970275  0.32634140
   0.91698938  0.08298424  0.32658044
   0.75038629  0.74975432  0.32653973
   0.91694170  0.58315456  0.32647084
Direct configuration=    21
   0.33803331  0.66949436  0.10014549
   0.67137124  0.33615121  0.09995991
   0.16399117  0.32154669  0.09969089
   0.32327161  0.16216871  0.09986359
   0.16391531  0.84358474  0.09991510
   0.84535734  0.16219906  0.09963935
   0.68597331  0.84354655  0.09969716
   0.84535324  0.68426883  0.09986911
   0.25029997  0.24952063  0.32656888
   0.41690461  0.08295543  0.32650945
   0.25029081  0.74968256  0.32632714
   0.41703131  0.58293767  0.32641289
   0.75034492  0.24962298  0.32637751
   0.91705783  0.08290983  0.32662245
   0.75044975  0.74967203  0.32656631
   0.91701294  0.58306406  0.32650144
Direct configuration=    22
   0.33786922  0.66966748  0.10008455
   0.67122090  0.33631980  0.09986393
   0.16384615  0.32168411  0.09959196
   0.32312758  0.16235962  0.09983999
   0.16380005  0.84372157  0.09990791
   0.84521272  0.16235139  0.09952425
   0.68585340  0.84371920  0.09960093
   0.84515945  0.68441487  0.09984769
   0.25045154  0.24938107  0.32662287
   0.41707302  0.08280064  0.32657072
   0.25044843  0.74951170  0.32637285
   0.41717768  0.58277893  0.32650072
   0.75049169  0.24946346  0.32644973
   0.91719472  0.08276101  0.32670647
   0.75057668  0.74950743  0.32661947
   0.91715542  0.58288304  0.32656264
Direct configuration=    23
   0.33781074  0.66972879  0.10005291
   0.67116653  0.33638032  0.09983513
   0.16380432  0.32175029  0.09956206
   0.32306452  0.16241737  0.09982423
   0.16374707  0.84378323  0.09990959
   0.84514764  0.16241652  0.09947759
   0.68579565  0.84376961  0.09957190
   0.84510277  0.68448059  0.09983270
   0.25050278  0.24930789  0.32665106
   0.41711679  0.08273613  0.32659336
   0.25049706  0.74945841  0.32640055
   0.41723745  0.58271454  0.32652037
   0.75054702  0.24940282  0.32647561
   0.91725815  0.08269273  0.32672662
   0.75064494  0.74945140  0.32664775
   0.91721522  0.58283469  0.32658524
Direct configuration=    24
   0.33763531  0.66991272  0.09995799
   0.67100343  0.33656191  0.09974873
   0.16367883  0.32194881  0.09947236
   0.32287534  0.16259065  0.09977692
   0.16358813  0.84396818  0.09991464
   0.84495240  0.16261192  0.09933760
   0.68562241  0.84392086  0.09948484
   0.84493273  0.68467775  0.09978776
   0.25065651  0.24908833  0.32673565
   0.41724812  0.08254261  0.32666125
   0.25064295  0.74929853  0.32648367
   0.41741673  0.58252138  0.32657930
   0.75071301  0.24922089  0.32655324
   0.91744844  0.08248787  0.32678707
   0.75084972  0.74928330  0.32673260
   0.91739462  0.58268963  0.32665304
Direct configuration=    25
   0.33728445  0.67028059  0.09976815
   0.67067722  0.33692508  0.09957592
   0.16342784  0.32234587  0.09929296
   0.32249698  0.16293719  0.09968231
   0.16327024  0.84433809  0.09992474
   0.84456191  0.16300270  0.09905762
   0.68527594  0.84422337  0.09931071
   0.84459264  0.68507206  0.09969786
   0.25096397  0.24864922  0.32690483
   0.41751076  0.08215555  0.32679704
   0.25093473  0.74897876  0.32664990
   0.41777529  0.58213506  0.32669717
   0.75104500  0.24885704  0.32670852
   0.91782900  0.08207815  0.32690797
   0.75125926  0.74894710  0.32690231
   0.91775343  0.58239950  0.32678864
Direct configuration=    26
   0.33742037  0.67013808  0.09984169
   0.67080359  0.33678439  0.09964286
   0.16352507  0.32219206  0.09936246
   0.32264355  0.16280294  0.09971896
   0.16339339  0.84419479  0.09992083
   0.84471318  0.16285132  0.09916608
   0.68541016  0.84410618  0.09937816
   0.84472439  0.68491931  0.09973269
   0.25084487  0.24881932  0.32683929
   0.41740901  0.08230549  0.32674444
   0.25082170  0.74910263  0.32658550
   0.41763638  0.58228472  0.32665151
   0.75091639  0.24899799  0.32664837
   0.91768158  0.08223687  0.32686113
   0.75110061  0.74907734  0.32683657
   0.91761444  0.58251189  0.32673611
Direct configuration=    27
   0.33735667  0.67021426  0.09980015
   0.67072149  0.33686709  0.09961111
   0.16342173  0.32227276  0.09932431
   0.32258364  0.16287476  0.09969653
   0.16330222  0.84427875  0.09991963
   0.84465750  0.16292720  0.09910810
   0.68532549  0.84420227  0.09934098
   0.84467258  0.68499492  0.09971121
   0.25092175  0.24874136  0.32687615
   0.41748504  0.08222601  0.32677667
   0.25089808  0.74902004  0.32662454
   0.41770824  0.58220631  0.32667333
   0.75099106  0.24891744  0.32667816
   0.91775334  0.08215852  0.32688369
   0.75117245  0.74899435  0.32687377
   0.91768739  0.58242929  0.32676834
Direct configuration=    28
   0.33722524  0.67037145  0.09971444
   0.67055207  0.33703776  0.09954558
   0.16320850  0.32243931  0.09924558
   0.32246001  0.16302294  0.09965022
   0.16311408  0.84445199  0.09991716
   0.84454259  0.16308380  0.09898845
   0.68515076  0.84440054  0.09926424
   0.84456568  0.68515095  0.09966690
   0.25108041  0.24858049  0.32695222
   0.41764192  0.08206198  0.32684317
   0.25105571  0.74884961  0.32670509
   0.41785652  0.58204450  0.32671836
   0.75114514  0.24875122  0.32673965
   0.91790142  0.08199683  0.32693023
   0.75132071  0.74882310  0.32695053
   0.91783794  0.58225885  0.32683484
Direct configuration=    29
   0.33718493  0.67041415  0.09969740
   0.67051715  0.33707802  0.09953619
   0.16315854  0.32246696  0.09922419
   0.32242208  0.16308000  0.09963889
   0.16308326  0.84449191  0.09990708
   0.84450600  0.16311943  0.09896709
   0.68512716  0.84445396  0.09924305
   0.84451163  0.68518869  0.09965595
   0.25112943  0.24856313  0.32696650
   0.41770544  0.08202706  0.32686452
   0.25110906  0.74879271  0.32672474
   0.41788807  0.58200933  0.32673013
   0.75118550  0.24870857  0.32674868
   0.91792608  0.08196900  0.32694080
   0.75133495  0.74877070  0.32696519
   0.91786939  0.58219169  0.32685628
Direct configuration=    30
   0.33710591  0.67049787  0.09966400
   0.67044869  0.33715696  0.09951777
   0.16306061  0.32252116  0.09918226
   0.32234774  0.16319185  0.09961666
   0.16302286  0.84457016  0.09988733
   0.84443427  0.16318929  0.09892522
   0.68508089  0.84455868  0.09920149
   0.84440567  0.68526269  0.09963447
   0.25122554  0.24852909  0.32699450
   0.41782997  0.08195860  0.32690637
   0.25121364  0.74868118  0.32676327
   0.41794992  0.58194038  0.32675320
   0.75126464  0.24862496  0.32676637
   0.91797441  0.08191444  0.32696153
   0.75136286  0.74866798  0.32699392
   0.91793105  0.58206004  0.32689830
Direct configuration=    31
   0.33708541  0.67051959  0.09965534
   0.67043094  0.33717743  0.09951300
   0.16303521  0.32253522  0.09917138
   0.32232846  0.16322086  0.09961089
   0.16300719  0.84459046  0.09988221
   0.84441567  0.16320741  0.09891436
   0.68506889  0.84458584  0.09919071
   0.84437819  0.68528188  0.09962889
   0.25125046  0.24852026  0.32700176
   0.41786227  0.08194084  0.32691723
   0.25124076  0.74865224  0.32677326
   0.41796596  0.58192250  0.32675918
   0.75128516  0.24860327  0.32677097
   0.91798695  0.08190029  0.32696690
   0.75137011  0.74864134  0.32700138
   0.91794704  0.58202589  0.32690920
Direct configuration=    32
   0.33704215  0.67056388  0.09964345
   0.67039392  0.33721931  0.09951057
   0.16301309  0.32259171  0.09914825
   0.32227912  0.16326089  0.09959871
   0.16296733  0.84464169  0.09985914
   0.84435950  0.16325725  0.09890374
   0.68502069  0.84461195  0.09916737
   0.84434127  0.68533314  0.09961689
   0.25128993  0.24847530  0.32701030
   0.41790475  0.08189622  0.32694208
   0.25128022  0.74860906  0.32679226
   0.41800941  0.58187562  0.32677486
   0.75132689  0.24855767  0.32677679
   0.91803079  0.08185326  0.32697758
   0.75141111  0.74859803  0.32701038
   0.91798851  0.58198033  0.32693430
Direct configuration=    33
   0.33693083  0.67067785  0.09961286
   0.67029867  0.33732707  0.09950434
   0.16295618  0.32273705  0.09908872
   0.32215217  0.16336386  0.09956736
   0.16286478  0.84477350  0.09979980
   0.84421498  0.16338550  0.09887641
   0.68489668  0.84467914  0.09910732
   0.84424630  0.68546503  0.09958599
   0.25139146  0.24835962  0.32703226
   0.41801402  0.08178139  0.32700603
   0.25138172  0.74849795  0.32684115
   0.41812122  0.58175502  0.32681519
   0.75143425  0.24844033  0.32679176
   0.91814360  0.08173227  0.32700506
   0.75151660  0.74848662  0.32703355
   0.91809521  0.58186312  0.32699886
Direct configuration=    34
   0.33687596  0.67074774  0.09959706
   0.67021919  0.33740292  0.09950575
   0.16285551  0.32280605  0.09906538
   0.32211732  0.16342673  0.09954342
   0.16278942  0.84483778  0.09976056
   0.84418479  0.16343946  0.09886996
   0.68481595  0.84476108  0.09908326
   0.84421230  0.68551888  0.09956187
   0.25144310  0.24826030  0.32704409
   0.41804078  0.08170722  0.32703196
   0.25142467  0.74845071  0.32686876
   0.41818797  0.58168284  0.32683840
   0.75149524  0.24837372  0.32680852
   0.91822164  0.08164818  0.32701663
   0.75161093  0.74843049  0.32704581
   0.91816391  0.58183124  0.32702525
Direct configuration=    35
   0.33685653  0.67077248  0.09959147
   0.67019106  0.33742977  0.09950625
   0.16281987  0.32283047  0.09905711
   0.32210498  0.16344899  0.09953494
   0.16276274  0.84486054  0.09974667
   0.84417410  0.16345856  0.09886767
   0.68478737  0.84479009  0.09907475
   0.84420027  0.68553795  0.09955333
   0.25146139  0.24822514  0.32704828
   0.41805025  0.08168097  0.32704114
   0.25143987  0.74843399  0.32687853
   0.41821159  0.58165728  0.32684661
   0.75151683  0.24835015  0.32681445
   0.91824926  0.08161841  0.32702073
   0.75164432  0.74841061  0.32705014
   0.91818823  0.58181995  0.32703459
Direct configuration=    36
   0.33678610  0.67084596  0.09957477
   0.67012991  0.33749979  0.09950782
   0.16275039  0.32287868  0.09904870
   0.32204316  0.16353522  0.09950422
   0.16271846  0.84492138  0.09970707
   0.84411660  0.16351281  0.09886848
   0.68474644  0.84486704  0.09906531
   0.84411673  0.68559826  0.09952198
   0.25152067  0.24814214  0.32706225
   0.41809297  0.08160966  0.32705324
   0.25149364  0.74837575  0.32690448
   0.41827292  0.58159062  0.32686750
   0.75157734  0.24828468  0.32684101
   0.91831687  0.08154482  0.32702856
   0.75172264  0.74834677  0.32706417
   0.91825383  0.58177175  0.32704711
Direct configuration=    37
   0.33668782  0.67094849  0.09955147
   0.67004458  0.33759750  0.09951002
   0.16265344  0.32294596  0.09903697
   0.32195690  0.16365555  0.09946134
   0.16265667  0.84500628  0.09965182
   0.84403636  0.16358851  0.09886960
   0.68468934  0.84497440  0.09905214
   0.84400016  0.68568241  0.09947823
   0.25160338  0.24802633  0.32708175
   0.41815258  0.08151015  0.32707011
   0.25156867  0.74829450  0.32694069
   0.41835849  0.58149760  0.32689664
   0.75166178  0.24819334  0.32687806
   0.91841122  0.08144215  0.32703949
   0.75183193  0.74825767  0.32708373
   0.91834535  0.58170449  0.32706458
Direct configuration=    38
   0.33663990  0.67099822  0.09953748
   0.67000127  0.33764598  0.09950595
   0.16261875  0.32300860  0.09903654
   0.32189825  0.16370047  0.09943573
   0.16260135  0.84506879  0.09961964
   0.84397260  0.16365075  0.09887511
   0.68463518  0.84501514  0.09905080
   0.84395782  0.68574495  0.09945187
   0.25165701  0.24798874  0.32709368
   0.41822026  0.08145926  0.32707662
   0.25162698  0.74823133  0.32695718
   0.41840686  0.58144535  0.32691212
   0.75171123  0.24813969  0.32689944
   0.91845381  0.08139599  0.32704765
   0.75186502  0.74819932  0.32709555
   0.91839240  0.58163276  0.32707130
Direct configuration=    39
   0.33649614  0.67114743  0.09949551
   0.66987137  0.33779140  0.09949374
   0.16251469  0.32319650  0.09903525
   0.32172228  0.16383522  0.09935890
   0.16243537  0.84525635  0.09952311
   0.84378129  0.16383748  0.09889164
   0.68447269  0.84513734  0.09904678
   0.84383079  0.68593256  0.09937276
   0.25181790  0.24787597  0.32712947
   0.41842329  0.08130659  0.32709615
   0.25180190  0.74804182  0.32700664
   0.41855195  0.58128859  0.32695857
   0.75185956  0.24797874  0.32696355
   0.91858161  0.08125751  0.32707215
   0.75196428  0.74802425  0.32713099
   0.91853356  0.58141759  0.32709146
Direct configuration=    40
   0.33645845  0.67118656  0.09948450
   0.66983731  0.33782953  0.09949054
   0.16248740  0.32324578  0.09903492
   0.32167614  0.16387056  0.09933876
   0.16239185  0.84530553  0.09949780
   0.84373113  0.16388644  0.09889597
   0.68443008  0.84516939  0.09904572
   0.84379748  0.68598176  0.09935202
   0.25186009  0.24784640  0.32713885
   0.41847653  0.08126655  0.32710127
   0.25184777  0.74799213  0.32701961
   0.41859000  0.58124748  0.32697075
   0.75189846  0.24793654  0.32698037
   0.91861512  0.08122119  0.32707857
   0.75199031  0.74797834  0.32714028
   0.91857057  0.58136116  0.32709674
Direct configuration=    41
   0.33640507  0.67124914  0.09946933
   0.66977308  0.33789488  0.09947720
   0.16241301  0.32331334  0.09903645
   0.32162854  0.16393269  0.09931223
   0.16232566  0.84536689  0.09945901
   0.84368353  0.16394947  0.09890822
   0.68436031  0.84524054  0.09904620
   0.84374827  0.68604065  0.09932443
   0.25192051  0.24779028  0.32715177
   0.41854400  0.08120608  0.32711142
   0.25191193  0.74792289  0.32703148
   0.41864887  0.58118354  0.32698750
   0.75195863  0.24787141  0.32699839
   0.91866957  0.08116198  0.32709309
   0.75204155  0.74791295  0.32715302
   0.91862615  0.58128859  0.32710692
Direct configuration=    42
   0.33624495  0.67143689  0.09942381
   0.66958042  0.33809091  0.09943718
   0.16218984  0.32351602  0.09904104
   0.32148576  0.16411909  0.09923266
   0.16212709  0.84555100  0.09934267
   0.84354073  0.16413856  0.09894498
   0.68415100  0.84545397  0.09904764
   0.84360062  0.68621735  0.09924167
   0.25210178  0.24762191  0.32719052
   0.41874641  0.08102468  0.32714186
   0.25210438  0.74771519  0.32706709
   0.41882546  0.58099171  0.32703775
   0.75213916  0.24767605  0.32705245
   0.91883295  0.08098436  0.32713665
   0.75219525  0.74771678  0.32719125
   0.91879288  0.58107086  0.32713743
Direct configuration=    43
   0.33614758  0.67153952  0.09940434
   0.66949063  0.33819224  0.09940543
   0.16209805  0.32359523  0.09904401
   0.32139940  0.16423472  0.09920010
   0.16206235  0.84563144  0.09928483
   0.84346010  0.16422237  0.09897026
   0.68408159  0.84556200  0.09904916
   0.84348292  0.68630275  0.09920742
   0.25218442  0.24750633  0.32720830
   0.41881105  0.08092668  0.32716225
   0.25218242  0.74763078  0.32707458
   0.41891560  0.58089382  0.32705867
   0.75222730  0.24758045  0.32706644
   0.91892820  0.08088093  0.32716453
   0.75230412  0.74762761  0.32720882
   0.91888294  0.58099847  0.32715752
Direct configuration=    44
   0.33589948  0.67180105  0.09935470
   0.66926184  0.33845042  0.09932454
   0.16186416  0.32379707  0.09905158
   0.32117935  0.16452937  0.09911716
   0.16189738  0.84583640  0.09913745
   0.84325465  0.16443593  0.09903466
   0.68390474  0.84583725  0.09905301
   0.84318298  0.68652035  0.09912014
   0.25239499  0.24721179  0.32725359
   0.41897578  0.08067697  0.32721422
   0.25238127  0.74741568  0.32709367
   0.41914529  0.58064439  0.32711198
   0.75245190  0.24733688  0.32710210
   0.91917091  0.08061738  0.32723556
   0.75258155  0.74740038  0.32725359
   0.91911241  0.58081401  0.32720871
Direct configuration=    45
   0.33577664  0.67193290  0.09932968
   0.66913609  0.33858503  0.09926990
   0.16176491  0.32395097  0.09905825
   0.32103269  0.16463052  0.09907492
   0.16174132  0.84599464  0.09905780
   0.84310930  0.16459378  0.09907418
   0.68376647  0.84595255  0.09905772
   0.84308855  0.68668270  0.09907538
   0.25251937  0.24706008  0.32728196
   0.41909192  0.08052864  0.32724578
   0.25249876  0.74728679  0.32709985
   0.41927638  0.58050347  0.32713187
   0.75257469  0.24720267  0.32711164
   0.91930941  0.08046825  0.32727639
   0.75272180  0.74726458  0.32728181
   0.91925038  0.58068777  0.32723953
Direct configuration=    46
   0.33566732  0.67205025  0.09930741
   0.66902418  0.33870484  0.09922126
   0.16167657  0.32408794  0.09906419
   0.32090216  0.16472054  0.09903733
   0.16160243  0.84613547  0.09898691
   0.84297993  0.16473426  0.09910935
   0.68364340  0.84605516  0.09906191
   0.84300450  0.68682719  0.09903555
   0.25263007  0.24692505  0.32730721
   0.41919528  0.08039662  0.32727387
   0.25260333  0.74717208  0.32710536
   0.41939305  0.58037805  0.32714958
   0.75268397  0.24708323  0.32712013
   0.91943268  0.08033552  0.32731273
   0.75284662  0.74714372  0.32730692
   0.91937318  0.58057541  0.32726696
Direct configuration=    47
   0.33560698  0.67212181  0.09929687
   0.66895177  0.33877810  0.09919619
   0.16159060  0.32416899  0.09907230
   0.32084652  0.16479228  0.09901550
   0.16151768  0.84620940  0.09895721
   0.84291989  0.16481703  0.09912372
   0.68355967  0.84613830  0.09906920
   0.84294693  0.68689753  0.09901258
   0.25271060  0.24688794  0.32732640
   0.41930724  0.08033162  0.32728392
   0.25269371  0.74707469  0.32711310
   0.41945649  0.58030868  0.32714759
   0.75275572  0.24700626  0.32712481