  16  16   0   4
  0.2059898E+02  0.5037000E-09  0.5037000E-09  0.1500000E-08  0.5000000E-15
  1.000000000000000E-004
  CAR 
 Lattice                                 
      9.70572891    -21.34569957  301     -0.97192075      1.00000000
    -21.346  0.0000E+00  0.0000E+00  0.0000E+00  0.0000E+00
    -21.242  0.0000E+00  0.0000E+00  0.0000E+00  0.0000E+00
    -21.139  0.0000E+00  0.0000E+00  0.0000E+00  0.0000E+00
    -21.035  0.0000E+00  0.0000E+00  0.0000E+00  0.0000E+00
    -20.932  0.0000E+00  0.0000E+00  0.0000E+00  0.0000E+00
    -20.828  0.0000E+00  0.0000E+00  0.0000E+00  0.0000E+00
    -20.725  0.0000E+00  0.0000E+00  0.0000E+00  0.0000E+00
    -20.621  0.0000E+00  0.0000E+00  0.0000E+00  0.0000E+00
    -20.518  0.2910E-19  0.2910E-19  0.3012E-20  0.3012E-20
    -20.414  0.3330E-14  0.3330E-14  0.3447E-15  0.3447E-15
    -20.311  0.3315E-10  0.3315E-10  0.3431E-11  0.3431E-11
    -20.207  0.4549E-07  0.4549E-07  0.4712E-08  0.4712E-08
    -20.104  0.9310E-05  0.9310E-05  0.9684E-06  0.9684E-06
    -20.000  0.3134E-03  0.3134E-03  0.3341E-04  0.3341E-04
    -19.897  0.2123E-02  0.2123E-02  0.2531E-03  0.2531E-03
    -19.793  0.4396E-02  0.4396E-02  0.7081E-03  0.7081E-03
    -19.690  0.4891E-02  0.4891E-02  0.1214E-02  0.1214E-02
    -19.586  0.5161E-02  0.5161E-02  0.1749E-02  0.1749E-02
    -19.483  0.4628E-02  0.4628E-02  0.2228E-02  0.2228E-02
    -19.379  0.5668E-02  0.5668E-02  0.2814E-02  0.2814E-02
    -19.276  0.4274E-02  0.4274E-02  0.3257E-02  0.3257E-02
    -19.172  0.5212E-02  0.5212E-02  0.3796E-02  0.3796E-02
    -19.069  0.5930E-02  0.5930E-02  0.4410E-02  0.4410E-02
    -18.965  0.3661E-02  0.3661E-02  0.4789E-02  0.4789E-02
    -18.862  0.5250E-02  0.5250E-02  0.5332E-02  0.5332E-02
    -18.758  0.6369E-02  0.6369E-02  0.5991E-02  0.5991E-02
    -18.655  0.4492E-02  0.4492E-02  0.6456E-02  0.6456E-02
    -18.551  0.3326E-02  0.3326E-02  0.6801E-02  0.6801E-02
    -18.448  0.6659E-02  0.6659E-02  0.7490E-02  0.7490E-02
    -18.344  0.6087E-02  0.6087E-02  0.8120E-02  0.8120E-02
    -18.241  0.4251E-02  0.4251E-02  0.8560E-02  0.8560E-02
    -18.137  0.3369E-02  0.3369E-02  0.8909E-02  0.8909E-02
    -18.034  0.6201E-02  0.6201E-02  0.9550E-02  0.9550E-02
    -17.930  0.1050E-01  0.1050E-01  0.1064E-01  0.1064E-01
    -17.827  0.1066E-01  0.1066E-01  0.1174E-01  0.1174E-01
    -17.723  0.1078E-01  0.1078E-01  0.1286E-01  0.1286E-01
    -17.620  0.1253E-01  0.1253E-01  0.1415E-01  0.1415E-01
    -17.516  0.1565E-01  0.1565E-01  0.1577E-01  0.1577E-01
    -17.413  0.1908E-01  0.1908E-01  0.1775E-01  0.1775E-01
    -17.309  0.2060E-01  0.2060E-01  0.1988E-01  0.1988E-01
    -17.206  0.1366E-01  0.1366E-01  0.2129E-01  0.2129E-01
    -17.102  0.6482E-02  0.6482E-02  0.2196E-01  0.2196E-01
    -16.998  0.7283E-02  0.7283E-02  0.2272E-01  0.2272E-01
    -16.895  0.6833E-02  0.6833E-02  0.2343E-01  0.2343E-01
    -16.791  0.5614E-02  0.5614E-02  0.2401E-01  0.2401E-01
    -16.688  0.4644E-02  0.4644E-02  0.2449E-01  0.2449E-01
    -16.584  0.2873E-02  0.2873E-02  0.2478E-01  0.2478E-01
    -16.481  0.3885E-02  0.3885E-02  0.2519E-01  0.2519E-01
    -16.377  0.9159E-02  0.9159E-02  0.2613E-01  0.2613E-01
    -16.274  0.6620E-02  0.6620E-02  0.2682E-01  0.2682E-01
    -16.170  0.4811E-02  0.4811E-02  0.2732E-01  0.2732E-01
    -16.067  0.4303E-02  0.4303E-02  0.2776E-01  0.2776E-01
    -15.963  0.4272E-02  0.4272E-02  0.2820E-01  0.2820E-01
    -15.860  0.3587E-02  0.3587E-02  0.2858E-01  0.2858E-01
    -15.756  0.8069E-02  0.8069E-02  0.2941E-01  0.2941E-01
    -15.653  0.1077E-01  0.1077E-01  0.3053E-01  0.3053E-01
    -15.549  0.1153E-01  0.1153E-01  0.3172E-01  0.3172E-01
    -15.446  0.1493E-01  0.1493E-01  0.3327E-01  0.3327E-01
    -15.342  0.1604E-01  0.1604E-01  0.3493E-01  0.3493E-01
    -15.239  0.1324E-01  0.1324E-01  0.3630E-01  0.3630E-01
    -15.135  0.1414E-01  0.1414E-01  0.3776E-01  0.3776E-01
    -15.032  0.1741E-01  0.1741E-01  0.3956E-01  0.3956E-01
    -14.928  0.1641E-01  0.1641E-01  0.4126E-01  0.4126E-01
    -14.825  0.1310E-01  0.1310E-01  0.4262E-01  0.4262E-01
    -14.721  0.9889E-02  0.9889E-02  0.4364E-01  0.4364E-01
    -14.618  0.9362E-02  0.9362E-02  0.4461E-01  0.4461E-01
    -14.514  0.1470E-01  0.1470E-01  0.4613E-01  0.4613E-01
    -14.411  0.1882E-01  0.1882E-01  0.4808E-01  0.4808E-01
    -14.307  0.1565E-01  0.1565E-01  0.4970E-01  0.4970E-01
    -14.204  0.1141E-01  0.1141E-01  0.5088E-01  0.5088E-01
    -14.100  0.9073E-02  0.9073E-02  0.5182E-01  0.5182E-01
    -13.997  0.7975E-02  0.7975E-02  0.5264E-01  0.5264E-01
    -13.893  0.8762E-02  0.8762E-02  0.5355E-01  0.5355E-01
    -13.790  0.7941E-02  0.7941E-02  0.5437E-01  0.5437E-01
    -13.686  0.4610E-02  0.4610E-02  0.5485E-01  0.5485E-01
    -13.583  0.4701E-02  0.4701E-02  0.5533E-01  0.5533E-01
    -13.479  0.4374E-02  0.4374E-02  0.5579E-01  0.5579E-01
    -13.376  0.5803E-02  0.5803E-02  0.5639E-01  0.5639E-01
    -13.272  0.6014E-02  0.6014E-02  0.5701E-01  0.5701E-01
    -13.169  0.6106E-02  0.6106E-02  0.5764E-01  0.5764E-01
    -13.065  0.8019E-02  0.8019E-02  0.5847E-01  0.5847E-01
    -12.962  0.7248E-02  0.7248E-02  0.5922E-01  0.5922E-01
    -12.858  0.8580E-02  0.8580E-02  0.6011E-01  0.6011E-01
    -12.755  0.6250E-02  0.6250E-02  0.6076E-01  0.6076E-01
    -12.651  0.6428E-02  0.6428E-02  0.6142E-01  0.6142E-01
    -12.548  0.5850E-02  0.5850E-02  0.6203E-01  0.6203E-01
    -12.444  0.3593E-02  0.3593E-02  0.6240E-01  0.6240E-01
    -12.341  0.8213E-02  0.8213E-02  0.6325E-01  0.6325E-01
    -12.237  0.6759E-02  0.6759E-02  0.6395E-01  0.6395E-01
    -12.134  0.4793E-02  0.4793E-02  0.6445E-01  0.6445E-01
    -12.030  0.9047E-02  0.9047E-02  0.6538E-01  0.6538E-01
    -11.927  0.1452E-01  0.1452E-01  0.6689E-01  0.6689E-01
    -11.823  0.1627E-01  0.1627E-01  0.6857E-01  0.6857E-01
    -11.720  0.1390E-01  0.1390E-01  0.7001E-01  0.7001E-01
    -11.616  0.1418E-01  0.1418E-01  0.7148E-01  0.7148E-01
    -11.513  0.1697E-01  0.1697E-01  0.7323E-01  0.7323E-01
    -11.409  0.1340E-01  0.1340E-01  0.7462E-01  0.7462E-01
    -11.306  0.9545E-02  0.9545E-02  0.7561E-01  0.7561E-01
    -11.202  0.9131E-02  0.9131E-02  0.7655E-01  0.7655E-01
    -11.099  0.1087E-01  0.1087E-01  0.7768E-01  0.7768E-01
    -10.995  0.9853E-02  0.9853E-02  0.7870E-01  0.7870E-01
    -10.892  0.6822E-02  0.6822E-02  0.7940E-01  0.7940E-01
    -10.788  0.1148E-01  0.1148E-01  0.8059E-01  0.8059E-01
    -10.685  0.1540E-01  0.1540E-01  0.8218E-01  0.8218E-01
    -10.581  0.1256E-01  0.1256E-01  0.8348E-01  0.8348E-01
    -10.478  0.7392E-02  0.7392E-02  0.8425E-01  0.8425E-01
    -10.374  0.8465E-02  0.8465E-02  0.8513E-01  0.8513E-01
    -10.271  0.1706E-01  0.1706E-01  0.8689E-01  0.8689E-01
    -10.167  0.1769E-01  0.1769E-01  0.8872E-01  0.8872E-01
    -10.064  0.1121E-01  0.1121E-01  0.8988E-01  0.8988E-01
     -9.960  0.9625E-02  0.9625E-02  0.9088E-01  0.9088E-01
     -9.857  0.8606E-02  0.8606E-02  0.9177E-01  0.9177E-01
     -9.753  0.1140E-01  0.1140E-01  0.9295E-01  0.9295E-01
     -9.650  0.9566E-02  0.9566E-02  0.9394E-01  0.9394E-01
     -9.546  0.1115E-01  0.1115E-01  0.9509E-01  0.9509E-01
     -9.443  0.1071E-01  0.1071E-01  0.9620E-01  0.9620E-01
     -9.339  0.1015E-01  0.1015E-01  0.9725E-01  0.9725E-01
     -9.236  0.1044E-01  0.1044E-01  0.9833E-01  0.9833E-01
     -9.132  0.3729E-02  0.3729E-02  0.9872E-01  0.9872E-01
     -9.029  0.1672E-02  0.1672E-02  0.9889E-01  0.9889E-01
     -8.925  0.1001E-01  0.1001E-01  0.9993E-01  0.9993E-01
     -8.822  0.1898E-01  0.1898E-01  0.1019E+00  0.1019E+00
     -8.718  0.1791E-01  0.1791E-01  0.1037E+00  0.1037E+00
     -8.615  0.1075E-01  0.1075E-01  0.1049E+00  0.1049E+00
     -8.511  0.7723E-02  0.7723E-02  0.1057E+00  0.1057E+00
     -8.408  0.8879E-02  0.8879E-02  0.1066E+00  0.1066E+00
     -8.304  0.1212E-01  0.1212E-01  0.1078E+00  0.1078E+00
     -8.201  0.2464E-01  0.2464E-01  0.1104E+00  0.1104E+00
     -8.097  0.2337E-01  0.2337E-01  0.1128E+00  0.1128E+00
     -7.994  0.1896E-01  0.1896E-01  0.1148E+00  0.1148E+00
     -7.890  0.1567E-01  0.1567E-01  0.1164E+00  0.1164E+00
     -7.787  0.1292E-01  0.1292E-01  0.1177E+00  0.1177E+00
     -7.683  0.2045E-01  0.2045E-01  0.1198E+00  0.1198E+00
     -7.580  0.2512E-01  0.2512E-01  0.1224E+00  0.1224E+00
     -7.476  0.2310E-01  0.2310E-01  0.1248E+00  0.1248E+00
     -7.373  0.2243E-01  0.2243E-01  0.1272E+00  0.1272E+00
     -7.269  0.2603E-01  0.2603E-01  0.1298E+00  0.1298E+00
     -7.166  0.2303E-01  0.2303E-01  0.1322E+00  0.1322E+00
     -7.062  0.2490E-01  0.2490E-01  0.1348E+00  0.1348E+00
     -6.959  0.2590E-01  0.2590E-01  0.1375E+00  0.1375E+00
     -6.855  0.1744E-01  0.1744E-01  0.1393E+00  0.1393E+00
     -6.752  0.2184E-01  0.2184E-01  0.1416E+00  0.1416E+00
     -6.648  0.2674E-01  0.2674E-01  0.1443E+00  0.1443E+00
     -6.545  0.2446E-01  0.2446E-01  0.1469E+00  0.1469E+00
     -6.441  0.2454E-01  0.2454E-01  0.1494E+00  0.1494E+00
     -6.338  0.2270E-01  0.2270E-01  0.1517E+00  0.1517E+00
     -6.234  0.2504E-01  0.2504E-01  0.1543E+00  0.1543E+00
     -6.130  0.2024E-01  0.2024E-01  0.1564E+00  0.1564E+00
     -6.027  0.1639E-01  0.1639E-01  0.1581E+00  0.1581E+00
     -5.923  0.1911E-01  0.1911E-01  0.1601E+00  0.1601E+00
     -5.820  0.2542E-01  0.2542E-01  0.1627E+00  0.1627E+00
     -5.716  0.2247E-01  0.2247E-01  0.1651E+00  0.1651E+00
     -5.613  0.1773E-01  0.1773E-01  0.1669E+00  0.1669E+00
     -5.509  0.2190E-01  0.2190E-01  0.1692E+00  0.1692E+00
     -5.406  0.2610E-01  0.2610E-01  0.1719E+00  0.1719E+00
     -5.302  0.2869E-01  0.2869E-01  0.1748E+00  0.1748E+00
     -5.199  0.2105E-01  0.2105E-01  0.1770E+00  0.1770E+00
     -5.095  0.1260E-01  0.1260E-01  0.1783E+00  0.1783E+00
     -4.992  0.1447E-01  0.1447E-01  0.1798E+00  0.1798E+00
     -4.888  0.1864E-01  0.1864E-01  0.1817E+00  0.1817E+00
     -4.785  0.1715E-01  0.1715E-01  0.1835E+00  0.1835E+00
     -4.681  0.1639E-01  0.1639E-01  0.1852E+00  0.1852E+00
     -4.578  0.1717E-01  0.1717E-01  0.1870E+00  0.1870E+00
     -4.474  0.1663E-01  0.1663E-01  0.1887E+00  0.1887E+00
     -4.371  0.1863E-01  0.1863E-01  0.1906E+00  0.1906E+00
     -4.267  0.2284E-01  0.2284E-01  0.1930E+00  0.1930E+00
     -4.164  0.2991E-01  0.2991E-01  0.1961E+00  0.1961E+00
     -4.060  0.3983E-01  0.3983E-01  0.2002E+00  0.2002E+00
     -3.957  0.3419E-01  0.3419E-01  0.2038E+00  0.2038E+00
     -3.853  0.2306E-01  0.2306E-01  0.2062E+00  0.2062E+00
     -3.750  0.1546E-01  0.1546E-01  0.2078E+00  0.2078E+00
     -3.646  0.1600E-01  0.1600E-01  0.2094E+00  0.2094E+00
     -3.543  0.1659E-01  0.1659E-01  0.2111E+00  0.2111E+00
     -3.439  0.1990E-01  0.1990E-01  0.2132E+00  0.2132E+00
     -3.336  0.2085E-01  0.2085E-01  0.2153E+00  0.2153E+00
     -3.232  0.1468E-01  0.1468E-01  0.2169E+00  0.2169E+00
     -3.129  0.1306E-01  0.1306E-01  0.2182E+00  0.2182E+00
     -3.025  0.1770E-01  0.1770E-01  0.2200E+00  0.2200E+00
     -2.922  0.2510E-01  0.2510E-01  0.2226E+00  0.2226E+00
     -2.818  0.2057E-01  0.2057E-01  0.2248E+00  0.2248E+00
     -2.715  0.1029E-01  0.1029E-01  0.2258E+00  0.2258E+00
     -2.611  0.1253E-01  0.1253E-01  0.2271E+00  0.2271E+00
     -2.508  0.2080E-01  0.2080E-01  0.2293E+00  0.2293E+00
     -2.404  0.2096E-01  0.2096E-01  0.2315E+00  0.2315E+00
     -2.301  0.1825E-01  0.1825E-01  0.2333E+00  0.2333E+00
     -2.197  0.2240E-01  0.2240E-01  0.2357E+00  0.2357E+00
     -2.094  0.1825E-01  0.1825E-01  0.2376E+00  0.2376E+00
     -1.990  0.5479E-02  0.5479E-02  0.2381E+00  0.2381E+00
     -1.887  0.4770E-02  0.4770E-02  0.2386E+00  0.2386E+00
     -1.783  0.7394E-02  0.7394E-02  0.2394E+00  0.2394E+00
     -1.680  0.5767E-02  0.5767E-02  0.2400E+00  0.2400E+00
     -1.576  0.6420E-02  0.6420E-02  0.2406E+00  0.2406E+00
     -1.473  0.6310E-02  0.6310E-02  0.2413E+00  0.2413E+00
     -1.369  0.4303E-02  0.4303E-02  0.2417E+00  0.2417E+00
     -1.266  0.2563E-02  0.2563E-02  0.2420E+00  0.2420E+00
     -1.162  0.6657E-03  0.6657E-03  0.2421E+00  0.2421E+00
     -1.059  0.2217E-03  0.2217E-03  0.2421E+00  0.2421E+00
     -0.955  0.1156E-02  0.1156E-02  0.2422E+00  0.2422E+00
     -0.852  0.2566E-02  0.2566E-02  0.2425E+00  0.2425E+00
     -0.748  0.3250E-02  0.3250E-02  0.2428E+00  0.2428E+00
     -0.645  0.4257E-02  0.4257E-02  0.2433E+00  0.2433E+00
     -0.541  0.8580E-02  0.8580E-02  0.2441E+00  0.2441E+00
     -0.438  0.9523E-02  0.9523E-02  0.2451E+00  0.2451E+00
     -0.334  0.8833E-02  0.8833E-02  0.2460E+00  0.2460E+00
     -0.231  0.1008E-01  0.1008E-01  0.2471E+00  0.2471E+00
     -0.127  0.1041E-01  0.1041E-01  0.2482E+00  0.2482E+00
     -0.024  0.1036E-01  0.1036E-01  0.2492E+00  0.2492E+00
      0.080  0.4077E-02  0.4077E-02  0.2497E+00  0.2497E+00
      0.183  0.4258E-02  0.4258E-02  0.2501E+00  0.2501E+00
      0.287  0.9264E-02  0.9264E-02  0.2511E+00  0.2511E+00
      0.390  0.8647E-02  0.8647E-02  0.2520E+00  0.2520E+00
      0.494  0.6434E-02  0.6434E-02  0.2526E+00  0.2526E+00
      0.597  0.7309E-02  0.7309E-02  0.2534E+00  0.2534E+00
      0.701  0.1025E-01  0.1025E-01  0.2544E+00  0.2544E+00
      0.804  0.9544E-02  0.9544E-02  0.2554E+00  0.2554E+00
      0.908  0.1013E-01  0.1013E-01  0.2565E+00  0.2565E+00
      1.011  0.9457E-02  0.9457E-02  0.2575E+00  0.2575E+00
      1.115  0.4687E-02  0.4687E-02  0.2579E+00  0.2579E+00
      1.218  0.5494E-02  0.5494E-02  0.2585E+00  0.2585E+00
      1.322  0.5127E-02  0.5127E-02  0.2590E+00  0.2590E+00
      1.425  0.4087E-02  0.4087E-02  0.2595E+00  0.2595E+00
      1.529  0.3926E-02  0.3926E-02  0.2599E+00  0.2599E+00
      1.632  0.8275E-02  0.8275E-02  0.2607E+00  0.2607E+00
      1.736  0.1216E-01  0.1216E-01  0.2620E+00  0.2620E+00
      1.839  0.4388E-02  0.4388E-02  0.2624E+00  0.2624E+00
      1.943  0.3007E-02  0.3007E-02  0.2627E+00  0.2627E+00
      2.046  0.5173E-02  0.5173E-02  0.2633E+00  0.2633E+00
      2.150  0.5871E-02  0.5871E-02  0.2639E+00  0.2639E+00
      2.253  0.1187E-01  0.1187E-01  0.2651E+00  0.2651E+00
      2.357  0.1584E-01  0.1584E-01  0.2668E+00  0.2668E+00
      2.460  0.1231E-01  0.1231E-01  0.2680E+00  0.2680E+00
      2.564  0.1302E-01  0.1302E-01  0.2694E+00  0.2694E+00
      2.667  0.1219E-01  0.1219E-01  0.2706E+00  0.2706E+00
      2.771  0.8132E-02  0.8132E-02  0.2715E+00  0.2715E+00
      2.874  0.8875E-02  0.8875E-02  0.2724E+00  0.2724E+00
      2.978  0.1082E-01  0.1082E-01  0.2735E+00  0.2735E+00
      3.081  0.1241E-01  0.1241E-01  0.2748E+00  0.2748E+00
      3.185  0.1494E-01  0.1494E-01  0.2764E+00  0.2764E+00
      3.288  0.1470E-01  0.1470E-01  0.2779E+00  0.2779E+00
      3.392  0.9772E-02  0.9772E-02  0.2789E+00  0.2789E+00
      3.495  0.7557E-02  0.7557E-02  0.2797E+00  0.2797E+00
      3.599  0.1217E-01  0.1217E-01  0.2809E+00  0.2809E+00
      3.702  0.1257E-01  0.1257E-01  0.2822E+00  0.2822E+00
      3.806  0.9100E-02  0.9100E-02  0.2832E+00  0.2832E+00
      3.909  0.1299E-01  0.1299E-01  0.2845E+00  0.2845E+00
      4.013  0.1809E-01  0.1809E-01  0.2864E+00  0.2864E+00
      4.116  0.1511E-01  0.1511E-01  0.2880E+00  0.2880E+00
      4.220  0.1448E-01  0.1448E-01  0.2895E+00  0.2895E+00
      4.323  0.1478E-01  0.1478E-01  0.2910E+00  0.2910E+00
      4.427  0.1611E-01  0.1611E-01  0.2927E+00  0.2927E+00
      4.530  0.1331E-01  0.1331E-01  0.2940E+00  0.2940E+00
      4.634  0.1182E-01  0.1182E-01  0.2953E+00  0.2953E+00
      4.738  0.1594E-01  0.1594E-01  0.2969E+00  0.2969E+00
      4.841  0.1951E-01  0.1951E-01  0.2989E+00  0.2989E+00
      4.945  0.1876E-01  0.1876E-01  0.3009E+00  0.3009E+00
      5.048  0.1805E-01  0.1805E-01  0.3027E+00  0.3027E+00
      5.152  0.1617E-01  0.1617E-01  0.3044E+00  0.3044E+00
      5.255  0.1478E-01  0.1478E-01  0.3059E+00  0.3059E+00
      5.359  0.1555E-01  0.1555E-01  0.3075E+00  0.3075E+00
      5.462  0.2071E-01  0.2071E-01  0.3097E+00  0.3097E+00
      5.566  0.1888E-01  0.1888E-01  0.3116E+00  0.3116E+00
      5.669  0.1381E-01  0.1381E-01  0.3131E+00  0.3131E+00
      5.773  0.1473E-01  0.1473E-01  0.3146E+00  0.3146E+00
      5.876  0.2272E-01  0.2272E-01  0.3169E+00  0.3169E+00
      5.980  0.2193E-01  0.2193E-01  0.3192E+00  0.3192E+00
      6.083  0.2453E-01  0.2453E-01  0.3218E+00  0.3218E+00
      6.187  0.2958E-01  0.2958E-01  0.3248E+00  0.3248E+00
      6.290  0.2584E-01  0.2584E-01  0.3275E+00  0.3275E+00
      6.394  0.2440E-01  0.2440E-01  0.3300E+00  0.3300E+00
      6.497  0.1848E-01  0.1848E-01  0.3319E+00  0.3319E+00
      6.601  0.1880E-01  0.1880E-01  0.3339E+00  0.3339E+00
      6.704  0.2998E-01  0.2998E-01  0.3370E+00  0.3370E+00
      6.808  0.3150E-01  0.3150E-01  0.3402E+00  0.3402E+00
      6.911  0.2892E-01  0.2892E-01  0.3432E+00  0.3432E+00
      7.015  0.3281E-01  0.3281E-01  0.3466E+00  0.3466E+00
      7.118  0.3485E-01  0.3485E-01  0.3502E+00  0.3502E+00
      7.222  0.3032E-01  0.3032E-01  0.3534E+00  0.3534E+00
      7.325  0.3048E-01  0.3048E-01  0.3565E+00  0.3565E+00
      7.429  0.3744E-01  0.3744E-01  0.3604E+00  0.3604E+00
      7.532  0.3274E-01  0.3274E-01  0.3638E+00  0.3638E+00
      7.636  0.2503E-01  0.2503E-01  0.3664E+00  0.3664E+00
      7.739  0.2937E-01  0.2937E-01  0.3694E+00  0.3694E+00
      7.843  0.2106E-01  0.2106E-01  0.3716E+00  0.3716E+00
      7.946  0.1478E-01  0.1478E-01  0.3731E+00  0.3731E+00
      8.050  0.9988E-02  0.9988E-02  0.3742E+00  0.3742E+00
      8.153  0.3411E-02  0.3411E-02  0.3745E+00  0.3745E+00
      8.257  0.1960E-02  0.1960E-02  0.3747E+00  0.3747E+00
      8.360  0.2083E-02  0.2083E-02  0.3749E+00  0.3749E+00
      8.464  0.5607E-03  0.5607E-03  0.3750E+00  0.3750E+00
      8.567  0.2632E-04  0.2633E-04  0.3750E+00  0.3750E+00
      8.671  0.1794E-06  0.1794E-06  0.3750E+00  0.3750E+00
      8.774  0.1607E-09  0.1607E-09  0.3750E+00  0.3750E+00
      8.878  0.1805E-13  0.1805E-13  0.3750E+00  0.3750E+00
      8.981  0.0000E+00  0.0000E+00  0.3750E+00  0.3750E+00
      9.085  0.0000E+00  0.0000E+00  0.3750E+00  0.3750E+00
      9.188  0.0000E+00  0.0000E+00  0.3750E+00  0.3750E+00
      9.292  0.0000E+00  0.0000E+00  0.3750E+00  0.3750E+00
      9.395  0.0000E+00  0.0000E+00  0.3750E+00  0.3750E+00
      9.499  0.0000E+00  0.0000E+00  0.3750E+00  0.3750E+00
      9.602  0.0000E+00  0.0000E+00  0.3750E+00  0.3750E+00
      9.706  0.0000E+00  0.0000E+00  0.3750E+00  0.3750E+00
