  16  16   0  16
  0.1989355E+02  0.4950000E-09  0.4950000E-09  0.1500000E-08  0.5000000E-15
  1.000000000000000E-004
  CAR 
 Lattice                                 
      9.98692274    -21.22769663  301     -0.28788469      1.00000000
    -21.228  0.0000E+00  0.0000E+00  0.0000E+00  0.0000E+00
    -21.124  0.0000E+00  0.0000E+00  0.0000E+00  0.0000E+00
    -21.020  0.0000E+00  0.0000E+00  0.0000E+00  0.0000E+00
    -20.916  0.0000E+00  0.0000E+00  0.0000E+00  0.0000E+00
    -20.812  0.0000E+00  0.0000E+00  0.0000E+00  0.0000E+00
    -20.707  0.0000E+00  0.0000E+00  0.0000E+00  0.0000E+00
    -20.603  0.0000E+00  0.0000E+00  0.0000E+00  0.0000E+00
    -20.499  0.0000E+00  0.0000E+00  0.0000E+00  0.0000E+00
    -20.395  0.2894E-19  0.2894E-19  0.3012E-20  0.3012E-20
    -20.291  0.2550E-14  0.2550E-14  0.2654E-15  0.2654E-15
    -20.187  0.2763E-10  0.2763E-10  0.2875E-11  0.2875E-11
    -20.083  0.4035E-07  0.4036E-07  0.4202E-08  0.4202E-08
    -19.979  0.8640E-05  0.8640E-05  0.9031E-06  0.9031E-06
    -19.875  0.2998E-03  0.2998E-03  0.3210E-04  0.3210E-04
    -19.771  0.2054E-02  0.2054E-02  0.2458E-03  0.2458E-03
    -19.667  0.4272E-02  0.4272E-02  0.6903E-03  0.6903E-03
    -19.563  0.4710E-02  0.4710E-02  0.1180E-02  0.1180E-02
    -19.459  0.5066E-02  0.5066E-02  0.1708E-02  0.1708E-02
    -19.355  0.4382E-02  0.4382E-02  0.2163E-02  0.2163E-02
    -19.251  0.5540E-02  0.5540E-02  0.2740E-02  0.2740E-02
    -19.147  0.4298E-02  0.4298E-02  0.3187E-02  0.3187E-02
    -19.043  0.4620E-02  0.4620E-02  0.3668E-02  0.3668E-02
    -18.939  0.6091E-02  0.6091E-02  0.4302E-02  0.4302E-02
    -18.835  0.3795E-02  0.3795E-02  0.4697E-02  0.4697E-02
    -18.731  0.4360E-02  0.4360E-02  0.5150E-02  0.5150E-02
    -18.626  0.6321E-02  0.6321E-02  0.5808E-02  0.5808E-02
    -18.522  0.5107E-02  0.5107E-02  0.6339E-02  0.6339E-02
    -18.418  0.2975E-02  0.2975E-02  0.6649E-02  0.6649E-02
    -18.314  0.5213E-02  0.5213E-02  0.7191E-02  0.7191E-02
    -18.210  0.6872E-02  0.6872E-02  0.7906E-02  0.7906E-02
    -18.106  0.4473E-02  0.4473E-02  0.8372E-02  0.8372E-02
    -18.002  0.3707E-02  0.3707E-02  0.8757E-02  0.8757E-02
    -17.898  0.3637E-02  0.3637E-02  0.9136E-02  0.9136E-02
    -17.794  0.7388E-02  0.7388E-02  0.9904E-02  0.9904E-02
    -17.690  0.6109E-02  0.6109E-02  0.1054E-01  0.1054E-01
    -17.586  0.3254E-02  0.3254E-02  0.1088E-01  0.1088E-01
    -17.482  0.3762E-02  0.3762E-02  0.1127E-01  0.1127E-01
    -17.378  0.4618E-02  0.4618E-02  0.1175E-01  0.1175E-01
    -17.274  0.7064E-02  0.7064E-02  0.1249E-01  0.1249E-01
    -17.170  0.6345E-02  0.6345E-02  0.1315E-01  0.1315E-01
    -17.066  0.4267E-02  0.4267E-02  0.1359E-01  0.1359E-01
    -16.962  0.2237E-02  0.2237E-02  0.1382E-01  0.1382E-01
    -16.858  0.4754E-02  0.4754E-02  0.1432E-01  0.1432E-01
    -16.754  0.7187E-02  0.7187E-02  0.1507E-01  0.1507E-01
    -16.650  0.6315E-02  0.6315E-02  0.1572E-01  0.1572E-01
    -16.546  0.5182E-02  0.5182E-02  0.1626E-01  0.1626E-01
    -16.441  0.4411E-02  0.4411E-02  0.1672E-01  0.1672E-01
    -16.337  0.2534E-02  0.2534E-02  0.1698E-01  0.1698E-01
    -16.233  0.3909E-02  0.3909E-02  0.1739E-01  0.1739E-01
    -16.129  0.9128E-02  0.9128E-02  0.1834E-01  0.1834E-01
    -16.025  0.6596E-02  0.6596E-02  0.1903E-01  0.1903E-01
    -15.921  0.6897E-02  0.6897E-02  0.1974E-01  0.1974E-01
    -15.817  0.9249E-02  0.9249E-02  0.2071E-01  0.2071E-01
    -15.713  0.1039E-01  0.1039E-01  0.2179E-01  0.2179E-01
    -15.609  0.9520E-02  0.9520E-02  0.2278E-01  0.2278E-01
    -15.505  0.1336E-01  0.1336E-01  0.2417E-01  0.2417E-01
    -15.401  0.1575E-01  0.1575E-01  0.2581E-01  0.2581E-01
    -15.297  0.1312E-01  0.1312E-01  0.2717E-01  0.2717E-01
    -15.193  0.1157E-01  0.1157E-01  0.2838E-01  0.2838E-01
    -15.089  0.1408E-01  0.1408E-01  0.2984E-01  0.2984E-01
    -14.985  0.1216E-01  0.1216E-01  0.3111E-01  0.3111E-01
    -14.881  0.1057E-01  0.1057E-01  0.3221E-01  0.3221E-01
    -14.777  0.1132E-01  0.1132E-01  0.3338E-01  0.3338E-01
    -14.673  0.1053E-01  0.1053E-01  0.3448E-01  0.3448E-01
    -14.569  0.8190E-02  0.8190E-02  0.3533E-01  0.3533E-01
    -14.465  0.7827E-02  0.7827E-02  0.3615E-01  0.3615E-01
    -14.360  0.7294E-02  0.7294E-02  0.3690E-01  0.3690E-01
    -14.256  0.8480E-02  0.8480E-02  0.3779E-01  0.3779E-01
    -14.152  0.1583E-01  0.1583E-01  0.3943E-01  0.3943E-01
    -14.048  0.1420E-01  0.1420E-01  0.4091E-01  0.4091E-01
    -13.944  0.5969E-02  0.5969E-02  0.4153E-01  0.4153E-01
    -13.840  0.5311E-02  0.5311E-02  0.4208E-01  0.4208E-01
    -13.736  0.4954E-02  0.4954E-02  0.4260E-01  0.4260E-01
    -13.632  0.4477E-02  0.4477E-02  0.4307E-01  0.4307E-01
    -13.528  0.7010E-02  0.7010E-02  0.4380E-01  0.4380E-01
    -13.424  0.1042E-01  0.1042E-01  0.4488E-01  0.4488E-01
    -13.320  0.7396E-02  0.7396E-02  0.4565E-01  0.4565E-01
    -13.216  0.5624E-02  0.5624E-02  0.4623E-01  0.4623E-01
    -13.112  0.7452E-02  0.7452E-02  0.4701E-01  0.4701E-01
    -13.008  0.7985E-02  0.7985E-02  0.4784E-01  0.4784E-01
    -12.904  0.7257E-02  0.7257E-02  0.4860E-01  0.4860E-01
    -12.800  0.8027E-02  0.8027E-02  0.4943E-01  0.4943E-01
    -12.696  0.7978E-02  0.7978E-02  0.5026E-01  0.5026E-01
    -12.592  0.9683E-02  0.9683E-02  0.5127E-01  0.5127E-01
    -12.488  0.1385E-01  0.1385E-01  0.5271E-01  0.5271E-01
    -12.384  0.1045E-01  0.1045E-01  0.5380E-01  0.5380E-01
    -12.280  0.1312E-01  0.1312E-01  0.5516E-01  0.5516E-01
    -12.175  0.1198E-01  0.1198E-01  0.5641E-01  0.5641E-01
    -12.071  0.1232E-01  0.1232E-01  0.5769E-01  0.5769E-01
    -11.967  0.1948E-01  0.1948E-01  0.5972E-01  0.5972E-01
    -11.863  0.1631E-01  0.1631E-01  0.6141E-01  0.6141E-01
    -11.759  0.1249E-01  0.1249E-01  0.6271E-01  0.6271E-01
    -11.655  0.1162E-01  0.1162E-01  0.6392E-01  0.6392E-01
    -11.551  0.1130E-01  0.1130E-01  0.6510E-01  0.6510E-01
    -11.447  0.9127E-02  0.9127E-02  0.6605E-01  0.6605E-01
    -11.343  0.4742E-02  0.4742E-02  0.6654E-01  0.6654E-01
    -11.239  0.2789E-02  0.2789E-02  0.6683E-01  0.6683E-01
    -11.135  0.4701E-02  0.4701E-02  0.6732E-01  0.6732E-01
    -11.031  0.6001E-02  0.6001E-02  0.6794E-01  0.6794E-01
    -10.927  0.6197E-02  0.6197E-02  0.6859E-01  0.6859E-01
    -10.823  0.6738E-02  0.6738E-02  0.6929E-01  0.6929E-01
    -10.719  0.8589E-02  0.8589E-02  0.7018E-01  0.7018E-01
    -10.615  0.9814E-02  0.9814E-02  0.7120E-01  0.7120E-01
    -10.511  0.1316E-01  0.1316E-01  0.7257E-01  0.7257E-01
    -10.407  0.1908E-01  0.1908E-01  0.7456E-01  0.7456E-01
    -10.303  0.1766E-01  0.1766E-01  0.7640E-01  0.7640E-01
    -10.199  0.6481E-02  0.6481E-02  0.7707E-01  0.7707E-01
    -10.094  0.3542E-02  0.3542E-02  0.7744E-01  0.7744E-01
     -9.990  0.1167E-01  0.1167E-01  0.7865E-01  0.7865E-01
     -9.886  0.1844E-01  0.1844E-01  0.8057E-01  0.8057E-01
     -9.782  0.1008E-01  0.1008E-01  0.8162E-01  0.8162E-01
     -9.678  0.5225E-02  0.5225E-02  0.8217E-01  0.8217E-01
     -9.574  0.4623E-02  0.4623E-02  0.8265E-01  0.8265E-01
     -9.470  0.1207E-01  0.1207E-01  0.8390E-01  0.8390E-01
     -9.366  0.2092E-01  0.2092E-01  0.8608E-01  0.8608E-01
     -9.262  0.1763E-01  0.1763E-01  0.8791E-01  0.8791E-01
     -9.158  0.1693E-01  0.1693E-01  0.8968E-01  0.8968E-01
     -9.054  0.1331E-01  0.1331E-01  0.9106E-01  0.9106E-01
     -8.950  0.1231E-01  0.1231E-01  0.9234E-01  0.9234E-01
     -8.846  0.1387E-01  0.1387E-01  0.9378E-01  0.9378E-01
     -8.742  0.1586E-01  0.1586E-01  0.9543E-01  0.9543E-01
     -8.638  0.1588E-01  0.1588E-01  0.9709E-01  0.9709E-01
     -8.534  0.1167E-01  0.1167E-01  0.9830E-01  0.9830E-01
     -8.430  0.1225E-01  0.1225E-01  0.9958E-01  0.9958E-01
     -8.326  0.2048E-01  0.2048E-01  0.1017E+00  0.1017E+00
     -8.222  0.1550E-01  0.1550E-01  0.1033E+00  0.1033E+00
     -8.118  0.9842E-02  0.9842E-02  0.1043E+00  0.1043E+00
     -8.014  0.1452E-01  0.1452E-01  0.1059E+00  0.1059E+00
     -7.909  0.1511E-01  0.1511E-01  0.1074E+00  0.1074E+00
     -7.805  0.1976E-01  0.1976E-01  0.1095E+00  0.1095E+00
     -7.701  0.2532E-01  0.2532E-01  0.1121E+00  0.1121E+00
     -7.597  0.1616E-01  0.1616E-01  0.1138E+00  0.1138E+00
     -7.493  0.1406E-01  0.1406E-01  0.1153E+00  0.1153E+00
     -7.389  0.1632E-01  0.1632E-01  0.1170E+00  0.1170E+00
     -7.285  0.2059E-01  0.2059E-01  0.1191E+00  0.1191E+00
     -7.181  0.1918E-01  0.1918E-01  0.1211E+00  0.1211E+00
     -7.077  0.1508E-01  0.1508E-01  0.1227E+00  0.1227E+00
     -6.973  0.1358E-01  0.1358E-01  0.1241E+00  0.1241E+00
     -6.869  0.1952E-01  0.1952E-01  0.1261E+00  0.1261E+00
     -6.765  0.2535E-01  0.2535E-01  0.1287E+00  0.1287E+00
     -6.661  0.2659E-01  0.2659E-01  0.1315E+00  0.1315E+00
     -6.557  0.2655E-01  0.2655E-01  0.1343E+00  0.1343E+00
     -6.453  0.2349E-01  0.2349E-01  0.1367E+00  0.1367E+00
     -6.349  0.2865E-01  0.2865E-01  0.1397E+00  0.1397E+00
     -6.245  0.2715E-01  0.2715E-01  0.1425E+00  0.1425E+00
     -6.141  0.1914E-01  0.1914E-01  0.1445E+00  0.1445E+00
     -6.037  0.1661E-01  0.1661E-01  0.1462E+00  0.1462E+00
     -5.933  0.1433E-01  0.1433E-01  0.1477E+00  0.1477E+00
     -5.828  0.1564E-01  0.1564E-01  0.1494E+00  0.1494E+00
     -5.724  0.1950E-01  0.1950E-01  0.1514E+00  0.1514E+00
     -5.620  0.1790E-01  0.1790E-01  0.1533E+00  0.1533E+00
     -5.516  0.8234E-02  0.8234E-02  0.1541E+00  0.1541E+00
     -5.412  0.8902E-02  0.8902E-02  0.1550E+00  0.1550E+00
     -5.308  0.1776E-01  0.1776E-01  0.1569E+00  0.1569E+00
     -5.204  0.2002E-01  0.2002E-01  0.1590E+00  0.1590E+00
     -5.100  0.1368E-01  0.1368E-01  0.1604E+00  0.1604E+00
     -4.996  0.1181E-01  0.1181E-01  0.1616E+00  0.1616E+00
     -4.892  0.1712E-01  0.1712E-01  0.1634E+00  0.1634E+00
     -4.788  0.1368E-01  0.1368E-01  0.1648E+00  0.1648E+00
     -4.684  0.1120E-01  0.1120E-01  0.1660E+00  0.1660E+00
     -4.580  0.1261E-01  0.1261E-01  0.1673E+00  0.1673E+00
     -4.476  0.1371E-01  0.1371E-01  0.1687E+00  0.1687E+00
     -4.372  0.1901E-01  0.1901E-01  0.1707E+00  0.1707E+00
     -4.268  0.1837E-01  0.1837E-01  0.1726E+00  0.1726E+00
     -4.164  0.1802E-01  0.1802E-01  0.1745E+00  0.1745E+00
     -4.060  0.1589E-01  0.1589E-01  0.1761E+00  0.1761E+00
     -3.956  0.2134E-01  0.2134E-01  0.1784E+00  0.1784E+00
     -3.852  0.2439E-01  0.2439E-01  0.1809E+00  0.1809E+00
     -3.748  0.2341E-01  0.2341E-01  0.1833E+00  0.1833E+00
     -3.643  0.2743E-01  0.2743E-01  0.1862E+00  0.1862E+00
     -3.539  0.2823E-01  0.2823E-01  0.1891E+00  0.1891E+00
     -3.435  0.2076E-01  0.2076E-01  0.1913E+00  0.1913E+00
     -3.331  0.1363E-01  0.1363E-01  0.1927E+00  0.1927E+00
     -3.227  0.1407E-01  0.1407E-01  0.1942E+00  0.1942E+00
     -3.123  0.1388E-01  0.1388E-01  0.1956E+00  0.1956E+00
     -3.019  0.1250E-01  0.1250E-01  0.1969E+00  0.1969E+00
     -2.915  0.1363E-01  0.1363E-01  0.1983E+00  0.1983E+00
     -2.811  0.1431E-01  0.1431E-01  0.1998E+00  0.1998E+00
     -2.707  0.8835E-02  0.8835E-02  0.2007E+00  0.2007E+00
     -2.603  0.7588E-02  0.7588E-02  0.2015E+00  0.2015E+00
     -2.499  0.1416E-01  0.1416E-01  0.2030E+00  0.2030E+00
     -2.395  0.2023E-01  0.2023E-01  0.2051E+00  0.2051E+00
     -2.291  0.9696E-02  0.9696E-02  0.2061E+00  0.2061E+00
     -2.187  0.6141E-02  0.6141E-02  0.2068E+00  0.2068E+00
     -2.083  0.8970E-02  0.8970E-02  0.2077E+00  0.2077E+00
     -1.979  0.8400E-02  0.8400E-02  0.2086E+00  0.2086E+00
     -1.875  0.8548E-02  0.8548E-02  0.2095E+00  0.2095E+00
     -1.771  0.1061E-01  0.1061E-01  0.2106E+00  0.2106E+00
     -1.667  0.7930E-02  0.7930E-02  0.2114E+00  0.2114E+00
     -1.562  0.5696E-02  0.5696E-02  0.2120E+00  0.2120E+00
     -1.458  0.9073E-02  0.9073E-02  0.2129E+00  0.2129E+00
     -1.354  0.9428E-02  0.9428E-02  0.2139E+00  0.2139E+00
     -1.250  0.4519E-02  0.4519E-02  0.2144E+00  0.2144E+00
     -1.146  0.6573E-02  0.6573E-02  0.2151E+00  0.2151E+00
     -1.042  0.7177E-02  0.7177E-02  0.2158E+00  0.2158E+00
     -0.938  0.5926E-02  0.5926E-02  0.2164E+00  0.2164E+00
     -0.834  0.6320E-02  0.6320E-02  0.2171E+00  0.2171E+00
     -0.730  0.3347E-02  0.3347E-02  0.2174E+00  0.2174E+00
     -0.626  0.1369E-02  0.1369E-02  0.2176E+00  0.2176E+00
     -0.522  0.2409E-02  0.2409E-02  0.2178E+00  0.2178E+00
     -0.418  0.4647E-02  0.4647E-02  0.2183E+00  0.2183E+00
     -0.314  0.3634E-02  0.3634E-02  0.2187E+00  0.2187E+00
     -0.210  0.1974E-02  0.1974E-02  0.2189E+00  0.2189E+00
     -0.106  0.1893E-02  0.1893E-02  0.2191E+00  0.2191E+00
     -0.002  0.3282E-02  0.3282E-02  0.2194E+00  0.2194E+00
      0.102  0.2942E-02  0.2942E-02  0.2197E+00  0.2197E+00
      0.206  0.4878E-02  0.4878E-02  0.2202E+00  0.2202E+00
      0.310  0.7807E-02  0.7807E-02  0.2211E+00  0.2211E+00
      0.414  0.9195E-02  0.9195E-02  0.2220E+00  0.2220E+00
      0.518  0.1020E-01  0.1020E-01  0.2231E+00  0.2231E+00
      0.623  0.9131E-02  0.9131E-02  0.2240E+00  0.2240E+00
      0.727  0.5443E-02  0.5443E-02  0.2246E+00  0.2246E+00
      0.831  0.6736E-02  0.6736E-02  0.2253E+00  0.2253E+00
      0.935  0.1181E-01  0.1181E-01  0.2265E+00  0.2265E+00
      1.039  0.8436E-02  0.8436E-02  0.2274E+00  0.2274E+00
      1.143  0.8339E-02  0.8339E-02  0.2283E+00  0.2283E+00
      1.247  0.1364E-01  0.1364E-01  0.2297E+00  0.2297E+00
      1.351  0.1699E-01  0.1699E-01  0.2314E+00  0.2314E+00
      1.455  0.1455E-01  0.1455E-01  0.2330E+00  0.2330E+00
      1.559  0.1050E-01  0.1050E-01  0.2341E+00  0.2341E+00
      1.663  0.7184E-02  0.7184E-02  0.2348E+00  0.2348E+00
      1.767  0.6611E-02  0.6611E-02  0.2355E+00  0.2355E+00
      1.871  0.9616E-02  0.9616E-02  0.2365E+00  0.2365E+00
      1.975  0.1073E-01  0.1073E-01  0.2376E+00  0.2376E+00
      2.079  0.1149E-01  0.1149E-01  0.2388E+00  0.2388E+00
      2.183  0.1051E-01  0.1051E-01  0.2399E+00  0.2399E+00
      2.287  0.9537E-02  0.9537E-02  0.2409E+00  0.2409E+00
      2.391  0.1303E-01  0.1303E-01  0.2422E+00  0.2422E+00
      2.495  0.6186E-02  0.6186E-02  0.2429E+00  0.2429E+00
      2.599  0.6692E-02  0.6692E-02  0.2436E+00  0.2436E+00
      2.704  0.1433E-01  0.1433E-01  0.2451E+00  0.2451E+00
      2.808  0.1274E-01  0.1274E-01  0.2464E+00  0.2464E+00
      2.912  0.1072E-01  0.1072E-01  0.2475E+00  0.2475E+00
      3.016  0.1225E-01  0.1225E-01  0.2488E+00  0.2488E+00
      3.120  0.9836E-02  0.9837E-02  0.2498E+00  0.2498E+00
      3.224  0.1424E-01  0.1425E-01  0.2513E+00  0.2513E+00
      3.328  0.1996E-01  0.1996E-01  0.2534E+00  0.2534E+00
      3.432  0.1623E-01  0.1623E-01  0.2551E+00  0.2551E+00
      3.536  0.1465E-01  0.1465E-01  0.2566E+00  0.2566E+00
      3.640  0.1443E-01  0.1444E-01  0.2581E+00  0.2581E+00
      3.744  0.1970E-01  0.1970E-01  0.2601E+00  0.2601E+00
      3.848  0.2379E-01  0.2379E-01  0.2626E+00  0.2626E+00
      3.952  0.2317E-01  0.2317E-01  0.2650E+00  0.2650E+00
      4.056  0.1771E-01  0.1771E-01  0.2669E+00  0.2669E+00
      4.160  0.1482E-01  0.1482E-01  0.2684E+00  0.2684E+00
      4.264  0.1788E-01  0.1788E-01  0.2703E+00  0.2703E+00
      4.368  0.2358E-01  0.2359E-01  0.2727E+00  0.2727E+00
      4.472  0.2616E-01  0.2616E-01  0.2754E+00  0.2754E+00
      4.576  0.1948E-01  0.1947E-01  0.2775E+00  0.2775E+00
      4.680  0.2284E-01  0.2285E-01  0.2798E+00  0.2798E+00
      4.784  0.3081E-01  0.3081E-01  0.2831E+00  0.2831E+00
      4.889  0.2557E-01  0.2559E-01  0.2857E+00  0.2857E+00
      4.993  0.1981E-01  0.1980E-01  0.2878E+00  0.2878E+00
      5.097  0.2327E-01  0.2328E-01  0.2902E+00  0.2902E+00
      5.201  0.3109E-01  0.3110E-01  0.2934E+00  0.2934E+00
      5.305  0.2961E-01  0.2959E-01  0.2965E+00  0.2965E+00
      5.409  0.2598E-01  0.2598E-01  0.2992E+00  0.2992E+00
      5.513  0.2614E-01  0.2616E-01  0.3019E+00  0.3019E+00
      5.617  0.2555E-01  0.2554E-01  0.3046E+00  0.3046E+00
      5.721  0.2617E-01  0.2615E-01  0.3073E+00  0.3073E+00
      5.825  0.2492E-01  0.2493E-01  0.3099E+00  0.3099E+00
      5.929  0.2306E-01  0.2306E-01  0.3123E+00  0.3123E+00
      6.033  0.1976E-01  0.1977E-01  0.3144E+00  0.3144E+00
      6.137  0.2019E-01  0.2021E-01  0.3165E+00  0.3165E+00
      6.241  0.2146E-01  0.2143E-01  0.3187E+00  0.3187E+00
      6.345  0.1923E-01  0.1922E-01  0.3207E+00  0.3207E+00
      6.449  0.1870E-01  0.1871E-01  0.3226E+00  0.3226E+00
      6.553  0.2182E-01  0.2183E-01  0.3249E+00  0.3249E+00
      6.657  0.2076E-01  0.2075E-01  0.3271E+00  0.3271E+00
      6.761  0.2261E-01  0.2262E-01  0.3294E+00  0.3294E+00
      6.865  0.3099E-01  0.3101E-01  0.3327E+00  0.3327E+00
      6.970  0.2935E-01  0.2934E-01  0.3357E+00  0.3357E+00
      7.074  0.2877E-01  0.2876E-01  0.3387E+00  0.3387E+00
      7.178  0.2741E-01  0.2742E-01  0.3416E+00  0.3416E+00
      7.282  0.2795E-01  0.2794E-01  0.3445E+00  0.3445E+00
      7.386  0.3228E-01  0.3230E-01  0.3478E+00  0.3478E+00
      7.490  0.3247E-01  0.3248E-01  0.3512E+00  0.3512E+00
      7.594  0.3192E-01  0.3190E-01  0.3545E+00  0.3545E+00
      7.698  0.4294E-01  0.4294E-01  0.3590E+00  0.3590E+00
      7.802  0.3736E-01  0.3736E-01  0.3629E+00  0.3629E+00
      7.906  0.3291E-01  0.3290E-01  0.3663E+00  0.3663E+00
      8.010  0.3313E-01  0.3312E-01  0.3697E+00  0.3697E+00
      8.114  0.2337E-01  0.2336E-01  0.3722E+00  0.3722E+00
      8.218  0.1532E-01  0.1531E-01  0.3738E+00  0.3738E+00
      8.322  0.8015E-02  0.8006E-02  0.3746E+00  0.3746E+00
      8.426  0.2841E-02  0.2839E-02  0.3749E+00  0.3749E+00
      8.530  0.5842E-03  0.5842E-03  0.3750E+00  0.3750E+00
      8.634  0.2905E-03  0.2905E-03  0.3750E+00  0.3750E+00
      8.738  0.8689E-04  0.8687E-04  0.3750E+00  0.3750E+00
      8.842  0.4156E-05  0.4154E-05  0.3750E+00  0.3750E+00
      8.946  0.2728E-07  0.2726E-07  0.3750E+00  0.3750E+00
      9.050  0.2283E-10  0.2280E-10  0.3750E+00  0.3750E+00
      9.155  0.2336E-14  0.2332E-14  0.3750E+00  0.3750E+00
      9.259  0.0000E+00  0.0000E+00  0.3750E+00  0.3750E+00
      9.363  0.0000E+00  0.0000E+00  0.3750E+00  0.3750E+00
      9.467  0.0000E+00  0.0000E+00  0.3750E+00  0.3750E+00
      9.571  0.0000E+00  0.0000E+00  0.3750E+00  0.3750E+00
      9.675  0.0000E+00  0.0000E+00  0.3750E+00  0.3750E+00
      9.779  0.0000E+00  0.0000E+00  0.3750E+00  0.3750E+00
      9.883  0.0000E+00  0.0000E+00  0.3750E+00  0.3750E+00
      9.987  0.0000E+00  0.0000E+00  0.3750E+00  0.3750E+00
