Lattice                                 
           1
     4.286826    2.475000    0.000000
    -4.286826    2.475000    0.000000
     0.000000    0.000000   15.000000
   B    C 
     8     8
Direct configuration=     1
   0.66888689  0.00000000  0.10000000
   0.33111211  0.00000000  0.10000000
   0.00000000  0.33111211  0.10000000
   0.00000000  0.66888689  0.10000000
   0.33111211  0.33111211  0.10000000
   0.66888689  0.66888689  0.10000000
   0.66666600  0.33333300  0.09922189
   0.33333300  0.66666600  0.10077811
   0.16666600  0.33333300  0.46773333
   0.33333300  0.16666600  0.46773333
   0.16666600  0.83333300  0.46773333
   0.33333300  0.66666600  0.46773333
   0.66666600  0.33333300  0.46773333
   0.83333300  0.16666600  0.46773333
   0.66666600  0.83333300  0.46773333
   0.83333300  0.66666600  0.46773333
Direct configuration=     2
   0.67134413  0.00000006  0.10002721
   0.32865492  0.00000006  0.10002721
  -0.00000006  0.32865487  0.10002721
  -0.00000006  0.67134408  0.10002721
   0.32865492  0.32865487  0.10002721
   0.67134413  0.67134408  0.10002721
   0.66666600  0.33333300  0.09923675
   0.33333300  0.66666600  0.10082281
   0.16666363  0.33332826  0.46770546
   0.33332839  0.16666369  0.46770549
   0.16666363  0.83333537  0.46770546
   0.33333300  0.66666600  0.46770545
   0.66666600  0.33333300  0.46770553
   0.83333531  0.16666369  0.46770549
   0.66667074  0.83333537  0.46770546
   0.83333531  0.66667061  0.46770549
Direct configuration=     3
   0.67008276  0.00000003  0.10001324
   0.32991627  0.00000003  0.10001324
  -0.00000003  0.32991624  0.10001324
  -0.00000003  0.67008273  0.10001324
   0.32991627  0.32991624  0.10001324
   0.67008276  0.67008273  0.10001324
   0.66666600  0.33333300  0.09922912
   0.33333300  0.66666600  0.10079987
   0.16666485  0.33333070  0.46771977
   0.33333075  0.16666488  0.46771978
   0.16666485  0.83333415  0.46771977
   0.33333300  0.66666600  0.46771976
   0.66666600  0.33333300  0.46771980
   0.83333412  0.16666488  0.46771978
   0.66666830  0.83333415  0.46771977
   0.83333412  0.66666825  0.46771978
Direct configuration=     4
   0.67009015  0.00000003  0.10001333
   0.32990887  0.00000003  0.10001333
  -0.00000003  0.32990885  0.10001333
  -0.00000003  0.67009013  0.10001333
   0.32990887  0.32990885  0.10001333
   0.67009015  0.67009013  0.10001333
   0.66666600  0.33333300  0.09922916
   0.33333300  0.66666600  0.10080000
   0.16666484  0.33333068  0.46771969
   0.33333074  0.16666487  0.46771970
   0.16666484  0.83333416  0.46771969
   0.33333300  0.66666600  0.46771968
   0.66666600  0.33333300  0.46771972
   0.83333413  0.16666487  0.46771970
   0.66666832  0.83333416  0.46771969
   0.83333413  0.66666826  0.46771970
Direct configuration=     5
   0.67008702  0.00000003  0.10001329
   0.32991201  0.00000003  0.10001329
  -0.00000003  0.32991198  0.10001329
  -0.00000003  0.67008699  0.10001329
   0.32991201  0.32991198  0.10001329
   0.67008702  0.67008699  0.10001329
   0.66666600  0.33333300  0.09922915
   0.33333300  0.66666600  0.10079995
   0.16666484  0.33333069  0.46771972
   0.33333075  0.16666487  0.46771973
   0.16666484  0.83333416  0.46771972
   0.33333300  0.66666600  0.46771971
   0.66666600  0.33333300  0.46771976
   0.83333413  0.16666487  0.46771973
   0.66666831  0.83333416  0.46771972
   0.83333413  0.66666825  0.46771973
Direct configuration=     6
   0.67008489  0.00000003  0.10001327
   0.32991414  0.00000003  0.10001327
  -0.00000003  0.32991411  0.10001327
  -0.00000003  0.67008486  0.10001327
   0.32991414  0.32991411  0.10001327
   0.67008489  0.67008486  0.10001327
   0.66666600  0.33333300  0.09922913
   0.33333300  0.66666600  0.10079991
   0.16666485  0.33333069  0.46771975
   0.33333075  0.16666488  0.46771976
   0.16666485  0.83333415  0.46771975
   0.33333300  0.66666600  0.46771974
   0.66666600  0.33333300  0.46771978
   0.83333412  0.16666488  0.46771976
   0.66666831  0.83333415  0.46771975
   0.83333412  0.66666825  0.46771976
Direct configuration=     7
   0.67008382  0.00000003  0.10001326
   0.32991521  0.00000003  0.10001326
  -0.00000003  0.32991518  0.10001326
  -0.00000003  0.67008379  0.10001326
   0.32991521  0.32991518  0.10001326
   0.67008382  0.67008379  0.10001326
   0.66666600  0.33333300  0.09922913
   0.33333300  0.66666600  0.10079989
   0.16666485  0.33333069  0.46771976
   0.33333075  0.16666488  0.46771977
   0.16666485  0.83333415  0.46771976
   0.33333300  0.66666600  0.46771975
   0.66666600  0.33333300  0.46771979
   0.83333412  0.16666488  0.46771977
   0.66666831  0.83333415  0.46771976
   0.83333412  0.66666825  0.46771977
Direct configuration=     8
   0.67008376 -0.00000000  0.10003788
   0.32991524 -0.00000000  0.10003788
   0.00000000  0.32991524  0.10003788
   0.00000000  0.67008376  0.10003788
   0.32991524  0.32991524  0.10003788
   0.67008376  0.67008376  0.10003788
   0.66666600  0.33333300  0.09924647
   0.33333300  0.66666600  0.10083535
   0.16666658  0.33333415  0.46769467
   0.33333412  0.16666656  0.46769470
   0.16666658  0.83333242  0.46769467
   0.33333300  0.66666600  0.46769467
   0.66666600  0.33333300  0.46769477
   0.83333244  0.16666656  0.46769470
   0.66666485  0.83333242  0.46769467
   0.83333244  0.66666488  0.46769470
Direct configuration=     9
   0.67008357 -0.00000009  0.10011176
   0.32991534 -0.00000009  0.10011176
   0.00000009  0.32991543  0.10011176
   0.00000009  0.67008366  0.10011176
   0.32991534  0.32991543  0.10011176
   0.67008357  0.67008366  0.10011176
   0.66666600  0.33333300  0.09929850
   0.33333300  0.66666600  0.10094173
   0.16667177  0.33334454  0.46761942
   0.33334423  0.16667161  0.46761950
   0.16667177  0.83332723  0.46761942
   0.33333300  0.66666600  0.46761943
   0.66666600  0.33333300  0.46761970
   0.83332739  0.16667161  0.46761950
   0.66665446  0.83332723  0.46761942
   0.83332739  0.66665477  0.46761950
Direct configuration=    10
   0.67008318 -0.00000028  0.10025951
   0.32991554 -0.00000028  0.10025951
   0.00000028  0.32991582  0.10025951
   0.00000028  0.67008346  0.10025951
   0.32991554  0.32991582  0.10025951
   0.67008318  0.67008346  0.10025951
   0.66666600  0.33333300  0.09940257
   0.33333300  0.66666600  0.10115451
   0.16668215  0.33336530  0.46746891
   0.33336443  0.16668172  0.46746910
   0.16668215  0.83331685  0.46746891
   0.33333300  0.66666600  0.46746895
   0.66666600  0.33333300  0.46746957
   0.83331728  0.16668172  0.46746910
   0.66663370  0.83331685  0.46746891
   0.83331728  0.66663457  0.46746910
Direct configuration=    11
   0.67008242 -0.00000064  0.10055501
   0.32991594 -0.00000064  0.10055501
   0.00000064  0.32991658  0.10055501
   0.00000064  0.67008306  0.10055501
   0.32991594  0.32991658  0.10055501
   0.67008242  0.67008306  0.10055501
   0.66666600  0.33333300  0.09961070
   0.33333300  0.66666600  0.10158005
   0.16670292  0.33340683  0.46716789
   0.33340485  0.16670193  0.46716830
   0.16670292  0.83329608  0.46716789
   0.33333300  0.66666600  0.46716799
   0.66666600  0.33333300  0.46716930
   0.83329707  0.16670193  0.46716830
   0.66659217  0.83329608  0.46716789
   0.83329707  0.66659415  0.46716830
Direct configuration=    12
   0.67008089 -0.00000136  0.10114601
   0.32991675 -0.00000136  0.10114601
   0.00000136  0.32991811  0.10114601
   0.00000136  0.67008225  0.10114601
   0.32991675  0.32991811  0.10114601
   0.67008089  0.67008225  0.10114601
   0.66666600  0.33333300  0.10002697
   0.33333300  0.66666600  0.10243113
   0.16674445  0.33348989  0.46656586
   0.33348569  0.16674234  0.46656669
   0.16674445  0.83325455  0.46656586
   0.33333300  0.66666600  0.46656608
   0.66666600  0.33333300  0.46656877
   0.83325666  0.16674234  0.46656669
   0.66650911  0.83325455  0.46656586
   0.83325666  0.66651331  0.46656669
Direct configuration=    13
   0.67007783 -0.00000282  0.10232802
   0.32991835 -0.00000282  0.10232802
   0.00000282  0.32992117  0.10232802
   0.00000282  0.67008065  0.10232802
   0.32991835  0.32992117  0.10232802
   0.67007783  0.67008065  0.10232802
   0.66666600  0.33333300  0.10085949
   0.33333300  0.66666600  0.10413330
   0.16682751  0.33365601  0.46536179
   0.33364736  0.16682318  0.46536348
   0.16682751  0.83317149  0.46536179
   0.33333300  0.66666600  0.46536224
   0.66666600  0.33333300  0.46536770
   0.83317582  0.16682318  0.46536348
   0.66634299  0.83317149  0.46536179
   0.83317582  0.66635164  0.46536348
Direct configuration=    14
   0.67007171 -0.00000572  0.10469203
   0.32992157 -0.00000572  0.10469203
   0.00000572  0.32992729  0.10469203
   0.00000572  0.67007743  0.10469203
   0.32992157  0.32992729  0.10469203
   0.67007171  0.67007743  0.10469203
   0.66666600  0.33333300  0.10252455
   0.33333300  0.66666600  0.10753763
   0.16699363  0.33398826  0.46295365
   0.33397070  0.16698485  0.46295706
   0.16699363  0.83300537  0.46295365
   0.33333300  0.66666600  0.46295457
   0.66666600  0.33333300  0.46296557
   0.83301415  0.16698485  0.46295706
   0.66601074  0.83300537  0.46295365
   0.83301415  0.66602830  0.46295706
Direct configuration=    15
   0.67005948 -0.00001153  0.10942006
   0.32992799 -0.00001153  0.10942006
   0.00001153  0.32993952  0.10942006
   0.00001153  0.67007101  0.10942006
   0.32992799  0.32993952  0.10942006
   0.67005948  0.67007101  0.10942006
   0.66666600  0.33333300  0.10585467
   0.33333300  0.66666600  0.11434629
   0.16732587  0.33465274  0.45813738
   0.33461738  0.16730819  0.45814423
   0.16732587  0.83267313  0.45813738
   0.33333300  0.66666600  0.45813924
   0.66666600  0.33333300  0.45816131
   0.83269081  0.16730819  0.45814423
   0.66534626  0.83267313  0.45813738
   0.83269081  0.66538162  0.45814423
Direct configuration=    16
   0.67003500 -0.00002315  0.11887611
   0.32994085 -0.00002315  0.11887611
   0.00002315  0.32996400  0.11887611
   0.00002315  0.67005815  0.11887611
   0.32994085  0.32996400  0.11887611
   0.67003500  0.67005815  0.11887611
   0.66666600  0.33333300  0.11251490
   0.33333300  0.66666600  0.12796363
   0.16799036  0.33598172  0.44850483
   0.33591074  0.16795487  0.44851855
   0.16799036  0.83200864  0.44850483
   0.33333300  0.66666600  0.44850857
   0.66666600  0.33333300  0.44855278
   0.83204413  0.16795487  0.44851855
   0.66401728  0.83200864  0.44850483
   0.83204413  0.66408826  0.44851855
Direct configuration=    17
   0.66998606 -0.00004638  0.13778822
   0.32996656 -0.00004638  0.13778822
   0.00004638  0.33001294  0.13778822
   0.00004638  0.67003244  0.13778822
   0.32996656  0.33001294  0.13778822
   0.66998606  0.67003244  0.13778822
   0.66666600  0.33333300  0.12583536
   0.33333300  0.66666600  0.15519829
   0.16931933  0.33863966  0.42923973
   0.33849746  0.16924823  0.42926720
   0.16931933  0.83067967  0.42923973
   0.33333300  0.66666600  0.42924723
   0.66666600  0.33333300  0.42933572
   0.83075077  0.16924823  0.42926720
   0.66135934  0.83067967  0.42923973
   0.83075077  0.66150154  0.42926720
Direct configuration=    18
   0.67002071 -0.00002993  0.12439752
   0.32994836 -0.00002993  0.12439752
   0.00002993  0.32997829  0.12439752
   0.00002993  0.67005064  0.12439752
   0.32994836  0.32997829  0.12439752
   0.67002071  0.67005064  0.12439752
   0.66666600  0.33333300  0.11640382
   0.33333300  0.66666600  0.13591481
   0.16837835  0.33675771  0.44288036
   0.33666593  0.16833247  0.44289810
   0.16837835  0.83162065  0.44288036
   0.33333300  0.66666600  0.44288520
   0.66666600  0.33333300  0.44294234
   0.83166653  0.16833247  0.44289810
   0.66324129  0.83162065  0.44288036
   0.83166653  0.66333307  0.44289810
Direct configuration=    19
   0.67002071 -0.00002993  0.12439828
   0.32994836 -0.00002993  0.12439828
   0.00002993  0.32997829  0.12439828
   0.00002993  0.67005064  0.12439828
   0.32994836  0.32997829  0.12439828
   0.67002071  0.67005064  0.12439828
   0.66666600  0.33333300  0.11640436
   0.33333300  0.66666600  0.13591591
   0.16837838  0.33675776  0.44287958
   0.33666598  0.16833249  0.44289732
   0.16837838  0.83162062  0.44287958
   0.33333300  0.66666600  0.44288442
   0.66666600  0.33333300  0.44294156
   0.83166651  0.16833249  0.44289732
   0.66324124  0.83162062  0.44287958
   0.83166651  0.66333302  0.44289732
Direct configuration=    20
   0.67002069 -0.00002994  0.12440058
   0.32994837 -0.00002994  0.12440058
   0.00002994  0.32997831  0.12440058
   0.00002994  0.67005063  0.12440058
   0.32994837  0.32997831  0.12440058
   0.67002069  0.67005063  0.12440058
   0.66666600  0.33333300  0.11640597
   0.33333300  0.66666600  0.13591921
   0.16837845  0.33675791  0.44287725
   0.33666613  0.16833257  0.44289499
   0.16837845  0.83162055  0.44287725
   0.33333300  0.66666600  0.44288208
   0.66666600  0.33333300  0.44293923
   0.83166643  0.16833257  0.44289499
   0.66324109  0.83162055  0.44287725
   0.83166643  0.66333287  0.44289499
Direct configuration=    21
   0.67002064 -0.00002996  0.12440517
   0.32994840 -0.00002996  0.12440517
   0.00002996  0.32997836  0.12440517
   0.00002996  0.67005060  0.12440517
   0.32994840  0.32997836  0.12440517
   0.67002064  0.67005060  0.12440517
   0.66666600  0.33333300  0.11640920
   0.33333300  0.66666600  0.13592582
   0.16837861  0.33675822  0.44287257
   0.33666643  0.16833271  0.44289031
   0.16837861  0.83162039  0.44287257
   0.33333300  0.66666600  0.44287741
   0.66666600  0.33333300  0.44293456
   0.83166629  0.16833271  0.44289031
   0.66324078  0.83162039  0.44287257
   0.83166629  0.66333257  0.44289031
Direct configuration=    22
   0.67002056 -0.00002999  0.12441436
   0.32994845 -0.00002999  0.12441436
   0.00002999  0.32997844  0.12441436
   0.00002999  0.67005055  0.12441436
   0.32994845  0.32997844  0.12441436
   0.67002056  0.67005055  0.12441436
   0.66666600  0.33333300  0.11641566
   0.33333300  0.66666600  0.13593904
   0.16837891  0.33675883  0.44286321
   0.33666703  0.16833301  0.44288096
   0.16837891  0.83162009  0.44286321
   0.33333300  0.66666600  0.44286805
   0.66666600  0.33333300  0.44292523
   0.83166599  0.16833301  0.44288096
   0.66324017  0.83162009  0.44286321
   0.83166599  0.66333197  0.44288096
Direct configuration=    23
   0.67002039 -0.00003007  0.12443273
   0.32994854 -0.00003007  0.12443273
   0.00003007  0.32997861  0.12443273
   0.00003007  0.67005046  0.12443273
   0.32994854  0.32997861  0.12443273
   0.67002039  0.67005046  0.12443273
   0.66666600  0.33333300  0.11642859
   0.33333300  0.66666600  0.13596548
   0.16837953  0.33676005  0.44284450
   0.33666822  0.16833361  0.44286226
   0.16837953  0.83161947  0.44284450
   0.33333300  0.66666600  0.44284935
   0.66666600  0.33333300  0.44290656
   0.83166539  0.16833361  0.44286226
   0.66323895  0.83161947  0.44284450
   0.83166539  0.66333078  0.44286226
Direct configuration=    24
   0.67002006 -0.00003021  0.12446948
   0.32994873 -0.00003021  0.12446948
   0.00003021  0.32997894  0.12446948
   0.00003021  0.67005027  0.12446948
   0.32994873  0.32997894  0.12446948
   0.67002006  0.67005027  0.12446948
   0.66666600  0.33333300  0.11645443
   0.33333300  0.66666600  0.13601835
   0.16838075  0.33676250  0.44280708
   0.33667060  0.16833480  0.44282487
   0.16838075  0.83161825  0.44280708
   0.33333300  0.66666600  0.44281193
   0.66666600  0.33333300  0.44286923
   0.83166420  0.16833480  0.44282487
   0.66323650  0.83161825  0.44280708
   0.83166420  0.66332840  0.44282487
Direct configuration=    25
   0.67001939 -0.00003050  0.12454298
   0.32994911 -0.00003050  0.12454298
   0.00003050  0.32997961  0.12454298
   0.00003050  0.67004989  0.12454298
   0.32994911  0.32997961  0.12454298
   0.67001939  0.67004989  0.12454298
   0.66666600  0.33333300  0.11650613
   0.33333300  0.66666600  0.13612409
   0.16838320  0.33676739  0.44273224
   0.33667537  0.16833718  0.44275008
   0.16838320  0.83161580  0.44273224
   0.33333300  0.66666600  0.44273710
   0.66666600  0.33333300  0.44279455
   0.83166182  0.16833718  0.44275008
   0.66323161  0.83161580  0.44273224
   0.83166182  0.66332363  0.44275008
Direct configuration=    26
   0.67001806 -0.00003108  0.12468997
   0.32994987 -0.00003108  0.12468997
   0.00003108  0.32998094  0.12468997
   0.00003108  0.67004913  0.12468997
   0.32994987  0.32998094  0.12468997
   0.67001806  0.67004913  0.12468997
   0.66666600  0.33333300  0.11660952
   0.33333300  0.66666600  0.13633558
   0.16838809  0.33677718  0.44258255
   0.33668491  0.16834195  0.44260049
   0.16838809  0.83161091  0.44258255
   0.33333300  0.66666600  0.44258743
   0.66666600  0.33333300  0.44264521
   0.83165705  0.16834195  0.44260049
   0.66322182  0.83161091  0.44258255
   0.83165705  0.66331409  0.44260049
Direct configuration=    27
   0.67001539 -0.00003223  0.12498395
   0.32995138 -0.00003223  0.12498395
   0.00003223  0.32998361  0.12498395
   0.00003223  0.67004762  0.12498395
   0.32995138  0.32998361  0.12498395
   0.67001539  0.67004762  0.12498395
   0.66666600  0.33333300  0.11681630
   0.33333300  0.66666600  0.13675855
   0.16839788  0.33679675  0.44228318
   0.33670398  0.16835149  0.44230132
   0.16839788  0.83160112  0.44228318
   0.33333300  0.66666600  0.44228810
   0.66666600  0.33333300  0.44234653
   0.83164751  0.16835149  0.44230132
   0.66320225  0.83160112  0.44228318
   0.83164751  0.66329502  0.44230132
Direct configuration=    28
   0.67001005 -0.00003454  0.12557191
   0.32995441 -0.00003454  0.12557191
   0.00003454  0.32998895  0.12557191
   0.00003454  0.67004459  0.12557191
   0.32995441  0.32998895  0.12557191
   0.67001005  0.67004459  0.12557191
   0.66666600  0.33333300  0.11722985
   0.33333300  0.66666600  0.13760449
   0.16841745  0.33683590  0.44168444
   0.33674212  0.16837056  0.44170298
   0.16841745  0.83158155  0.44168444
   0.33333300  0.66666600  0.44168944
   0.66666600  0.33333300  0.44174915
   0.83162844  0.16837056  0.44170298
   0.66316310  0.83158155  0.44168444
   0.83162844  0.66325688  0.44170298
Direct configuration=    29
   0.66999937 -0.00003915  0.12674784
   0.32996048 -0.00003915  0.12674784
   0.00003915  0.32999963  0.12674784
   0.00003915  0.67003852  0.12674784
   0.32996048  0.32999963  0.12674784
   0.66999937  0.67003852  0.12674784
   0.66666600  0.33333300  0.11805697
   0.33333300  0.66666600  0.13929637
   0.16845660  0.33691420  0.44048696
   0.33681841  0.16840870  0.44050630
   0.16845660  0.83154240  0.44048696
   0.33333300  0.66666600  0.44049212
   0.66666600  0.33333300  0.44055441
   0.83159030  0.16840870  0.44050630
   0.66308480  0.83154240  0.44048696
   0.83159030  0.66318059  0.44050630
Direct configuration=    30
   0.66997801 -0.00004839  0.12909969
   0.32997261 -0.00004839  0.12909969
   0.00004839  0.33002099  0.12909969
   0.00004839  0.67002639  0.12909969
   0.32997261  0.33002099  0.12909969
   0.66997801  0.67002639  0.12909969
   0.66666600  0.33333300  0.11971120
   0.33333300  0.66666600  0.14268013
   0.16853489  0.33707079  0.43809200
   0.33697099  0.16848499  0.43811294
   0.16853489  0.83146411  0.43809200
   0.33333300  0.66666600  0.43809747
   0.66666600  0.33333300  0.43816492
   0.83151401  0.16848499  0.43811294
   0.66292821  0.83146411  0.43809200
   0.83151401  0.66302801  0.43811294
Direct configuration=    31
   0.66993528 -0.00006685  0.13380339
   0.32999687 -0.00006685  0.13380339
   0.00006685  0.33006372  0.13380339
   0.00006685  0.67000213  0.13380339
   0.32999687  0.33006372  0.13380339
   0.66993528  0.67000213  0.13380339
   0.66666600  0.33333300  0.12301966
   0.33333300  0.66666600  0.14944766
   0.16869148  0.33738397  0.43330207
   0.33727614  0.16863757  0.43332622
   0.16869148  0.83130752  0.43330207
   0.33333300  0.66666600  0.43330818
   0.66666600  0.33333300  0.43338595
   0.83136143  0.16863757  0.43332622
   0.66261503  0.83130752  0.43330207
   0.83136143  0.66272286  0.43332622
Direct configuration=    32
   0.66984984 -0.00010378  0.14321080
   0.33004538 -0.00010378  0.14321080
   0.00010378  0.33014916  0.14321080
   0.00010378  0.66995362  0.14321080
   0.33004538  0.33014916  0.14321080
   0.66984984  0.66995362  0.14321080
   0.66666600  0.33333300  0.12963657
   0.33333300  0.66666600  0.16298271
   0.16900467  0.33801033  0.42372222
   0.33788644  0.16894272  0.42375277
   0.16900467  0.83099433  0.42372222
   0.33333300  0.66666600  0.42372959
   0.66666600  0.33333300  0.42382801
   0.83105628  0.16894272  0.42375277
   0.66198867  0.83099433  0.42372222
   0.83105628  0.66211256  0.42375277
Direct configuration=    33
   0.66967895 -0.00017764  0.16202562
   0.33014241 -0.00017764  0.16202562
   0.00017764  0.33032005  0.16202562
   0.00017764  0.66985659  0.16202562
   0.33014241  0.33032005  0.16202562
   0.66967895  0.66985659  0.16202562
   0.66666600  0.33333300  0.14287040
   0.33333300  0.66666600  0.19005282
   0.16963103  0.33926306  0.40456252
   0.33910705  0.16955303  0.40460588
   0.16963103  0.83036797  0.40456252
   0.33333300  0.66666600  0.40457242
   0.66666600  0.33333300  0.40471211
   0.83044597  0.16955303  0.40460588
   0.66073594  0.83036797  0.40456252
   0.83044597  0.66089195  0.40460588
Direct configuration=    34
   0.66980922 -0.00012134  0.14768326
   0.33006845 -0.00012134  0.14768326
   0.00012134  0.33018978  0.14768326
   0.00012134  0.66993055  0.14768326
   0.33006845  0.33018978  0.14768326
   0.66980922  0.66993055  0.14768326
   0.66666600  0.33333300  0.13278238
   0.33333300  0.66666600  0.16941754
   0.16915356  0.33830812  0.41916778
   0.33817659  0.16908780  0.41920137
   0.16915356  0.83084544  0.41916778
   0.33333300  0.66666600  0.41917575
   0.66666600  0.33333300  0.41928398
   0.83091120  0.16908780  0.41920137
   0.66169088  0.83084544  0.41916778
   0.83091120  0.66182241  0.41920137
Direct configuration=    35
   0.66976190 -0.00014179  0.15289345
   0.33009532 -0.00014179  0.15289345
   0.00014179  0.33023710  0.15289345
   0.00014179  0.66990368  0.15289345
   0.33009532  0.33023710  0.15289345
   0.66976190  0.66990368  0.15289345
   0.66666600  0.33333300  0.13644708
   0.33333300  0.66666600  0.17691377
   0.16932701  0.33865502  0.41386209
   0.33851460  0.16925680  0.41389923
   0.16932701  0.83067199  0.41386209
   0.33333300  0.66666600  0.41387076
   0.66666600  0.33333300  0.41399042
   0.83074220  0.16925680  0.41389923
   0.66134398  0.83067199  0.41386209
   0.83074220  0.66148440  0.41389923
Direct configuration=    36
   0.66957188 -0.00022212  0.15853153
   0.33020500 -0.00022212  0.15853153
   0.00022212  0.33042712  0.15853153
   0.00022212  0.66979400  0.15853153
   0.33020500  0.33042712  0.15853153
   0.66957188  0.66979400  0.15853153
   0.66666600  0.33333300  0.14042193
   0.33333300  0.66666600  0.18496408
   0.16918440  0.33836979  0.40812830
   0.33824176  0.16912038  0.40816780
   0.16918440  0.83081460  0.40812830
   0.33333300  0.66666600  0.40813668
   0.66666600  0.33333300  0.40826649
   0.83087862  0.16912038  0.40816780
   0.66162921  0.83081460  0.40812830
   0.83087862  0.66175724  0.40816780
Direct configuration=    37
   0.66948403 -0.00025926  0.16113802
   0.33025571 -0.00025926  0.16113802
   0.00025926  0.33051497  0.16113802
   0.00025926  0.66974329  0.16113802
   0.33025571  0.33051497  0.16113802
   0.66948403  0.66974329  0.16113802
   0.66666600  0.33333300  0.14225950
   0.33333300  0.66666600  0.18868573
   0.16911847  0.33823793  0.40547757
   0.33811562  0.16905731  0.40551816
   0.16911847  0.83088053  0.40547757
   0.33333300  0.66666600  0.40548581
   0.66666600  0.33333300  0.40562032
   0.83094169  0.16905731  0.40551816
   0.66176107  0.83088053  0.40547757
   0.83094169  0.66188338  0.40551816
Direct configuration=    38
   0.66933415 -0.00032330  0.16084880
   0.33034155 -0.00032330  0.16084880
   0.00032330  0.33066485  0.16084880
   0.00032330  0.66965745  0.16084880
   0.33034155  0.33066485  0.16084880
   0.66933415  0.66965745  0.16084880
   0.66666600  0.33333300  0.14208206
   0.33333300  0.66666600  0.18817226
   0.16879068  0.33758236  0.40578322
   0.33748694  0.16874297  0.40582023
   0.16879068  0.83120832  0.40578322
   0.33333300  0.66666600  0.40578917
   0.66666600  0.33333300  0.40592004
   0.83125603  0.16874297  0.40582023
   0.66241664  0.83120832  0.40578322
   0.83125603  0.66251206  0.40582023
Direct configuration=    39
   0.66888449 -0.00051543  0.15998114
   0.33059909 -0.00051543  0.15998114
   0.00051543  0.33111451  0.15998114
   0.00051543  0.66939991  0.15998114
   0.33059909  0.33111451  0.15998114
   0.66888449  0.66939991  0.15998114
   0.66666600  0.33333300  0.14154976
   0.33333300  0.66666600  0.18663184
   0.16780733  0.33561566  0.40670016
   0.33560089  0.16779995  0.40672641
   0.16780733  0.83219167  0.40670016
   0.33333300  0.66666600  0.40669926
   0.66666600  0.33333300  0.40681921
   0.83219905  0.16779995  0.40672641
   0.66438334  0.83219167  0.40670016
   0.83219905  0.66439811  0.40672641
Direct configuration=    40
   0.66798516 -0.00089968  0.15824583
   0.33111416 -0.00089968  0.15824583
   0.00089968  0.33201384  0.15824583
   0.00089968  0.66888484  0.15824583
   0.33111416  0.33201384  0.15824583
   0.66798516  0.66888484  0.15824583
   0.66666600  0.33333300  0.14048516
   0.33333300  0.66666600  0.18355101
   0.16584062  0.33168224  0.40853406
   0.33182880  0.16591390  0.40853879
   0.16584062  0.83415838  0.40853406
   0.33333300  0.66666600  0.40851942
   0.66666600  0.33333300  0.40861755
   0.83408510  0.16591390  0.40853879
   0.66831676  0.83415838  0.40853406
   0.83408510  0.66817020  0.40853879
Direct configuration=    41
   0.66828809 -0.00077025  0.15883035
   0.33094066 -0.00077025  0.15883035
   0.00077025  0.33171091  0.15883035
   0.00077025  0.66905834  0.15883035
   0.33094066  0.33171091  0.15883035
   0.66828809  0.66905834  0.15883035
   0.66666600  0.33333300  0.14084376
   0.33333300  0.66666600  0.18458875
   0.16650308  0.33300716  0.40791633
   0.33309938  0.16654919  0.40792831
   0.16650308  0.83349592  0.40791633
   0.33333300  0.66666600  0.40790632
   0.66666600  0.33333300  0.40801180
   0.83344981  0.16654919  0.40792831
   0.66699184  0.83349592  0.40791633
   0.83344981  0.66689962  0.40792831
Direct configuration=    42
   0.66815881 -0.00079072  0.15883172
   0.33104947 -0.00079072  0.15883172
   0.00079072  0.33184019  0.15883172
   0.00079072  0.66894953  0.15883172
   0.33104947  0.33184019  0.15883172
   0.66815881  0.66894953  0.15883172
   0.66666600  0.33333300  0.14089789
   0.33333300  0.66666600  0.18440551
   0.16652214  0.33304528  0.40793468
   0.33312901  0.16656400  0.40794256
   0.16652214  0.83347686  0.40793468
   0.33333300  0.66666600  0.40792118
   0.66666600  0.33333300  0.40802001
   0.83343500  0.16656400  0.40794256
   0.66695372  0.83347686  0.40793468
   0.83343500  0.66686999  0.40794256
Direct configuration=    43
   0.66777099 -0.00085212  0.15883585
   0.33137589 -0.00085212  0.15883585
   0.00085212  0.33222801  0.15883585
   0.00085212  0.66862311  0.15883585
   0.33137589  0.33222801  0.15883585
   0.66777099  0.66862311  0.15883585
   0.66666600  0.33333300  0.14106028
   0.33333300  0.66666600  0.18385577
   0.16657931  0.33315961  0.40798974
   0.33321788  0.16660844  0.40798531
   0.16657931  0.83341969  0.40798974
   0.33333300  0.66666600  0.40796576
   0.66666600  0.33333300  0.40804462
   0.83339056  0.16660844  0.40798531
   0.66683939  0.83341969  0.40798974
   0.83339056  0.66678112  0.40798531
Direct configuration=    44
   0.66699535 -0.00097492  0.15884410
   0.33202874 -0.00097492  0.15884410
   0.00097492  0.33300365  0.15884410
   0.00097492  0.66797026  0.15884410
   0.33202874  0.33300365  0.15884410
   0.66699535  0.66797026  0.15884410
   0.66666600  0.33333300  0.14138507
   0.33333300  0.66666600  0.18275629
   0.16669364  0.33338829  0.40809984
   0.33339564  0.16669732  0.40807081
   0.16669364  0.83330536  0.40809984
   0.33333300  0.66666600  0.40805491
   0.66666600  0.33333300  0.40809385
   0.83330168  0.16669732  0.40807081
   0.66661071  0.83330536  0.40809984
   0.83330168  0.66660336  0.40807081
Direct configuration=    45
   0.66544406 -0.00122052  0.15886060
   0.33333443 -0.00122052  0.15886060
   0.00122052  0.33455494  0.15886060
   0.00122052  0.66666457  0.15886060
   0.33333443  0.33455494  0.15886060
   0.66544406  0.66666457  0.15886060
   0.66666600  0.33333300  0.14203464
   0.33333300  0.66666600  0.18055732
   0.16692232  0.33384564  0.40832006
   0.33375115  0.16687507  0.40824181
   0.16692232  0.83307668  0.40832006
   0.33333300  0.66666600  0.40823322
   0.66666600  0.33333300  0.40819231
   0.83312393  0.16687507  0.40824181
   0.66615336  0.83307668  0.40832006
   0.83312393  0.66624785  0.40824181
Direct configuration=    46
   0.66654605 -0.00104605  0.15884888
   0.33240690 -0.00104605  0.15884888
   0.00104605  0.33345295  0.15884888
   0.00104605  0.66759210  0.15884888
   0.33240690  0.33345295  0.15884888
   0.66654605  0.66759210  0.15884888
   0.66666600  0.33333300  0.14157320
   0.33333300  0.66666600  0.18211941
   0.16675987  0.33352075  0.40816362
   0.33349860  0.16674880  0.40812033
   0.16675987  0.83323913  0.40816362
   0.33333300  0.66666600  0.40810655
   0.66666600  0.33333300  0.40812237
   0.83325020  0.16674880  0.40812033
   0.66647825  0.83323913  0.40816362
   0.83325020  0.66650040  0.40812033
Direct configuration=    47
   0.66671240 -0.00093674  0.15887357
   0.33234986 -0.00093674  0.15887357
   0.00093674  0.33328660  0.15887357
   0.00093674  0.66764914  0.15887357
   0.33234986  0.33328660  0.15887357
   0.66671240  0.66764914  0.15887357
   0.66666600  0.33333300  0.14174182
   0.33333300  0.66666600  0.18165758
   0.16673408  0.33346917  0.40818664
   0.33346600  0.16673250  0.40813711
   0.16673408  0.83326492  0.40818664
   0.33333300  0.66666600  0.40812956
   0.66666600  0.33333300  0.40812504