       N       E                     dE             d eps       ncg     rms          rms(c)
DAV:   1     0.413632319478E+02    0.41363E+02   -0.91065E+03202848   0.327E+02
DAV:   2    -0.508731647189E+02   -0.92236E+02   -0.90302E+02308208   0.570E+01
DAV:   3    -0.522992230684E+02   -0.14261E+01   -0.14261E+01211200   0.103E+01
DAV:   4    -0.523094708591E+02   -0.10248E-01   -0.10248E-01399168   0.924E-01
DAV:   5    -0.523094712492E+02   -0.39008E-06   -0.39001E-06208176   0.640E-03
DAV:   6    -0.523094712518E+02   -0.26694E-08   -0.26857E-08395568   0.437E-04
   1 F= -.52309471E+02 E0= -.52309471E+02  d E =-.264849E-10
