  16  16   0  16
  0.2046017E+02  0.5020000E-09  0.5020000E-09  0.1500000E-08  0.5000000E-15
  1.000000000000000E-004
  CAR 
 Lattice                                 
      9.82160912    -21.37732465  301     -0.93249806      1.00000000
    -21.377  0.0000E+00  0.0000E+00  0.0000E+00  0.0000E+00
    -21.273  0.0000E+00  0.0000E+00  0.0000E+00  0.0000E+00
    -21.169  0.0000E+00  0.0000E+00  0.0000E+00  0.0000E+00
    -21.065  0.0000E+00  0.0000E+00  0.0000E+00  0.0000E+00
    -20.961  0.0000E+00  0.0000E+00  0.0000E+00  0.0000E+00
    -20.857  0.0000E+00  0.0000E+00  0.0000E+00  0.0000E+00
    -20.753  0.0000E+00  0.0000E+00  0.0000E+00  0.0000E+00
    -20.649  0.0000E+00  0.0000E+00  0.0000E+00  0.0000E+00
    -20.545  0.2896E-19  0.2896E-19  0.3012E-20  0.3012E-20
    -20.441  0.2639E-14  0.2639E-14  0.2744E-15  0.2744E-15
    -20.337  0.2851E-10  0.2851E-10  0.2965E-11  0.2965E-11
    -20.233  0.4162E-07  0.4162E-07  0.4332E-08  0.4332E-08
    -20.129  0.8899E-05  0.8899E-05  0.9298E-06  0.9298E-06
    -20.025  0.3077E-03  0.3077E-03  0.3293E-04  0.3293E-04
    -19.921  0.2108E-02  0.2108E-02  0.2522E-03  0.2522E-03
    -19.817  0.4374E-02  0.4374E-02  0.7071E-03  0.7071E-03
    -19.713  0.4858E-02  0.4858E-02  0.1212E-02  0.1212E-02
    -19.609  0.5138E-02  0.5138E-02  0.1747E-02  0.1747E-02
    -19.505  0.4584E-02  0.4584E-02  0.2223E-02  0.2223E-02
    -19.401  0.5648E-02  0.5648E-02  0.2811E-02  0.2811E-02
    -19.297  0.4246E-02  0.4246E-02  0.3252E-02  0.3252E-02
    -19.193  0.5155E-02  0.5155E-02  0.3788E-02  0.3788E-02
    -19.089  0.5928E-02  0.5928E-02  0.4405E-02  0.4405E-02
    -18.985  0.3631E-02  0.3631E-02  0.4782E-02  0.4782E-02
    -18.881  0.5179E-02  0.5179E-02  0.5321E-02  0.5321E-02
    -18.777  0.6352E-02  0.6352E-02  0.5982E-02  0.5982E-02
    -18.673  0.4511E-02  0.4511E-02  0.6451E-02  0.6451E-02
    -18.569  0.3252E-02  0.3252E-02  0.6789E-02  0.6789E-02
    -18.465  0.6576E-02  0.6576E-02  0.7473E-02  0.7473E-02
    -18.361  0.6116E-02  0.6116E-02  0.8109E-02  0.8109E-02
    -18.257  0.4238E-02  0.4238E-02  0.8550E-02  0.8550E-02
    -18.153  0.3373E-02  0.3373E-02  0.8900E-02  0.8900E-02
    -18.049  0.6399E-02  0.6399E-02  0.9566E-02  0.9566E-02
    -17.945  0.1141E-01  0.1141E-01  0.1075E-01  0.1075E-01
    -17.841  0.1112E-01  0.1112E-01  0.1191E-01  0.1191E-01
    -17.737  0.1080E-01  0.1080E-01  0.1303E-01  0.1303E-01
    -17.633  0.1263E-01  0.1263E-01  0.1434E-01  0.1434E-01
    -17.529  0.1577E-01  0.1577E-01  0.1598E-01  0.1598E-01
    -17.425  0.1972E-01  0.1972E-01  0.1803E-01  0.1803E-01
    -17.321  0.2047E-01  0.2047E-01  0.2016E-01  0.2016E-01
    -17.217  0.1174E-01  0.1174E-01  0.2138E-01  0.2138E-01
    -17.113  0.5342E-02  0.5342E-02  0.2194E-01  0.2194E-01
    -17.009  0.7093E-02  0.7093E-02  0.2268E-01  0.2268E-01
    -16.905  0.6848E-02  0.6848E-02  0.2339E-01  0.2339E-01
    -16.801  0.5644E-02  0.5644E-02  0.2398E-01  0.2398E-01
    -16.697  0.4657E-02  0.4657E-02  0.2446E-01  0.2446E-01
    -16.593  0.2987E-02  0.2987E-02  0.2477E-01  0.2477E-01
    -16.489  0.3513E-02  0.3513E-02  0.2514E-01  0.2514E-01
    -16.385  0.8994E-02  0.8994E-02  0.2607E-01  0.2607E-01
    -16.281  0.6836E-02  0.6836E-02  0.2678E-01  0.2678E-01
    -16.178  0.4792E-02  0.4792E-02  0.2728E-01  0.2728E-01
    -16.074  0.4272E-02  0.4272E-02  0.2773E-01  0.2773E-01
    -15.970  0.4303E-02  0.4303E-02  0.2817E-01  0.2817E-01
    -15.866  0.3473E-02  0.3473E-02  0.2853E-01  0.2853E-01
    -15.762  0.7671E-02  0.7671E-02  0.2933E-01  0.2933E-01
    -15.658  0.1202E-01  0.1202E-01  0.3058E-01  0.3058E-01
    -15.554  0.1290E-01  0.1290E-01  0.3192E-01  0.3192E-01
    -15.450  0.1540E-01  0.1540E-01  0.3353E-01  0.3353E-01
    -15.346  0.1529E-01  0.1529E-01  0.3512E-01  0.3512E-01
    -15.242  0.1240E-01  0.1240E-01  0.3641E-01  0.3641E-01
    -15.138  0.1313E-01  0.1313E-01  0.3777E-01  0.3777E-01
    -15.034  0.1745E-01  0.1745E-01  0.3959E-01  0.3959E-01
    -14.930  0.1617E-01  0.1617E-01  0.4127E-01  0.4127E-01
    -14.826  0.1344E-01  0.1344E-01  0.4267E-01  0.4267E-01
    -14.722  0.1084E-01  0.1084E-01  0.4379E-01  0.4379E-01
    -14.618  0.9086E-02  0.9086E-02  0.4474E-01  0.4474E-01
    -14.514  0.1366E-01  0.1366E-01  0.4616E-01  0.4616E-01
    -14.410  0.1942E-01  0.1942E-01  0.4818E-01  0.4818E-01
    -14.306  0.1651E-01  0.1651E-01  0.4990E-01  0.4990E-01
    -14.202  0.1079E-01  0.1079E-01  0.5102E-01  0.5102E-01
    -14.098  0.8449E-02  0.8449E-02  0.5190E-01  0.5190E-01
    -13.994  0.7513E-02  0.7513E-02  0.5268E-01  0.5268E-01
    -13.890  0.8506E-02  0.8506E-02  0.5356E-01  0.5356E-01
    -13.786  0.7785E-02  0.7785E-02  0.5437E-01  0.5437E-01
    -13.682  0.4765E-02  0.4765E-02  0.5487E-01  0.5487E-01
    -13.578  0.4751E-02  0.4751E-02  0.5536E-01  0.5536E-01
    -13.474  0.4292E-02  0.4292E-02  0.5581E-01  0.5581E-01
    -13.370  0.5705E-02  0.5705E-02  0.5640E-01  0.5640E-01
    -13.266  0.5797E-02  0.5797E-02  0.5700E-01  0.5700E-01
    -13.162  0.6143E-02  0.6143E-02  0.5764E-01  0.5764E-01
    -13.058  0.7824E-02  0.7824E-02  0.5846E-01  0.5846E-01
    -12.954  0.6836E-02  0.6836E-02  0.5917E-01  0.5917E-01
    -12.850  0.8670E-02  0.8670E-02  0.6007E-01  0.6007E-01
    -12.746  0.6468E-02  0.6468E-02  0.6074E-01  0.6074E-01
    -12.642  0.6113E-02  0.6113E-02  0.6138E-01  0.6138E-01
    -12.538  0.6034E-02  0.6034E-02  0.6200E-01  0.6200E-01
    -12.434  0.3334E-02  0.3334E-02  0.6235E-01  0.6235E-01
    -12.330  0.8110E-02  0.8110E-02  0.6319E-01  0.6319E-01
    -12.226  0.7477E-02  0.7477E-02  0.6397E-01  0.6397E-01
    -12.122  0.5675E-02  0.5675E-02  0.6456E-01  0.6456E-01
    -12.018  0.9836E-02  0.9836E-02  0.6559E-01  0.6559E-01
    -11.914  0.1528E-01  0.1528E-01  0.6717E-01  0.6717E-01
    -11.810  0.1617E-01  0.1617E-01  0.6886E-01  0.6886E-01
    -11.706  0.1432E-01  0.1432E-01  0.7034E-01  0.7034E-01
    -11.602  0.1427E-01  0.1427E-01  0.7183E-01  0.7183E-01
    -11.498  0.1682E-01  0.1682E-01  0.7358E-01  0.7358E-01
    -11.394  0.1123E-01  0.1123E-01  0.7475E-01  0.7475E-01
    -11.290  0.8504E-02  0.8504E-02  0.7563E-01  0.7563E-01
    -11.186  0.1007E-01  0.1007E-01  0.7668E-01  0.7668E-01
    -11.082  0.1224E-01  0.1224E-01  0.7795E-01  0.7795E-01
    -10.978  0.8975E-02  0.8975E-02  0.7888E-01  0.7888E-01
    -10.874  0.5617E-02  0.5617E-02  0.7947E-01  0.7947E-01
    -10.770  0.1211E-01  0.1211E-01  0.8073E-01  0.8073E-01
    -10.666  0.1675E-01  0.1675E-01  0.8247E-01  0.8247E-01
    -10.562  0.1244E-01  0.1244E-01  0.8376E-01  0.8376E-01
    -10.458  0.6305E-02  0.6305E-02  0.8442E-01  0.8442E-01
    -10.354  0.8220E-02  0.8220E-02  0.8527E-01  0.8527E-01
    -10.250  0.1789E-01  0.1789E-01  0.8713E-01  0.8713E-01
    -10.146  0.1818E-01  0.1818E-01  0.8902E-01  0.8902E-01
    -10.042  0.1025E-01  0.1025E-01  0.9009E-01  0.9009E-01
     -9.938  0.8957E-02  0.8957E-02  0.9102E-01  0.9102E-01
     -9.834  0.7511E-02  0.7511E-02  0.9180E-01  0.9180E-01
     -9.730  0.1170E-01  0.1170E-01  0.9302E-01  0.9302E-01
     -9.626  0.1091E-01  0.1091E-01  0.9415E-01  0.9415E-01
     -9.522  0.1154E-01  0.1154E-01  0.9535E-01  0.9535E-01
     -9.418  0.9149E-02  0.9149E-02  0.9631E-01  0.9631E-01
     -9.314  0.9180E-02  0.9180E-02  0.9726E-01  0.9726E-01
     -9.210  0.1042E-01  0.1042E-01  0.9834E-01  0.9834E-01
     -9.106  0.3756E-02  0.3756E-02  0.9874E-01  0.9874E-01
     -9.002  0.3079E-02  0.3079E-02  0.9906E-01  0.9906E-01
     -8.898  0.1186E-01  0.1186E-01  0.1003E+00  0.1003E+00
     -8.794  0.1809E-01  0.1809E-01  0.1022E+00  0.1022E+00
     -8.690  0.1781E-01  0.1781E-01  0.1040E+00  0.1040E+00
     -8.586  0.9129E-02  0.9129E-02  0.1050E+00  0.1050E+00
     -8.482  0.8466E-02  0.8466E-02  0.1059E+00  0.1059E+00
     -8.378  0.9119E-02  0.9119E-02  0.1068E+00  0.1068E+00
     -8.274  0.1502E-01  0.1502E-01  0.1084E+00  0.1084E+00
     -8.170  0.2571E-01  0.2571E-01  0.1110E+00  0.1110E+00
     -8.066  0.2318E-01  0.2318E-01  0.1134E+00  0.1134E+00
     -7.962  0.1743E-01  0.1743E-01  0.1153E+00  0.1153E+00
     -7.858  0.1382E-01  0.1382E-01  0.1167E+00  0.1167E+00
     -7.754  0.1307E-01  0.1307E-01  0.1181E+00  0.1181E+00
     -7.650  0.2342E-01  0.2342E-01  0.1205E+00  0.1205E+00
     -7.546  0.2597E-01  0.2597E-01  0.1232E+00  0.1232E+00
     -7.442  0.2160E-01  0.2160E-01  0.1254E+00  0.1254E+00
     -7.338  0.2238E-01  0.2238E-01  0.1278E+00  0.1278E+00
     -7.234  0.2433E-01  0.2433E-01  0.1303E+00  0.1303E+00
     -7.130  0.2236E-01  0.2236E-01  0.1326E+00  0.1326E+00
     -7.026  0.2675E-01  0.2675E-01  0.1354E+00  0.1354E+00
     -6.922  0.2498E-01  0.2498E-01  0.1380E+00  0.1380E+00
     -6.818  0.1705E-01  0.1705E-01  0.1398E+00  0.1398E+00
     -6.714  0.2288E-01  0.2288E-01  0.1422E+00  0.1422E+00
     -6.610  0.2751E-01  0.2751E-01  0.1450E+00  0.1450E+00
     -6.506  0.2462E-01  0.2462E-01  0.1476E+00  0.1476E+00
     -6.402  0.2377E-01  0.2377E-01  0.1500E+00  0.1500E+00
     -6.298  0.2256E-01  0.2256E-01  0.1524E+00  0.1524E+00
     -6.194  0.2437E-01  0.2437E-01  0.1549E+00  0.1549E+00
     -6.090  0.1982E-01  0.1982E-01  0.1570E+00  0.1570E+00
     -5.986  0.1739E-01  0.1739E-01  0.1588E+00  0.1588E+00
     -5.882  0.1944E-01  0.1944E-01  0.1608E+00  0.1608E+00
     -5.778  0.2456E-01  0.2456E-01  0.1634E+00  0.1634E+00
     -5.674  0.2074E-01  0.2074E-01  0.1655E+00  0.1655E+00
     -5.570  0.1991E-01  0.1991E-01  0.1676E+00  0.1676E+00
     -5.466  0.2240E-01  0.2240E-01  0.1699E+00  0.1699E+00
     -5.362  0.2634E-01  0.2634E-01  0.1727E+00  0.1727E+00
     -5.258  0.2747E-01  0.2747E-01  0.1755E+00  0.1755E+00
     -5.154  0.1911E-01  0.1911E-01  0.1775E+00  0.1775E+00
     -5.050  0.1012E-01  0.1012E-01  0.1786E+00  0.1786E+00
     -4.946  0.1503E-01  0.1503E-01  0.1801E+00  0.1801E+00
     -4.842  0.1941E-01  0.1941E-01  0.1821E+00  0.1821E+00
     -4.738  0.1824E-01  0.1824E-01  0.1840E+00  0.1840E+00
     -4.634  0.1531E-01  0.1531E-01  0.1856E+00  0.1856E+00
     -4.530  0.1647E-01  0.1647E-01  0.1874E+00  0.1874E+00
     -4.426  0.1784E-01  0.1784E-01  0.1892E+00  0.1892E+00
     -4.322  0.2109E-01  0.2109E-01  0.1914E+00  0.1914E+00
     -4.218  0.2364E-01  0.2364E-01  0.1939E+00  0.1939E+00
     -4.114  0.3491E-01  0.3491E-01  0.1975E+00  0.1975E+00
     -4.010  0.3887E-01  0.3887E-01  0.2015E+00  0.2015E+00
     -3.906  0.3059E-01  0.3059E-01  0.2047E+00  0.2047E+00
     -3.802  0.1946E-01  0.1946E-01  0.2067E+00  0.2067E+00
     -3.698  0.1488E-01  0.1488E-01  0.2083E+00  0.2083E+00
     -3.594  0.1650E-01  0.1650E-01  0.2100E+00  0.2100E+00
     -3.490  0.1607E-01  0.1607E-01  0.2117E+00  0.2117E+00
     -3.386  0.2086E-01  0.2086E-01  0.2138E+00  0.2138E+00
     -3.282  0.1807E-01  0.1807E-01  0.2157E+00  0.2157E+00
     -3.178  0.1445E-01  0.1445E-01  0.2172E+00  0.2172E+00
     -3.074  0.1488E-01  0.1488E-01  0.2188E+00  0.2188E+00
     -2.970  0.1779E-01  0.1779E-01  0.2206E+00  0.2206E+00
     -2.866  0.2609E-01  0.2609E-01  0.2233E+00  0.2233E+00
     -2.762  0.1723E-01  0.1723E-01  0.2251E+00  0.2251E+00
     -2.658  0.1144E-01  0.1144E-01  0.2263E+00  0.2263E+00
     -2.554  0.1758E-01  0.1758E-01  0.2281E+00  0.2281E+00
     -2.450  0.2238E-01  0.2238E-01  0.2305E+00  0.2305E+00
     -2.346  0.1969E-01  0.1969E-01  0.2325E+00  0.2325E+00
     -2.242  0.1924E-01  0.1924E-01  0.2345E+00  0.2345E+00
     -2.138  0.2096E-01  0.2096E-01  0.2367E+00  0.2367E+00
     -2.034  0.1151E-01  0.1151E-01  0.2379E+00  0.2379E+00
     -1.930  0.2823E-02  0.2823E-02  0.2382E+00  0.2382E+00
     -1.826  0.5715E-02  0.5715E-02  0.2388E+00  0.2388E+00
     -1.722  0.7373E-02  0.7373E-02  0.2395E+00  0.2395E+00
     -1.618  0.5041E-02  0.5041E-02  0.2401E+00  0.2401E+00
     -1.514  0.6622E-02  0.6622E-02  0.2408E+00  0.2408E+00
     -1.410  0.6200E-02  0.6200E-02  0.2414E+00  0.2414E+00
     -1.306  0.4015E-02  0.4015E-02  0.2418E+00  0.2418E+00
     -1.202  0.2022E-02  0.2022E-02  0.2420E+00  0.2420E+00
     -1.098  0.4050E-03  0.4050E-03  0.2421E+00  0.2421E+00
     -0.994  0.2666E-03  0.2666E-03  0.2421E+00  0.2421E+00
     -0.890  0.1867E-02  0.1867E-02  0.2423E+00  0.2423E+00
     -0.786  0.3699E-02  0.3699E-02  0.2427E+00  0.2427E+00
     -0.682  0.3837E-02  0.3837E-02  0.2431E+00  0.2431E+00
     -0.578  0.7653E-02  0.7653E-02  0.2439E+00  0.2439E+00
     -0.474  0.1079E-01  0.1079E-01  0.2450E+00  0.2450E+00
     -0.370  0.8714E-02  0.8714E-02  0.2459E+00  0.2459E+00
     -0.266  0.1113E-01  0.1113E-01  0.2471E+00  0.2471E+00
     -0.162  0.1187E-01  0.1187E-01  0.2483E+00  0.2483E+00
     -0.058  0.9237E-02  0.9237E-02  0.2493E+00  0.2493E+00
      0.046  0.4630E-02  0.4630E-02  0.2497E+00  0.2497E+00
      0.150  0.1901E-02  0.1901E-02  0.2499E+00  0.2499E+00
      0.254  0.1429E-02  0.1429E-02  0.2501E+00  0.2501E+00
      0.358  0.4983E-02  0.4983E-02  0.2506E+00  0.2506E+00
      0.462  0.9360E-02  0.9360E-02  0.2516E+00  0.2516E+00
      0.566  0.8752E-02  0.8752E-02  0.2525E+00  0.2525E+00
      0.670  0.4570E-02  0.4570E-02  0.2530E+00  0.2530E+00
      0.774  0.6464E-02  0.6464E-02  0.2536E+00  0.2536E+00
      0.878  0.1077E-01  0.1077E-01  0.2548E+00  0.2548E+00
      0.982  0.1171E-01  0.1171E-01  0.2560E+00  0.2560E+00
      1.086  0.1187E-01  0.1187E-01  0.2572E+00  0.2572E+00
      1.190  0.6249E-02  0.6249E-02  0.2579E+00  0.2579E+00
      1.294  0.4463E-02  0.4463E-02  0.2583E+00  0.2583E+00
      1.398  0.5402E-02  0.5402E-02  0.2589E+00  0.2589E+00
      1.502  0.4553E-02  0.4553E-02  0.2594E+00  0.2594E+00
      1.606  0.4832E-02  0.4832E-02  0.2599E+00  0.2599E+00
      1.710  0.8879E-02  0.8879E-02  0.2608E+00  0.2608E+00
      1.814  0.1158E-01  0.1158E-01  0.2620E+00  0.2620E+00
      1.918  0.5279E-02  0.5279E-02  0.2625E+00  0.2625E+00
      2.022  0.2607E-02  0.2607E-02  0.2628E+00  0.2628E+00
      2.126  0.4437E-02  0.4437E-02  0.2633E+00  0.2633E+00
      2.230  0.1053E-01  0.1053E-01  0.2644E+00  0.2644E+00
      2.334  0.1641E-01  0.1641E-01  0.2661E+00  0.2661E+00
      2.438  0.1304E-01  0.1304E-01  0.2674E+00  0.2674E+00
      2.542  0.1097E-01  0.1097E-01  0.2686E+00  0.2686E+00
      2.646  0.1243E-01  0.1243E-01  0.2699E+00  0.2699E+00
      2.750  0.1140E-01  0.1139E-01  0.2710E+00  0.2710E+00
      2.854  0.9594E-02  0.9589E-02  0.2720E+00  0.2720E+00
      2.958  0.8093E-02  0.8085E-02  0.2729E+00  0.2729E+00
      3.062  0.1070E-01  0.1070E-01  0.2740E+00  0.2740E+00
      3.166  0.1347E-01  0.1347E-01  0.2754E+00  0.2754E+00
      3.270  0.1354E-01  0.1353E-01  0.2768E+00  0.2768E+00
      3.374  0.1364E-01  0.1364E-01  0.2782E+00  0.2782E+00
      3.478  0.9284E-02  0.9283E-02  0.2792E+00  0.2792E+00
      3.582  0.9571E-02  0.9562E-02  0.2802E+00  0.2802E+00
      3.686  0.1184E-01  0.1185E-01  0.2814E+00  0.2814E+00
      3.790  0.1129E-01  0.1129E-01  0.2826E+00  0.2826E+00
      3.894  0.1107E-01  0.1106E-01  0.2837E+00  0.2837E+00
      3.998  0.1550E-01  0.1549E-01  0.2854E+00  0.2854E+00
      4.102  0.1710E-01  0.1711E-01  0.2871E+00  0.2871E+00
      4.206  0.1207E-01  0.1207E-01  0.2884E+00  0.2884E+00
      4.310  0.1374E-01  0.1373E-01  0.2898E+00  0.2898E+00
      4.414  0.1967E-01  0.1966E-01  0.2919E+00  0.2919E+00
      4.518  0.1581E-01  0.1581E-01  0.2935E+00  0.2935E+00
      4.622  0.1065E-01  0.1066E-01  0.2946E+00  0.2946E+00
      4.726  0.1075E-01  0.1073E-01  0.2957E+00  0.2957E+00
      4.830  0.1843E-01  0.1838E-01  0.2976E+00  0.2976E+00
      4.934  0.1971E-01  0.1969E-01  0.2997E+00  0.2997E+00
      5.038  0.1796E-01  0.1799E-01  0.3016E+00  0.3016E+00
      5.142  0.1625E-01  0.1623E-01  0.3033E+00  0.3032E+00
      5.246  0.1698E-01  0.1700E-01  0.3050E+00  0.3050E+00
      5.350  0.1408E-01  0.1408E-01  0.3065E+00  0.3065E+00
      5.454  0.1817E-01  0.1812E-01  0.3084E+00  0.3084E+00
      5.558  0.2265E-01  0.2268E-01  0.3107E+00  0.3107E+00
      5.662  0.1439E-01  0.1441E-01  0.3122E+00  0.3122E+00
      5.766  0.1167E-01  0.1165E-01  0.3134E+00  0.3134E+00
      5.870  0.1624E-01  0.1621E-01  0.3151E+00  0.3151E+00
      5.974  0.1922E-01  0.1927E-01  0.3171E+00  0.3171E+00
      6.078  0.2045E-01  0.2044E-01  0.3193E+00  0.3193E+00
      6.182  0.2727E-01  0.2724E-01  0.3221E+00  0.3221E+00
      6.286  0.2959E-01  0.2958E-01  0.3252E+00  0.3252E+00
      6.390  0.2538E-01  0.2540E-01  0.3278E+00  0.3278E+00
      6.494  0.2230E-01  0.2235E-01  0.3301E+00  0.3301E+00
      6.598  0.1532E-01  0.1532E-01  0.3317E+00  0.3317E+00
      6.702  0.1843E-01  0.1837E-01  0.3336E+00  0.3336E+00
      6.806  0.3370E-01  0.3368E-01  0.3371E+00  0.3371E+00
      6.910  0.3256E-01  0.3263E-01  0.3405E+00  0.3405E+00
      7.014  0.2828E-01  0.2827E-01  0.3435E+00  0.3435E+00
      7.118  0.3103E-01  0.3102E-01  0.3467E+00  0.3467E+00
      7.222  0.3529E-01  0.3528E-01  0.3504E+00  0.3504E+00
      7.326  0.3035E-01  0.3031E-01  0.3535E+00  0.3535E+00
      7.430  0.2777E-01  0.2779E-01  0.3564E+00  0.3564E+00
      7.534  0.3787E-01  0.3786E-01  0.3604E+00  0.3603E+00
      7.638  0.3430E-01  0.3432E-01  0.3639E+00  0.3639E+00
      7.742  0.2926E-01  0.2920E-01  0.3670E+00  0.3669E+00
      7.846  0.2874E-01  0.2874E-01  0.3699E+00  0.3699E+00
      7.950  0.2168E-01  0.2171E-01  0.3722E+00  0.3722E+00
      8.054  0.1347E-01  0.1354E-01  0.3736E+00  0.3736E+00
      8.158  0.7069E-02  0.7090E-02  0.3743E+00  0.3743E+00
      8.262  0.1979E-02  0.2003E-02  0.3745E+00  0.3745E+00
      8.366  0.1808E-02  0.1805E-02  0.3747E+00  0.3747E+00
      8.470  0.2006E-02  0.2009E-02  0.3749E+00  0.3749E+00
      8.574  0.5331E-03  0.5392E-03  0.3750E+00  0.3750E+00
      8.678  0.2420E-04  0.2474E-04  0.3750E+00  0.3750E+00
      8.782  0.1551E-06  0.1605E-06  0.3750E+00  0.3750E+00
      8.886  0.1277E-09  0.1337E-09  0.3750E+00  0.3750E+00
      8.990  0.1290E-13  0.1367E-13  0.3750E+00  0.3750E+00
      9.094  0.0000E+00  0.0000E+00  0.3750E+00  0.3750E+00
      9.198  0.0000E+00  0.0000E+00  0.3750E+00  0.3750E+00
      9.302  0.0000E+00  0.0000E+00  0.3750E+00  0.3750E+00
      9.406  0.0000E+00  0.0000E+00  0.3750E+00  0.3750E+00
      9.510  0.0000E+00  0.0000E+00  0.3750E+00  0.3750E+00
      9.614  0.0000E+00  0.0000E+00  0.3750E+00  0.3750E+00
      9.718  0.0000E+00  0.0000E+00  0.3750E+00  0.3750E+00
      9.822  0.0000E+00  0.0000E+00  0.3750E+00  0.3750E+00
