Lattice                                 
           1
     4.347448    2.510000    0.000000
    -4.347448    2.510000    0.000000
     0.000000    0.000000   15.000000
   B    C 
     2    14
Direct configuration=     1
   0.33833034  0.66916432  0.10000000
   0.67165522  0.33584146  0.10000000
   0.16373946  0.31999962  0.10000000
   0.32250218  0.16126397  0.10000000
   0.16376430  0.84376384  0.10000000
   0.84623863  0.16123684  0.10000000
   0.68749850  0.84373000  0.10000000
   0.84626736  0.68499594  0.10000000
   0.24999933  0.24999967  0.32633333
   0.41666633  0.08333267  0.32633333
   0.24999933  0.74999967  0.32633333
   0.41666633  0.58333267  0.32633333
   0.74999933  0.24999967  0.32633333
   0.91666633  0.08333267  0.32633333
   0.74999933  0.74999967  0.32633333
   0.91666633  0.58333267  0.32633333
Direct configuration=     2
   0.33843939  0.66905859  0.10014046
   0.67179220  0.33570365  0.10008232
   0.16773786  0.32794759  0.09994612
   0.33014505  0.16511585  0.09997722
   0.16757124  0.83995062  0.09995839
   0.84223945  0.16521729  0.09996119
   0.67956624  0.83975636  0.09994660
   0.84239025  0.67736587  0.09997748
   0.24986674  0.24960240  0.32640333
   0.41630415  0.08328135  0.32639361
   0.24982169  0.75018893  0.32626932
   0.41677292  0.58322261  0.32622921
   0.75003484  0.24995544  0.32620875
   0.91686526  0.08312628  0.32637941
   0.75039745  0.75013934  0.32640479
   0.91671393  0.58369317  0.32638846
Direct configuration=     3
   0.33835881  0.66913672  0.10003667
   0.67169098  0.33580548  0.10002149
   0.16478336  0.32207466  0.09998593
   0.32449757  0.16226961  0.09999405
   0.16475821  0.84276829  0.09998914
   0.84519454  0.16227605  0.09998987
   0.68542756  0.84269257  0.09998606
   0.84525513  0.68300390  0.09999412
   0.24996472  0.24989595  0.32635161
   0.41657178  0.08331927  0.32634907
   0.24995296  0.75004908  0.32631662
   0.41669416  0.58330393  0.32630615
   0.75000860  0.24998812  0.32630081
   0.91671827  0.08327878  0.32634536
   0.75010327  0.75003613  0.32635199
   0.91667876  0.58342678  0.32634772
Direct configuration=     4
   0.33835879  0.66913674  0.10003664
   0.67169095  0.33580551  0.10002147
   0.16478255  0.32207305  0.09998595
   0.32449602  0.16226883  0.09999406
   0.16475744  0.84276907  0.09998914
   0.84519535  0.16227524  0.09998988
   0.68542917  0.84269338  0.09998607
   0.84525591  0.68300544  0.09999413
   0.24996474  0.24989603  0.32635159
   0.41657185  0.08331928  0.32634906
   0.24995299  0.75004904  0.32631663
   0.41669414  0.58330396  0.32630617
   0.75000860  0.24998813  0.32630083
   0.91671823  0.08327883  0.32634535
   0.75010319  0.75003611  0.32635197
   0.91667875  0.58342671  0.32634771
Direct configuration=     5
   0.33835875  0.66914190  0.10012777
   0.67168960  0.33580760  0.10007419
   0.16473359  0.32207862  0.09995195
   0.32450235  0.16230674  0.09997645
   0.16473876  0.84277359  0.09996603
   0.84522099  0.16226704  0.09996125
   0.68541627  0.84274771  0.09995233
   0.84521245  0.68300263  0.09997685
   0.24995873  0.24984624  0.32639965
   0.41654778  0.08329499  0.32638598
   0.24993926  0.75006220  0.32627610
   0.41671579  0.58328261  0.32623784
   0.75001441  0.24998034  0.32622266
   0.91675555  0.08324105  0.32637545
   0.75015141  0.75004107  0.32640089
   0.91670296  0.58345101  0.32638127
Direct configuration=     6
   0.33835873  0.66914376  0.10016057
   0.67168912  0.33580835  0.10009315
   0.16471598  0.32208062  0.09993972
   0.32450462  0.16232039  0.09997011
   0.16473205  0.84277522  0.09995771
   0.84523022  0.16226408  0.09995094
   0.68541163  0.84276726  0.09994019
   0.84519681  0.68300161  0.09997064
   0.24995657  0.24982833  0.32641695
   0.41653913  0.08328625  0.32639927
   0.24993432  0.75006693  0.32626152
   0.41672358  0.58327494  0.32621325
   0.75001651  0.24997754  0.32619453
   0.91676897  0.08322746  0.32638628
   0.75016875  0.75004286  0.32641849
   0.91671168  0.58345975  0.32639334
Direct configuration=     7
   0.33829024  0.66919043  0.10024838
   0.67169417  0.33581413  0.10015017
   0.16487998  0.32213048  0.09991191
   0.32440552  0.16226828  0.09994512
   0.16469234  0.84283039  0.09994838
   0.84511263  0.16235854  0.09990751
   0.68539412  0.84264456  0.09991283
   0.84521354  0.68308949  0.09994615
   0.25002246  0.24989379  0.32645979
   0.41664143  0.08329892  0.32641134
   0.25001660  0.74998436  0.32622983
   0.41671462  0.58327965  0.32616499
   0.75005452  0.24994262  0.32615327
   0.91672568  0.08326843  0.32641294
   0.75010494  0.74997748  0.32646131
   0.91669587  0.58335377  0.32640274
Direct configuration=     8
   0.33833427  0.66916043  0.10019193
   0.67169092  0.33581042  0.10011352
   0.16477456  0.32209843  0.09992978
   0.32446922  0.16230177  0.09996119
   0.16471786  0.84279492  0.09995438
   0.84518822  0.16229782  0.09993543
   0.68540537  0.84272343  0.09993042
   0.84520278  0.68303300  0.09996189
   0.24998011  0.24985171  0.32643225
   0.41657567  0.08329078  0.32640358
   0.24996372  0.75003743  0.32625020
   0.41672038  0.58327662  0.32619601
   0.75003009  0.24996507  0.32617979
   0.91675351  0.08324209  0.32639580
   0.75014596  0.75001950  0.32643379
   0.91670603  0.58342190  0.32639670
Direct configuration=     9
   0.33831118  0.66918837  0.10021962
   0.67164983  0.33584632  0.10013381
   0.16473925  0.32211729  0.09992264
   0.32448235  0.16228724  0.09994953
   0.16468292  0.84281168  0.09996080
   0.84520106  0.16230663  0.09990985
   0.68537744  0.84275225  0.09992364
   0.84522576  0.68302982  0.09995058
   0.25000670  0.24986944  0.32644183
   0.41662195  0.08328457  0.32639162
   0.24999582  0.75000403  0.32624394
   0.41672856  0.58326727  0.32619603
   0.75004719  0.24994793  0.32619093
   0.91674937  0.08324576  0.32640481
   0.75012770  0.74999204  0.32644270
   0.91671160  0.58337470  0.32638433
Direct configuration=    10
   0.33832111  0.66917635  0.10020771
   0.67166751  0.33583088  0.10012508
   0.16475444  0.32210918  0.09992571
   0.32447670  0.16229349  0.09995455
   0.16469795  0.84280447  0.09995804
   0.84519553  0.16230284  0.09992085
   0.68538946  0.84273985  0.09992656
   0.84521588  0.68303119  0.09995545
   0.24999526  0.24986181  0.32643771
   0.41660204  0.08328724  0.32639677
   0.24998201  0.75001840  0.32624663
   0.41672504  0.58327129  0.32619602
   0.75003983  0.24995530  0.32618614
   0.91675115  0.08324418  0.32640093
   0.75013555  0.75000386  0.32643886
   0.91670921  0.58339500  0.32638965
Direct configuration=    11
   0.33829822  0.66919901  0.10022780
   0.67165124  0.33585010  0.10013850
   0.16474053  0.32211680  0.09991914
   0.32446244  0.16232612  0.09994710
   0.16469379  0.84281085  0.09996611
   0.84518371  0.16231601  0.09989820
   0.68538397  0.84276220  0.09992043
   0.84517622  0.68304240  0.09994840
   0.25000790  0.24984072  0.32644142
   0.41661408  0.08326776  0.32638350
   0.24999350  0.75000587  0.32624233
   0.41674384  0.58325200  0.32620398
   0.75005411  0.24993973  0.32620253
   0.91677154  0.08322320  0.32640913
   0.75015544  0.74999008  0.32644184
   0.91672815  0.58338249  0.32637626
Direct configuration=    12
   0.33828993  0.66920721  0.10023507
   0.67164535  0.33585706  0.10014336
   0.16473550  0.32211957  0.09991676
   0.32445728  0.16233793  0.09994440
   0.16469228  0.84281315  0.09996903
   0.84517942  0.16232078  0.09989000
   0.68538198  0.84277029  0.09991821
   0.84516187  0.68304646  0.09994585
   0.25001248  0.24983309  0.32644277
   0.41661844  0.08326070  0.32637869
   0.24999765  0.75000133  0.32624078
   0.41675065  0.58324501  0.32620686
   0.75005927  0.24993409  0.32620847
   0.91677892  0.08321561  0.32641210
   0.75016264  0.74998509  0.32644292
   0.91673501  0.58337797  0.32637142
Direct configuration=    13
   0.33828688  0.66921211  0.10024841
   0.67163762  0.33586420  0.10014711
   0.16472280  0.32215491  0.09990698
   0.32442851  0.16234101  0.09994500
   0.16465428  0.84284467  0.09997718
   0.84515385  0.16235103  0.09987210
   0.68534775  0.84278444  0.09990899
   0.84515957  0.68308029  0.09994692
   0.25002828  0.24979819  0.32644181
   0.41662269  0.08323889  0.32637218
   0.25001160  0.74998703  0.32623555
   0.41677009  0.58322435  0.32621781
   0.75007890  0.24991367  0.32621913
   0.91680359  0.08318941  0.32642121
   0.75019689  0.74996879  0.32644141
   0.91675538  0.58337235  0.32636488
Direct configuration=    14
   0.33828647  0.66921278  0.10025024
   0.67163656  0.33586518  0.10014762
   0.16472106  0.32215975  0.09990564
   0.32442456  0.16234144  0.09994508
   0.16464906  0.84284899  0.09997830
   0.84515034  0.16235518  0.09986964
   0.68534306  0.84278638  0.09990773
   0.84515925  0.68308493  0.09994706
   0.25003045  0.24979340  0.32644168
   0.41662328  0.08323590  0.32637129
   0.25001351  0.74998507  0.32623483
   0.41677275  0.58322151  0.32621932
   0.75008159  0.24991087  0.32622059
   0.91680697  0.08318581  0.32642246
   0.75020159  0.74996655  0.32644121
   0.91675817  0.58337158  0.32636398
Direct configuration=    15
   0.33826617  0.66923402  0.10025497
   0.67161765  0.33588590  0.10014330
   0.16469688  0.32217879  0.09989480
   0.32440384  0.16236595  0.09995198
   0.16463005  0.84286837  0.09998710
   0.84513038  0.16237719  0.09985670
   0.68532529  0.84281316  0.09989748
   0.84513409  0.68310584  0.09995448
   0.25005269  0.24977498  0.32643936
   0.41664752  0.08321517  0.32637200
   0.25003644  0.74996101  0.32623073
   0.41679270  0.58320045  0.32622755
   0.75010255  0.24988892  0.32622340
   0.91682561  0.08316614  0.32642948
   0.75021899  0.74994324  0.32643866
   0.91677782  0.58334619  0.32636469
Direct configuration=    16
   0.33820530  0.66929772  0.10026914
   0.67156089  0.33594807  0.10013033
   0.16462437  0.32223590  0.09986228
   0.32434166  0.16243951  0.09997266
   0.16457300  0.84292650  0.10001351
   0.84507051  0.16244324  0.09981788
   0.68527198  0.84289347  0.09986674
   0.84505860  0.68316858  0.09997673
   0.25011943  0.24971974  0.32643239
   0.41672027  0.08315297  0.32637414
   0.25010525  0.74988882  0.32621844
   0.41685253  0.58313728  0.32625223
   0.75016544  0.24982309  0.32623185
   0.91688150  0.08310711  0.32645053
   0.75027119  0.74987329  0.32643102
   0.91683675  0.58327005  0.32636679
Direct configuration=    17
   0.33817610  0.66932827  0.10027594
   0.67153366  0.33597789  0.10012411
   0.16458959  0.32226329  0.09984669
   0.32431183  0.16247479  0.09998259
   0.16454563  0.84295438  0.10002618
   0.84504179  0.16247492  0.09979927
   0.68524641  0.84293199  0.09985199
   0.84502240  0.68319867  0.09998740
   0.25015144  0.24969324  0.32642905
   0.41675516  0.08312314  0.32637517
   0.25013825  0.74985420  0.32621254
   0.41688123  0.58310698  0.32626408
   0.75019561  0.24979151  0.32623590
   0.91690831  0.08307879  0.32646063
   0.75029623  0.74983974  0.32642735
   0.91686501  0.58323352  0.32636780
Direct configuration=    18
   0.33816110  0.66934425  0.10027508
   0.67151618  0.33599528  0.10012162
   0.16457850  0.32227863  0.09984186
   0.32429925  0.16248654  0.09998606
   0.16453135  0.84296874  0.10003396
   0.84502894  0.16248918  0.09979023
   0.68523139  0.84294359  0.09984753
   0.84501170  0.68321261  0.09999121
   0.25016437  0.24967861  0.32643015
   0.41676843  0.08310824  0.32637585
   0.25015087  0.74984080  0.32621292
   0.41689568  0.58309194  0.32626485
   0.75020882  0.24977746  0.32623678
   0.91692272  0.08306377  0.32646165
   0.75031007  0.74982603  0.32642845
   0.91687931  0.58321966  0.32636847
Direct configuration=    19
   0.33811610  0.66939217  0.10027248
   0.67146371  0.33604746  0.10011414
   0.16454525  0.32232466  0.09982738
   0.32426152  0.16252182  0.09999649
   0.16448848  0.84301180  0.10005729
   0.84499038  0.16253195  0.09976314
   0.68518634  0.84297838  0.09983416
   0.84497961  0.68325444  0.10000266
   0.25020314  0.24963471  0.32643345
   0.41680823  0.08306355  0.32637791
   0.25018874  0.74980059  0.32621408
   0.41693900  0.58304683  0.32626716
   0.75024845  0.24973531  0.32623943
   0.91696593  0.08301870  0.32646471
   0.75035159  0.74978491  0.32643172
   0.91692219  0.58317807  0.32637046
Direct configuration=    20
   0.33802610  0.66948801  0.10026729
   0.67135878  0.33615182  0.10009920
   0.16447875  0.32241670  0.09979843
   0.32418605  0.16259236  0.10001734
   0.16440275  0.84309793  0.10010395
   0.84491327  0.16261750  0.09970895
   0.68509622  0.84304796  0.09980742
   0.84491543  0.68333809  0.10002556
   0.25028068  0.24954692  0.32644006
   0.41688784  0.08297415  0.32638202
   0.25026448  0.74972018  0.32621640
   0.41702566  0.58295661  0.32627180
   0.75032771  0.24965101  0.32624472
   0.91705236  0.08292856  0.32647083
   0.75043463  0.74970266  0.32643826
   0.91700795  0.58309488  0.32637444
Direct configuration=    21
   0.33784610  0.66967969  0.10025690
   0.67114893  0.33636055  0.10006931
   0.16434574  0.32260080  0.09974051
   0.32403511  0.16273344  0.10005905
   0.16423129  0.84327018  0.10019728
   0.84475904  0.16278859  0.09960057
   0.68491600  0.84318711  0.09975393
   0.84478707  0.68350540  0.10007134
   0.25043577  0.24937132  0.32645328
   0.41704706  0.08279536  0.32639024
   0.25041596  0.74955936  0.32622102
   0.41719896  0.58277616  0.32628106
   0.75048624  0.24948241  0.32625531
   0.91722522  0.08274828  0.32648308
   0.75060070  0.74953815  0.32645136
   0.91717948  0.58292852  0.32638241
Direct configuration=    22
   0.33748610  0.67006306  0.10023613
   0.67072921  0.33677799  0.10000953
   0.16407972  0.32296899  0.09962468
   0.32373322  0.16301561  0.10014246
   0.16388837  0.84361468  0.10038394
   0.84445059  0.16313077  0.09938382
   0.68455555  0.84346543  0.09964695
   0.84453035  0.68384003  0.10016292
   0.25074594  0.24902014  0.32647972
   0.41736550  0.08243778  0.32640668
   0.25071892  0.74923772  0.32623028
   0.41754557  0.58241528  0.32629958
   0.75080329  0.24914521  0.32627650
   0.91757094  0.08238772  0.32650757
   0.75093286  0.74920915  0.32647754
   0.91752254  0.58259578  0.32639835
Direct configuration=    23
   0.33761039  0.66993070  0.10024330
   0.67087412  0.33663387  0.10003017
   0.16417157  0.32284187  0.09966467
   0.32383745  0.16291819  0.10011366
   0.16400676  0.84349574  0.10031950
   0.84455709  0.16301263  0.09945866
   0.68468000  0.84336934  0.09968389
   0.84461898  0.68372449  0.10013130
   0.25063885  0.24914139  0.32647059
   0.41725556  0.08256124  0.32640101
   0.25061432  0.74934877  0.32622709
   0.41742590  0.58253988  0.32629319
   0.75069383  0.24926163  0.32626918
   0.91745158  0.08251220  0.32649912
   0.75081818  0.74932274  0.32646850
   0.91740409  0.58271066  0.32639285
Direct configuration=    24
   0.33759917  0.66994233  0.10024235
   0.67086313  0.33664554  0.10002846
   0.16416153  0.32285296  0.09966099
   0.32382616  0.16292944  0.10011627
   0.16399645  0.84350689  0.10032579
   0.84454589  0.16302416  0.09945141
   0.68466970  0.84338035  0.09968050
   0.84460788  0.68373607  0.10013418
   0.25064975  0.24912982  0.32647158
   0.41726613  0.08254995  0.32640159
   0.25062519  0.74933737  0.32622765
   0.41743663  0.58252857  0.32629352
   0.75070472  0.24925020  0.32626980
   0.91746233  0.08250087  0.32649966
   0.75082922  0.74931131  0.32646949
   0.91741480  0.58269950  0.32639342
Direct configuration=    25
   0.33756550  0.66997721  0.10023952
   0.67083015  0.33668057  0.10002331
   0.16413141  0.32288624  0.09964995
   0.32379228  0.16296322  0.10012408
   0.16396550  0.84354034  0.10034469
   0.84451230  0.16305873  0.09942968
   0.68463879  0.84341338  0.09967032
   0.84457455  0.68377079  0.10014281
   0.25068246  0.24909512  0.32647455
   0.41729787  0.08251608  0.32640335
   0.25065778  0.74930319  0.32622935
   0.41746883  0.58249466  0.32629451
   0.75073741  0.24921589  0.32627166
   0.91749458  0.08246688  0.32650127
   0.75086233  0.74927700  0.32647247
   0.91744693  0.58266602  0.32639513
Direct configuration=    26
   0.33749816  0.67004698  0.10023386
   0.67076418  0.33675064  0.10001303
   0.16407118  0.32295281  0.09962788
   0.32372451  0.16303077  0.10013971
   0.16390361  0.84360724  0.10038247
   0.84444512  0.16312788  0.09938622
   0.68457698  0.84347945  0.09964997
   0.84450790  0.68384023  0.10016007
   0.25074789  0.24902571  0.32648049
   0.41736134  0.08244834  0.32640686
   0.25072296  0.74923483  0.32623274
   0.41753321  0.58242683  0.32629649
   0.75080279  0.24914729  0.32627538
   0.91755908  0.08239888  0.32650451
   0.75092856  0.74920839  0.32647843
   0.91751117  0.58259907  0.32639856
Direct configuration=    27
   0.33736348  0.67018652  0.10022254
   0.67063225  0.33689076  0.09999245
   0.16395073  0.32308594  0.09958372
   0.32358899  0.16316586  0.10017096
   0.16377984  0.84374105  0.10045805
   0.84431077  0.16326618  0.09929929
   0.68445337  0.84361158  0.09960928
   0.84437459  0.68397911  0.10019459
   0.25087874  0.24888690  0.32649236
   0.41748828  0.08231286  0.32641389
   0.25085333  0.74909811  0.32623953
   0.41766198  0.58229117  0.32630045
   0.75093354  0.24901007  0.32628282
   0.91768809  0.08226290  0.32651098
   0.75106103  0.74907117  0.32649034
   0.91763967  0.58246515  0.32640541
Direct configuration=    28
   0.33709412  0.67046560  0.10019989
   0.67036839  0.33717101  0.09995130
   0.16370981  0.32335221  0.09949540
   0.32331793  0.16343606  0.10023347
   0.16353228  0.84400866  0.10060919
   0.84404205  0.16354278  0.09912544
   0.68420614  0.84387584  0.09952789
   0.84410799  0.68425686  0.10026363
   0.25114044  0.24860927  0.32651612
   0.41774216  0.08204190  0.32642794
   0.25111407  0.74882466  0.32625311
   0.41791952  0.58201985  0.32630837
   0.75119505  0.24873564  0.32629770
   0.91794611  0.08199093  0.32652393
   0.75132595  0.74879673  0.32651416
   0.91789666  0.58219733  0.32641912
Direct configuration=    29
   0.33655541  0.67102376  0.10015460
   0.66984067  0.33773151  0.09986900
   0.16322797  0.32388474  0.09931877
   0.32277583  0.16397645  0.10035849
   0.16303716  0.84454389  0.10091149
   0.84350463  0.16409597  0.09877773
   0.68371167  0.84440436  0.09936511
   0.84357477  0.68481238  0.10040170
   0.25166385  0.24805401  0.32656363
   0.41824992  0.08149998  0.32645605
   0.25163554  0.74827778  0.32628027
   0.41843461  0.58147721  0.32632422
   0.75171806  0.24818678  0.32632745
   0.91846213  0.08144698  0.32654982
   0.75185580  0.74824785  0.32656180
   0.91841063  0.58166168  0.32644654
Direct configuration=    30
   0.33547798  0.67214008  0.10006402
   0.66878523  0.33885250  0.09970440
   0.16226430  0.32494981  0.09896551
   0.32169162  0.16505723  0.10060853
   0.16204693  0.84561434  0.10151607
   0.84242978  0.16520237  0.09808232
   0.68272275  0.84546141  0.09903955
   0.84250834  0.68592341  0.10067785
   0.25271066  0.24694348  0.32665865
   0.41926545  0.08041614  0.32651227
   0.25267849  0.74718400  0.32633459
   0.41946478  0.58039193  0.32635591
   0.75276409  0.24708907  0.32638696
   0.91949419  0.08035910  0.32660160
   0.75291551  0.74715008  0.32665708
   0.91943859  0.58059038  0.32650137
Direct configuration=    31
   0.33532961  0.67229933  0.10005031
   0.66863250  0.33901333  0.09968388
   0.16207507  0.32511959  0.09890919
   0.32153197  0.16523104  0.10064678
   0.16187661  0.84578540  0.10160905
   0.84227312  0.16537419  0.09797403
   0.68255780  0.84565479  0.09898748
   0.84234660  0.68609419  0.10072020
   0.25287649  0.24677632  0.32667110
   0.41943293  0.08024701  0.32652242
   0.25284541  0.74700870  0.32634383
   0.41962546  0.58022268  0.32636250
   0.75292740  0.24691772  0.32639537
   0.91965401  0.08019079  0.32660951
   0.75307449  0.74697601  0.32666961
   0.91959920  0.58041426  0.32651140
Direct configuration=    32
   0.33488451  0.67277708  0.10000920
   0.66817433  0.33949580  0.09962231
   0.16150736  0.32562894  0.09874025
   0.32105302  0.16575246  0.10076155
   0.16136563  0.84629856  0.10188799
   0.84180312  0.16588965  0.09764918
   0.68206298  0.84623493  0.09883126
   0.84186139  0.68660654  0.10084725
   0.25337398  0.24627483  0.32670844
   0.41993537  0.07973960  0.32655288
   0.25334617  0.74648279  0.32637157
   0.42010752  0.57971492  0.32638227
   0.75341734  0.24640368  0.32642059
   0.92013347  0.07968588  0.32663322
   0.75355144  0.74645378  0.32670720
   0.92008103  0.57988589  0.32654151
Direct configuration=    33
   0.33399429  0.67373258  0.09992698
   0.66725799  0.34046074  0.09949917
   0.16037195  0.32664764  0.09840236
   0.32009511  0.16679532  0.10099108
   0.16034369  0.84732490  0.10244586
   0.84086314  0.16692056  0.09699948
   0.68107332  0.84739520  0.09851883
   0.84089097  0.68763123  0.10110135
   0.25436896  0.24527186  0.32678313
   0.42094026  0.07872479  0.32661379
   0.25434769  0.74543097  0.32642704
   0.42107162  0.57869941  0.32642181
   0.75439722  0.24537560  0.32647104
   0.92109240  0.07867605  0.32668066
   0.75450534  0.74540932  0.32678238
   0.92104470  0.57882916  0.32660171
Direct configuration=    34
   0.33432077  0.67338217  0.09995713
   0.66759405  0.34010686  0.09954433
   0.16078835  0.32627405  0.09852627
   0.32044641  0.16641287  0.10090690
   0.16071847  0.84694851  0.10224127
   0.84120787  0.16654249  0.09723775
   0.68143626  0.84696968  0.09863341
   0.84124686  0.68725544  0.10100817
   0.25400406  0.24563968  0.32675574
   0.42057173  0.07909696  0.32659145
   0.25398040  0.74581671  0.32640670
   0.42071805  0.57907183  0.32640731
   0.75403786  0.24575263  0.32645254
   0.92074073  0.07904639  0.32666326
   0.75415551  0.74579236  0.32675481
   0.92069129  0.57921670  0.32657963
Direct configuration=    35
   0.33435794  0.67334475  0.09996350
   0.66763059  0.34006843  0.09956383
   0.16081007  0.32625420  0.09853194
   0.32047827  0.16639440  0.10089803
   0.16074062  0.84692515  0.10221762
   0.84123374  0.16651294  0.09725979
   0.68145407  0.84694298  0.09863801
   0.84126731  0.68722472  0.10099857
   0.25397420  0.24567634  0.32674521
   0.42055421  0.07912236  0.32659310
   0.25395074  0.74584665  0.32640618
   0.42069569  0.57909641  0.32641313
   0.75400722  0.24578377  0.32644941
   0.92071650  0.07907304  0.32666241
   0.75411917  0.74582256  0.32674432
   0.92066833  0.57923664  0.32658161
Direct configuration=    36
   0.33446944  0.67323250  0.09998259
   0.66774022  0.33995315  0.09962236
   0.16087522  0.32619464  0.09854895
   0.32057387  0.16633901  0.10087141
   0.16080704  0.84685508  0.10214668
   0.84131136  0.16642431  0.09732591
   0.68150750  0.84686285  0.09865183
   0.84132864  0.68713256  0.10096979
   0.25388461  0.24578632  0.32671362
   0.42050166  0.07919855  0.32659806
   0.25386177  0.74593647  0.32640462
   0.42062861  0.57917013  0.32643057
   0.75391528  0.24587718  0.32644001
   0.92064383  0.07915297  0.32665985
   0.75401014  0.74591314  0.32671287
   0.92059947  0.57929646  0.32658755
Direct configuration=    37
   0.33469246  0.67300800  0.10002077
   0.66795949  0.33972259  0.09973940
   0.16100554  0.32607553  0.09858296
   0.32076505  0.16622824  0.10081818
   0.16093989  0.84671494  0.10200480
   0.84146659  0.16624703  0.09745816
   0.68161437  0.84670260  0.09867947
   0.84145131  0.68694825  0.10091223
   0.25370543  0.24600627  0.32665044
   0.42039656  0.07935093  0.32660796
   0.25368384  0.74611610  0.32640150
   0.42049444  0.57931758  0.32646545
   0.75373140  0.24606401  0.32642122
   0.92049848  0.07931284  0.32665473
   0.75379207  0.74609432  0.32664997
   0.92046173  0.57941611  0.32659943
Direct configuration=    38
   0.33459793  0.67310316  0.10000458
   0.66786655  0.33982032  0.09968979
   0.16095030  0.32612602  0.09856854
   0.32068401  0.16627519  0.10084074
   0.16088358  0.84677434  0.10206494
   0.84140080  0.16632217  0.09740211
   0.68156907  0.84677052  0.09866776
   0.84139932  0.68702637  0.10093663
   0.25378138  0.24591304  0.32667722
   0.42044111  0.07928634  0.32660376
   0.25375926  0.74603996  0.32640282
   0.42055131  0.57925508  0.32645066
   0.75380934  0.24598482  0.32642918
   0.92056009  0.07924508  0.32665690
   0.75388450  0.74601753  0.32667663
   0.92052011  0.57936539  0.32659440
Direct configuration=    39
   0.33461529  0.67308005  0.10001719
   0.66791473  0.33977629  0.09974276
   0.16099191  0.32607112  0.09857513
   0.32071287  0.16624891  0.10082180
   0.16093298  0.84673695  0.10201890
   0.84143804  0.16627419  0.09744123
   0.68162262  0.84672472  0.09867214
   0.84142525  0.68698841  0.10091649
   0.25375768  0.24593458  0.32665780
   0.42038308  0.07933769  0.32660519
   0.25373487  0.74606971  0.32640979
   0.42049708  0.57930792  0.32645957
   0.75378665  0.24601279  0.32642671
   0.92051031  0.07929342  0.32664780
   0.75386791  0.74604633  0.32665746
   0.92046737  0.57942225  0.32659667
Direct configuration=    40
   0.33463377  0.67305546  0.10003061
   0.66796600  0.33972945  0.09979912
   0.16103619  0.32601271  0.09858215
   0.32074357  0.16622095  0.10080165
   0.16098555  0.84669717  0.10196992
   0.84147767  0.16622313  0.09748287
   0.68167960  0.84667599  0.09867681
   0.84145285  0.68694802  0.10089506
   0.25373246  0.24595749  0.32663713
   0.42032133  0.07939232  0.32660671
   0.25370893  0.74610137  0.32641721
   0.42043938  0.57936414  0.32646906
   0.75376251  0.24604255  0.32642409
   0.92045734  0.07934486  0.32663812
   0.75385026  0.74607698  0.32663706
   0.92041125  0.57948274  0.32659910
Direct configuration=    41
   0.33463695  0.67305122  0.10003292
   0.66797482  0.33972139  0.09980882
   0.16104381  0.32600266  0.09858335
   0.32074885  0.16621613  0.10079818
   0.16099460  0.84669033  0.10196149
   0.84148449  0.16621434  0.09749003
   0.68168941  0.84666761  0.09867762
   0.84145760  0.68694107  0.10089137
   0.25372813  0.24596144  0.32663358
   0.42031070  0.07940173  0.32660697
   0.25370446  0.74610682  0.32641849
   0.42042945  0.57937382  0.32647069
   0.75375836  0.24604767  0.32642363
   0.92044822  0.07935372  0.32663645
   0.75384722  0.74608225  0.32663355
   0.92040160  0.57949315  0.32659951
Direct configuration=    42
   0.33463774  0.67304932  0.10003811
   0.66797408  0.33971738  0.09985158
   0.16105951  0.32599242  0.09858996
   0.32077591  0.16617381  0.10078305
   0.16099859  0.84668358  0.10192927
   0.84151245  0.16618751  0.09751817
   0.68169533  0.84664038  0.09868246
   0.84151115  0.68691959  0.10087530
   0.25370425  0.24597437  0.32662787
   0.42029081  0.07941420  0.32660280
   0.25367983  0.74613160  0.32643114
   0.42041711  0.57938781  0.32646681
   0.75373702  0.24606899  0.32642621
   0.92043998  0.07936345  0.32661982
   0.75383417  0.74610616  0.32662819
   0.92039074  0.57951478  0.32659591
Direct configuration=    43
   0.33463826  0.67304806  0.10004152
   0.66797359  0.33971474  0.09987974
   0.16106984  0.32598567  0.09859432
   0.32079372  0.16614595  0.10077309
   0.16100122  0.84667914  0.10190806
   0.84153086  0.16616984  0.09753669
   0.68169923  0.84662246  0.09868564
   0.84154641  0.68690545  0.10086471
   0.25368854  0.24598288  0.32662411
   0.42027771  0.07942241  0.32660006
   0.25366361  0.74614792  0.32643947
   0.42040898  0.57939703  0.32646426
   0.75372297  0.24608302  0.32642791
   0.92043455  0.07936986  0.32660888
   0.75382558  0.74612190  0.32662466
   0.92038359  0.57952901  0.32659354
Direct configuration=    44
   0.33464053  0.67304390  0.10004065
   0.66798363  0.33970569  0.09990310
   0.16109326  0.32598619  0.09860258
   0.32079390  0.16615982  0.10076340
   0.16101538  0.84667421  0.10188887
   0.84151988  0.16616970  0.09755704
   0.68170313  0.84660105  0.09869263
   0.84153032  0.68690290  0.10085427
   0.25367938  0.24599671  0.32662591
   0.42028526  0.07942099  0.32659554
   0.25365487  0.74615522  0.32644850
   0.42041293  0.57939462  0.32645473
   0.75371330  0.24609133  0.32642931
   0.92043581  0.07937027  0.32659415
   0.75381041  0.74612966  0.32662677
   0.92038667  0.57952309  0.32658921
Direct configuration=    45
   0.33464158  0.67304195  0.10004024
   0.66798832  0.33970147  0.09991399
   0.16110419  0.32598643  0.09860644
   0.32079398  0.16616629  0.10075889
   0.16102199  0.84667191  0.10187992
   0.84151475  0.16616963  0.09756653
   0.68170495  0.84659106  0.09869590
   0.84152282  0.68690171  0.10084940
   0.25367511  0.24600316  0.32662675
   0.42028879  0.07942032  0.32659343
   0.25365078  0.74615863  0.32645272
   0.42041477  0.57939350  0.32645028
   0.75370879  0.24609520  0.32642996
   0.92043640  0.07937046  0.32658727
   0.75380333  0.74613329  0.32662776
   0.92038811  0.57952032  0.32658719
Direct configuration=    46
   0.33465174  0.67303470  0.10003691
   0.66799221  0.33969740  0.09993184
   0.16108751  0.32599017  0.09861901
   0.32079702  0.16617550  0.10074976
   0.16101830  0.84667606  0.10185807
   0.84151615  0.16616848  0.09759352
   0.68169856  0.84660292  0.09870694
   0.84151797  0.68689969  0.10083919
   0.25368185  0.24600295  0.32662829
   0.42029059  0.07942229  0.32659047
   0.25365826  0.74615163  0.32645774
   0.42041265  0.57939469  0.32643959
   0.75371447  0.24609009  0.32642749
   0.92043196  0.07937409  0.32657390
   0.75380416  0.74612712  0.32662965
   0.92038526  0.57951755  0.32658429
Direct configuration=    47
   0.33466358  0.67302624  0.10003302
   0.66799675  0.33969265  0.09995266
   0.16106806  0.32599454  0.09863367
   0.32080056  0.16618624  0.10073912
   0.16101400  0.84668091  0.10183259
   0.84151779  0.16616713  0.09762500
   0.68169110  0.84661677  0.09871982
   0.84151231  0.68689734  0.10082728
   0.25368971  0.24600271  0.32663010
   0.42029269  0.07942459  0.32658702
   0.25366698  0.74614345  0.32646359
   0.42041018  0.57939609  0.32642711
   0.75372109  0.24608413  0.32642460