   8   8   0   0
  0.4338553E+02  0.5169000E-09  0.5169000E-09  0.1500000E-08  0.5000000E-15
  1.000000000000000E-004
  CAR 
 BC3                                     
      9.53158889    -21.28514856  301     -3.47774488      1.00000000
    -21.285  0.0000E+00  0.0000E+00
    -21.182  0.0000E+00  0.0000E+00
    -21.080  0.0000E+00  0.0000E+00
    -20.977  0.0000E+00  0.0000E+00
    -20.874  0.0000E+00  0.0000E+00
    -20.772  0.0000E+00  0.0000E+00
    -20.669  0.0000E+00  0.0000E+00
    -20.566  0.0000E+00  0.0000E+00
    -20.463  0.3377E-18  0.3469E-19
    -20.361  0.2516E-13  0.2585E-14
    -20.258  0.2012E-09  0.2067E-10
    -20.155  0.2199E-06  0.2261E-07
    -20.052  0.3739E-04  0.3864E-05
    -19.950  0.1189E-02  0.1260E-03
    -19.847  0.8180E-02  0.9662E-03
    -19.744  0.1685E-01  0.2697E-02
    -19.642  0.2153E-01  0.4908E-02
    -19.539  0.2211E-01  0.7180E-02
    -19.436  0.3044E-01  0.1031E-01
    -19.333  0.3850E-01  0.1426E-01
    -19.231  0.4003E-01  0.1837E-01
    -19.128  0.1434E-01  0.1985E-01
    -19.025  0.1460E-02  0.2000E-01
    -18.923  0.3146E-04  0.2000E-01
    -18.820  0.1052E-06  0.2000E-01
    -18.717  0.4758E-10  0.2000E-01
    -18.614  0.2763E-14  0.2000E-01
    -18.512  0.0000E+00  0.2000E-01
    -18.409  0.0000E+00  0.2000E-01
    -18.306  0.0000E+00  0.2000E-01
    -18.203  0.5066E-18  0.2000E-01
    -18.101  0.3085E-13  0.2000E-01
    -17.998  0.2878E-09  0.2000E-01
    -17.895  0.3467E-06  0.2000E-01
    -17.793  0.5679E-04  0.2001E-01
    -17.690  0.1481E-02  0.2016E-01
    -17.587  0.9710E-02  0.2116E-01
    -17.484  0.2640E-01  0.2387E-01
    -17.382  0.3430E-01  0.2739E-01
    -17.279  0.2397E-01  0.2985E-01
    -17.176  0.1523E-01  0.3142E-01
    -17.074  0.2762E-01  0.3426E-01
    -16.971  0.1859E-01  0.3617E-01
    -16.868  0.1718E-01  0.3793E-01
    -16.765  0.1708E-01  0.3968E-01
    -16.663  0.2442E-01  0.4219E-01
    -16.560  0.3626E-01  0.4592E-01
    -16.457  0.3235E-01  0.4924E-01
    -16.354  0.2551E-01  0.5186E-01
    -16.252  0.3090E-01  0.5503E-01
    -16.149  0.2369E-01  0.5747E-01
    -16.046  0.1319E-01  0.5882E-01
    -15.944  0.9083E-02  0.5976E-01
    -15.841  0.2232E-02  0.5999E-01
    -15.738  0.1443E-03  0.6000E-01
    -15.635  0.1671E-05  0.6000E-01
    -15.533  0.2762E-08  0.6000E-01
    -15.430  0.5995E-12  0.6000E-01
    -15.327  0.1655E-16  0.6000E-01
    -15.225  0.0000E+00  0.6000E-01
    -15.122  0.0000E+00  0.6000E-01
    -15.019  0.0000E+00  0.6000E-01
    -14.916  0.0000E+00  0.6000E-01
    -14.814  0.0000E+00  0.6000E-01
    -14.711  0.5630E-15  0.6000E-01
    -14.608  0.1152E-10  0.6000E-01
    -14.505  0.3039E-07  0.6000E-01
    -14.403  0.1088E-04  0.6000E-01
    -14.300  0.5937E-03  0.6006E-01
    -14.197  0.6025E-02  0.6068E-01
    -14.095  0.1380E-01  0.6210E-01
    -13.992  0.1214E-01  0.6335E-01
    -13.889  0.2431E-01  0.6584E-01
    -13.786  0.4313E-01  0.7027E-01
    -13.684  0.4276E-01  0.7467E-01
    -13.581  0.1664E-01  0.7638E-01
    -13.478  0.6819E-02  0.7708E-01
    -13.376  0.1742E-01  0.7887E-01
    -13.273  0.2252E-01  0.8118E-01
    -13.170  0.2126E-01  0.8336E-01
    -13.067  0.6559E-02  0.8404E-01
    -12.965  0.2769E-02  0.8432E-01
    -12.862  0.1324E-01  0.8568E-01
    -12.759  0.2852E-01  0.8861E-01
    -12.656  0.2495E-01  0.9117E-01
    -12.554  0.1276E-01  0.9248E-01
    -12.451  0.1023E-01  0.9353E-01
    -12.348  0.6101E-02  0.9416E-01
    -12.246  0.2442E-01  0.9667E-01
    -12.143  0.3392E-01  0.1002E+00
    -12.040  0.1016E-01  0.1012E+00
    -11.937  0.1625E-02  0.1014E+00
    -11.835  0.4797E-02  0.1019E+00
    -11.732  0.7520E-02  0.1026E+00
    -11.629  0.1090E-01  0.1037E+00
    -11.527  0.1033E-01  0.1048E+00
    -11.424  0.8994E-02  0.1057E+00
    -11.321  0.2400E-02  0.1060E+00
    -11.218  0.1636E-02  0.1061E+00
    -11.116  0.9299E-03  0.1062E+00
    -11.013  0.1160E-02  0.1064E+00
    -10.910  0.8461E-02  0.1072E+00
    -10.807  0.2283E-01  0.1096E+00
    -10.705  0.3075E-01  0.1127E+00
    -10.602  0.1445E-01  0.1142E+00
    -10.499  0.1086E-01  0.1153E+00
    -10.397  0.1212E-01  0.1166E+00
    -10.294  0.2635E-01  0.1193E+00
    -10.191  0.2812E-01  0.1222E+00
    -10.088  0.1503E-01  0.1237E+00
     -9.986  0.1474E-01  0.1252E+00
     -9.883  0.7692E-02  0.1260E+00
     -9.780  0.1257E-01  0.1273E+00
     -9.678  0.2991E-01  0.1304E+00
     -9.575  0.3368E-01  0.1338E+00
     -9.472  0.3294E-01  0.1372E+00
     -9.369  0.2946E-01  0.1403E+00
     -9.267  0.1536E-01  0.1418E+00
     -9.164  0.6938E-02  0.1425E+00
     -9.061  0.1232E-01  0.1438E+00
     -8.958  0.2286E-01  0.1462E+00
     -8.856  0.2232E-01  0.1485E+00
     -8.753  0.2479E-01  0.1510E+00
     -8.650  0.3475E-01  0.1546E+00
     -8.548  0.3872E-01  0.1585E+00
     -8.445  0.2670E-01  0.1613E+00
     -8.342  0.2778E-01  0.1641E+00
     -8.239  0.1580E-01  0.1658E+00
     -8.137  0.1321E-01  0.1671E+00
     -8.034  0.3124E-01  0.1703E+00
     -7.931  0.3458E-01  0.1739E+00
     -7.829  0.3087E-01  0.1771E+00
     -7.726  0.3163E-01  0.1803E+00
     -7.623  0.5322E-01  0.1858E+00
     -7.520  0.4822E-01  0.1907E+00
     -7.418  0.2442E-01  0.1932E+00
     -7.315  0.1998E-01  0.1953E+00
     -7.212  0.2413E-01  0.1978E+00
     -7.109  0.9260E-02  0.1987E+00
     -7.007  0.6745E-02  0.1994E+00
     -6.904  0.2420E-01  0.2019E+00
     -6.801  0.2958E-01  0.2049E+00
     -6.699  0.1467E-01  0.2064E+00
     -6.596  0.1853E-01  0.2083E+00
     -6.493  0.4819E-01  0.2133E+00
     -6.390  0.7091E-01  0.2206E+00
     -6.288  0.6960E-01  0.2277E+00
     -6.185  0.6333E-01  0.2342E+00
     -6.082  0.4672E-01  0.2390E+00
     -5.980  0.1524E-01  0.2406E+00
     -5.877  0.1466E-01  0.2421E+00
     -5.774  0.3775E-01  0.2460E+00
     -5.671  0.2477E-01  0.2485E+00
     -5.569  0.2814E-01  0.2514E+00
     -5.466  0.3063E-01  0.2546E+00
     -5.363  0.2222E-01  0.2568E+00
     -5.260  0.1386E-01  0.2583E+00
     -5.158  0.4070E-01  0.2624E+00
     -5.055  0.4864E-01  0.2674E+00
     -4.952  0.3912E-01  0.2715E+00
     -4.850  0.2736E-01  0.2743E+00
     -4.747  0.5410E-01  0.2798E+00
     -4.644  0.6486E-01  0.2865E+00
     -4.541  0.3319E-01  0.2899E+00
     -4.439  0.1661E-01  0.2916E+00
     -4.336  0.1323E-01  0.2930E+00
     -4.233  0.1807E-01  0.2948E+00
     -4.130  0.1398E-01  0.2963E+00
     -4.028  0.1187E-01  0.2975E+00
     -3.925  0.1132E-01  0.2986E+00
     -3.822  0.8366E-02  0.2995E+00
     -3.720  0.3895E-02  0.2999E+00
     -3.617  0.9100E-03  0.3000E+00
     -3.514  0.4063E-04  0.3000E+00
     -3.411  0.1788E-05  0.3000E+00
     -3.309  0.1546E-03  0.3000E+00
     -3.206  0.2618E-02  0.3003E+00
     -3.103  0.1029E-01  0.3013E+00
     -3.001  0.1136E-01  0.3025E+00
     -2.898  0.4668E-02  0.3030E+00
     -2.795  0.1324E-01  0.3043E+00
     -2.692  0.3849E-01  0.3083E+00
     -2.590  0.4180E-01  0.3126E+00
     -2.487  0.1352E-01  0.3140E+00
     -2.384  0.6135E-02  0.3146E+00
     -2.281  0.1162E-01  0.3158E+00
     -2.179  0.1200E-01  0.3170E+00
     -2.076  0.6951E-02  0.3178E+00
     -1.973  0.4131E-02  0.3182E+00
     -1.871  0.1037E-01  0.3192E+00
     -1.768  0.6598E-02  0.3199E+00
     -1.665  0.7446E-03  0.3200E+00
     -1.562  0.1293E-04  0.3200E+00
     -1.460  0.3118E-07  0.3200E+00
     -1.357  0.9882E-11  0.3200E+00
     -1.254  0.1029E-09  0.3200E+00
     -1.152  0.1884E-06  0.3200E+00
     -1.049  0.4574E-04  0.3200E+00
     -0.946  0.1563E-02  0.3202E+00
     -0.843  0.8250E-02  0.3210E+00
     -0.741  0.7499E-02  0.3218E+00
     -0.638  0.4561E-02  0.3223E+00
     -0.535  0.9695E-02  0.3232E+00
     -0.432  0.4555E-02  0.3237E+00
     -0.330  0.8611E-03  0.3238E+00
     -0.227  0.6032E-02  0.3244E+00
     -0.124  0.2942E-01  0.3274E+00
     -0.022  0.4682E-01  0.3323E+00
      0.081  0.2751E-01  0.3351E+00
      0.184  0.1034E-01  0.3361E+00
      0.287  0.1381E-01  0.3376E+00
      0.389  0.1400E-01  0.3390E+00
      0.492  0.8513E-02  0.3399E+00
      0.595  0.1084E-01  0.3410E+00
      0.697  0.1318E-01  0.3423E+00
      0.800  0.1712E-01  0.3441E+00
      0.903  0.1833E-01  0.3460E+00
      1.006  0.1828E-01  0.3479E+00
      1.108  0.8111E-02  0.3487E+00
      1.211  0.1791E-01  0.3505E+00
      1.314  0.3740E-01  0.3544E+00
      1.417  0.2734E-01  0.3572E+00
      1.519  0.9050E-02  0.3581E+00
      1.622  0.1667E-01  0.3598E+00
      1.725  0.2252E-01  0.3621E+00
      1.827  0.2582E-01  0.3648E+00
      1.930  0.4393E-01  0.3693E+00
      2.033  0.2379E-01  0.3717E+00
      2.136  0.8408E-02  0.3726E+00
      2.238  0.3085E-01  0.3758E+00
      2.341  0.6086E-01  0.3820E+00
      2.444  0.5288E-01  0.3875E+00
      2.546  0.3490E-01  0.3910E+00
      2.649  0.2671E-01  0.3938E+00
      2.752  0.3173E-01  0.3971E+00
      2.855  0.2807E-01  0.3999E+00
      2.957  0.3705E-01  0.4037E+00
      3.060  0.4852E-01  0.4087E+00
      3.163  0.3733E-01  0.4126E+00
      3.266  0.4669E-01  0.4174E+00
      3.368  0.4491E-01  0.4220E+00
      3.471  0.3021E-01  0.4251E+00
      3.574  0.3114E-01  0.4283E+00
      3.676  0.4076E-01  0.4325E+00
      3.779  0.4208E-01  0.4368E+00
      3.882  0.3035E-01  0.4399E+00
      3.985  0.3325E-01  0.4433E+00
      4.087  0.5897E-01  0.4494E+00
      4.190  0.3380E-01  0.4528E+00
      4.293  0.1440E-01  0.4543E+00
      4.395  0.4441E-01  0.4589E+00
      4.498  0.6493E-01  0.4656E+00
      4.601  0.5017E-01  0.4707E+00
      4.704  0.4607E-01  0.4754E+00
      4.806  0.3567E-01  0.4791E+00
      4.909  0.4152E-01  0.4834E+00
      5.012  0.6581E-01  0.4901E+00
      5.115  0.6895E-01  0.4972E+00
      5.217  0.7488E-01  0.5049E+00
      5.320  0.8682E-01  0.5138E+00
      5.423  0.6486E-01  0.5205E+00
      5.525  0.6864E-01  0.5275E+00
      5.628  0.7467E-01  0.5352E+00
      5.731  0.6405E-01  0.5418E+00
      5.834  0.7364E-01  0.5494E+00
      5.936  0.8504E-01  0.5581E+00
      6.039  0.6737E-01  0.5650E+00
      6.142  0.5970E-01  0.5711E+00
      6.244  0.5844E-01  0.5771E+00
      6.347  0.7279E-01  0.5846E+00
      6.450  0.7823E-01  0.5927E+00
      6.553  0.7453E-01  0.6003E+00
      6.655  0.7817E-01  0.6083E+00
      6.758  0.7618E-01  0.6162E+00
      6.861  0.7208E-01  0.6236E+00
      6.964  0.4907E-01  0.6286E+00
      7.066  0.3441E-01  0.6321E+00
      7.169  0.2553E-01  0.6348E+00
      7.272  0.1362E-01  0.6362E+00
      7.374  0.1151E-01  0.6374E+00
      7.477  0.1107E-01  0.6385E+00
      7.580  0.5131E-02  0.6390E+00
      7.683  0.4530E-03  0.6391E+00
      7.785  0.3160E-03  0.6391E+00
      7.888  0.1478E-02  0.6392E+00
      7.991  0.1786E-02  0.6394E+00
      8.093  0.2595E-02  0.6397E+00
      8.196  0.2349E-02  0.6399E+00
      8.299  0.5708E-03  0.6400E+00
      8.402  0.2698E-04  0.6400E+00
      8.504  0.1958E-06  0.6400E+00
      8.607  0.1939E-09  0.6400E+00
      8.710  0.2489E-13  0.6400E+00
      8.813  0.3377E-18  0.6400E+00
      8.915  0.0000E+00  0.6400E+00
      9.018  0.0000E+00  0.6400E+00
      9.121  0.0000E+00  0.6400E+00
      9.223  0.0000E+00  0.6400E+00
      9.326  0.0000E+00  0.6400E+00
      9.429  0.0000E+00  0.6400E+00
      9.532  0.0000E+00  0.6400E+00
