<?xml version="1.0" encoding="ISO-8859-1"?>
<modeling>
 <generator>
  <i name="program" type="string">vasp </i>
  <i name="version" type="string">6.3.2  </i>
  <i name="subversion" type="string">27Jun22 (build Dec 22 2022 13:13:19) complex                          parallel </i>
  <i name="platform" type="string">LinuxIFC </i>
  <i name="date" type="string">2023 08 23 </i>
  <i name="time" type="string">04:28:38 </i>
 </generator>
 <incar>
  <i type="string" name="SYSTEM">Lattice</i>
  <i type="int" name="ISTART">     0</i>
  <i type="string" name="PREC">Accurate</i>
  <i type="string" name="ALGO">Normal</i>
  <i type="int" name="ISPIN">     2</i>
  <i type="int" name="ICHARG">     2</i>
  <i type="int" name="NELM">    64</i>
  <i type="int" name="IBRION">     2</i>
  <i name="EDIFF">      0.00000100</i>
  <i name="EDIFFG">     -0.00100000</i>
  <i type="int" name="NSW">   128</i>
  <i type="int" name="ISIF">     2</i>
  <i name="ENCUT">    450.00000000</i>
  <i name="POTIM">      0.50000000</i>
  <i type="int" name="ISMEAR">     0</i>
  <i name="SIGMA">      0.10000000</i>
  <i type="logical" name="LWAVE"> F  </i>
  <i type="logical" name="LCHARG"> F  </i>
  <i type="string" name="GGA">PE</i>
  <i type="int" name="IVDW">    12</i>
 </incar>
 <primitive_cell>
  <structure name="primitive_cell" >
   <crystal>
    <varray name="basis" >
     <v>       4.18896488       2.41850000       0.00000000 </v>
     <v>      -4.18896488       2.41850000       0.00000000 </v>
     <v>       0.00000000       0.00000000      15.00000000 </v>
    </varray>
    <i name="volume">    303.93034673 </i>
    <varray name="rec_basis" >
     <v>       0.11936123       0.20673971       0.00000000 </v>
     <v>      -0.11936123       0.20673971       0.00000000 </v>
     <v>       0.00000000       0.00000000       0.06666667 </v>
    </varray>
   </crystal>
   <varray name="positions" >
    <v>       0.00415361       0.00267210       0.12034134 </v>
    <v>       0.35695335       0.00285503       0.09748893 </v>
    <v>       0.00423858       0.35550699       0.09749256 </v>
    <v>       0.65142295       0.65006557       0.09747688 </v>
    <v>       0.32808646       0.32671938       0.10030508 </v>
    <v>       0.68027775       0.00278085       0.10027562 </v>
    <v>       0.00416530       0.67883808       0.10026559 </v>
    <v>       0.99999933       0.49999967       0.33373333 </v>
    <v>       0.16666633       0.33333267       0.33373333 </v>
    <v>       0.99999933       0.99999967       0.33373333 </v>
    <v>       0.16666633       0.83333267       0.33373333 </v>
    <v>       0.49999933       0.49999967       0.33373333 </v>
    <v>       0.66666633       0.33333267       0.33373333 </v>
    <v>       0.49999933       0.99999967       0.33373333 </v>
    <v>       0.66666633       0.83333267       0.33373333 </v>
   </varray>
  </structure>
  <varray name="primitive_index" >
   <v type="int" >        1 </v>
   <v type="int" >        2 </v>
   <v type="int" >        3 </v>
   <v type="int" >        4 </v>
   <v type="int" >        5 </v>
   <v type="int" >        6 </v>
   <v type="int" >        7 </v>
   <v type="int" >        8 </v>
   <v type="int" >        9 </v>
   <v type="int" >       10 </v>
   <v type="int" >       11 </v>
   <v type="int" >       12 </v>
   <v type="int" >       13 </v>
   <v type="int" >       14 </v>
   <v type="int" >       15 </v>
  </varray>
 </primitive_cell>
 <kpoints>
  <generation param="Gamma">
   <v type="int" name="divisions">      12       12        1 </v>
   <v name="usershift">      0.00000000       0.00000000       0.00000000 </v>
   <v name="genvec1">      0.08333333       0.00000000       0.00000000 </v>
   <v name="genvec2">      0.00000000       0.08333333       0.00000000 </v>
   <v name="genvec3">      0.00000000       0.00000000       1.00000000 </v>
   <v name="shift">      0.00000000       0.00000000       0.00000000 </v>
  </generation>
  <varray name="kpointlist" >
   <v>       0.00000000       0.00000000       0.00000000 </v>
   <v>       0.08333333      -0.00000000       0.00000000 </v>
   <v>       0.00000000       0.08333333       0.00000000 </v>
   <v>      -0.08333333       0.08333333       0.00000000 </v>
   <v>       0.16666667      -0.00000000       0.00000000 </v>
   <v>      -0.00000000       0.16666667       0.00000000 </v>
   <v>      -0.16666667       0.16666667       0.00000000 </v>
   <v>       0.25000000      -0.00000000       0.00000000 </v>
   <v>      -0.00000000       0.25000000       0.00000000 </v>
   <v>      -0.25000000       0.25000000       0.00000000 </v>
   <v>       0.33333333      -0.00000000       0.00000000 </v>
   <v>      -0.00000000       0.33333333       0.00000000 </v>
   <v>      -0.33333333       0.33333333       0.00000000 </v>
   <v>       0.41666667      -0.00000000       0.00000000 </v>
   <v>      -0.00000000       0.41666667       0.00000000 </v>
   <v>      -0.41666667       0.41666667       0.00000000 </v>
   <v>       0.50000000      -0.00000000       0.00000000 </v>
   <v>      -0.00000000       0.50000000       0.00000000 </v>
   <v>       0.50000000       0.50000000       0.00000000 </v>
   <v>       0.08333333       0.08333333       0.00000000 </v>
   <v>      -0.08333333       0.16666667       0.00000000 </v>
   <v>      -0.16666667       0.08333333       0.00000000 </v>
   <v>       0.16666667       0.08333333       0.00000000 </v>
   <v>      -0.08333333       0.25000000       0.00000000 </v>
   <v>      -0.25000000       0.16666667       0.00000000 </v>
   <v>      -0.16666667       0.25000000       0.00000000 </v>
   <v>       0.08333333       0.16666667       0.00000000 </v>
   <v>       0.25000000      -0.08333333       0.00000000 </v>
   <v>       0.25000000       0.08333333       0.00000000 </v>
   <v>      -0.08333333       0.33333333       0.00000000 </v>
   <v>      -0.33333333       0.25000000       0.00000000 </v>
   <v>      -0.25000000       0.33333333       0.00000000 </v>
   <v>       0.08333333       0.25000000       0.00000000 </v>
   <v>       0.33333333      -0.08333333       0.00000000 </v>
   <v>       0.33333333       0.08333333       0.00000000 </v>
   <v>      -0.08333333       0.41666667       0.00000000 </v>
   <v>      -0.41666667       0.33333333       0.00000000 </v>
   <v>      -0.33333333       0.41666667       0.00000000 </v>
   <v>       0.08333333       0.33333333       0.00000000 </v>
   <v>       0.41666667      -0.08333333       0.00000000 </v>
   <v>       0.41666667       0.08333333       0.00000000 </v>
   <v>      -0.08333333       0.50000000       0.00000000 </v>
   <v>       0.50000000       0.41666667       0.00000000 </v>
   <v>      -0.41666667       0.50000000       0.00000000 </v>
   <v>       0.08333333       0.41666667       0.00000000 </v>
   <v>       0.50000000      -0.08333333       0.00000000 </v>
   <v>       0.16666667       0.16666667       0.00000000 </v>
   <v>      -0.16666667       0.33333333       0.00000000 </v>
   <v>      -0.33333333       0.16666667       0.00000000 </v>
   <v>       0.25000000       0.16666667       0.00000000 </v>
   <v>      -0.16666667       0.41666667       0.00000000 </v>
   <v>      -0.41666667       0.25000000       0.00000000 </v>
   <v>      -0.25000000       0.41666667       0.00000000 </v>
   <v>       0.16666667       0.25000000       0.00000000 </v>
   <v>       0.41666667      -0.16666667       0.00000000 </v>
   <v>       0.33333333       0.16666667       0.00000000 </v>
   <v>      -0.16666667       0.50000000       0.00000000 </v>
   <v>       0.50000000       0.33333333       0.00000000 </v>
   <v>      -0.33333333       0.50000000       0.00000000 </v>
   <v>       0.16666667       0.33333333       0.00000000 </v>
   <v>       0.50000000      -0.16666667       0.00000000 </v>
   <v>       0.41666667       0.16666667       0.00000000 </v>
   <v>      -0.16666667      -0.41666667       0.00000000 </v>
   <v>       0.41666667       0.41666667       0.00000000 </v>
   <v>       0.25000000       0.25000000       0.00000000 </v>
   <v>      -0.25000000       0.50000000       0.00000000 </v>
   <v>       0.50000000       0.25000000       0.00000000 </v>
   <v>       0.33333333       0.25000000       0.00000000 </v>
   <v>      -0.25000000      -0.41666667       0.00000000 </v>
   <v>       0.41666667       0.33333333       0.00000000 </v>
   <v>      -0.33333333      -0.41666667       0.00000000 </v>
   <v>       0.25000000       0.33333333       0.00000000 </v>
   <v>      -0.41666667      -0.25000000       0.00000000 </v>
   <v>       0.33333333       0.33333333       0.00000000 </v>
  </varray>
  <varray name="weights" >
   <v>       0.00694444 </v>
   <v>       0.01388889 </v>
   <v>       0.01388889 </v>
   <v>       0.01388889 </v>
   <v>       0.01388889 </v>
   <v>       0.01388889 </v>
   <v>       0.01388889 </v>
   <v>       0.01388889 </v>
   <v>       0.01388889 </v>
   <v>       0.01388889 </v>
   <v>       0.01388889 </v>
   <v>       0.01388889 </v>
   <v>       0.01388889 </v>
   <v>       0.01388889 </v>
   <v>       0.01388889 </v>
   <v>       0.01388889 </v>
   <v>       0.00694444 </v>
   <v>       0.00694444 </v>
   <v>       0.00694444 </v>
   <v>       0.01388889 </v>
   <v>       0.01388889 </v>
   <v>       0.01388889 </v>
   <v>       0.01388889 </v>
   <v>       0.01388889 </v>
   <v>       0.01388889 </v>
   <v>       0.01388889 </v>
   <v>       0.01388889 </v>
   <v>       0.01388889 </v>
   <v>       0.01388889 </v>
   <v>       0.01388889 </v>
   <v>       0.01388889 </v>
   <v>       0.01388889 </v>
   <v>       0.01388889 </v>
   <v>       0.01388889 </v>
   <v>       0.01388889 </v>
   <v>       0.01388889 </v>
   <v>       0.01388889 </v>
   <v>       0.01388889 </v>
   <v>       0.01388889 </v>
   <v>       0.01388889 </v>
   <v>       0.01388889 </v>
   <v>       0.01388889 </v>
   <v>       0.01388889 </v>
   <v>       0.01388889 </v>
   <v>       0.01388889 </v>
   <v>       0.01388889 </v>
   <v>       0.01388889 </v>
   <v>       0.01388889 </v>
   <v>       0.01388889 </v>
   <v>       0.01388889 </v>
   <v>       0.01388889 </v>
   <v>       0.01388889 </v>
   <v>       0.01388889 </v>
   <v>       0.01388889 </v>
   <v>       0.01388889 </v>
   <v>       0.01388889 </v>
   <v>       0.01388889 </v>
   <v>       0.01388889 </v>
   <v>       0.01388889 </v>
   <v>       0.01388889 </v>
   <v>       0.01388889 </v>
   <v>       0.01388889 </v>
   <v>       0.01388889 </v>
   <v>       0.01388889 </v>
   <v>       0.01388889 </v>
   <v>       0.01388889 </v>
   <v>       0.01388889 </v>
   <v>       0.01388889 </v>
   <v>       0.01388889 </v>
   <v>       0.01388889 </v>
   <v>       0.01388889 </v>
   <v>       0.01388889 </v>
   <v>       0.01388889 </v>
   <v>       0.01388889 </v>
  </varray>
 </kpoints>
 <parameters>
  <separator name="general" >
   <i type="string" name="SYSTEM">Lattice</i>
   <i type="logical" name="LCOMPAT"> F  </i>
  </separator>
  <separator name="electronic" >
   <i type="string" name="PREC">accura</i>
   <i name="ENMAX">    450.00000000</i>
   <i name="ENAUG">    644.87300000</i>
   <i name="EDIFF">      0.00000100</i>
   <i type="int" name="IALGO">    38</i>
   <i type="int" name="IWAVPR">    11</i>
   <i type="int" name="NBANDS">    48</i>
   <i type="int" name="NBANDSLOW">    -1</i>
   <i type="int" name="NBANDSHIGH">    -1</i>
   <i name="NELECT">     56.00000000</i>
   <i type="int" name="TURBO">     0</i>
   <i type="int" name="IRESTART">     0</i>
   <i type="int" name="NREBOOT">     0</i>
   <i type="int" name="NMIN">     0</i>
   <i name="EREF">      0.00000000</i>
   <separator name="electronic smearing" >
    <i type="int" name="ISMEAR">     0</i>
    <i name="SIGMA">      0.10000000</i>
    <i name="KSPACING">      0.50000000</i>
    <i type="logical" name="KGAMMA"> T  </i>
    <i type="logical" name="KBLOWUP"> T  </i>
   </separator>
   <separator name="electronic projectors" >
    <i type="logical" name="LREAL"> F  </i>
    <v name="ROPT">      0.00000000      0.00000000</v>
    <i type="int" name="LMAXPAW">  -100</i>
    <i type="int" name="LMAXMIX">     2</i>
    <i type="logical" name="NLSPLINE"> F  </i>
   </separator>
   <separator name="electronic startup" >
    <i type="int" name="ISTART">     0</i>
    <i type="int" name="ICHARG">     2</i>
    <i type="int" name="INIWAV">     1</i>
   </separator>
   <separator name="electronic spin" >
    <i type="int" name="ISPIN">     2</i>
    <i type="logical" name="LNONCOLLINEAR"> F  </i>
    <v name="MAGMOM">      1.00000000      1.00000000      1.00000000      1.00000000      1.00000000      1.00000000      1.00000000      1.00000000      1.00000000      1.00000000      1.00000000      1.00000000      1.00000000      1.00000000      1.00000000</v>
    <i name="NUPDOWN">     -1.00000000</i>
    <i type="logical" name="LSORBIT"> F  </i>
    <v name="SAXIS">      0.00000000      0.00000000      1.00000000</v>
    <i type="logical" name="LSPIRAL"> F  </i>
    <v name="QSPIRAL">      0.00000000      0.00000000      0.00000000</v>
    <i type="logical" name="LZEROZ"> F  </i>
   </separator>
   <separator name="electronic exchange-correlation" >
    <i type="logical" name="LASPH"> F  </i>
    <i type="logical" name="LMETAGGA"> F  </i>
   </separator>
   <separator name="electronic convergence" >
    <i type="int" name="NELM">    64</i>
    <i type="int" name="NELMDL">    -5</i>
    <i type="int" name="NELMIN">     2</i>
    <i name="ENINI">    450.00000000</i>
    <separator name="electronic convergence detail" >
     <i type="logical" name="LDIAG"> T  </i>
     <i type="logical" name="LSUBROT"> F  </i>
     <i name="WEIMIN">      0.00100000</i>
     <i name="EBREAK">      0.00000001</i>
     <i name="DEPER">      0.30000000</i>
     <i type="int" name="NRMM">     4</i>
     <i name="TIME">      0.40000000</i>
    </separator>
   </separator>
   <separator name="electronic mixer" >
    <i name="AMIX">      0.40000000</i>
    <i name="BMIX">      1.00000000</i>
    <i name="AMIN">      0.10000000</i>
    <i name="AMIX_MAG">      1.60000000</i>
    <i name="BMIX_MAG">      1.00000000</i>
    <separator name="electronic mixer details" >
     <i type="int" name="IMIX">     4</i>
     <i type="logical" name="MIXFIRST"> F  </i>
     <i type="int" name="MAXMIX">   -45</i>
     <i name="WC">    100.00000000</i>
     <i type="int" name="INIMIX">     1</i>
     <i type="int" name="MIXPRE">     1</i>
     <i type="int" name="MREMOVE">     5</i>
    </separator>
   </separator>
   <separator name="electronic dipolcorrection" >
    <i type="logical" name="LDIPOL"> F  </i>
    <i type="logical" name="LMONO"> F  </i>
    <i type="int" name="IDIPOL">     0</i>
    <i name="EPSILON">      1.00000000</i>
    <v name="DIPOL">   -100.00000000   -100.00000000   -100.00000000</v>
    <i name="EFIELD">      0.00000000</i>
   </separator>
  </separator>
  <separator name="grids" >
   <i type="int" name="NGX">    36</i>
   <i type="int" name="NGY">    36</i>
   <i type="int" name="NGZ">   108</i>
   <i type="int" name="NGXF">    72</i>
   <i type="int" name="NGYF">    72</i>
   <i type="int" name="NGZF">   216</i>
   <i type="logical" name="ADDGRID"> F  </i>
  </separator>
  <separator name="ionic" >
   <i type="int" name="NSW">   128</i>
   <i type="int" name="IBRION">     2</i>
   <i type="int" name="MDALGO">     0</i>
   <i type="int" name="ISIF">     2</i>
   <i name="PSTRESS">      0.00000000</i>
   <i name="EDIFFG">     -0.00100000</i>
   <i type="int" name="NFREE">     1</i>
   <i name="POTIM">      0.50000000</i>
   <i name="SMASS">     -3.00000000</i>
   <i name="SCALEE">      1.00000000</i>
  </separator>
  <separator name="ionic md" >
   <i name="TEBEG">      0.00010000</i>
   <i name="TEEND">      0.00010000</i>
   <i type="int" name="NBLOCK">     1</i>
   <i type="int" name="KBLOCK">   128</i>
   <i type="int" name="NPACO">   256</i>
   <i name="APACO">     10.00000000</i>
  </separator>
  <separator name="symmetry" >
   <i type="int" name="ISYM">     2</i>
   <i name="SYMPREC">      0.00001000</i>
  </separator>
  <separator name="dos" >
   <i type="int" name="LORBIT">     0</i>
   <v name="RWIGS">     -1.00000000     -1.00000000</v>
   <i type="int" name="NEDOS">   301</i>
   <i name="EMIN">     10.00000000</i>
   <i name="EMAX">    -10.00000000</i>
   <i name="EFERMI">      0.00000000</i>
  </separator>
  <separator name="writing" >
   <i type="int" name="NWRITE">     2</i>
   <i type="logical" name="LWAVE"> F  </i>
   <i type="logical" name="LDOWNSAMPLE"> F  </i>
   <i type="logical" name="LCHARG"> F  </i>
   <i type="logical" name="LPARD"> F  </i>
   <i type="logical" name="LVTOT"> F  </i>
   <i type="logical" name="LVHAR"> F  </i>
   <i type="logical" name="LELF"> F  </i>
   <i type="logical" name="LOPTICS"> F  </i>
   <v name="STM">      0.00000000      0.00000000      0.00000000      0.00000000      0.00000000      0.00000000      0.00000000</v>
  </separator>
  <separator name="performance" >
   <i type="int" name="NPAR">    48</i>
   <i type="int" name="NSIM">     4</i>
   <i type="int" name="NBLK">    -1</i>
   <i type="logical" name="LPLANE"> T  </i>
   <i type="logical" name="LSCALAPACK"> T  </i>
   <i type="logical" name="LSCAAWARE"> F  </i>
   <i type="logical" name="LSCALU"> F  </i>
   <i type="logical" name="LASYNC"> F  </i>
   <i type="logical" name="LORBITALREAL"> F  </i>
  </separator>
  <separator name="miscellaneous" >
   <i type="int" name="IDIOT">     3</i>
   <i type="int" name="PHON_NSTRUCT">    -1</i>
   <i type="logical" name="LMUSIC"> F  </i>
   <v name="POMASS">     10.81100000     12.01100000</v>
   <v name="DARWINR">      0.00000000      0.00000000</v>
   <v name="DARWINV">      1.00000000      1.00000000</v>
   <i type="logical" name="LCORR"> T  </i>
  </separator>
  <i type="logical" name="GGA_COMPAT"> T  </i>
  <i type="logical" name="LBERRY"> F  </i>
  <i type="int" name="ICORELEVEL">     0</i>
  <i type="logical" name="LDAU"> F  </i>
  <i type="int" name="I_CONSTRAINED_M">     0</i>
  <separator name="electronic exchange-correlation" >
   <i type="string" name="GGA">PE</i>
   <i type="int" name="VOSKOWN">     0</i>
   <i type="logical" name="LHFCALC"> F  </i>
   <i type="string" name="PRECFOCK"></i>
   <i type="logical" name="LSYMGRAD"> F  </i>
   <i type="logical" name="LHFONE"> F  </i>
   <i type="logical" name="LRHFCALC"> F  </i>
   <i type="logical" name="LTHOMAS"> F  </i>
   <i type="logical" name="LMODELHF"> F  </i>
   <i type="logical" name="LFOCKACE"> F  </i>
   <i name="ENCUT4O">     -1.00000000</i>
   <i type="int" name="EXXOEP">     0</i>
   <i type="int" name="FOURORBIT">     0</i>
   <i name="AEXX">      0.00000000</i>
   <i name="HFALPHA">      0.00000000</i>
   <i name="MCALPHA">      0.00000000</i>
   <i name="ALDAX">      1.00000000</i>
   <i name="AGGAX">      1.00000000</i>
   <i name="ALDAC">      1.00000000</i>
   <i name="AGGAC">      1.00000000</i>
   <i type="int" name="NKREDX">     1</i>
   <i type="int" name="NKREDY">     1</i>
   <i type="int" name="NKREDZ">     1</i>
   <i type="logical" name="SHIFTRED"> F  </i>
   <i type="logical" name="ODDONLY"> F  </i>
   <i type="logical" name="EVENONLY"> F  </i>
   <i type="int" name="LMAXFOCK">     0</i>
   <i type="int" name="NMAXFOCKAE">     0</i>
   <i type="logical" name="LFOCKAEDFT"> F  </i>
   <i name="HFSCREEN">      0.00000000</i>
   <i name="HFSCREENC">      0.00000000</i>
   <i type="int" name="NBANDSGWLOW">     0</i>
  </separator>
  <separator name="vdW DFT" >
   <i type="logical" name="LUSE_VDW"> F  </i>
   <i name="Zab_VDW">     -0.84910000</i>
   <i name="PARAM1">      0.12340000</i>
   <i name="PARAM2">      1.00000000</i>
   <i name="PARAM3">      0.00000000</i>
  </separator>
  <separator name="model GW" >
   <i type="int" name="MODEL_GW">     0</i>
   <i name="MODEL_EPS0">     12.15721387</i>
   <i name="MODEL_ALPHA">      1.00000000</i>
  </separator>
  <separator name="linear response parameters" >
   <i type="logical" name="LEPSILON"> F  </i>
   <i type="logical" name="LRPA"> F  </i>
   <i type="logical" name="LNABLA"> F  </i>
   <i type="logical" name="LVEL"> F  </i>
   <i name="CSHIFT">      0.10000000</i>
   <i name="OMEGAMAX">     -1.00000000</i>
   <i name="DEG_THRESHOLD">      0.00200000</i>
   <i name="RTIME">     -0.10000000</i>
   <i name="WPLASMAI">      0.00000000</i>
   <v name="DFIELD">      0.00000000      0.00000000      0.00000000</v>
   <v name="WPLASMA">      0.00000000      0.00000000      0.00000000      0.00000000      0.00000000      0.00000000      0.00000000      0.00000000      0.00000000</v>
  </separator>
  <separator name="orbital magnetization" >
   <i type="logical" name="NUCIND"> F  </i>
   <v name="MAGPOS">      0.00000000      0.00000000      0.00000000</v>
   <i type="logical" name="LNICSALL"> T  </i>
   <i type="logical" name="ORBITALMAG"> F  </i>
   <i type="logical" name="LMAGBLOCH"> F  </i>
   <i type="logical" name="LCHIMAG"> F  </i>
   <i type="logical" name="LGAUGE"> T  </i>
   <i type="int" name="MAGATOM">     0</i>
   <v name="MAGDIPOL">      0.00000000      0.00000000      0.00000000</v>
   <v name="AVECCONST">      0.00000000      0.00000000      0.00000000</v>
  </separator>
  <separator name="response functions" >
   <i type="logical" name="LFINITE_TEMPERATURE"> F  </i>
   <i type="logical" name="LADDER"> F  </i>
   <i type="logical" name="LRPAFORCE"> F  </i>
   <i type="logical" name="LFXC"> F  </i>
   <i type="logical" name="LHARTREE"> T  </i>
   <i type="int" name="IBSE">     0</i>
   <v type="int" name="KPOINT">    -1     0     0     0</v>
   <i type="logical" name="LTCTC"> F  </i>
   <i type="logical" name="LTCTE"> F  </i>
   <i type="logical" name="LTETE"> F  </i>
   <i type="logical" name="LTRIPLET"> F  </i>
   <i type="logical" name="LFXCEPS"> F  </i>
   <i type="logical" name="LFXHEG"> F  </i>
   <i type="int" name="NATURALO">     2</i>
   <i type="logical" name="LHOLEGF"> F  </i>
   <i type="logical" name="L2ORDER"> F  </i>
   <i type="logical" name="LDMP1"> F  </i>
   <i type="logical" name="LMP2LT"> F  </i>
   <i type="logical" name="LSMP2LT"> F  </i>
   <i type="logical" name="LGWLF"> F  </i>
   <i name="ENCUTGW">     -2.00000000</i>
   <i name="ENCUTGWSOFT">     -2.00000000</i>
   <i name="ENCUTLF">     -1.00000000</i>
   <i type="logical" name="LESF_SPLINES"> F  </i>
   <i type="int" name="LMAXMP2">    -1</i>
   <i name="SCISSOR">      0.00000000</i>
   <i type="int" name="NOMEGA">     0</i>
   <i type="int" name="NOMEGAR">     0</i>
   <i type="int" name="NBANDSGW">    -1</i>
   <i type="int" name="NBANDSO">    -1</i>
   <i type="int" name="NBANDSV">    -1</i>
   <i type="int" name="NELMGW">     1</i>
   <i type="int" name="NELMHF">     1</i>
   <i type="int" name="DIM">     3</i>
   <i type="int" name="IESPILON">     4</i>
   <i type="int" name="ANTIRES">     0</i>
   <i name="OMEGAMAX">    -30.00000000</i>
   <i name="OMEGAMIN">    -30.00000000</i>
   <i name="OMEGATL">   -200.00000000</i>
   <i type="int" name="OMEGAGRID">     0</i>
   <i name="CSHIFT">     -0.10000000</i>
   <i type="logical" name="LSELFENERGY"> F  </i>
   <i type="logical" name="LSPECTRAL"> F  </i>
   <i type="logical" name="LSPECTRALGW"> F  </i>
   <i type="logical" name="LSINGLES"> F  </i>
   <i type="logical" name="LFERMIGW"> F  </i>
   <i type="logical" name="ODDONLYGW"> F  </i>
   <i type="logical" name="EVENONLYGW"> F  </i>
   <i type="int" name="NKREDLFX">     1</i>
   <i type="int" name="NKREDLFY">     1</i>
   <i type="int" name="NKREDLFZ">     1</i>
   <i type="int" name="MAXMEM">  2800</i>
   <i type="int" name="TELESCOPE">     0</i>
   <i type="int" name="NTAUPAR">    -1</i>
   <i type="int" name="NOMEGAPAR">    -1</i>
   <i name="DAMP_NEWTON">      0.80000001</i>
   <i name="LAMBDA">      1.00000000</i>
  </separator>
  <separator name="External order field" >
   <i name="OFIELD_KAPPA">      0.00000000</i>
   <v name="OFIELD_K">      0.00000000      0.00000000      0.00000000</v>
   <i name="OFIELD_Q6_NEAR">      0.00000000</i>
   <i name="OFIELD_Q6_FAR">      0.00000000</i>
   <i name="OFIELD_A">      0.00000000</i>
  </separator>
  <separator name="optional k-points parameters" >
   <i type="int" name="KPOINTS_OPT_MODE">     1</i>
   <i type="logical" name="LKPOINTS_OPT"> F  </i>
  </separator>
  <separator name="solvation model" >
   <i type="logical" name="LSOL"> F  </i>
  </separator>
 </parameters>
 <atominfo>
  <atoms>      15 </atoms>
  <types>       2 </types>
  <array name="atoms" >
   <dimension dim="1">ion</dimension>
   <field type="string">element</field>
   <field type="int">atomtype</field>
   <set>
    <rc><c>B </c><c>   1</c></rc>
    <rc><c>B </c><c>   1</c></rc>
    <rc><c>B </c><c>   1</c></rc>
    <rc><c>B </c><c>   1</c></rc>
    <rc><c>C </c><c>   2</c></rc>
    <rc><c>C </c><c>   2</c></rc>
    <rc><c>C </c><c>   2</c></rc>
    <rc><c>C </c><c>   2</c></rc>
    <rc><c>C </c><c>   2</c></rc>
    <rc><c>C </c><c>   2</c></rc>
    <rc><c>C </c><c>   2</c></rc>
    <rc><c>C </c><c>   2</c></rc>
    <rc><c>C </c><c>   2</c></rc>
    <rc><c>C </c><c>   2</c></rc>
    <rc><c>C </c><c>   2</c></rc>
   </set>
  </array>
  <array name="atomtypes" >
   <dimension dim="1">type</dimension>
   <field type="int">atomspertype</field>
   <field type="string">element</field>
   <field>mass</field>
   <field>valence</field>
   <field type="string">pseudopotential</field>
   <set>
    <rc><c>   4</c><c>B </c><c>     10.81100000</c><c>      3.00000000</c><c>  PAW_PBE B 06Sep2000                   </c></rc>
    <rc><c>  11</c><c>C </c><c>     12.01100000</c><c>      4.00000000</c><c>  PAW_PBE C 08Apr2002                   </c></rc>
   </set>
  </array>
 </atominfo>
 <structure name="initialpos" >
  <crystal>
   <varray name="basis" >
    <v>       4.18896488       2.41850000       0.00000000 </v>
    <v>      -4.18896488       2.41850000       0.00000000 </v>
    <v>       0.00000000       0.00000000      15.00000000 </v>
   </varray>
   <i name="volume">    303.93034673 </i>
   <varray name="rec_basis" >
    <v>       0.11936123       0.20673971       0.00000000 </v>
    <v>      -0.11936123       0.20673971       0.00000000 </v>
    <v>       0.00000000       0.00000000       0.06666667 </v>
   </varray>
  </crystal>
  <varray name="positions" >
   <v>       0.00415361       0.00267210       0.12034134 </v>
   <v>       0.35695335       0.00285503       0.09748893 </v>
   <v>       0.00423858       0.35550699       0.09749256 </v>
   <v>       0.65142295       0.65006557       0.09747688 </v>
   <v>       0.32808646       0.32671938       0.10030508 </v>
   <v>       0.68027775       0.00278085       0.10027562 </v>
   <v>       0.00416530       0.67883808       0.10026559 </v>
   <v>       0.99999933       0.49999967       0.33373333 </v>
   <v>       0.16666633       0.33333267       0.33373333 </v>
   <v>       0.99999933       0.99999967       0.33373333 </v>
   <v>       0.16666633       0.83333267       0.33373333 </v>
   <v>       0.49999933       0.49999967       0.33373333 </v>
   <v>       0.66666633       0.33333267       0.33373333 </v>
   <v>       0.49999933       0.99999967       0.33373333 </v>
   <v>       0.66666633       0.83333267       0.33373333 </v>
  </varray>
 </structure>
 <calculation>
  <scstep>
   <time name="dav">    5.45    5.50</time>
   <time name="total">    5.50    5.56</time>
   <energy>
    <i name="alphaZ">     58.52424752 </i>
    <i name="ewald">   4806.71350016 </i>
    <i name="hartreedc">  -6361.48511913 </i>
    <i name="XCdc">    175.31082022 </i>
    <i name="pawpsdc">   1365.87943566 </i>
    <i name="pawaedc">  -1368.52100941 </i>
    <i name="eentropy">     -0.01515095 </i>
    <i name="bandstr">   -375.82735812 </i>
    <i name="atom">   1903.26342058 </i>
    <i name="e_fr_energy">    203.84278653 </i>
    <i name="e_wo_entrp">    203.85793748 </i>
    <i name="e_0_energy">    203.85036200 </i>
   </energy>
  </scstep>
  <scstep>
   <time name="dav">    8.00    8.07</time>
   <time name="total">    8.00    8.07</time>
   <energy>
    <i name="e_fr_energy">   -116.78724477 </i>
    <i name="e_wo_entrp">   -116.78626652 </i>
    <i name="e_0_energy">   -116.78675564 </i>
   </energy>
  </scstep>
  <scstep>
   <time name="dav">   11.03   11.13</time>
   <time name="total">   11.03   11.13</time>
   <energy>
    <i name="e_fr_energy">   -129.48184753 </i>
    <i name="e_wo_entrp">   -129.47870148 </i>
    <i name="e_0_energy">   -129.48027451 </i>
   </energy>
  </scstep>
  <scstep>
   <time name="dav">    8.37    8.44</time>
   <time name="total">    8.37    8.44</time>
   <energy>
    <i name="e_fr_energy">   -129.50999176 </i>
    <i name="e_wo_entrp">   -129.50682935 </i>
    <i name="e_0_energy">   -129.50841056 </i>
   </energy>
  </scstep>
  <scstep>
   <time name="dav">   10.55   10.62</time>
   <time name="total">   10.81   10.89</time>
   <energy>
    <i name="e_fr_energy">   -129.51005040 </i>
    <i name="e_wo_entrp">   -129.50688790 </i>
    <i name="e_0_energy">   -129.50846915 </i>
   </energy>
  </scstep>
  <scstep>
   <time name="dav">   10.61   10.70</time>
   <time name="total">   10.91   11.01</time>
   <energy>
    <i name="e_fr_energy">    -92.17915265 </i>
    <i name="e_wo_entrp">    -92.17324482 </i>
    <i name="e_0_energy">    -92.17619873 </i>
   </energy>
  </scstep>
  <scstep>
   <time name="dav">    9.05    9.12</time>
   <time name="total">    9.35    9.43</time>
   <energy>
    <i name="e_fr_energy">   -100.63726203 </i>
    <i name="e_wo_entrp">   -100.63171079 </i>
    <i name="e_0_energy">   -100.63448641 </i>
   </energy>
  </scstep>
  <scstep>
   <time name="dav">   10.28   10.35</time>
   <time name="total">   10.57   10.66</time>
   <energy>
    <i name="e_fr_energy">   -110.47865283 </i>
    <i name="e_wo_entrp">   -110.47863866 </i>
    <i name="e_0_energy">   -110.47864575 </i>
   </energy>
  </scstep>
  <scstep>
   <time name="dav">    7.85    7.91</time>
   <time name="total">    8.14    8.21</time>
   <energy>
    <i name="e_fr_energy">   -117.34206730 </i>
    <i name="e_wo_entrp">   -117.34206262 </i>
    <i name="e_0_energy">   -117.34206496 </i>
   </energy>
  </scstep>
  <scstep>
   <time name="dav">   10.09   10.16</time>
   <time name="total">   10.38   10.46</time>
   <energy>
    <i name="e_fr_energy">   -123.65037381 </i>
    <i name="e_wo_entrp">   -123.64969895 </i>
    <i name="e_0_energy">   -123.65003638 </i>
   </energy>
  </scstep>
  <scstep>
   <time name="dav">   10.66   10.73</time>
   <time name="total">   10.96   11.04</time>
   <energy>
    <i name="e_fr_energy">   -125.27291448 </i>
    <i name="e_wo_entrp">   -125.27174374 </i>
    <i name="e_0_energy">   -125.27232911 </i>
   </energy>
  </scstep>
  <scstep>
   <time name="dav">    7.51    7.57</time>
   <time name="total">    7.81    7.87</time>
   <energy>
    <i name="e_fr_energy">   -125.42969008 </i>
    <i name="e_wo_entrp">   -125.42821092 </i>
    <i name="e_0_energy">   -125.42895050 </i>
   </energy>
  </scstep>
  <scstep>
   <time name="dav">    7.33    7.38</time>
   <time name="total">    7.62    7.68</time>
   <energy>
    <i name="e_fr_energy">   -125.46453336 </i>
    <i name="e_wo_entrp">   -125.46299928 </i>
    <i name="e_0_energy">   -125.46376632 </i>
   </energy>
  </scstep>
  <scstep>
   <time name="dav">    8.08    8.14</time>
   <time name="total">    8.38    8.45</time>
   <energy>
    <i name="e_fr_energy">   -125.48752356 </i>
    <i name="e_wo_entrp">   -125.48598477 </i>
    <i name="e_0_energy">   -125.48675417 </i>
   </energy>
  </scstep>
  <scstep>
   <time name="dav">    7.49    7.54</time>
   <time name="total">    7.78    7.84</time>
   <energy>
    <i name="e_fr_energy">   -125.49424295 </i>
    <i name="e_wo_entrp">   -125.49270361 </i>
    <i name="e_0_energy">   -125.49347328 </i>
   </energy>
  </scstep>
  <scstep>
   <time name="dav">    6.48    6.53</time>
   <time name="total">    6.77    6.83</time>
   <energy>
    <i name="e_fr_energy">   -125.49625548 </i>
    <i name="e_wo_entrp">   -125.49471619 </i>
    <i name="e_0_energy">   -125.49548584 </i>
   </energy>
  </scstep>
  <scstep>
   <time name="dav">    7.27    7.32</time>
   <time name="total">    7.56    7.62</time>
   <energy>
    <i name="e_fr_energy">   -125.49751802 </i>
    <i name="e_wo_entrp">   -125.49597874 </i>
    <i name="e_0_energy">   -125.49674838 </i>
   </energy>
  </scstep>
  <scstep>
   <time name="dav">    6.95    6.99</time>
   <time name="total">    7.24    7.30</time>
   <energy>
    <i name="e_fr_energy">   -125.49829232 </i>
    <i name="e_wo_entrp">   -125.49675305 </i>
    <i name="e_0_energy">   -125.49752269 </i>
   </energy>
  </scstep>
  <scstep>
   <time name="dav">    8.13    8.19</time>
   <time name="total">    8.43    8.50</time>
   <energy>
    <i name="e_fr_energy">   -125.49871757 </i>
    <i name="e_wo_entrp">   -125.49717832 </i>
    <i name="e_0_energy">   -125.49794794 </i>
   </energy>
  </scstep>
  <scstep>
   <time name="dav">    9.13    9.19</time>
   <time name="total">    9.43    9.51</time>
   <energy>
    <i name="e_fr_energy">   -125.49875269 </i>
    <i name="e_wo_entrp">   -125.49721343 </i>
    <i name="e_0_energy">   -125.49798306 </i>
   </energy>
  </scstep>
  <scstep>
   <time name="dav">    8.46    8.52</time>
   <time name="total">    8.75    8.83</time>
   <energy>
    <i name="e_fr_energy">   -125.49877887 </i>
    <i name="e_wo_entrp">   -125.49723959 </i>
    <i name="e_0_energy">   -125.49800923 </i>
   </energy>
  </scstep>
  <scstep>
   <time name="dav">    9.10    9.16</time>
   <time name="total">    9.39    9.46</time>
   <energy>
    <i name="e_fr_energy">   -125.49880257 </i>
    <i name="e_wo_entrp">   -125.49726328 </i>
    <i name="e_0_energy">   -125.49803292 </i>
   </energy>
  </scstep>
  <scstep>
   <time name="dav">    8.64    8.70</time>
   <time name="total">    8.93    9.00</time>
   <energy>
    <i name="e_fr_energy">   -125.49881395 </i>
    <i name="e_wo_entrp">   -125.49727466 </i>
    <i name="e_0_energy">   -125.49804430 </i>
   </energy>
  </scstep>
  <scstep>
   <time name="dav">    9.75    9.81</time>
   <time name="total">   10.04   10.12</time>
   <energy>
    <i name="e_fr_energy">   -125.49881635 </i>
    <i name="e_wo_entrp">   -125.49727706 </i>
    <i name="e_0_energy">   -125.49804671 </i>
   </energy>
  </scstep>
  <scstep>
   <time name="dav">    8.49    8.55</time>
   <time name="total">    8.78    8.85</time>
   <energy>
    <i name="e_fr_energy">   -125.49881738 </i>
    <i name="e_wo_entrp">   -125.49727808 </i>
    <i name="e_0_energy">   -125.49804773 </i>
   </energy>
  </scstep>
  <scstep>
   <time name="dav">    8.97    9.04</time>
   <time name="total">    9.01    9.08</time>
   <energy>
    <i name="alphaZ">     58.52424752 </i>
    <i name="ewald">   4806.71350016 </i>
    <i name="hartreedc">  -6564.72399471 </i>
    <i name="XCdc">    180.72082411 </i>
    <i name="pawpsdc">   5787.61030618 </i>
    <i name="pawaedc">  -5792.04145824 </i>
    <i name="eentropy">     -0.00153929 </i>
    <i name="bandstr">   -505.56412417 </i>
    <i name="atom">   1903.26342058 </i>
    <i name="e_fr_energy">   -125.49881787 </i>
    <i name="e_wo_entrp">   -125.49727858 </i>
    <i name="e_0_energy">   -125.49804822 </i>
   </energy>
  </scstep>
  <structure>
   <crystal>
    <varray name="basis" >
     <v>       4.18896488       2.41850000       0.00000000 </v>
     <v>      -4.18896488       2.41850000       0.00000000 </v>
     <v>       0.00000000       0.00000000      15.00000000 </v>
    </varray>
    <i name="volume">    303.93034673 </i>
    <varray name="rec_basis" >
     <v>       0.11936123       0.20673971       0.00000000 </v>
     <v>      -0.11936123       0.20673971       0.00000000 </v>
     <v>       0.00000000       0.00000000       0.06666667 </v>
    </varray>
   </crystal>
   <varray name="positions" >
    <v>       0.00415361       0.00267210       0.12034134 </v>
    <v>       0.35695335       0.00285503       0.09748893 </v>
    <v>       0.00423858       0.35550699       0.09749256 </v>
    <v>       0.65142295       0.65006557       0.09747688 </v>
    <v>       0.32808646       0.32671938       0.10030508 </v>
    <v>       0.68027775       0.00278085       0.10027562 </v>
    <v>       0.00416530       0.67883808       0.10026559 </v>
    <v>       0.99999933       0.49999967       0.33373333 </v>
    <v>       0.16666633       0.33333267       0.33373333 </v>
    <v>       0.99999933       0.99999967       0.33373333 </v>
    <v>       0.16666633       0.83333267       0.33373333 </v>
    <v>       0.49999933       0.49999967       0.33373333 </v>
    <v>       0.66666633       0.33333267       0.33373333 </v>
    <v>       0.49999933       0.99999967       0.33373333 </v>
    <v>       0.66666633       0.83333267       0.33373333 </v>
   </varray>
  </structure>
  <varray name="forces" >
   <v>      -0.00474501       0.00549409      -0.32767723 </v>
   <v>      -0.10622308      -0.04369874       0.10171028 </v>
   <v>       0.08602358      -0.07768666       0.10124229 </v>
   <v>       0.02257891       0.11362604       0.10277877 </v>
   <v>       0.02982264      -0.33824599      -0.00316684 </v>
   <v>       0.27632646       0.19201217      -0.00074082 </v>
   <v>      -0.30409676       0.14770777       0.00008891 </v>
   <v>       0.01305844       0.00526771       0.00266216 </v>
   <v>      -0.03518258       0.04120499       0.02094971 </v>
   <v>       0.00051029      -0.00031518      -0.03152075 </v>
   <v>       0.05274385       0.00941871       0.02184357 </v>
   <v>      -0.01076298       0.01011092       0.00355533 </v>
   <v>      -0.00046155       0.00025402      -0.01509799 </v>
   <v>      -0.00165431      -0.01384904       0.00251849 </v>
   <v>      -0.01793792      -0.05130082       0.02085413 </v>
  </varray>
  <varray name="stress" >
   <v>       2.73416778       0.01652961      -0.00224912 </v>
   <v>       0.01652962       2.75572826       0.02483085 </v>
   <v>      -0.00224909       0.02483085      -2.25385624 </v>
  </varray>
  <energy>
   <i name="e_fr_energy">   -127.10369739 </i>
   <i name="e_wo_entrp">   -127.10215810 </i>
   <i name="e_0_energy">   -127.10292774 </i>
  </energy>
  <time name="totalsc">  234.63  236.56</time>
 </calculation>
 <calculation>
  <scstep>
   <time name="dav">    5.47    5.51</time>
   <time name="total">    5.76    5.81</time>
   <energy>
    <i name="alphaZ">     58.52424752 </i>
    <i name="ewald">   4810.03113643 </i>
    <i name="hartreedc">  -6566.73608579 </i>
    <i name="XCdc">    180.79522272 </i>
    <i name="pawpsdc">   5787.61746053 </i>
    <i name="pawaedc">  -5792.04861547 </i>
    <i name="eentropy">     -0.00154343 </i>
    <i name="bandstr">   -506.95100661 </i>
    <i name="atom">   1903.26342058 </i>
    <i name="e_fr_energy">   -125.50576354 </i>
    <i name="e_wo_entrp">   -125.50422010 </i>
    <i name="e_0_energy">   -125.50499182 </i>
   </energy>
  </scstep>
  <scstep>
   <time name="dav">   10.73   10.80</time>
   <time name="total">   11.03   11.11</time>
   <energy>
    <i name="e_fr_energy">   -125.49787799 </i>
    <i name="e_wo_entrp">   -125.49633440 </i>
    <i name="e_0_energy">   -125.49710620 </i>
   </energy>
  </scstep>
  <scstep>
   <time name="dav">    8.93    8.99</time>
   <time name="total">    9.22    9.29</time>
   <energy>
    <i name="e_fr_energy">   -125.49695226 </i>
    <i name="e_wo_entrp">   -125.49540856 </i>
    <i name="e_0_energy">   -125.49618041 </i>
   </energy>
  </scstep>
  <scstep>
   <time name="dav">   10.61   10.67</time>
   <time name="total">   10.90   10.97</time>
   <energy>
    <i name="e_fr_energy">   -125.49691058 </i>
    <i name="e_wo_entrp">   -125.49536709 </i>
    <i name="e_0_energy">   -125.49613883 </i>
   </energy>
  </scstep>
  <scstep>
   <time name="dav">   10.00   10.07</time>
   <time name="total">   10.29   10.37</time>
   <energy>
    <i name="e_fr_energy">   -125.49691310 </i>
    <i name="e_wo_entrp">   -125.49536968 </i>
    <i name="e_0_energy">   -125.49614139 </i>
   </energy>
  </scstep>
  <scstep>
   <time name="dav">    8.70    8.76</time>
   <time name="total">    8.74    8.80</time>
   <energy>
    <i name="alphaZ">     58.52424752 </i>
    <i name="ewald">   4810.03113643 </i>
    <i name="hartreedc">  -6567.43724730 </i>
    <i name="XCdc">    180.81100998 </i>
    <i name="pawpsdc">   5812.53185358 </i>
    <i name="pawaedc">  -5816.97102418 </i>
    <i name="eentropy">     -0.00154343 </i>
    <i name="bandstr">   -506.24876640 </i>
    <i name="atom">   1903.26342058 </i>
    <i name="e_fr_energy">   -125.49691323 </i>
    <i name="e_wo_entrp">   -125.49536980 </i>
    <i name="e_0_energy">   -125.49614151 </i>
   </energy>
  </scstep>
  <structure>
   <crystal>
    <varray name="basis" >
     <v>       4.18896488       2.41850000       0.00000000 </v>
     <v>      -4.18896488       2.41850000       0.00000000 </v>
     <v>       0.00000000       0.00000000      15.00000000 </v>
    </varray>
    <i name="volume">    303.93034673 </i>
    <varray name="rec_basis" >
     <v>       0.11936123       0.20673971       0.00000000 </v>
     <v>      -0.11936123       0.20673971       0.00000000 </v>
     <v>       0.00000000       0.00000000       0.06666667 </v>
    </varray>
   </crystal>
   <varray name="positions" >
    <v>       0.00418108       0.00275422       0.11928747 </v>
    <v>       0.35590585       0.00303086       0.09781605 </v>
    <v>       0.00395911       0.35423682       0.09781818 </v>
    <v>       0.65268624       0.65106882       0.09780743 </v>
    <v>       0.32488464       0.32317409       0.10029489 </v>
    <v>       0.68378399       0.00310475       0.10027324 </v>
    <v>       0.00388741       0.68206235       0.10026587 </v>
    <v>       0.00012707       0.49997701       0.33374190 </v>
    <v>       0.16687471       0.33394622       0.33380071 </v>
    <v>       0.99999913       0.99999358       0.33363196 </v>
    <v>       0.16706399       0.83312289       0.33380359 </v>
    <v>       0.50003820       0.50016249       0.33374477 </v>
    <v>       0.66666621       0.33333786       0.33368478 </v>
    <v>       0.49985168       0.99987107       0.33374143 </v>
    <v>       0.66605138       0.83292430       0.33380040 </v>
   </varray>
  </structure>
  <varray name="forces" >
   <v>      -0.00098852      -0.00077847      -0.12178264 </v>
   <v>       0.23750618       0.13445476       0.05414699 </v>
   <v>      -0.23899954       0.13765371       0.05375682 </v>
   <v>       0.00085401      -0.27096906       0.05489579 </v>
   <v>      -0.00467434       0.55784160      -0.02336837 </v>
   <v>      -0.47698111      -0.28395405      -0.02149383 </v>
   <v>       0.48297596      -0.27510182      -0.02123102 </v>
   <v>      -0.05637458      -0.02386900       0.01014890 </v>
   <v>       0.12668658      -0.14134175      -0.00104245 </v>
   <v>      -0.00193332       0.00134078       0.00673739 </v>
   <v>      -0.18377893      -0.03580706      -0.00085464 </v>
   <v>       0.04763784      -0.04157054       0.01032232 </v>
   <v>       0.00203691      -0.00038650      -0.00917031 </v>
   <v>       0.00609837       0.06049808       0.01006609 </v>
   <v>       0.05993449       0.18198930      -0.00113106 </v>
  </varray>
  <varray name="stress" >
   <v>       5.24209267       0.00136057       0.00388332 </v>
   <v>       0.00136058       5.24283680       0.01576343 </v>
   <v>       0.00388334       0.01576344      -1.90209846 </v>
  </varray>
  <energy>
   <i name="e_fr_energy">   -127.10126970 </i>
   <i name="e_wo_entrp">   -127.09972627 </i>
   <i name="e_0_energy">   -127.10049799 </i>
  </energy>
  <time name="totalsc">   60.64   61.08</time>
 </calculation>
 <calculation>
  <scstep>
   <time name="dav">    5.54    5.59</time>
   <time name="total">    5.83    5.89</time>
   <energy>
    <i name="alphaZ">     58.52424752 </i>
    <i name="ewald">   4808.19319311 </i>
    <i name="hartreedc">  -6566.31311634 </i>
    <i name="XCdc">    180.76930442 </i>
    <i name="pawpsdc">   5812.48532878 </i>
    <i name="pawaedc">  -5816.92447396 </i>
    <i name="eentropy">     -0.00154133 </i>
    <i name="bandstr">   -505.50392926 </i>
    <i name="atom">   1903.26342058 </i>
    <i name="e_fr_energy">   -125.50756648 </i>
    <i name="e_wo_entrp">   -125.50602516 </i>
    <i name="e_0_energy">   -125.50679582 </i>
   </energy>
  </scstep>
  <scstep>
   <time name="dav">   10.74   10.80</time>
   <time name="total">   11.03   11.10</time>
   <energy>
    <i name="e_fr_energy">   -125.50519540 </i>
    <i name="e_wo_entrp">   -125.50365422 </i>
    <i name="e_0_energy">   -125.50442481 </i>
   </energy>
  </scstep>
  <scstep>
   <time name="dav">    9.55    9.61</time>
   <time name="total">    9.84    9.92</time>
   <energy>
    <i name="e_fr_energy">   -125.50493082 </i>
    <i name="e_wo_entrp">   -125.50338974 </i>
    <i name="e_0_energy">   -125.50416028 </i>
   </energy>
  </scstep>
  <scstep>
   <time name="dav">    9.23    9.30</time>
   <time name="total">    9.53    9.60</time>
   <energy>
    <i name="e_fr_energy">   -125.50491912 </i>
    <i name="e_wo_entrp">   -125.50337788 </i>
    <i name="e_0_energy">   -125.50414850 </i>
   </energy>
  </scstep>
  <scstep>
   <time name="dav">    9.55    9.62</time>
   <time name="total">    9.59    9.65</time>
   <energy>
    <i name="alphaZ">     58.52424752 </i>
    <i name="ewald">   4808.19319311 </i>
    <i name="hartreedc">  -6565.95637264 </i>
    <i name="XCdc">    180.76092221 </i>
    <i name="pawpsdc">   5798.35235092 </i>
    <i name="pawaedc">  -5802.78687774 </i>
    <i name="eentropy">     -0.00154125 </i>
    <i name="bandstr">   -505.85426258 </i>
    <i name="atom">   1903.26342058 </i>
    <i name="e_fr_energy">   -125.50491988 </i>
    <i name="e_wo_entrp">   -125.50337863 </i>
    <i name="e_0_energy">   -125.50414925 </i>
   </energy>
  </scstep>
  <structure>
   <crystal>
    <varray name="basis" >
     <v>       4.18896488       2.41850000       0.00000000 </v>
     <v>      -4.18896488       2.41850000       0.00000000 </v>
     <v>       0.00000000       0.00000000      15.00000000 </v>
    </varray>
    <i name="volume">    303.93034673 </i>
    <varray name="rec_basis" >
     <v>       0.11936123       0.20673971       0.00000000 </v>
     <v>      -0.11936123       0.20673971       0.00000000 </v>
     <v>       0.00000000       0.00000000       0.06666667 </v>
    </varray>
   </crystal>
   <varray name="positions" >
    <v>       0.00416618       0.00270967       0.11985923 </v>
    <v>       0.35647415       0.00293547       0.09763858 </v>
    <v>       0.00411073       0.35492593       0.09764152 </v>
    <v>       0.65200087       0.65052453       0.09762810 </v>
    <v>       0.32662173       0.32509752       0.10030042 </v>
    <v>       0.68188174       0.00292902       0.10027453 </v>
    <v>       0.00403817       0.68031308       0.10026572 </v>
    <v>       0.00005777       0.49998930       0.33373725 </v>
    <v>       0.16676166       0.33361335       0.33376416 </v>
    <v>       0.99999924       0.99999688       0.33368696 </v>
    <v>       0.16684825       0.83323670       0.33376547 </v>
    <v>       0.50001711       0.50007415       0.33373856 </v>
    <v>       0.66666628       0.33333504       0.33371112 </v>
    <v>       0.49993179       0.99994084       0.33373704 </v>
    <v>       0.66638501       0.83314585       0.33376402 </v>
   </varray>
  </structure>
  <varray name="forces" >
   <v>      -0.00314476       0.00283453      -0.23273809 </v>
   <v>       0.05349441       0.03981920       0.07994046 </v>
   <v>      -0.06574970       0.02183758       0.07951085 </v>
   <v>       0.01322114      -0.06557608       0.08087238 </v>
   <v>       0.01471791       0.07009299      -0.01262341 </v>
   <v>      -0.06733289      -0.02432196      -0.01048547 </v>
   <v>       0.05448882      -0.04549988      -0.00994338 </v>
   <v>      -0.01835431      -0.00793324       0.00610223 </v>
   <v>       0.03856706      -0.04232419       0.01094267 </v>
   <v>      -0.00061224       0.00044204      -0.01411560 </v>
   <v>      -0.05531982      -0.01101551       0.01151293 </v>
   <v>       0.01566485      -0.01327737       0.00666592 </v>
   <v>       0.00067769      -0.00003749      -0.01247616 </v>
   <v>       0.00182990       0.01979728       0.00598582 </v>
   <v>       0.01785195       0.05516208       0.01084884 </v>
  </varray>
  <varray name="stress" >
   <v>       3.76402828       0.00954605       0.00042408 </v>
   <v>       0.00954602       3.77342121       0.02111371 </v>
   <v>       0.00042409       0.02111374      -2.07841897 </v>
  </varray>
  <energy>
   <i name="e_fr_energy">   -127.10956010 </i>
   <i name="e_wo_entrp">   -127.10801885 </i>
   <i name="e_0_energy">   -127.10878947 </i>
  </energy>
  <time name="totalsc">   50.48   50.87</time>
 </calculation>
 <calculation>
  <scstep>
   <time name="dav">    5.45    5.50</time>
   <time name="total">    5.75    5.81</time>
   <energy>
    <i name="alphaZ">     58.52424752 </i>
    <i name="ewald">   4808.37912560 </i>
    <i name="hartreedc">  -6565.91527357 </i>
    <i name="XCdc">    180.77676186 </i>
    <i name="pawpsdc">   5798.35865877 </i>
    <i name="pawaedc">  -5802.79319365 </i>
    <i name="eentropy">     -0.00154385 </i>
    <i name="bandstr">   -506.10106636 </i>
    <i name="atom">   1903.26342058 </i>
    <i name="e_fr_energy">   -125.50886311 </i>
    <i name="e_wo_entrp">   -125.50731926 </i>
    <i name="e_0_energy">   -125.50809118 </i>
   </energy>
  </scstep>
  <scstep>
   <time name="dav">   11.74   11.81</time>
   <time name="total">   12.03   12.11</time>
   <energy>
    <i name="e_fr_energy">   -125.50886874 </i>
    <i name="e_wo_entrp">   -125.50732543 </i>
    <i name="e_0_energy">   -125.50809708 </i>
   </energy>
  </scstep>
  <scstep>
   <time name="dav">    9.07    9.14</time>
   <time name="total">    9.36    9.44</time>
   <energy>
    <i name="e_fr_energy">   -125.50885559 </i>
    <i name="e_wo_entrp">   -125.50731259 </i>
    <i name="e_0_energy">   -125.50808409 </i>
   </energy>
  </scstep>
  <scstep>
   <time name="dav">   10.67   10.75</time>
   <time name="total">   10.96   11.05</time>
   <energy>
    <i name="e_fr_energy">   -125.50885597 </i>
    <i name="e_wo_entrp">   -125.50731289 </i>
    <i name="e_0_energy">   -125.50808443 </i>
   </energy>
  </scstep>
  <scstep>
   <time name="dav">    9.31    9.38</time>
   <time name="total">    9.35    9.41</time>
   <energy>
    <i name="alphaZ">     58.52424752 </i>
    <i name="ewald">   4808.37912560 </i>
    <i name="hartreedc">  -6565.91829510 </i>
    <i name="XCdc">    180.77691479 </i>
    <i name="pawpsdc">   5802.95868398 </i>
    <i name="pawaedc">  -5807.39484300 </i>
    <i name="eentropy">     -0.00154308 </i>
    <i name="bandstr">   -506.09656792 </i>
    <i name="atom">   1903.26342058 </i>
    <i name="e_fr_energy">   -125.50885664 </i>
    <i name="e_wo_entrp">   -125.50731356 </i>
    <i name="e_0_energy">   -125.50808510 </i>
   </energy>
  </scstep>
  <structure>
   <crystal>
    <varray name="basis" >
     <v>       4.18896488       2.41850000       0.00000000 </v>
     <v>      -4.18896488       2.41850000       0.00000000 </v>
     <v>       0.00000000       0.00000000      15.00000000 </v>
    </varray>
    <i name="volume">    303.93034673 </i>
    <varray name="rec_basis" >
     <v>       0.11936123       0.20673971       0.00000000 </v>
     <v>      -0.11936123       0.20673971       0.00000000 </v>
     <v>       0.00000000       0.00000000       0.06666667 </v>
    </varray>
   </crystal>
   <varray name="positions" >
    <v>       0.00418049       0.00276671       0.11899047 </v>
    <v>       0.35690259       0.00304851       0.09793031 </v>
    <v>       0.00391395       0.35521483       0.09793174 </v>
    <v>       0.65172714       0.65006536       0.09792316 </v>
    <v>       0.32670849       0.32496752       0.10026228 </v>
    <v>       0.68199004       0.00312033       0.10024401 </v>
    <v>       0.00386021       0.68024512       0.10023726 </v>
    <v>      -0.00008258       0.50000866       0.33375638 </v>
    <v>       0.16662315       0.33315632       0.33380841 </v>
    <v>       0.99999999       0.00000280       0.33362711 </v>
    <v>       0.16654233       0.83338264       0.33381191 </v>
    <v>       0.49998690       0.49990680       0.33375986 </v>
    <v>       0.66666940       0.33333222       0.33366607 </v>
    <v>       0.50008898       0.00008289       0.33375575 </v>
    <v>       0.66684958       0.83346662       0.33380794 </v>
   </varray>
  </structure>
  <varray name="forces" >
   <v>      -0.00026625      -0.00010959      -0.21476715 </v>
   <v>       0.04274957       0.02156025       0.04528760 </v>
   <v>      -0.04118707       0.02639894       0.04506989 </v>
   <v>      -0.00125933      -0.04721072       0.04572602 </v>
   <v>      -0.00658372       0.08935055       0.01643016 </v>
   <v>      -0.07253368      -0.05109795       0.01789336 </v>
   <v>       0.07876239      -0.03967575       0.01812492 </v>
   <v>       0.05046734       0.02352385       0.00689050 </v>
   <v>      -0.08805549       0.08496598      -0.00005437 </v>
   <v>       0.00209549      -0.00010440       0.00817036 </v>
   <v>       0.11569569       0.03044289      -0.00001637 </v>
   <v>      -0.04327823       0.03550816       0.00691013 </v>
   <v>      -0.00181937       0.00010626      -0.00238032 </v>
   <v>      -0.00353262      -0.05378070       0.00681936 </v>
   <v>      -0.03125472      -0.11987776      -0.00010409 </v>
  </varray>
  <varray name="stress" >
   <v>       4.12935137       0.01291447       0.00490701 </v>
   <v>       0.01291447       4.15494052       0.01491894 </v>
   <v>       0.00490704       0.01491895      -2.02348895 </v>
  </varray>
  <energy>
   <i name="e_fr_energy">   -127.11339983 </i>
   <i name="e_wo_entrp">   -127.11185675 </i>
   <i name="e_0_energy">   -127.11262829 </i>
  </energy>
  <time name="totalsc">   52.11   52.52</time>
 </calculation>
 <calculation>
  <scstep>
   <time name="dav">    5.47    5.51</time>
   <time name="total">    5.75    5.81</time>
   <energy>
    <i name="alphaZ">     58.52424752 </i>
    <i name="ewald">   4808.54679516 </i>
    <i name="hartreedc">  -6565.81013884 </i>
    <i name="XCdc">    180.79538235 </i>
    <i name="pawpsdc">   5803.09669563 </i>
    <i name="pawaedc">  -5807.53286517 </i>
    <i name="eentropy">     -0.00154601 </i>
    <i name="bandstr">   -506.39274979 </i>
    <i name="atom">   1903.26342058 </i>
    <i name="e_fr_energy">   -125.51075858 </i>
    <i name="e_wo_entrp">   -125.50921258 </i>
    <i name="e_0_energy">   -125.50998558 </i>
   </energy>
  </scstep>
  <scstep>
   <time name="dav">   10.66   10.73</time>
   <time name="total">   10.95   11.02</time>
   <energy>
    <i name="e_fr_energy">   -125.51077818 </i>
    <i name="e_wo_entrp">   -125.50923284 </i>
    <i name="e_0_energy">   -125.51000551 </i>
   </energy>
  </scstep>
  <scstep>
   <time name="dav">    8.80    8.86</time>
   <time name="total">    9.09    9.17</time>
   <energy>
    <i name="e_fr_energy">   -125.51075899 </i>
    <i name="e_wo_entrp">   -125.50921402 </i>
    <i name="e_0_energy">   -125.50998650 </i>
   </energy>
  </scstep>
  <scstep>
   <time name="dav">   10.81   10.88</time>
   <time name="total">   11.10   11.18</time>
   <energy>
    <i name="e_fr_energy">   -125.51075926 </i>
    <i name="e_wo_entrp">   -125.50921417 </i>
    <i name="e_0_energy">   -125.50998671 </i>
   </energy>
  </scstep>
  <scstep>
   <time name="dav">    8.58    8.63</time>
   <time name="total">    8.86    8.93</time>
   <energy>
    <i name="e_fr_energy">   -125.51076029 </i>
    <i name="e_wo_entrp">   -125.50921521 </i>
    <i name="e_0_energy">   -125.50998775 </i>
   </energy>
  </scstep>
  <scstep>
   <time name="dav">    9.73    9.80</time>
   <time name="total">    9.77    9.83</time>
   <energy>
    <i name="alphaZ">     58.52424752 </i>
    <i name="ewald">   4808.54679516 </i>
    <i name="hartreedc">  -6565.79781608 </i>
    <i name="XCdc">    180.79546633 </i>
    <i name="pawpsdc">   5808.73856151 </i>
    <i name="pawaedc">  -5813.17670572 </i>
    <i name="eentropy">     -0.00154503 </i>
    <i name="bandstr">   -506.40318476 </i>
    <i name="atom">   1903.26342058 </i>
    <i name="e_fr_energy">   -125.51076049 </i>
    <i name="e_wo_entrp">   -125.50921546 </i>
    <i name="e_0_energy">   -125.50998798 </i>
   </energy>
  </scstep>
  <structure>
   <crystal>
    <varray name="basis" >
     <v>       4.18896488       2.41850000       0.00000000 </v>
     <v>      -4.18896488       2.41850000       0.00000000 </v>
     <v>       0.00000000       0.00000000      15.00000000 </v>
    </varray>
    <i name="volume">    303.93034673 </i>
    <varray name="rec_basis" >
     <v>       0.11936123       0.20673971       0.00000000 </v>
     <v>      -0.11936123       0.20673971       0.00000000 </v>
     <v>       0.00000000       0.00000000       0.06666667 </v>
    </varray>
   </crystal>
   <varray name="positions" >
    <v>       0.00419847       0.00283840       0.11789876 </v>
    <v>       0.35744098       0.00319057       0.09829692 </v>
    <v>       0.00366667       0.35557788       0.09829643 </v>
    <v>       0.65138317       0.64948835       0.09829395 </v>
    <v>       0.32681751       0.32480416       0.10021435 </v>
    <v>       0.68212614       0.00336074       0.10020566 </v>
    <v>       0.00363658       0.68015971       0.10020150 </v>
    <v>      -0.00025894       0.50003297       0.33378043 </v>
    <v>       0.16644909       0.33258200       0.33386402 </v>
    <v>       0.00000093       0.00001022       0.33355190 </v>
    <v>       0.16615790       0.83356604       0.33387027 </v>
    <v>       0.49994894       0.49969651       0.33378663 </v>
    <v>       0.66667332       0.33332868       0.33360945 </v>
    <v>       0.50028653       0.00026140       0.33377926 </v>
    <v>       0.66743338       0.83386972       0.33386314 </v>
   </varray>
  </structure>
  <varray name="forces" >
   <v>       0.00342974      -0.00395387      -0.19637993 </v>
   <v>       0.02591096      -0.00210417       0.00316128 </v>
   <v>      -0.00836686       0.02948249       0.00321789 </v>
   <v>      -0.01827753      -0.02101402       0.00296558 </v>
   <v>      -0.03156955       0.11085891       0.05291106 </v>
   <v>      -0.07737946      -0.08189971       0.05356367 </v>
   <v>       0.10594843      -0.03212685       0.05342427 </v>
   <v>       0.13547394       0.06334321       0.00799714 </v>
   <v>      -0.24632173       0.24653051      -0.01362607 </v>
   <v>       0.00556737      -0.00079962       0.03533792 </v>
   <v>       0.33150332       0.08110898      -0.01425950 </v>
   <v>      -0.11683798       0.09532800       0.00732363 </v>
   <v>      -0.00497718       0.00029171       0.01000259 </v>
   <v>      -0.00933551      -0.14518879       0.00797890 </v>
   <v>      -0.09476796      -0.33985678      -0.01361845 </v>
  </varray>
  <varray name="stress" >
   <v>       4.60209345       0.01705322       0.01015244 </v>
   <v>       0.01705321       4.64505692       0.00805664 </v>
   <v>       0.01015241       0.00805667      -1.93978368 </v>
  </varray>
  <energy>
   <i name="e_fr_energy">   -127.11516059 </i>
   <i name="e_wo_entrp">   -127.11361556 </i>
   <i name="e_0_energy">   -127.11438807 </i>
  </energy>
  <time name="totalsc">   60.18   60.63</time>
 </calculation>
 <calculation>
  <scstep>
   <time name="dav">    5.46    5.50</time>
   <time name="total">    5.75    5.79</time>
   <energy>
    <i name="alphaZ">     58.52424752 </i>
    <i name="ewald">   4808.55544669 </i>
    <i name="hartreedc">  -6565.75977705 </i>
    <i name="XCdc">    180.79836399 </i>
    <i name="pawpsdc">   5808.79756455 </i>
    <i name="pawaedc">  -5813.23570922 </i>
    <i name="eentropy">     -0.00154534 </i>
    <i name="bandstr">   -506.45391718 </i>
    <i name="atom">   1903.26342058 </i>
    <i name="e_fr_energy">   -125.51190547 </i>
    <i name="e_wo_entrp">   -125.51036013 </i>
    <i name="e_0_energy">   -125.51113280 </i>
   </energy>
  </scstep>
  <scstep>
   <time name="dav">   10.12   10.18</time>
   <time name="total">   10.41   10.48</time>
   <energy>
    <i name="e_fr_energy">   -125.51190771 </i>
    <i name="e_wo_entrp">   -125.51036242 </i>
    <i name="e_0_energy">   -125.51113506 </i>
   </energy>
  </scstep>
  <scstep>
   <time name="dav">    8.08    8.14</time>
   <time name="total">    8.37    8.44</time>
   <energy>
    <i name="e_fr_energy">   -125.51190723 </i>
    <i name="e_wo_entrp">   -125.51036194 </i>
    <i name="e_0_energy">   -125.51113458 </i>
   </energy>
  </scstep>
  <scstep>
   <time name="dav">    9.71    9.77</time>
   <time name="total">    9.75    9.81</time>
   <energy>
    <i name="alphaZ">     58.52424752 </i>
    <i name="ewald">   4808.55544669 </i>
    <i name="hartreedc">  -6565.74729503 </i>
    <i name="XCdc">    180.79811776 </i>
    <i name="pawpsdc">   5809.69817755 </i>
    <i name="pawaedc">  -5814.13662974 </i>
    <i name="eentropy">     -0.00154527 </i>
    <i name="bandstr">   -506.46584749 </i>
    <i name="atom">   1903.26342058 </i>
    <i name="e_fr_energy">   -125.51190744 </i>
    <i name="e_wo_entrp">   -125.51036218 </i>
    <i name="e_0_energy">   -125.51113481 </i>
   </energy>
  </scstep>
  <structure>
   <crystal>
    <varray name="basis" >
     <v>       4.18896488       2.41850000       0.00000000 </v>
     <v>      -4.18896488       2.41850000       0.00000000 </v>
     <v>       0.00000000       0.00000000      15.00000000 </v>
    </varray>
    <i name="volume">    303.93034673 </i>
    <varray name="rec_basis" >
     <v>       0.11936123       0.20673971       0.00000000 </v>
     <v>      -0.11936123       0.20673971       0.00000000 </v>
     <v>       0.00000000       0.00000000       0.06666667 </v>
    </varray>
   </crystal>
   <varray name="positions" >
    <v>       0.00420090       0.00284898       0.11766694 </v>
    <v>       0.35754687       0.00320912       0.09836547 </v>
    <v>       0.00363207       0.35566106       0.09836463 </v>
    <v>       0.65130480       0.64937639       0.09836324 </v>
    <v>       0.32688031       0.32483312       0.10021329 </v>
    <v>       0.68209327       0.00338828       0.10020647 </v>
    <v>       0.00360839       0.68010099       0.10020278 </v>
    <v>      -0.00022666       0.50003066       0.33378608 </v>
    <v>       0.16646469       0.33265393       0.33387233 </v>
    <v>       0.00000221       0.00000976       0.33354316 </v>
    <v>       0.16621170       0.83354943       0.33387899 </v>
    <v>       0.49995469       0.49973223       0.33379268 </v>
    <v>       0.66667286       0.33332947       0.33360042 </v>
    <v>       0.50025404       0.00023032       0.33378481 </v>
    <v>       0.66736053       0.83381358       0.33387138 </v>
   </varray>
  </structure>
  <varray name="forces" >
   <v>       0.00392778      -0.00439203      -0.19341365 </v>
   <v>       0.01984835      -0.00739803      -0.00310377 </v>
   <v>      -0.00006917       0.02765732      -0.00298770 </v>
   <v>      -0.02067881      -0.01328043      -0.00341382 </v>
   <v>      -0.03473079       0.10311873       0.05835639 </v>
   <v>      -0.06917744      -0.08048816       0.05882957 </v>
   <v>       0.10058201      -0.02597496       0.05863220 </v>
   <v>       0.12059073       0.05629394       0.00757919 </v>
   <v>      -0.22323700       0.22668910      -0.01515859 </v>
   <v>       0.00478535      -0.00094262       0.03885258 </v>
   <v>       0.30344555       0.07232180      -0.01588772 </v>
   <v>      -0.10426858       0.08504251       0.00680233 </v>
   <v>      -0.00431737       0.00041873       0.01247935 </v>
   <v>      -0.00847889      -0.12951292       0.00757082 </v>
   <v>      -0.08822170      -0.30955298      -0.01513716 </v>
  </varray>
  <varray name="stress" >
   <v>       4.66885048       0.01401855       0.01077574 </v>
   <v>       0.01401852       4.70439908       0.00733943 </v>
   <v>       0.01077576       0.00733943      -1.92465625 </v>
  </varray>
  <energy>
   <i name="e_fr_energy">   -127.11628514 </i>
   <i name="e_wo_entrp">   -127.11473988 </i>
   <i name="e_0_energy">   -127.11551251 </i>
  </energy>
  <time name="totalsc">   38.94   39.23</time>
 </calculation>
 <calculation>
  <scstep>
   <time name="dav">    5.48    5.51</time>
   <time name="total">    5.76    5.81</time>
   <energy>
    <i name="alphaZ">     58.52424752 </i>
    <i name="ewald">   4808.56172926 </i>
    <i name="hartreedc">  -6565.62990058 </i>
    <i name="XCdc">    180.80667305 </i>
    <i name="pawpsdc">   5809.71273057 </i>
    <i name="pawaedc">  -5814.15118916 </i>
    <i name="eentropy">     -0.00154617 </i>
    <i name="bandstr">   -506.60099046 </i>
    <i name="atom">   1903.26342058 </i>
    <i name="e_fr_energy">   -125.51482540 </i>
    <i name="e_wo_entrp">   -125.51327924 </i>
    <i name="e_0_energy">   -125.51405232 </i>
   </energy>
  </scstep>
  <scstep>
   <time name="dav">    9.92    9.99</time>
   <time name="total">   10.21   10.28</time>
   <energy>
    <i name="e_fr_energy">   -125.51484415 </i>
    <i name="e_wo_entrp">   -125.51329816 </i>
    <i name="e_0_energy">   -125.51407115 </i>
   </energy>
  </scstep>
  <scstep>
   <time name="dav">    7.77    7.83</time>
   <time name="total">    8.06    8.13</time>
   <energy>
    <i name="e_fr_energy">   -125.51483846 </i>
    <i name="e_wo_entrp">   -125.51329243 </i>
    <i name="e_0_energy">   -125.51406545 </i>
   </energy>
  </scstep>
  <scstep>
   <time name="dav">   11.14   11.22</time>
   <time name="total">   11.43   11.52</time>
   <energy>
    <i name="e_fr_energy">   -125.51483861 </i>
    <i name="e_wo_entrp">   -125.51329265 </i>
    <i name="e_0_energy">   -125.51406563 </i>
   </energy>
  </scstep>
  <scstep>
   <time name="dav">    8.11    8.16</time>
   <time name="total">    8.14    8.20</time>
   <energy>
    <i name="alphaZ">     58.52424752 </i>
    <i name="ewald">   4808.56172926 </i>
    <i name="hartreedc">  -6565.61739675 </i>
    <i name="XCdc">    180.80616120 </i>
    <i name="pawpsdc">   5812.33460829 </i>
    <i name="pawaedc">  -5816.77399418 </i>
    <i name="eentropy">     -0.00154593 </i>
    <i name="bandstr">   -506.61206889 </i>
    <i name="atom">   1903.26342058 </i>
    <i name="e_fr_energy">   -125.51483892 </i>
    <i name="e_wo_entrp">   -125.51329299 </i>
    <i name="e_0_energy">   -125.51406595 </i>
   </energy>
  </scstep>
  <structure>
   <crystal>
    <varray name="basis" >
     <v>       4.18896488       2.41850000       0.00000000 </v>
     <v>      -4.18896488       2.41850000       0.00000000 </v>
     <v>       0.00000000       0.00000000      15.00000000 </v>
    </varray>
    <i name="volume">    303.93034673 </i>
    <varray name="rec_basis" >
     <v>       0.11936123       0.20673971       0.00000000 </v>
     <v>      -0.11936123       0.20673971       0.00000000 </v>
     <v>       0.00000000       0.00000000       0.06666667 </v>
    </varray>
   </crystal>
   <varray name="positions" >
    <v>       0.00420820       0.00288074       0.11697146 </v>
    <v>       0.35786453       0.00326474       0.09857111 </v>
    <v>       0.00352829       0.35591061       0.09856924 </v>
    <v>       0.65106966       0.64904051       0.09857113 </v>
    <v>       0.32706871       0.32492001       0.10021010 </v>
    <v>       0.68199465       0.00347091       0.10020891 </v>
    <v>       0.00352383       0.67992483       0.10020660 </v>
    <v>      -0.00012982       0.50002371       0.33380302 </v>
    <v>       0.16651148       0.33286972       0.33389726 </v>
    <v>       0.00000606       0.00000836       0.33351697 </v>
    <v>       0.16637308       0.83349962       0.33390517 </v>
    <v>       0.49997195       0.49983942       0.33381085 </v>
    <v>       0.66667149       0.33333186       0.33357332 </v>
    <v>       0.50015657       0.00013711       0.33380146 </v>
    <v>       0.66714199       0.83364518       0.33389608 </v>
   </varray>
  </structure>
  <varray name="forces" >
   <v>       0.00544839      -0.00573839      -0.18537972 </v>
   <v>       0.00071075      -0.02357147      -0.02166297 </v>
   <v>       0.02554418       0.02154649      -0.02137719 </v>
   <v>      -0.02768939       0.01083358      -0.02231336 </v>
   <v>      -0.04387015       0.07925356       0.07474712 </v>
   <v>      -0.04411766      -0.07562114       0.07470393 </v>
   <v>       0.08367138      -0.00743168       0.07434684 </v>
   <v>       0.07627448       0.03541853       0.00631051 </v>
   <v>      -0.15450165       0.16781953      -0.01979748 </v>
   <v>       0.00247019      -0.00138755       0.04951178 </v>
   <v>       0.22008462       0.04607998      -0.02081313 </v>
   <v>      -0.06694345       0.05435280       0.00522495 </v>
   <v>      -0.00235383       0.00080638       0.01990358 </v>
   <v>      -0.00583839      -0.08293048       0.00633008 </v>
   <v>      -0.06888947      -0.21943014      -0.01973492 </v>
  </varray>
  <varray name="stress" >
   <v>       4.87142117       0.00522384       0.01262238 </v>
   <v>       0.00522382       4.88562911       0.00524995 </v>
   <v>       0.01262236       0.00524994      -1.90349075 </v>
  </varray>
  <energy>
   <i name="e_fr_energy">   -127.11914719 </i>
   <i name="e_wo_entrp">   -127.11760127 </i>
   <i name="e_0_energy">   -127.11837423 </i>
  </energy>
  <time name="totalsc">   48.33   48.70</time>
 </calculation>
 <calculation>
  <scstep>
   <time name="dav">    5.43    5.47</time>
   <time name="total">    5.72    5.77</time>
   <energy>
    <i name="alphaZ">     58.52424752 </i>
    <i name="ewald">   4808.48521009 </i>
    <i name="hartreedc">  -6565.31618536 </i>
    <i name="XCdc">    180.82182063 </i>
    <i name="pawpsdc">   5812.30550135 </i>
    <i name="pawaedc">  -5816.74488678 </i>
    <i name="eentropy">     -0.00154760 </i>
    <i name="bandstr">   -506.85598968 </i>
    <i name="atom">   1903.26342058 </i>
    <i name="e_fr_energy">   -125.51840926 </i>
    <i name="e_wo_entrp">   -125.51686166 </i>
    <i name="e_0_energy">   -125.51763546 </i>
   </energy>
  </scstep>
  <scstep>
   <time name="dav">   10.41   10.49</time>
   <time name="total">   10.70   10.78</time>
   <energy>
    <i name="e_fr_energy">   -125.51848512 </i>
    <i name="e_wo_entrp">   -125.51693788 </i>
    <i name="e_0_energy">   -125.51771150 </i>
   </energy>
  </scstep>
  <scstep>
   <time name="dav">    8.44    8.50</time>
   <time name="total">    8.73    8.80</time>
   <energy>
    <i name="e_fr_energy">   -125.51845956 </i>
    <i name="e_wo_entrp">   -125.51691224 </i>
    <i name="e_0_energy">   -125.51768590 </i>
   </energy>
  </scstep>
  <scstep>
   <time name="dav">   10.84   10.91</time>
   <time name="total">   11.12   11.21</time>
   <energy>
    <i name="e_fr_energy">   -125.51845976 </i>
    <i name="e_wo_entrp">   -125.51691256 </i>
    <i name="e_0_energy">   -125.51768616 </i>
   </energy>
  </scstep>
  <scstep>
   <time name="dav">    9.52    9.58</time>
   <time name="total">    9.56    9.62</time>
   <energy>
    <i name="alphaZ">     58.52424752 </i>
    <i name="ewald">   4808.48521009 </i>
    <i name="hartreedc">  -6565.30269236 </i>
    <i name="XCdc">    180.82100702 </i>
    <i name="pawpsdc">   5817.13793162 </i>
    <i name="pawaedc">  -5821.57905872 </i>
    <i name="eentropy">     -0.00154714 </i>
    <i name="bandstr">   -506.86697924 </i>
    <i name="atom">   1903.26342058 </i>
    <i name="e_fr_energy">   -125.51846064 </i>
    <i name="e_wo_entrp">   -125.51691350 </i>
    <i name="e_0_energy">   -125.51768707 </i>
   </energy>
  </scstep>
  <structure>
   <crystal>
    <varray name="basis" >
     <v>       4.18896488       2.41850000       0.00000000 </v>
     <v>      -4.18896488       2.41850000       0.00000000 </v>
     <v>       0.00000000       0.00000000      15.00000000 </v>
    </varray>
    <i name="volume">    303.93034673 </i>
    <varray name="rec_basis" >
     <v>       0.11936123       0.20673971       0.00000000 </v>
     <v>      -0.11936123       0.20673971       0.00000000 </v>
     <v>       0.00000000       0.00000000       0.06666667 </v>
    </varray>
   </crystal>
   <varray name="positions" >
    <v>       0.00422280       0.00294426       0.11558049 </v>
    <v>       0.35849985       0.00337600       0.09898240 </v>
    <v>       0.00332071       0.35640970       0.09897845 </v>
    <v>       0.65059939       0.64836876       0.09898691 </v>
    <v>       0.32744552       0.32509378       0.10020372 </v>
    <v>       0.68179741       0.00363617       0.10021379 </v>
    <v>       0.00335470       0.67957252       0.10021424 </v>
    <v>       0.00006385       0.50000981       0.33383692 </v>
    <v>       0.16660507       0.33330130       0.33394711 </v>
    <v>       0.00001377       0.00000558       0.33346458 </v>
    <v>       0.16669584       0.83339998       0.33395751 </v>
    <v>       0.50000648       0.50005378       0.33384718 </v>
    <v>       0.66666875       0.33333664       0.33351913 </v>
    <v>       0.49996163      -0.00004932       0.33383475 </v>
    <v>       0.66670491       0.83330838       0.33394548 </v>
   </varray>
  </structure>
  <varray name="forces" >
   <v>       0.00853863      -0.00850536      -0.17383935 </v>
   <v>      -0.04099917      -0.05748102      -0.05718138 </v>
   <v>       0.07959350       0.00699781      -0.05655474 </v>
   <v>      -0.04120370       0.06275170      -0.05850122 </v>
   <v>      -0.06164395       0.02856709       0.10742992 </v>
   <v>       0.00848578      -0.06400250       0.10635633 </v>
   <v>       0.04692728       0.03098514       0.10569834 </v>
   <v>      -0.01313806      -0.00628816       0.00378273 </v>
   <v>      -0.01656900       0.05083854      -0.02912722 </v>
   <v>      -0.00209406      -0.00224920       0.07082333 </v>
   <v>       0.05376160      -0.00709575      -0.03070784 </v>
   <v>       0.00809417      -0.00774421       0.00208793 </v>
   <v>       0.00155010       0.00157413       0.03485867 </v>
   <v>      -0.00016955       0.01083046       0.00386019 </v>
   <v>      -0.03113357      -0.03917867      -0.02898568 </v>
  </varray>
  <varray name="stress" >
   <v>       5.27398061      -0.01217653       0.01582168 </v>
   <v>      -0.01217656       5.24449691       0.00177539 </v>
   <v>       0.01582167       0.00177538      -1.88010519 </v>
  </varray>
  <energy>
   <i name="e_fr_energy">   -127.12261987 </i>
   <i name="e_wo_entrp">   -127.12107273 </i>
   <i name="e_0_energy">   -127.12184630 </i>
  </energy>
  <time name="totalsc">   50.50   51.08</time>
 </calculation>
 <calculation>
  <scstep>
   <time name="dav">    5.46    5.49</time>
   <time name="total">    5.74    5.79</time>
   <energy>
    <i name="alphaZ">     58.52424752 </i>
    <i name="ewald">   4807.97181317 </i>
    <i name="hartreedc">  -6564.42701870 </i>
    <i name="XCdc">    180.84631199 </i>
    <i name="pawpsdc">   5817.08702165 </i>
    <i name="pawaedc">  -5821.52814844 </i>
    <i name="eentropy">     -0.00154994 </i>
    <i name="bandstr">   -507.25287891 </i>
    <i name="atom">   1903.26342058 </i>
    <i name="e_fr_energy">   -125.51678109 </i>
    <i name="e_wo_entrp">   -125.51523115 </i>
    <i name="e_0_energy">   -125.51600612 </i>
   </energy>
  </scstep>
  <scstep>
   <time name="dav">   11.25   11.33</time>
   <time name="total">   11.54   11.63</time>
   <energy>
    <i name="e_fr_energy">   -125.51711758 </i>
    <i name="e_wo_entrp">   -125.51556843 </i>
    <i name="e_0_energy">   -125.51634300 </i>
   </energy>
  </scstep>
  <scstep>
   <time name="dav">    9.11    9.17</time>
   <time name="total">    9.40    9.47</time>
   <energy>
    <i name="e_fr_energy">   -125.51701131 </i>
    <i name="e_wo_entrp">   -125.51546194 </i>
    <i name="e_0_energy">   -125.51623663 </i>
   </energy>
  </scstep>
  <scstep>
   <time name="dav">   11.05   11.11</time>
   <time name="total">   11.33   11.41</time>
   <energy>
    <i name="e_fr_energy">   -125.51701515 </i>
    <i name="e_wo_entrp">   -125.51546594 </i>
    <i name="e_0_energy">   -125.51624055 </i>
   </energy>
  </scstep>
  <scstep>
   <time name="dav">    9.29    9.34</time>
   <time name="total">    9.58    9.64</time>
   <energy>
    <i name="e_fr_energy">   -125.51701901 </i>
    <i name="e_wo_entrp">   -125.51546992 </i>
    <i name="e_0_energy">   -125.51624447 </i>
   </energy>
  </scstep>
  <scstep>
   <time name="dav">    9.88    9.93</time>
   <time name="total">    9.91    9.97</time>
   <energy>
    <i name="alphaZ">     58.52424752 </i>
    <i name="ewald">   4807.97181317 </i>
    <i name="hartreedc">  -6564.39898922 </i>
    <i name="XCdc">    180.84501969 </i>
    <i name="pawpsdc">   5824.94769493 </i>
    <i name="pawaedc">  -5829.39185315 </i>
    <i name="eentropy">     -0.00154909 </i>
    <i name="bandstr">   -507.27682307 </i>
    <i name="atom">   1903.26342058 </i>
    <i name="e_fr_energy">   -125.51701864 </i>
    <i name="e_wo_entrp">   -125.51546955 </i>
    <i name="e_0_energy">   -125.51624410 </i>
   </energy>
  </scstep>
  <structure>
   <crystal>
    <varray name="basis" >
     <v>       4.18896488       2.41850000       0.00000000 </v>
     <v>      -4.18896488       2.41850000       0.00000000 </v>
     <v>       0.00000000       0.00000000      15.00000000 </v>
    </varray>
    <i name="volume">    303.93034673 </i>
    <varray name="rec_basis" >
     <v>       0.11936123       0.20673971       0.00000000 </v>
     <v>      -0.11936123       0.20673971       0.00000000 </v>
     <v>       0.00000000       0.00000000       0.06666667 </v>
    </varray>
   </crystal>
   <varray name="positions" >
    <v>       0.00425200       0.00307129       0.11279857 </v>
    <v>       0.35977050       0.00359850       0.09980499 </v>
    <v>       0.00290555       0.35740789       0.09979688 </v>
    <v>       0.64965885       0.64702524       0.09981847 </v>
    <v>       0.32819912       0.32544133       0.10019097 </v>
    <v>       0.68140294       0.00396670       0.10022354 </v>
    <v>       0.00301644       0.67886788       0.10022953 </v>
    <v>       0.00045120       0.49998202       0.33390472 </v>
    <v>       0.16679225       0.33416446       0.33404682 </v>
    <v>       0.00002917       0.00000000       0.33335979 </v>
    <v>       0.16734136       0.83320071       0.33406221 </v>
    <v>       0.50007552       0.50048252       0.33391984 </v>
    <v>       0.66666326       0.33334619       0.33341074 </v>
    <v>       0.49957176      -0.00042219       0.33390133 </v>
    <v>       0.66583075       0.83263477       0.33404428 </v>
   </varray>
  </structure>
  <varray name="forces" >
   <v>       0.01480430      -0.01423721      -0.16404420 </v>
   <v>      -0.13905214      -0.13155900      -0.12283310 </v>
   <v>       0.19953829      -0.03211359      -0.12152514 </v>
   <v>      -0.06585999       0.18204868      -0.12542011 </v>
   <v>      -0.09426286      -0.08546922       0.17193400 </v>
   <v>       0.12390927      -0.03200502       0.16887316 </v>
   <v>      -0.03935647       0.11270552       0.16769688 </v>
   <v>      -0.19469585      -0.08977770      -0.00134976 </v>
   <v>       0.26088290      -0.18069762      -0.04802919 </v>
   <v>      -0.01093641      -0.00388525       0.11341284 </v>
   <v>      -0.27769245      -0.11571345      -0.05070483 </v>
   <v>       0.15976500      -0.13432221      -0.00422368 </v>
[...]
       <r>     2.7712     0.9439    30.8863 </r>
       <r>     2.8782     0.5993    30.9504 </r>
       <r>     2.9852     1.0944    31.0674 </r>
       <r>     3.0921     1.5620    31.2345 </r>
       <r>     3.1991     1.2409    31.3672 </r>
       <r>     3.3061     1.2902    31.5052 </r>
       <r>     3.4130     1.2492    31.6389 </r>
       <r>     3.5200     1.2891    31.7768 </r>
       <r>     3.6269     2.0630    31.9974 </r>
       <r>     3.7339     2.6067    32.2762 </r>
       <r>     3.8409     3.0011    32.5973 </r>
       <r>     3.9478     2.8691    32.9042 </r>
       <r>     4.0548     2.9102    33.2154 </r>
       <r>     4.1618     2.9877    33.5350 </r>
       <r>     4.2687     3.3895    33.8976 </r>
       <r>     4.3757     3.1506    34.2346 </r>
       <r>     4.4827     3.1052    34.5667 </r>
       <r>     4.5896     2.9260    34.8797 </r>
       <r>     4.6966     2.8007    35.1793 </r>
       <r>     4.8036     3.3339    35.5359 </r>
       <r>     4.9105     3.1166    35.8693 </r>
       <r>     5.0175     2.8874    36.1781 </r>
       <r>     5.1244     3.2775    36.5287 </r>
       <r>     5.2314     3.3093    36.8827 </r>
       <r>     5.3384     2.9417    37.1973 </r>
       <r>     5.4453     2.7203    37.4883 </r>
       <r>     5.5523     2.5878    37.7651 </r>
       <r>     5.6593     3.5318    38.1429 </r>
       <r>     5.7662     3.4214    38.5088 </r>
       <r>     5.8732     2.8190    38.8104 </r>
       <r>     5.9802     2.3458    39.0613 </r>
       <r>     6.0871     2.5979    39.3392 </r>
       <r>     6.1941     1.9979    39.5529 </r>
       <r>     6.3011     2.3514    39.8044 </r>
       <r>     6.4080     2.9720    40.1223 </r>
       <r>     6.5150     3.0678    40.4504 </r>
       <r>     6.6219     3.0333    40.7749 </r>
       <r>     6.7289     3.3908    41.1376 </r>
       <r>     6.8359     4.2768    41.5950 </r>
       <r>     6.9428     3.5357    41.9732 </r>
       <r>     7.0498     3.2936    42.3255 </r>
       <r>     7.1568     3.4385    42.6933 </r>
       <r>     7.2637     2.6992    42.9820 </r>
       <r>     7.3707     2.2671    43.2245 </r>
       <r>     7.4777     2.8639    43.5309 </r>
       <r>     7.5846     2.8703    43.8379 </r>
       <r>     7.6916     2.8795    44.1459 </r>
       <r>     7.7986     3.5767    44.5285 </r>
       <r>     7.9055     4.2185    44.9797 </r>
       <r>     8.0125     3.8573    45.3923 </r>
       <r>     8.1195     4.0145    45.8217 </r>
       <r>     8.2264     4.0787    46.2580 </r>
       <r>     8.3334     3.7498    46.6591 </r>
       <r>     8.4403     4.8378    47.1765 </r>
       <r>     8.5473     3.9450    47.5985 </r>
       <r>     8.6543     1.9497    47.8071 </r>
       <r>     8.7612     0.9227    47.9058 </r>
       <r>     8.8682     0.4493    47.9538 </r>
       <r>     8.9752     0.3538    47.9917 </r>
       <r>     9.0821     0.0751    47.9997 </r>
       <r>     9.1891     0.0027    48.0000 </r>
       <r>     9.2961     0.0000    48.0000 </r>
       <r>     9.4030     0.0000    48.0000 </r>
       <r>     9.5100     0.0000    48.0000 </r>
       <r>     9.6170     0.0000    48.0000 </r>
       <r>     9.7239     0.0000    48.0000 </r>
       <r>     9.8309     0.0000    48.0000 </r>
       <r>     9.9378     0.0000    48.0000 </r>
       <r>    10.0448     0.0000    48.0000 </r>
       <r>    10.1518     0.0000    48.0000 </r>
       <r>    10.2587     0.0000    48.0000 </r>
       <r>    10.3657     0.0000    48.0000 </r>
      </set>
      <set comment="spin 2">
       <r>   -21.7236     0.0000     0.0000 </r>
       <r>   -21.6166     0.0000     0.0000 </r>
       <r>   -21.5097     0.0000     0.0000 </r>
       <r>   -21.4027     0.0000     0.0000 </r>
       <r>   -21.2957     0.0000     0.0000 </r>
       <r>   -21.1888     0.0000     0.0000 </r>
       <r>   -21.0818     0.0000     0.0000 </r>
       <r>   -20.9749     0.0000     0.0000 </r>
       <r>   -20.8679     0.0000     0.0000 </r>
       <r>   -20.7609     0.0000     0.0000 </r>
       <r>   -20.6540     0.0000     0.0000 </r>
       <r>   -20.5470     0.0000     0.0000 </r>
       <r>   -20.4400     0.0008     0.0001 </r>
       <r>   -20.3331     0.0343     0.0038 </r>
       <r>   -20.2261     0.2514     0.0307 </r>
       <r>   -20.1191     0.5295     0.0873 </r>
       <r>   -20.0122     0.5759     0.1489 </r>
       <r>   -19.9052     0.6301     0.2163 </r>
       <r>   -19.7982     0.5288     0.2729 </r>
       <r>   -19.6913     0.6863     0.3463 </r>
       <r>   -19.5843     0.5393     0.4040 </r>
       <r>   -19.4774     0.5387     0.4616 </r>
       <r>   -19.3704     0.7675     0.5437 </r>
       <r>   -19.2634     0.4900     0.5961 </r>
       <r>   -19.1565     0.4888     0.6484 </r>
       <r>   -19.0495     0.7789     0.7317 </r>
       <r>   -18.9425     0.6687     0.8032 </r>
       <r>   -18.8356     0.3812     0.8440 </r>
       <r>   -18.7286     0.5450     0.9023 </r>
       <r>   -18.6216     0.8844     0.9969 </r>
       <r>   -18.5147     0.5884     1.0598 </r>
       <r>   -18.4077     0.4867     1.1119 </r>
       <r>   -18.3007     0.3742     1.1519 </r>
       <r>   -18.1938     0.8312     1.2408 </r>
       <r>   -18.0868     0.8544     1.3322 </r>
       <r>   -17.9799     0.4612     1.3815 </r>
       <r>   -17.8729     0.4120     1.4256 </r>
       <r>   -17.7659     0.5197     1.4812 </r>
       <r>   -17.6590     0.7781     1.5644 </r>
       <r>   -17.5520     0.8721     1.6577 </r>
       <r>   -17.4450     0.7123     1.7339 </r>
       <r>   -17.3381     0.8296     1.8226 </r>
       <r>   -17.2311     1.2727     1.9588 </r>
       <r>   -17.1241     1.8454     2.1562 </r>
       <r>   -17.0172     1.9930     2.3693 </r>
       <r>   -16.9102     2.1633     2.6007 </r>
       <r>   -16.8032     2.6384     2.8830 </r>
       <r>   -16.6963     2.1536     3.1133 </r>
       <r>   -16.5893     0.6704     3.1850 </r>
       <r>   -16.4824     0.8799     3.2791 </r>
       <r>   -16.3754     1.0719     3.3938 </r>
       <r>   -16.2684     0.5915     3.4571 </r>
       <r>   -16.1615     0.5342     3.5142 </r>
       <r>   -16.0545     0.4874     3.5663 </r>
       <r>   -15.9475     0.4982     3.6196 </r>
       <r>   -15.8406     0.4415     3.6669 </r>
       <r>   -15.7336     0.9875     3.7725 </r>
       <r>   -15.6266     1.0681     3.8867 </r>
       <r>   -15.5197     0.5211     3.9425 </r>
       <r>   -15.4127     0.4930     3.9952 </r>
       <r>   -15.3057     0.4229     4.0404 </r>
       <r>   -15.1988     0.5722     4.1016 </r>
       <r>   -15.0918     0.7669     4.1837 </r>
       <r>   -14.9848     1.3122     4.3240 </r>
       <r>   -14.8779     2.1355     4.5524 </r>
       <r>   -14.7709     2.3430     4.8031 </r>
       <r>   -14.6640     2.2282     5.0414 </r>
       <r>   -14.5570     1.5061     5.2025 </r>
       <r>   -14.4500     0.9574     5.3049 </r>
       <r>   -14.3431     1.7664     5.4938 </r>
       <r>   -14.2361     2.0386     5.7119 </r>
       <r>   -14.1291     1.4804     5.8702 </r>
       <r>   -14.0222     1.3851     6.0184 </r>
       <r>   -13.9152     1.5385     6.1830 </r>
       <r>   -13.8082     2.4637     6.4465 </r>
       <r>   -13.7013     2.5458     6.7188 </r>
       <r>   -13.5943     2.3393     6.9690 </r>
       <r>   -13.4873     1.5094     7.1305 </r>
       <r>   -13.3804     0.8957     7.2263 </r>
       <r>   -13.2734     0.4178     7.2710 </r>
       <r>   -13.1665     0.4954     7.3240 </r>
       <r>   -13.0595     0.8419     7.4140 </r>
       <r>   -12.9525     0.9047     7.5108 </r>
       <r>   -12.8456     0.6159     7.5766 </r>
       <r>   -12.7386     0.8211     7.6645 </r>
       <r>   -12.6316     0.9045     7.7612 </r>
       <r>   -12.5247     0.7302     7.8393 </r>
       <r>   -12.4177     0.6932     7.9135 </r>
       <r>   -12.3107     0.4450     7.9611 </r>
       <r>   -12.2038     0.7490     8.0412 </r>
       <r>   -12.0968     1.0452     8.1530 </r>
       <r>   -11.9898     0.4771     8.2040 </r>
       <r>   -11.8829     0.4193     8.2489 </r>
       <r>   -11.7759     0.4311     8.2950 </r>
       <r>   -11.6690     0.6995     8.3698 </r>
       <r>   -11.5620     0.8886     8.4649 </r>
       <r>   -11.4550     0.5446     8.5231 </r>
       <r>   -11.3481     0.2284     8.5475 </r>
       <r>   -11.2411     0.5711     8.6086 </r>
       <r>   -11.1341     0.7452     8.6883 </r>
       <r>   -11.0272     0.6857     8.7617 </r>
       <r>   -10.9202     0.9696     8.8654 </r>
       <r>   -10.8132     0.8089     8.9519 </r>
       <r>   -10.7063     0.3239     8.9866 </r>
       <r>   -10.5993     0.9813     9.0915 </r>
       <r>   -10.4923     1.5787     9.2604 </r>
       <r>   -10.3854     1.9601     9.4701 </r>
       <r>   -10.2784     1.9741     9.6812 </r>
       <r>   -10.1715     1.8557     9.8797 </r>
       <r>   -10.0645     2.2392    10.1192 </r>
       <r>    -9.9575     2.3712    10.3729 </r>
       <r>    -9.8506     1.2804    10.5098 </r>
       <r>    -9.7436     0.8939    10.6054 </r>
       <r>    -9.6366     1.7669    10.7944 </r>
       <r>    -9.5297     1.9232    11.0001 </r>
       <r>    -9.4227     2.0765    11.2223 </r>
       <r>    -9.3157     2.0462    11.4411 </r>
       <r>    -9.2088     1.8273    11.6366 </r>
       <r>    -9.1018     1.3439    11.7803 </r>
       <r>    -8.9948     0.8930    11.8758 </r>
       <r>    -8.8879     1.9448    12.0839 </r>
       <r>    -8.7809     2.7100    12.3737 </r>
       <r>    -8.6740     1.9986    12.5875 </r>
       <r>    -8.5670     0.9886    12.6933 </r>
       <r>    -8.4600     1.3074    12.8331 </r>
       <r>    -8.3531     2.6340    13.1149 </r>
       <r>    -8.2461     2.5166    13.3841 </r>
       <r>    -8.1391     1.4663    13.5409 </r>
       <r>    -8.0322     2.0132    13.7562 </r>
       <r>    -7.9252     3.1349    14.0916 </r>
       <r>    -7.8182     3.0998    14.4231 </r>
       <r>    -7.7113     2.7144    14.7135 </r>
       <r>    -7.6043     1.3438    14.8572 </r>
       <r>    -7.4973     1.0276    14.9671 </r>
       <r>    -7.3904     2.3659    15.2202 </r>
       <r>    -7.2834     2.2788    15.4639 </r>
       <r>    -7.1765     1.5027    15.6247 </r>
       <r>    -7.0695     1.4837    15.7834 </r>
       <r>    -6.9625     2.1698    16.0155 </r>
       <r>    -6.8556     2.2582    16.2570 </r>
       <r>    -6.7486     2.4392    16.5179 </r>
       <r>    -6.6416     2.7561    16.8127 </r>
       <r>    -6.5347     2.4712    17.0771 </r>
       <r>    -6.4277     2.5993    17.3551 </r>
       <r>    -6.3207     2.1563    17.5857 </r>
       <r>    -6.2138     2.2580    17.8273 </r>
       <r>    -6.1068     3.3064    18.1809 </r>
       <r>    -5.9998     2.9941    18.5012 </r>
       <r>    -5.8929     3.9693    18.9258 </r>
       <r>    -5.7859     3.5839    19.3091 </r>
       <r>    -5.6790     2.1092    19.5347 </r>
       <r>    -5.5720     2.4276    19.7944 </r>
       <r>    -5.4650     4.1379    20.2370 </r>
       <r>    -5.3581     4.4732    20.7155 </r>
       <r>    -5.2511     3.0866    21.0457 </r>
       <r>    -5.1441     2.2113    21.2822 </r>
       <r>    -5.0372     1.3173    21.4231 </r>
       <r>    -4.9302     1.2206    21.5536 </r>
       <r>    -4.8232     1.8417    21.7506 </r>
       <r>    -4.7163     1.5197    21.9132 </r>
       <r>    -4.6093     1.0797    22.0287 </r>
       <r>    -4.5023     1.1038    22.1467 </r>
       <r>    -4.3954     1.8938    22.3493 </r>
       <r>    -4.2884     2.8878    22.6582 </r>
       <r>    -4.1815     2.3742    22.9122 </r>
       <r>    -4.0745     2.4328    23.1724 </r>
       <r>    -3.9675     2.8231    23.4744 </r>
       <r>    -3.8606     3.1560    23.8119 </r>
       <r>    -3.7536     2.3695    24.0654 </r>
       <r>    -3.6466     2.2882    24.3101 </r>
       <r>    -3.5397     2.5748    24.5855 </r>
       <r>    -3.4327     2.0443    24.8042 </r>
       <r>    -3.3257     1.7647    24.9930 </r>
       <r>    -3.2188     1.7029    25.1751 </r>
       <r>    -3.1118     2.2294    25.4136 </r>
       <r>    -3.0048     2.3175    25.6615 </r>
       <r>    -2.8979     1.5231    25.8244 </r>
       <r>    -2.7909     1.5403    25.9892 </r>
       <r>    -2.6839     0.9545    26.0913 </r>
       <r>    -2.5770     1.2779    26.2280 </r>
       <r>    -2.4700     2.4828    26.4935 </r>
       <r>    -2.3631     1.8641    26.6929 </r>
       <r>    -2.2561     0.5108    26.7475 </r>
       <r>    -2.1491     0.6003    26.8118 </r>
       <r>    -2.0422     1.3258    26.9536 </r>
       <r>    -1.9352     1.2915    27.0917 </r>
       <r>    -1.8282     1.4150    27.2431 </r>
       <r>    -1.7213     1.4646    27.3997 </r>
       <r>    -1.6143     1.2332    27.5316 </r>
       <r>    -1.5073     0.9231    27.6304 </r>
       <r>    -1.4004     0.5733    27.6917 </r>
       <r>    -1.2934     0.5039    27.7456 </r>
       <r>    -1.1864     0.5203    27.8012 </r>
       <r>    -1.0795     0.4817    27.8528 </r>
       <r>    -0.9725     0.7458    27.9325 </r>
       <r>    -0.8656     0.4041    27.9758 </r>
       <r>    -0.7586     0.0867    27.9850 </r>
       <r>    -0.6516     0.0100    27.9861 </r>
       <r>    -0.5447     0.0003    27.9861 </r>
       <r>    -0.4377     0.0070    27.9869 </r>
       <r>    -0.3307     0.0809    27.9955 </r>
       <r>    -0.2238     0.1359    28.0101 </r>
       <r>    -0.1168     0.0345    28.0138 </r>
       <r>    -0.0098     0.0012    28.0139 </r>
       <r>     0.0971     0.0000    28.0139 </r>
       <r>     0.2041     0.0036    28.0143 </r>
       <r>     0.3111     0.1044    28.0254 </r>
       <r>     0.4180     0.4102    28.0693 </r>
       <r>     0.5250     0.2475    28.0958 </r>
       <r>     0.6319     0.1361    28.1104 </r>
       <r>     0.7389     0.4203    28.1553 </r>
       <r>     0.8459     0.6639    28.2263 </r>
       <r>     0.9528     1.1007    28.3441 </r>
       <r>     1.0598     3.0873    28.6743 </r>
       <r>     1.1668     2.8607    28.9803 </r>
       <r>     1.2737     0.7333    29.0587 </r>
       <r>     1.3807     0.4891    29.1110 </r>
       <r>     1.4877     0.9922    29.2172 </r>
       <r>     1.5946     1.5560    29.3836 </r>
       <r>     1.7016     2.3706    29.6372 </r>
       <r>     1.8086     2.0859    29.8603 </r>
       <r>     1.9155     0.9209    29.9588 </r>
       <r>     2.0225     0.8030    30.0447 </r>
       <r>     2.1294     1.2825    30.1819 </r>
       <r>     2.2364     0.9580    30.2843 </r>
       <r>     2.3434     1.0128    30.3927 </r>
       <r>     2.4503     0.9751    30.4970 </r>
       <r>     2.5573     1.2063    30.6260 </r>
       <r>     2.6643     1.4894    30.7853 </r>
       <r>     2.7712     0.9439    30.8863 </r>
       <r>     2.8782     0.5994    30.9504 </r>
       <r>     2.9852     1.0946    31.0675 </r>
       <r>     3.0921     1.5620    31.2345 </r>
       <r>     3.1991     1.2409    31.3673 </r>
       <r>     3.3061     1.2903    31.5053 </r>
       <r>     3.4130     1.2491    31.6389 </r>
       <r>     3.5200     1.2892    31.7768 </r>
       <r>     3.6269     2.0631    31.9975 </r>
       <r>     3.7339     2.6066    32.2763 </r>
       <r>     3.8409     3.0012    32.5973 </r>
       <r>     3.9478     2.8690    32.9042 </r>
       <r>     4.0548     2.9103    33.2155 </r>
       <r>     4.1618     2.9876    33.5350 </r>
       <r>     4.2687     3.3897    33.8976 </r>
       <r>     4.3757     3.1506    34.2346 </r>
       <r>     4.4827     3.1054    34.5668 </r>
       <r>     4.5896     2.9264    34.8798 </r>
       <r>     4.6966     2.8013    35.1794 </r>
       <r>     4.8036     3.3344    35.5361 </r>
       <r>     4.9105     3.1161    35.8694 </r>
       <r>     5.0175     2.8878    36.1783 </r>
       <r>     5.1244     3.2775    36.5289 </r>
       <r>     5.2314     3.3098    36.8829 </r>
       <r>     5.3384     2.9416    37.1976 </r>
       <r>     5.4453     2.7189    37.4884 </r>
       <r>     5.5523     2.5881    37.7652 </r>
       <r>     5.6593     3.5325    38.1431 </r>
       <r>     5.7662     3.4222    38.5091 </r>
       <r>     5.8732     2.8175    38.8105 </r>
       <r>     5.9802     2.3454    39.0614 </r>
       <r>     6.0871     2.5981    39.3393 </r>
       <r>     6.1941     1.9986    39.5531 </r>
       <r>     6.3011     2.3525    39.8047 </r>
       <r>     6.4080     2.9711    40.1225 </r>
       <r>     6.5150     3.0674    40.4506 </r>
       <r>     6.6219     3.0336    40.7751 </r>
       <r>     6.7289     3.3920    41.1379 </r>
       <r>     6.8359     4.2771    41.5954 </r>
       <r>     6.9428     3.5356    41.9736 </r>
       <r>     7.0498     3.2942    42.3259 </r>
       <r>     7.1568     3.4372    42.6936 </r>
       <r>     7.2637     2.6977    42.9822 </r>
       <r>     7.3707     2.2674    43.2247 </r>
       <r>     7.4777     2.8664    43.5313 </r>
       <r>     7.5846     2.8686    43.8381 </r>
       <r>     7.6916     2.8789    44.1461 </r>
       <r>     7.7986     3.5772    44.5287 </r>
       <r>     7.9055     4.2179    44.9799 </r>
       <r>     8.0125     3.8585    45.3926 </r>
       <r>     8.1195     4.0153    45.8221 </r>
       <r>     8.2264     4.0773    46.2582 </r>
       <r>     8.3334     3.7498    46.6593 </r>
       <r>     8.4403     4.8382    47.1768 </r>
       <r>     8.5473     3.9433    47.5986 </r>
       <r>     8.6543     1.9490    47.8071 </r>
       <r>     8.7612     0.9225    47.9058 </r>
       <r>     8.8682     0.4493    47.9538 </r>
       <r>     8.9752     0.3538    47.9917 </r>
       <r>     9.0821     0.0750    47.9997 </r>
       <r>     9.1891     0.0027    48.0000 </r>
       <r>     9.2961     0.0000    48.0000 </r>
       <r>     9.4030     0.0000    48.0000 </r>
       <r>     9.5100     0.0000    48.0000 </r>
       <r>     9.6170     0.0000    48.0000 </r>
       <r>     9.7239     0.0000    48.0000 </r>
       <r>     9.8309     0.0000    48.0000 </r>
       <r>     9.9378     0.0000    48.0000 </r>
       <r>    10.0448     0.0000    48.0000 </r>
       <r>    10.1518     0.0000    48.0000 </r>
       <r>    10.2587     0.0000    48.0000 </r>
       <r>    10.3657     0.0000    48.0000 </r>
      </set>
     </set>
    </array>
   </total>
  </dos>
 </calculation>
 <structure name="finalpos" >
  <crystal>
   <varray name="basis" >
    <v>       4.18896488       2.41850000       0.00000000 </v>
    <v>      -4.18896488       2.41850000       0.00000000 </v>
    <v>       0.00000000       0.00000000      15.00000000 </v>
   </varray>
   <i name="volume">    303.93034673 </i>
   <varray name="rec_basis" >
    <v>       0.11936123       0.20673971       0.00000000 </v>
    <v>      -0.11936123       0.20673971       0.00000000 </v>
    <v>       0.00000000       0.00000000       0.06666667 </v>
   </varray>
  </crystal>
  <varray name="positions" >
   <v>       0.00404001       0.00268756       0.10189233 </v>
   <v>       0.35922467       0.00296030       0.10046608 </v>
   <v>       0.00376269       0.35759697       0.10046682 </v>
   <v>       0.64913323       0.64750706       0.10046328 </v>
   <v>       0.32784684       0.32622201       0.10056191 </v>
   <v>       0.68049824       0.00295567       0.10056141 </v>
   <v>       0.00376241       0.67887542       0.10055878 </v>
   <v>       0.00014730       0.50007200       0.33482148 </v>
   <v>       0.16679889       0.33345902       0.33485743 </v>
   <v>       0.00012738       0.00007773       0.33478219 </v>
   <v>       0.16683949       0.83340930       0.33486128 </v>
   <v>       0.50013562       0.50010703       0.33482425 </v>
   <v>       0.66679606       0.33341295       0.33471802 </v>
   <v>       0.50009905       0.00005757       0.33481988 </v>
   <v>       0.66674880       0.83336674       0.33485753 </v>
  </varray>
 </structure>
</modeling>
