<?xml version="1.0" encoding="ISO-8859-1"?>
<modeling>
 <generator>
  <i name="program" type="string">vasp </i>
  <i name="version" type="string">6.3.2  </i>
  <i name="subversion" type="string">27Jun22 (build Dec 22 2022 13:13:19) complex                          parallel </i>
  <i name="platform" type="string">LinuxIFC </i>
  <i name="date" type="string">2023 08 26 </i>
  <i name="time" type="string">01:21:07 </i>
 </generator>
 <incar>
  <i type="string" name="SYSTEM">Lattice</i>
  <i type="int" name="ISTART">     0</i>
  <i type="string" name="PREC">Accurate</i>
  <i type="string" name="ALGO">Normal</i>
  <i type="int" name="ICHARG">     2</i>
  <i type="int" name="NELM">    64</i>
  <i type="int" name="IBRION">     2</i>
  <i name="EDIFF">      0.00000100</i>
  <i name="EDIFFG">     -0.00100000</i>
  <i type="int" name="NSW">   256</i>
  <i type="int" name="ISIF">     2</i>
  <i name="ENCUT">    450.00000000</i>
  <i name="POTIM">      0.50000000</i>
  <i type="int" name="ISMEAR">     0</i>
  <i name="SIGMA">      0.10000000</i>
  <i type="logical" name="LWAVE"> F  </i>
  <i type="logical" name="LCHARG"> F  </i>
  <i type="string" name="GGA">PE</i>
  <i type="int" name="IVDW">    12</i>
 </incar>
 <primitive_cell>
  <structure name="primitive_cell" >
   <crystal>
    <varray name="basis" >
     <v>       4.31194049       2.48950000       0.00000000 </v>
     <v>      -4.31194049       2.48950000       0.00000000 </v>
     <v>       0.00000000       0.00000000      15.00000000 </v>
    </varray>
    <i name="volume">    322.03727516 </i>
    <varray name="rec_basis" >
     <v>       0.11595707       0.20084354       0.00000000 </v>
     <v>      -0.11595707       0.20084354       0.00000000 </v>
     <v>       0.00000000       0.00000000       0.06666667 </v>
    </varray>
   </crystal>
   <varray name="positions" >
    <v>       0.66888689       1.00000000       0.10000000 </v>
    <v>       0.33111211       1.00000000       0.10000000 </v>
    <v>       1.00000000       0.33111211       0.10000000 </v>
    <v>       1.00000000       0.66888689       0.10000000 </v>
    <v>       0.33111211       0.33111211       0.10000000 </v>
    <v>       0.66888689       0.66888689       0.10000000 </v>
    <v>       0.66666600       0.33333300       0.09922189 </v>
    <v>       0.33333300       0.66666600       0.10077811 </v>
    <v>       0.24999933       0.24999967       0.33533333 </v>
    <v>       0.41666633       0.08333267       0.33533333 </v>
    <v>       0.24999933       0.74999967       0.33533333 </v>
    <v>       0.41666633       0.58333267       0.33533333 </v>
    <v>       0.74999933       0.24999967       0.33533333 </v>
    <v>       0.91666633       0.08333267       0.33533333 </v>
    <v>       0.74999933       0.74999967       0.33533333 </v>
    <v>       0.91666633       0.58333267       0.33533333 </v>
   </varray>
  </structure>
  <varray name="primitive_index" >
   <v type="int" >        1 </v>
   <v type="int" >        2 </v>
   <v type="int" >        3 </v>
   <v type="int" >        4 </v>
   <v type="int" >        5 </v>
   <v type="int" >        6 </v>
   <v type="int" >        7 </v>
   <v type="int" >        8 </v>
   <v type="int" >        9 </v>
   <v type="int" >       10 </v>
   <v type="int" >       11 </v>
   <v type="int" >       12 </v>
   <v type="int" >       13 </v>
   <v type="int" >       14 </v>
   <v type="int" >       15 </v>
   <v type="int" >       16 </v>
  </varray>
 </primitive_cell>
 <kpoints>
  <generation param="Gamma">
   <v type="int" name="divisions">      12       12        1 </v>
   <v name="usershift">      0.00000000       0.00000000       0.00000000 </v>
   <v name="genvec1">      0.08333333      -0.00000000       0.00000000 </v>
   <v name="genvec2">     -0.00000000       0.08333333       0.00000000 </v>
   <v name="genvec3">      0.00000000       0.00000000       1.00000000 </v>
   <v name="shift">      0.00000000       0.00000000       0.00000000 </v>
  </generation>
  <varray name="kpointlist" >
   <v>       0.00000000       0.00000000       0.00000000 </v>
   <v>       0.08333333      -0.00000000       0.00000000 </v>
   <v>      -0.08333333       0.08333333       0.00000000 </v>
   <v>       0.16666667       0.00000000       0.00000000 </v>
   <v>      -0.16666667       0.16666667       0.00000000 </v>
   <v>       0.25000000       0.00000000       0.00000000 </v>
   <v>      -0.25000000       0.25000000       0.00000000 </v>
   <v>       0.33333333       0.00000000       0.00000000 </v>
   <v>      -0.33333333       0.33333333       0.00000000 </v>
   <v>       0.41666667       0.00000000       0.00000000 </v>
   <v>      -0.41666667       0.41666667       0.00000000 </v>
   <v>       0.50000000       0.00000000       0.00000000 </v>
   <v>       0.50000000       0.50000000       0.00000000 </v>
   <v>       0.08333333       0.08333333       0.00000000 </v>
   <v>      -0.08333333       0.16666667       0.00000000 </v>
   <v>       0.16666667       0.08333333       0.00000000 </v>
   <v>      -0.08333333       0.25000000       0.00000000 </v>
   <v>      -0.25000000       0.16666667       0.00000000 </v>
   <v>       0.25000000       0.08333333       0.00000000 </v>
   <v>      -0.08333333       0.33333333       0.00000000 </v>
   <v>      -0.33333333       0.25000000       0.00000000 </v>
   <v>       0.33333333       0.08333333       0.00000000 </v>
   <v>      -0.08333333       0.41666667       0.00000000 </v>
   <v>      -0.41666667       0.33333333       0.00000000 </v>
   <v>       0.41666667       0.08333333       0.00000000 </v>
   <v>      -0.08333333       0.50000000       0.00000000 </v>
   <v>       0.50000000       0.41666667       0.00000000 </v>
   <v>       0.16666667       0.16666667       0.00000000 </v>
   <v>      -0.16666667       0.33333333       0.00000000 </v>
   <v>       0.25000000       0.16666667       0.00000000 </v>
   <v>      -0.16666667       0.41666667       0.00000000 </v>
   <v>      -0.41666667       0.25000000       0.00000000 </v>
   <v>       0.33333333       0.16666667       0.00000000 </v>
   <v>      -0.16666667       0.50000000       0.00000000 </v>
   <v>       0.50000000       0.33333333       0.00000000 </v>
   <v>       0.41666667       0.16666667       0.00000000 </v>
   <v>       0.41666667       0.41666667       0.00000000 </v>
   <v>       0.25000000       0.25000000       0.00000000 </v>
   <v>      -0.25000000       0.50000000       0.00000000 </v>
   <v>       0.33333333       0.25000000       0.00000000 </v>
   <v>      -0.25000000      -0.41666667       0.00000000 </v>
   <v>       0.41666667       0.33333333       0.00000000 </v>
   <v>       0.33333333       0.33333333       0.00000000 </v>
  </varray>
  <varray name="weights" >
   <v>       0.00694444 </v>
   <v>       0.02777778 </v>
   <v>       0.01388889 </v>
   <v>       0.02777778 </v>
   <v>       0.01388889 </v>
   <v>       0.02777778 </v>
   <v>       0.01388889 </v>
   <v>       0.02777778 </v>
   <v>       0.01388889 </v>
   <v>       0.02777778 </v>
   <v>       0.01388889 </v>
   <v>       0.01388889 </v>
   <v>       0.00694444 </v>
   <v>       0.01388889 </v>
   <v>       0.02777778 </v>
   <v>       0.02777778 </v>
   <v>       0.02777778 </v>
   <v>       0.02777778 </v>
   <v>       0.02777778 </v>
   <v>       0.02777778 </v>
   <v>       0.02777778 </v>
   <v>       0.02777778 </v>
   <v>       0.02777778 </v>
   <v>       0.02777778 </v>
   <v>       0.02777778 </v>
   <v>       0.02777778 </v>
   <v>       0.02777778 </v>
   <v>       0.01388889 </v>
   <v>       0.02777778 </v>
   <v>       0.02777778 </v>
   <v>       0.02777778 </v>
   <v>       0.02777778 </v>
   <v>       0.02777778 </v>
   <v>       0.02777778 </v>
   <v>       0.02777778 </v>
   <v>       0.02777778 </v>
   <v>       0.01388889 </v>
   <v>       0.01388889 </v>
   <v>       0.02777778 </v>
   <v>       0.02777778 </v>
   <v>       0.02777778 </v>
   <v>       0.02777778 </v>
   <v>       0.01388889 </v>
  </varray>
 </kpoints>
 <parameters>
  <separator name="general" >
   <i type="string" name="SYSTEM">Lattice</i>
   <i type="logical" name="LCOMPAT"> F  </i>
  </separator>
  <separator name="electronic" >
   <i type="string" name="PREC">accura</i>
   <i name="ENMAX">    450.00000000</i>
   <i name="ENAUG">    644.87300000</i>
   <i name="EDIFF">      0.00000100</i>
   <i type="int" name="IALGO">    38</i>
   <i type="int" name="IWAVPR">    11</i>
   <i type="int" name="NBANDS">    48</i>
   <i type="int" name="NBANDSLOW">    -1</i>
   <i type="int" name="NBANDSHIGH">    -1</i>
   <i name="NELECT">     56.00000000</i>
   <i type="int" name="TURBO">     0</i>
   <i type="int" name="IRESTART">     0</i>
   <i type="int" name="NREBOOT">     0</i>
   <i type="int" name="NMIN">     0</i>
   <i name="EREF">      0.00000000</i>
   <separator name="electronic smearing" >
    <i type="int" name="ISMEAR">     0</i>
    <i name="SIGMA">      0.10000000</i>
    <i name="KSPACING">      0.50000000</i>
    <i type="logical" name="KGAMMA"> T  </i>
    <i type="logical" name="KBLOWUP"> T  </i>
   </separator>
   <separator name="electronic projectors" >
    <i type="logical" name="LREAL"> F  </i>
    <v name="ROPT">      0.00000000      0.00000000</v>
    <i type="int" name="LMAXPAW">  -100</i>
    <i type="int" name="LMAXMIX">     2</i>
    <i type="logical" name="NLSPLINE"> F  </i>
   </separator>
   <separator name="electronic startup" >
    <i type="int" name="ISTART">     0</i>
    <i type="int" name="ICHARG">     2</i>
    <i type="int" name="INIWAV">     1</i>
   </separator>
   <separator name="electronic spin" >
    <i type="int" name="ISPIN">     1</i>
    <i type="logical" name="LNONCOLLINEAR"> F  </i>
    <v name="MAGMOM">      1.00000000      1.00000000      1.00000000      1.00000000      1.00000000      1.00000000      1.00000000      1.00000000      1.00000000      1.00000000      1.00000000      1.00000000      1.00000000      1.00000000      1.00000000      1.00000000</v>
    <i name="NUPDOWN">     -1.00000000</i>
    <i type="logical" name="LSORBIT"> F  </i>
    <v name="SAXIS">      0.00000000      0.00000000      1.00000000</v>
    <i type="logical" name="LSPIRAL"> F  </i>
    <v name="QSPIRAL">      0.00000000      0.00000000      0.00000000</v>
    <i type="logical" name="LZEROZ"> F  </i>
   </separator>
   <separator name="electronic exchange-correlation" >
    <i type="logical" name="LASPH"> F  </i>
    <i type="logical" name="LMETAGGA"> F  </i>
   </separator>
   <separator name="electronic convergence" >
    <i type="int" name="NELM">    64</i>
    <i type="int" name="NELMDL">    -5</i>
    <i type="int" name="NELMIN">     2</i>
    <i name="ENINI">    450.00000000</i>
    <separator name="electronic convergence detail" >
     <i type="logical" name="LDIAG"> T  </i>
     <i type="logical" name="LSUBROT"> F  </i>
     <i name="WEIMIN">      0.00100000</i>
     <i name="EBREAK">      0.00000001</i>
     <i name="DEPER">      0.30000000</i>
     <i type="int" name="NRMM">     4</i>
     <i name="TIME">      0.40000000</i>
    </separator>
   </separator>
   <separator name="electronic mixer" >
    <i name="AMIX">      0.40000000</i>
    <i name="BMIX">      1.00000000</i>
    <i name="AMIN">      0.10000000</i>
    <i name="AMIX_MAG">      1.60000000</i>
    <i name="BMIX_MAG">      1.00000000</i>
    <separator name="electronic mixer details" >
     <i type="int" name="IMIX">     4</i>
     <i type="logical" name="MIXFIRST"> F  </i>
     <i type="int" name="MAXMIX">   -45</i>
     <i name="WC">    100.00000000</i>
     <i type="int" name="INIMIX">     1</i>
     <i type="int" name="MIXPRE">     1</i>
     <i type="int" name="MREMOVE">     5</i>
    </separator>
   </separator>
   <separator name="electronic dipolcorrection" >
    <i type="logical" name="LDIPOL"> F  </i>
    <i type="logical" name="LMONO"> F  </i>
    <i type="int" name="IDIPOL">     0</i>
    <i name="EPSILON">      1.00000000</i>
    <v name="DIPOL">   -100.00000000   -100.00000000   -100.00000000</v>
    <i name="EFIELD">      0.00000000</i>
   </separator>
  </separator>
  <separator name="grids" >
   <i type="int" name="NGX">    36</i>
   <i type="int" name="NGY">    36</i>
   <i type="int" name="NGZ">   108</i>
   <i type="int" name="NGXF">    72</i>
   <i type="int" name="NGYF">    72</i>
   <i type="int" name="NGZF">   216</i>
   <i type="logical" name="ADDGRID"> F  </i>
  </separator>
  <separator name="ionic" >
   <i type="int" name="NSW">   256</i>
   <i type="int" name="IBRION">     2</i>
   <i type="int" name="MDALGO">     0</i>
   <i type="int" name="ISIF">     2</i>
   <i name="PSTRESS">      0.00000000</i>
   <i name="EDIFFG">     -0.00100000</i>
   <i type="int" name="NFREE">     1</i>
   <i name="POTIM">      0.50000000</i>
   <i name="SMASS">     -3.00000000</i>
   <i name="SCALEE">      1.00000000</i>
  </separator>
  <separator name="ionic md" >
   <i name="TEBEG">      0.00010000</i>
   <i name="TEEND">      0.00010000</i>
   <i type="int" name="NBLOCK">     1</i>
   <i type="int" name="KBLOCK">   256</i>
   <i type="int" name="NPACO">   256</i>
   <i name="APACO">     10.00000000</i>
  </separator>
  <separator name="symmetry" >
   <i type="int" name="ISYM">     2</i>
   <i name="SYMPREC">      0.00001000</i>
  </separator>
  <separator name="dos" >
   <i type="int" name="LORBIT">     0</i>
   <v name="RWIGS">     -1.00000000     -1.00000000</v>
   <i type="int" name="NEDOS">   301</i>
   <i name="EMIN">     10.00000000</i>
   <i name="EMAX">    -10.00000000</i>
   <i name="EFERMI">      0.00000000</i>
  </separator>
  <separator name="writing" >
   <i type="int" name="NWRITE">     2</i>
   <i type="logical" name="LWAVE"> F  </i>
   <i type="logical" name="LDOWNSAMPLE"> F  </i>
   <i type="logical" name="LCHARG"> F  </i>
   <i type="logical" name="LPARD"> F  </i>
   <i type="logical" name="LVTOT"> F  </i>
   <i type="logical" name="LVHAR"> F  </i>
   <i type="logical" name="LELF"> F  </i>
   <i type="logical" name="LOPTICS"> F  </i>
   <v name="STM">      0.00000000      0.00000000      0.00000000      0.00000000      0.00000000      0.00000000      0.00000000</v>
  </separator>
  <separator name="performance" >
   <i type="int" name="NPAR">    24</i>
   <i type="int" name="NSIM">     4</i>
   <i type="int" name="NBLK">    -1</i>
   <i type="logical" name="LPLANE"> T  </i>
   <i type="logical" name="LSCALAPACK"> T  </i>
   <i type="logical" name="LSCAAWARE"> F  </i>
   <i type="logical" name="LSCALU"> F  </i>
   <i type="logical" name="LASYNC"> F  </i>
   <i type="logical" name="LORBITALREAL"> F  </i>
  </separator>
  <separator name="miscellaneous" >
   <i type="int" name="IDIOT">     3</i>
   <i type="int" name="PHON_NSTRUCT">    -1</i>
   <i type="logical" name="LMUSIC"> F  </i>
   <v name="POMASS">     10.81100000     12.01100000</v>
   <v name="DARWINR">      0.00000000      0.00000000</v>
   <v name="DARWINV">      1.00000000      1.00000000</v>
   <i type="logical" name="LCORR"> T  </i>
  </separator>
  <i type="logical" name="GGA_COMPAT"> T  </i>
  <i type="logical" name="LBERRY"> F  </i>
  <i type="int" name="ICORELEVEL">     0</i>
  <i type="logical" name="LDAU"> F  </i>
  <i type="int" name="I_CONSTRAINED_M">     0</i>
  <separator name="electronic exchange-correlation" >
   <i type="string" name="GGA">PE</i>
   <i type="int" name="VOSKOWN">     0</i>
   <i type="logical" name="LHFCALC"> F  </i>
   <i type="string" name="PRECFOCK"></i>
   <i type="logical" name="LSYMGRAD"> F  </i>
   <i type="logical" name="LHFONE"> F  </i>
   <i type="logical" name="LRHFCALC"> F  </i>
   <i type="logical" name="LTHOMAS"> F  </i>
   <i type="logical" name="LMODELHF"> F  </i>
   <i type="logical" name="LFOCKACE"> F  </i>
   <i name="ENCUT4O">     -1.00000000</i>
   <i type="int" name="EXXOEP">     0</i>
   <i type="int" name="FOURORBIT">     0</i>
   <i name="AEXX">      0.00000000</i>
   <i name="HFALPHA">      0.00000000</i>
   <i name="MCALPHA">      0.00000000</i>
   <i name="ALDAX">      1.00000000</i>
   <i name="AGGAX">      1.00000000</i>
   <i name="ALDAC">      1.00000000</i>
   <i name="AGGAC">      1.00000000</i>
   <i type="int" name="NKREDX">     1</i>
   <i type="int" name="NKREDY">     1</i>
   <i type="int" name="NKREDZ">     1</i>
   <i type="logical" name="SHIFTRED"> F  </i>
   <i type="logical" name="ODDONLY"> F  </i>
   <i type="logical" name="EVENONLY"> F  </i>
   <i type="int" name="LMAXFOCK">     0</i>
   <i type="int" name="NMAXFOCKAE">     0</i>
   <i type="logical" name="LFOCKAEDFT"> F  </i>
   <i name="HFSCREEN">      0.00000000</i>
   <i name="HFSCREENC">      0.00000000</i>
   <i type="int" name="NBANDSGWLOW">     0</i>
  </separator>
  <separator name="vdW DFT" >
   <i type="logical" name="LUSE_VDW"> F  </i>
   <i name="Zab_VDW">     -0.84910000</i>
   <i name="PARAM1">      0.12340000</i>
   <i name="PARAM2">      1.00000000</i>
   <i name="PARAM3">      0.00000000</i>
  </separator>
  <separator name="model GW" >
   <i type="int" name="MODEL_GW">     0</i>
   <i name="MODEL_EPS0">     12.07639782</i>
   <i name="MODEL_ALPHA">      1.00000000</i>
  </separator>
  <separator name="linear response parameters" >
   <i type="logical" name="LEPSILON"> F  </i>
   <i type="logical" name="LRPA"> F  </i>
   <i type="logical" name="LNABLA"> F  </i>
   <i type="logical" name="LVEL"> F  </i>
   <i name="CSHIFT">      0.10000000</i>
   <i name="OMEGAMAX">     -1.00000000</i>
   <i name="DEG_THRESHOLD">      0.00200000</i>
   <i name="RTIME">     -0.10000000</i>
   <i name="WPLASMAI">      0.00000000</i>
   <v name="DFIELD">      0.00000000      0.00000000      0.00000000</v>
   <v name="WPLASMA">      0.00000000      0.00000000      0.00000000      0.00000000      0.00000000      0.00000000      0.00000000      0.00000000      0.00000000</v>
  </separator>
  <separator name="orbital magnetization" >
   <i type="logical" name="NUCIND"> F  </i>
   <v name="MAGPOS">      0.00000000      0.00000000      0.00000000</v>
   <i type="logical" name="LNICSALL"> T  </i>
   <i type="logical" name="ORBITALMAG"> F  </i>
   <i type="logical" name="LMAGBLOCH"> F  </i>
   <i type="logical" name="LCHIMAG"> F  </i>
   <i type="logical" name="LGAUGE"> T  </i>
   <i type="int" name="MAGATOM">     0</i>
   <v name="MAGDIPOL">      0.00000000      0.00000000      0.00000000</v>
   <v name="AVECCONST">      0.00000000      0.00000000      0.00000000</v>
  </separator>
  <separator name="response functions" >
   <i type="logical" name="LFINITE_TEMPERATURE"> F  </i>
   <i type="logical" name="LADDER"> F  </i>
   <i type="logical" name="LRPAFORCE"> F  </i>
   <i type="logical" name="LFXC"> F  </i>
   <i type="logical" name="LHARTREE"> T  </i>
   <i type="int" name="IBSE">     0</i>
   <v type="int" name="KPOINT">    -1     0     0     0</v>
   <i type="logical" name="LTCTC"> F  </i>
   <i type="logical" name="LTCTE"> F  </i>
   <i type="logical" name="LTETE"> F  </i>
   <i type="logical" name="LTRIPLET"> F  </i>
   <i type="logical" name="LFXCEPS"> F  </i>
   <i type="logical" name="LFXHEG"> F  </i>
   <i type="int" name="NATURALO">     2</i>
   <i type="logical" name="LHOLEGF"> F  </i>
   <i type="logical" name="L2ORDER"> F  </i>
   <i type="logical" name="LDMP1"> F  </i>
   <i type="logical" name="LMP2LT"> F  </i>
   <i type="logical" name="LSMP2LT"> F  </i>
   <i type="logical" name="LGWLF"> F  </i>
   <i name="ENCUTGW">     -2.00000000</i>
   <i name="ENCUTGWSOFT">     -2.00000000</i>
   <i name="ENCUTLF">     -1.00000000</i>
   <i type="logical" name="LESF_SPLINES"> F  </i>
   <i type="int" name="LMAXMP2">    -1</i>
   <i name="SCISSOR">      0.00000000</i>
   <i type="int" name="NOMEGA">     0</i>
   <i type="int" name="NOMEGAR">     0</i>
   <i type="int" name="NBANDSGW">    -1</i>
   <i type="int" name="NBANDSO">    -1</i>
   <i type="int" name="NBANDSV">    -1</i>
   <i type="int" name="NELMGW">     1</i>
   <i type="int" name="NELMHF">     1</i>
   <i type="int" name="DIM">     3</i>
   <i type="int" name="IESPILON">     4</i>
   <i type="int" name="ANTIRES">     0</i>
   <i name="OMEGAMAX">    -30.00000000</i>
   <i name="OMEGAMIN">    -30.00000000</i>
   <i name="OMEGATL">   -200.00000000</i>
   <i type="int" name="OMEGAGRID">     0</i>
   <i name="CSHIFT">     -0.10000000</i>
   <i type="logical" name="LSELFENERGY"> F  </i>
   <i type="logical" name="LSPECTRAL"> F  </i>
   <i type="logical" name="LSPECTRALGW"> F  </i>
   <i type="logical" name="LSINGLES"> F  </i>
   <i type="logical" name="LFERMIGW"> F  </i>
   <i type="logical" name="ODDONLYGW"> F  </i>
   <i type="logical" name="EVENONLYGW"> F  </i>
   <i type="int" name="NKREDLFX">     1</i>
   <i type="int" name="NKREDLFY">     1</i>
   <i type="int" name="NKREDLFZ">     1</i>
   <i type="int" name="MAXMEM">  2800</i>
   <i type="int" name="TELESCOPE">     0</i>
   <i type="int" name="NTAUPAR">    -1</i>
   <i type="int" name="NOMEGAPAR">    -1</i>
   <i name="DAMP_NEWTON">      0.80000001</i>
   <i name="LAMBDA">      1.00000000</i>
  </separator>
  <separator name="External order field" >
   <i name="OFIELD_KAPPA">      0.00000000</i>
   <v name="OFIELD_K">      0.00000000      0.00000000      0.00000000</v>
   <i name="OFIELD_Q6_NEAR">      0.00000000</i>
   <i name="OFIELD_Q6_FAR">      0.00000000</i>
   <i name="OFIELD_A">      0.00000000</i>
  </separator>
  <separator name="optional k-points parameters" >
   <i type="int" name="KPOINTS_OPT_MODE">     1</i>
   <i type="logical" name="LKPOINTS_OPT"> F  </i>
  </separator>
  <separator name="solvation model" >
   <i type="logical" name="LSOL"> F  </i>
  </separator>
 </parameters>
 <atominfo>
  <atoms>      16 </atoms>
  <types>       2 </types>
  <array name="atoms" >
   <dimension dim="1">ion</dimension>
   <field type="string">element</field>
   <field type="int">atomtype</field>
   <set>
    <rc><c>B </c><c>   1</c></rc>
    <rc><c>B </c><c>   1</c></rc>
    <rc><c>B </c><c>   1</c></rc>
    <rc><c>B </c><c>   1</c></rc>
    <rc><c>B </c><c>   1</c></rc>
    <rc><c>B </c><c>   1</c></rc>
    <rc><c>B </c><c>   1</c></rc>
    <rc><c>B </c><c>   1</c></rc>
    <rc><c>C </c><c>   2</c></rc>
    <rc><c>C </c><c>   2</c></rc>
    <rc><c>C </c><c>   2</c></rc>
    <rc><c>C </c><c>   2</c></rc>
    <rc><c>C </c><c>   2</c></rc>
    <rc><c>C </c><c>   2</c></rc>
    <rc><c>C </c><c>   2</c></rc>
    <rc><c>C </c><c>   2</c></rc>
   </set>
  </array>
  <array name="atomtypes" >
   <dimension dim="1">type</dimension>
   <field type="int">atomspertype</field>
   <field type="string">element</field>
   <field>mass</field>
   <field>valence</field>
   <field type="string">pseudopotential</field>
   <set>
    <rc><c>   8</c><c>B </c><c>     10.81100000</c><c>      3.00000000</c><c>  PAW_PBE B 06Sep2000                   </c></rc>
    <rc><c>   8</c><c>C </c><c>     12.01100000</c><c>      4.00000000</c><c>  PAW_PBE C 08Apr2002                   </c></rc>
   </set>
  </array>
 </atominfo>
 <structure name="initialpos" >
  <crystal>
   <varray name="basis" >
    <v>       4.31194049       2.48950000       0.00000000 </v>
    <v>      -4.31194049       2.48950000       0.00000000 </v>
    <v>       0.00000000       0.00000000      15.00000000 </v>
   </varray>
   <i name="volume">    322.03727516 </i>
   <varray name="rec_basis" >
    <v>       0.11595707       0.20084354       0.00000000 </v>
    <v>      -0.11595707       0.20084354       0.00000000 </v>
    <v>       0.00000000       0.00000000       0.06666667 </v>
   </varray>
  </crystal>
  <varray name="positions" >
   <v>       0.66888689       0.00000000       0.10000000 </v>
   <v>       0.33111211       0.00000000       0.10000000 </v>
   <v>       0.00000000       0.33111211       0.10000000 </v>
   <v>       0.00000000       0.66888689       0.10000000 </v>
   <v>       0.33111211       0.33111211       0.10000000 </v>
   <v>       0.66888689       0.66888689       0.10000000 </v>
   <v>       0.66666600       0.33333300       0.09922189 </v>
   <v>       0.33333300       0.66666600       0.10077811 </v>
   <v>       0.24999933       0.24999967       0.33533333 </v>
   <v>       0.41666633       0.08333267       0.33533333 </v>
   <v>       0.24999933       0.74999967       0.33533333 </v>
   <v>       0.41666633       0.58333267       0.33533333 </v>
   <v>       0.74999933       0.24999967       0.33533333 </v>
   <v>       0.91666633       0.08333267       0.33533333 </v>
   <v>       0.74999933       0.74999967       0.33533333 </v>
   <v>       0.91666633       0.58333267       0.33533333 </v>
  </varray>
 </structure>
 <calculation>
  <scstep>
   <time name="dav">    2.65    2.65</time>
   <time name="total">    2.67    2.68</time>
   <energy>
    <i name="alphaZ">     60.47074313 </i>
    <i name="ewald">   4444.15394879 </i>
    <i name="hartreedc">  -5856.65029033 </i>
    <i name="XCdc">    161.37082483 </i>
    <i name="pawpsdc">   1216.17529508 </i>
    <i name="pawaedc">  -1213.88798198 </i>
    <i name="eentropy">     -0.01465775 </i>
    <i name="bandstr">   -310.61163436 </i>
    <i name="atom">   1746.50554237 </i>
    <i name="e_fr_energy">    247.51178980 </i>
    <i name="e_wo_entrp">    247.52644754 </i>
    <i name="e_0_energy">    247.51911867 </i>
   </energy>
  </scstep>
  <scstep>
   <time name="dav">    3.02    3.02</time>
   <time name="total">    3.02    3.02</time>
   <energy>
    <i name="e_fr_energy">   -110.04514728 </i>
    <i name="e_wo_entrp">   -110.03878472 </i>
    <i name="e_0_energy">   -110.04196600 </i>
   </energy>
  </scstep>
  <scstep>
   <time name="dav">    3.52    3.52</time>
   <time name="total">    3.52    3.52</time>
   <energy>
    <i name="e_fr_energy">   -133.36228184 </i>
    <i name="e_wo_entrp">   -133.35748611 </i>
    <i name="e_0_energy">   -133.35988398 </i>
   </energy>
  </scstep>
  <scstep>
   <time name="dav">    3.21    3.21</time>
   <time name="total">    3.21    3.21</time>
   <energy>
    <i name="e_fr_energy">   -133.71627586 </i>
    <i name="e_wo_entrp">   -133.71149059 </i>
    <i name="e_0_energy">   -133.71388323 </i>
   </energy>
  </scstep>
  <scstep>
   <time name="dav">    3.56    3.56</time>
   <time name="total">    3.70    3.70</time>
   <energy>
    <i name="e_fr_energy">   -133.72856555 </i>
    <i name="e_wo_entrp">   -133.72378036 </i>
    <i name="e_0_energy">   -133.72617295 </i>
   </energy>
  </scstep>
  <scstep>
   <time name="dav">    3.20    3.20</time>
   <time name="total">    3.35    3.35</time>
   <energy>
    <i name="e_fr_energy">   -126.81601453 </i>
    <i name="e_wo_entrp">   -126.80854938 </i>
    <i name="e_0_energy">   -126.81228196 </i>
   </energy>
  </scstep>
  <scstep>
   <time name="dav">    3.52    3.52</time>
   <time name="total">    3.67    3.67</time>
   <energy>
    <i name="e_fr_energy">   -124.11883702 </i>
    <i name="e_wo_entrp">   -124.11248437 </i>
    <i name="e_0_energy">   -124.11566070 </i>
   </energy>
  </scstep>
  <scstep>
   <time name="dav">    3.40    3.40</time>
   <time name="total">    3.55    3.55</time>
   <energy>
    <i name="e_fr_energy">   -124.07839126 </i>
    <i name="e_wo_entrp">   -124.07348682 </i>
    <i name="e_0_energy">   -124.07593904 </i>
   </energy>
  </scstep>
  <scstep>
   <time name="dav">    3.21    3.21</time>
   <time name="total">    3.36    3.37</time>
   <energy>
    <i name="e_fr_energy">   -124.06774561 </i>
    <i name="e_wo_entrp">   -124.06281745 </i>
    <i name="e_0_energy">   -124.06528153 </i>
   </energy>
  </scstep>
  <scstep>
   <time name="dav">    3.33    3.33</time>
   <time name="total">    3.49    3.49</time>
   <energy>
    <i name="e_fr_energy">   -124.05268271 </i>
    <i name="e_wo_entrp">   -124.04779519 </i>
    <i name="e_0_energy">   -124.05023895 </i>
   </energy>
  </scstep>
  <scstep>
   <time name="dav">    3.15    3.15</time>
   <time name="total">    3.30    3.30</time>
   <energy>
    <i name="e_fr_energy">   -124.04851262 </i>
    <i name="e_wo_entrp">   -124.04365088 </i>
    <i name="e_0_energy">   -124.04608175 </i>
   </energy>
  </scstep>
  <scstep>
   <time name="dav">    2.75    2.75</time>
   <time name="total">    2.91    2.91</time>
   <energy>
    <i name="e_fr_energy">   -124.04895498 </i>
    <i name="e_wo_entrp">   -124.04409405 </i>
    <i name="e_0_energy">   -124.04652452 </i>
   </energy>
  </scstep>
  <scstep>
   <time name="dav">    3.00    3.00</time>
   <time name="total">    3.15    3.15</time>
   <energy>
    <i name="e_fr_energy">   -124.05113139 </i>
    <i name="e_wo_entrp">   -124.04626024 </i>
    <i name="e_0_energy">   -124.04869582 </i>
   </energy>
  </scstep>
  <scstep>
   <time name="dav">    3.04    3.04</time>
   <time name="total">    3.19    3.19</time>
   <energy>
    <i name="e_fr_energy">   -124.05416814 </i>
    <i name="e_wo_entrp">   -124.04930611 </i>
    <i name="e_0_energy">   -124.05173712 </i>
   </energy>
  </scstep>
  <scstep>
   <time name="dav">    2.89    2.89</time>
   <time name="total">    3.04    3.04</time>
   <energy>
    <i name="e_fr_energy">   -124.05463236 </i>
    <i name="e_wo_entrp">   -124.04977073 </i>
    <i name="e_0_energy">   -124.05220154 </i>
   </energy>
  </scstep>
  <scstep>
   <time name="dav">    2.93    2.93</time>
   <time name="total">    3.08    3.08</time>
   <energy>
    <i name="e_fr_energy">   -124.05485925 </i>
    <i name="e_wo_entrp">   -124.04999512 </i>
    <i name="e_0_energy">   -124.05242719 </i>
   </energy>
  </scstep>
  <scstep>
   <time name="dav">    2.93    2.93</time>
   <time name="total">    3.09    3.09</time>
   <energy>
    <i name="e_fr_energy">   -124.05488801 </i>
    <i name="e_wo_entrp">   -124.05002439 </i>
    <i name="e_0_energy">   -124.05245620 </i>
   </energy>
  </scstep>
  <scstep>
   <time name="dav">    2.52    2.52</time>
   <time name="total">    2.67    2.67</time>
   <energy>
    <i name="e_fr_energy">   -124.05489370 </i>
    <i name="e_wo_entrp">   -124.05003012 </i>
    <i name="e_0_energy">   -124.05246191 </i>
   </energy>
  </scstep>
  <scstep>
   <time name="dav">    2.26    2.26</time>
   <time name="total">    2.40    2.41</time>
   <energy>
    <i name="e_fr_energy">   -124.05489694 </i>
    <i name="e_wo_entrp">   -124.05003342 </i>
    <i name="e_0_energy">   -124.05246518 </i>
   </energy>
  </scstep>
  <scstep>
   <time name="dav">    2.92    2.92</time>
   <time name="total">    2.95    2.95</time>
   <energy>
    <i name="alphaZ">     60.47074313 </i>
    <i name="ewald">   4444.15394879 </i>
    <i name="hartreedc">  -6052.65349726 </i>
    <i name="XCdc">    168.51366968 </i>
    <i name="pawpsdc">   5807.44156172 </i>
    <i name="pawaedc">  -5806.81865388 </i>
    <i name="eentropy">     -0.00486351 </i>
    <i name="bandstr">   -491.66334856 </i>
    <i name="atom">   1746.50554237 </i>
    <i name="e_fr_energy">   -124.05489753 </i>
    <i name="e_wo_entrp">   -124.05003402 </i>
    <i name="e_0_energy">   -124.05246577 </i>
   </energy>
  </scstep>
  <structure>
   <crystal>
    <varray name="basis" >
     <v>       4.31194049       2.48950000       0.00000000 </v>
     <v>      -4.31194049       2.48950000       0.00000000 </v>
     <v>       0.00000000       0.00000000      15.00000000 </v>
    </varray>
    <i name="volume">    322.03727516 </i>
    <varray name="rec_basis" >
     <v>       0.11595707       0.20084354       0.00000000 </v>
     <v>      -0.11595707       0.20084354       0.00000000 </v>
     <v>       0.00000000       0.00000000       0.06666667 </v>
    </varray>
   </crystal>
   <varray name="positions" >
    <v>       0.66888689       0.00000000       0.10000000 </v>
    <v>       0.33111211       0.00000000       0.10000000 </v>
    <v>       0.00000000       0.33111211       0.10000000 </v>
    <v>       0.00000000       0.66888689       0.10000000 </v>
    <v>       0.33111211       0.33111211       0.10000000 </v>
    <v>       0.66888689       0.66888689       0.10000000 </v>
    <v>       0.66666600       0.33333300       0.09922189 </v>
    <v>       0.33333300       0.66666600       0.10077811 </v>
    <v>       0.24999933       0.24999967       0.33533333 </v>
    <v>       0.41666633       0.08333267       0.33533333 </v>
    <v>       0.24999933       0.74999967       0.33533333 </v>
    <v>       0.41666633       0.58333267       0.33533333 </v>
    <v>       0.74999933       0.24999967       0.33533333 </v>
    <v>       0.91666633       0.08333267       0.33533333 </v>
    <v>       0.74999933       0.74999967       0.33533333 </v>
    <v>       0.91666633       0.58333267       0.33533333 </v>
   </varray>
  </structure>
  <varray name="forces" >
   <v>       0.14718929       0.06230721      -0.00628958 </v>
   <v>      -0.11991734      -0.07162625       0.00178842 </v>
   <v>       0.14718929      -0.06230721      -0.00628958 </v>
   <v>      -0.11991734       0.07162625       0.00178842 </v>
   <v>       0.01357049      -0.15788925       0.00219474 </v>
   <v>       0.01357049       0.15788925       0.00219474 </v>
   <v>      -0.03882247       0.00000000      -0.00492148 </v>
   <v>      -0.02936016       0.00000000       0.00377369 </v>
   <v>      -0.00215418       0.00248338      -0.00290085 </v>
   <v>      -0.00486304       0.00382217       0.00620926 </v>
   <v>      -0.00466627       0.00000000      -0.00475683 </v>
   <v>       0.00907010      -0.00000000       0.01205432 </v>
   <v>      -0.00212281       0.00000000       0.00780860 </v>
   <v>      -0.00174883      -0.00000000      -0.01596226 </v>
   <v>      -0.00215418      -0.00248338      -0.00290085 </v>
   <v>      -0.00486304      -0.00382217       0.00620926 </v>
  </varray>
  <varray name="stress" >
   <v>       1.13161771       0.00000000      -0.23673870 </v>
   <v>       0.00000000       1.00457642       0.00000000 </v>
   <v>      -0.23673869       0.00000000      -1.48266740 </v>
  </varray>
  <energy>
   <i name="e_fr_energy">   -125.91153079 </i>
   <i name="e_wo_entrp">   -125.90666727 </i>
   <i name="e_0_energy">   -125.90909903 </i>
  </energy>
  <time name="totalsc">   66.32   66.34</time>
 </calculation>
 <calculation>
  <scstep>
   <time name="dav">    2.59    2.59</time>
   <time name="total">    2.74    2.74</time>
   <energy>
    <i name="alphaZ">     60.47074313 </i>
    <i name="ewald">   4442.58682723 </i>
    <i name="hartreedc">  -6051.70343389 </i>
    <i name="XCdc">    168.48280811 </i>
    <i name="pawpsdc">   5807.43862541 </i>
    <i name="pawaedc">  -5806.81572414 </i>
    <i name="eentropy">     -0.00472168 </i>
    <i name="bandstr">   -491.01829499 </i>
    <i name="atom">   1746.50554237 </i>
    <i name="e_fr_energy">   -124.05762844 </i>
    <i name="e_wo_entrp">   -124.05290677 </i>
    <i name="e_0_energy">   -124.05526761 </i>
   </energy>
  </scstep>
  <scstep>
   <time name="dav">    3.13    3.13</time>
   <time name="total">    3.27    3.27</time>
   <energy>
    <i name="e_fr_energy">   -124.05541886 </i>
    <i name="e_wo_entrp">   -124.05076717 </i>
    <i name="e_0_energy">   -124.05309302 </i>
   </energy>
  </scstep>
  <scstep>
   <time name="dav">    3.12    3.12</time>
   <time name="total">    3.27    3.27</time>
   <energy>
    <i name="e_fr_energy">   -124.05500339 </i>
    <i name="e_wo_entrp">   -124.05037175 </i>
    <i name="e_0_energy">   -124.05268757 </i>
   </energy>
  </scstep>
  <scstep>
   <time name="dav">    3.36    3.36</time>
   <time name="total">    3.51    3.51</time>
   <energy>
    <i name="e_fr_energy">   -124.05498981 </i>
    <i name="e_wo_entrp">   -124.05033786 </i>
    <i name="e_0_energy">   -124.05266384 </i>
   </energy>
  </scstep>
  <scstep>
   <time name="dav">    3.05    3.05</time>
   <time name="total">    3.20    3.20</time>
   <energy>
    <i name="e_fr_energy">   -124.05498927 </i>
    <i name="e_wo_entrp">   -124.05033912 </i>
    <i name="e_0_energy">   -124.05266419 </i>
   </energy>
  </scstep>
  <scstep>
   <time name="dav">    2.96    2.96</time>
   <time name="total">    2.99    2.99</time>
   <energy>
    <i name="alphaZ">     60.47074313 </i>
    <i name="ewald">   4442.58682723 </i>
    <i name="hartreedc">  -6051.28887055 </i>
    <i name="XCdc">    168.47346004 </i>
    <i name="pawpsdc">   5792.88116824 </i>
    <i name="pawaedc">  -5792.25379142 </i>
    <i name="eentropy">     -0.00465019 </i>
    <i name="bandstr">   -491.42541814 </i>
    <i name="atom">   1746.50554237 </i>
    <i name="e_fr_energy">   -124.05498929 </i>
    <i name="e_wo_entrp">   -124.05033909 </i>
    <i name="e_0_energy">   -124.05266419 </i>
   </energy>
  </scstep>
  <structure>
   <crystal>
    <varray name="basis" >
     <v>       4.31194049       2.48950000       0.00000000 </v>
     <v>      -4.31194049       2.48950000       0.00000000 </v>
     <v>       0.00000000       0.00000000      15.00000000 </v>
    </varray>
    <i name="volume">    322.03727516 </i>
    <varray name="rec_basis" >
     <v>       0.11595707       0.20084354       0.00000000 </v>
     <v>      -0.11595707       0.20084354       0.00000000 </v>
     <v>       0.00000000       0.00000000       0.06666667 </v>
    </varray>
   </crystal>
   <varray name="positions" >
    <v>       0.67031398      -0.00021968       0.09997977 </v>
    <v>       0.32974728      -0.00002318       0.10000575 </v>
    <v>       0.00021968       0.32968502       0.09997977 </v>
    <v>       0.00002318       0.67025172       0.10000575 </v>
    <v>       0.32965820       0.32950637       0.10000706 </v>
    <v>       0.67049263       0.67034080       0.10000706 </v>
    <v>       0.66644882       0.33355018       0.09920606 </v>
    <v>       0.33316876       0.66683024       0.10079025 </v>
    <v>       0.25001134       0.25003578       0.33532400 </v>
    <v>       0.41667616       0.08339690       0.33535330 </v>
    <v>       0.24997323       0.75002577       0.33531803 </v>
    <v>       0.41671707       0.58328193       0.33537210 </v>
    <v>       0.74998746       0.25001154       0.33535845 </v>
    <v>       0.91665655       0.08334245       0.33528200 </v>
    <v>       0.74996322       0.74998766       0.33532400 </v>
    <v>       0.91660210       0.58332284       0.33535330 </v>
   </varray>
  </structure>
  <varray name="forces" >
   <v>      -0.13136335      -0.04535639      -0.00606266 </v>
   <v>       0.12533298       0.07235087       0.00132747 </v>
   <v>      -0.13136335       0.04535639      -0.00606266 </v>
   <v>       0.12533298      -0.07235087       0.00132747 </v>
   <v>      -0.01060738       0.14649196       0.00182784 </v>
   <v>      -0.01060738      -0.14649196       0.00182784 </v>
   <v>       0.02500853      -0.00000000      -0.00279193 </v>
   <v>       0.02050488      -0.00000000       0.00205808 </v>
   <v>       0.00124265      -0.00765447       0.00042747 </v>
   <v>       0.00506408      -0.01044848       0.00178534 </v>
   <v>       0.00799835      -0.00000000       0.00376541 </v>
   <v>      -0.03079190      -0.00000000       0.00084159 </v>
   <v>       0.00017064      -0.00000000       0.00166171 </v>
   <v>      -0.00222845       0.00000000      -0.00414578 </v>
   <v>       0.00124265       0.00765447       0.00042747 </v>
   <v>       0.00506408       0.01044848       0.00178534 </v>
  </varray>
  <varray name="stress" >
   <v>      -0.07909056       0.00000000      -0.21385224 </v>
   <v>       0.00000000      -0.31105062       0.00000000 </v>
   <v>      -0.21385223       0.00000000      -1.48557019 </v>
  </varray>
  <energy>
   <i name="e_fr_energy">   -125.91176504 </i>
   <i name="e_wo_entrp">   -125.90711485 </i>
   <i name="e_0_energy">   -125.90943995 </i>
  </energy>
  <time name="totalsc">   21.97   21.98</time>
 </calculation>
 <calculation>
  <scstep>
   <time name="dav">    2.57    2.57</time>
   <time name="total">    2.72    2.72</time>
   <energy>
    <i name="alphaZ">     60.47074313 </i>
    <i name="ewald">   4443.33457876 </i>
    <i name="hartreedc">  -6051.73400065 </i>
    <i name="XCdc">    168.48803216 </i>
    <i name="pawpsdc">   5792.78355994 </i>
    <i name="pawaedc">  -5792.15616148 </i>
    <i name="eentropy">     -0.00466846 </i>
    <i name="bandstr">   -491.74484581 </i>
    <i name="atom">   1746.50554237 </i>
    <i name="e_fr_energy">   -124.05722002 </i>
    <i name="e_wo_entrp">   -124.05255157 </i>
    <i name="e_0_energy">   -124.05488580 </i>
   </energy>
  </scstep>
  <scstep>
   <time name="dav">    3.30    3.30</time>
   <time name="total">    3.45    3.45</time>
   <energy>
    <i name="e_fr_energy">   -124.05671177 </i>
    <i name="e_wo_entrp">   -124.05200201 </i>
    <i name="e_0_energy">   -124.05435689 </i>
   </energy>
  </scstep>
  <scstep>
   <time name="dav">    2.83    2.83</time>
   <time name="total">    2.98    2.98</time>
   <energy>
    <i name="e_fr_energy">   -124.05661579 </i>
    <i name="e_wo_entrp">   -124.05189780 </i>
    <i name="e_0_energy">   -124.05425679 </i>
   </energy>
  </scstep>
  <scstep>
   <time name="dav">    3.04    3.04</time>
   <time name="total">    3.19    3.19</time>
   <energy>
    <i name="e_fr_energy">   -124.05661331 </i>
    <i name="e_wo_entrp">   -124.05190800 </i>
    <i name="e_0_energy">   -124.05426066 </i>
   </energy>
  </scstep>
  <scstep>
   <time name="dav">    2.88    2.88</time>
   <time name="total">    2.90    2.90</time>
   <energy>
    <i name="alphaZ">     60.47074313 </i>
    <i name="ewald">   4443.33457876 </i>
    <i name="hartreedc">  -6051.91531082 </i>
    <i name="XCdc">    168.49237164 </i>
    <i name="pawpsdc">   5799.68004909 </i>
    <i name="pawaedc">  -5799.05474646 </i>
    <i name="eentropy">     -0.00470597 </i>
    <i name="bandstr">   -491.56513532 </i>
    <i name="atom">   1746.50554237 </i>
    <i name="e_fr_energy">   -124.05661359 </i>
    <i name="e_wo_entrp">   -124.05190761 </i>
    <i name="e_0_energy">   -124.05426060 </i>
   </energy>
  </scstep>
  <structure>
   <crystal>
    <varray name="basis" >
     <v>       4.31194049       2.48950000       0.00000000 </v>
     <v>      -4.31194049       2.48950000       0.00000000 </v>
     <v>       0.00000000       0.00000000      15.00000000 </v>
    </varray>
    <i name="volume">    322.03727516 </i>
    <varray name="rec_basis" >
     <v>       0.11595707       0.20084354       0.00000000 </v>
     <v>      -0.11595707       0.20084354       0.00000000 </v>
     <v>       0.00000000       0.00000000       0.06666667 </v>
    </varray>
   </crystal>
   <varray name="positions" >
    <v>       0.66962448      -0.00011354       0.09998954 </v>
    <v>       0.33040670      -0.00001198       0.10000297 </v>
    <v>       0.00011354       0.33037452       0.09998954 </v>
    <v>       0.00001198       0.66959230       0.10000297 </v>
    <v>       0.33036066       0.33028218       0.10000365 </v>
    <v>       0.66971682       0.66963834       0.10000365 </v>
    <v>       0.66655375       0.33344525       0.09921371 </v>
    <v>       0.33324811       0.66675089       0.10078439 </v>
    <v>       0.25000554       0.25001833       0.33532851 </v>
    <v>       0.41667141       0.08336587       0.33534365 </v>
    <v>       0.24998584       0.75001316       0.33532543 </v>
    <v>       0.41669256       0.58330644       0.33535337 </v>
    <v>       0.74999320       0.25000580       0.33534631 </v>
    <v>       0.91666128       0.08333772       0.33530680 </v>
    <v>       0.74998067       0.74999346       0.33532851 </v>
    <v>       0.91663313       0.58332759       0.33534365 </v>
   </varray>
  </structure>
  <varray name="forces" >
   <v>       0.00377252       0.00682866      -0.00620532 </v>
   <v>       0.00620663       0.00250015       0.00153983 </v>
   <v>       0.00377252      -0.00682866      -0.00620532 </v>
   <v>       0.00620663      -0.00250015       0.00153983 </v>
   <v>       0.00103064      -0.00102137       0.00198460 </v>
   <v>       0.00103064       0.00102137       0.00198460 </v>
   <v>      -0.00572893      -0.00000000      -0.00379545 </v>
   <v>      -0.00352792       0.00000000       0.00284836 </v>
   <v>      -0.00037108      -0.00272677      -0.00117377 </v>
   <v>       0.00024863      -0.00355013       0.00394622 </v>
   <v>       0.00186205       0.00000000      -0.00035047 </v>
   <v>      -0.01145640      -0.00000000       0.00629373 </v>
   <v>      -0.00090030       0.00000000       0.00466134 </v>
   <v>      -0.00202319       0.00000000      -0.00984062 </v>
   <v>      -0.00037108       0.00272677      -0.00117377 </v>
   <v>       0.00024863       0.00355013       0.00394622 </v>
  </varray>
  <varray name="stress" >
   <v>       0.46928721       0.00000000      -0.22413241 </v>
   <v>       0.00000000       0.29021461       0.00000000 </v>
   <v>      -0.22413243       0.00000000      -1.47362605 </v>
  </varray>
  <energy>
   <i name="e_fr_energy">   -125.91332131 </i>
   <i name="e_wo_entrp">   -125.90861534 </i>
   <i name="e_0_energy">   -125.91096832 </i>
  </energy>
  <time name="totalsc">   18.22   18.23</time>
 </calculation>
 <calculation>
  <scstep>
   <time name="dav">    2.84    2.84</time>
   <time name="total">    2.99    2.99</time>
   <energy>
    <i name="alphaZ">     60.47074313 </i>
    <i name="ewald">   4443.32842999 </i>
    <i name="hartreedc">  -6051.91146303 </i>
    <i name="XCdc">    168.49219606 </i>
    <i name="pawpsdc">   5799.73759163 </i>
    <i name="pawaedc">  -5799.11228569 </i>
    <i name="eentropy">     -0.00470572 </i>
    <i name="bandstr">   -491.56266178 </i>
    <i name="atom">   1746.50554237 </i>
    <i name="e_fr_energy">   -124.05661305 </i>
    <i name="e_wo_entrp">   -124.05190733 </i>
    <i name="e_0_energy">   -124.05426019 </i>
   </energy>
  </scstep>
  <scstep>
   <time name="dav">    2.84    2.84</time>
   <time name="total">    2.86    2.86</time>
   <energy>
    <i name="alphaZ">     60.47074313 </i>
    <i name="ewald">   4443.32842999 </i>
    <i name="hartreedc">  -6051.91155351 </i>
    <i name="XCdc">    168.49218892 </i>
    <i name="pawpsdc">   5799.72399614 </i>
    <i name="pawaedc">  -5799.09868542 </i>
    <i name="eentropy">     -0.00470527 </i>
    <i name="bandstr">   -491.56256942 </i>
    <i name="atom">   1746.50554237 </i>
    <i name="e_fr_energy">   -124.05661307 </i>
    <i name="e_wo_entrp">   -124.05190780 </i>
    <i name="e_0_energy">   -124.05426043 </i>
   </energy>
  </scstep>
  <structure>
   <crystal>
    <varray name="basis" >
     <v>       4.31194049       2.48950000       0.00000000 </v>
     <v>      -4.31194049       2.48950000       0.00000000 </v>
     <v>       0.00000000       0.00000000      15.00000000 </v>
    </varray>
    <i name="volume">    322.03727516 </i>
    <varray name="rec_basis" >
     <v>       0.11595707       0.20084354       0.00000000 </v>
     <v>      -0.11595707       0.20084354       0.00000000 </v>
     <v>       0.00000000       0.00000000       0.06666667 </v>
    </varray>
   </crystal>
   <varray name="positions" >
    <v>       0.66963009      -0.00011440       0.09998947 </v>
    <v>       0.33040134      -0.00001207       0.10000300 </v>
    <v>       0.00011440       0.33036891       0.09998947 </v>
    <v>       0.00001207       0.66959766       0.10000300 </v>
    <v>       0.33035495       0.33027588       0.10000368 </v>
    <v>       0.66972312       0.66964405       0.10000368 </v>
    <v>       0.66655290       0.33344610       0.09921364 </v>
    <v>       0.33324747       0.66675153       0.10078443 </v>
    <v>       0.25000559       0.25001847       0.33532847 </v>
    <v>       0.41667145       0.08336612       0.33534373 </v>
    <v>       0.24998574       0.75001326       0.33532537 </v>
    <v>       0.41669276       0.58330624       0.33535352 </v>
    <v>       0.74999315       0.25000585       0.33534641 </v>
    <v>       0.91666124       0.08333776       0.33530660 </v>
    <v>       0.74998053       0.74999341       0.33532847 </v>
    <v>       0.91663288       0.58332755       0.33534373 </v>
   </varray>
  </structure>
  <varray name="forces" >
   <v>       0.00197333       0.00612300      -0.00619909 </v>
   <v>       0.00782372       0.00345403       0.00154224 </v>
   <v>       0.00197333      -0.00612300      -0.00619909 </v>
   <v>       0.00782372      -0.00345403       0.00154224 </v>
   <v>       0.00085782       0.00097410       0.00198864 </v>
   <v>       0.00085782      -0.00097410       0.00198864 </v>
   <v>      -0.00533604      -0.00000000      -0.00378987 </v>
   <v>      -0.00321672      -0.00000000       0.00282393 </v>
   <v>      -0.00035216      -0.00277977      -0.00115039 </v>
   <v>       0.00027635      -0.00361424       0.00391891 </v>
   <v>       0.00190906      -0.00000000      -0.00031541 </v>
   <v>      -0.01162412      -0.00000000       0.00623422 </v>
   <v>      -0.00087991      -0.00000000       0.00462085 </v>
   <v>      -0.00201038      -0.00000000      -0.00977432 </v>
   <v>      -0.00035216       0.00277977      -0.00115039 </v>
   <v>       0.00027635       0.00361424       0.00391891 </v>
  </varray>
  <varray name="stress" >
   <v>       0.46868600       0.00000000      -0.22407643 </v>
   <v>       0.00000000       0.28828290       0.00000000 </v>
   <v>      -0.22407643       0.00000000      -1.47272913 </v>
  </varray>
  <energy>
   <i name="e_fr_energy">   -125.91332135 </i>
   <i name="e_wo_entrp">   -125.90861608 </i>
   <i name="e_0_energy">   -125.91096872 </i>
  </energy>
  <time name="totalsc">    8.84    8.85</time>
 </calculation>
 <calculation>
  <scstep>
   <time name="dav">    2.76    2.76</time>
   <time name="total">    2.91    2.91</time>
   <energy>
    <i name="alphaZ">     60.47074313 </i>
    <i name="ewald">   4443.33086587 </i>
    <i name="hartreedc">  -6051.91366351 </i>
    <i name="XCdc">    168.49224289 </i>
    <i name="pawpsdc">   5799.71495771 </i>
    <i name="pawaedc">  -5799.08964389 </i>
    <i name="eentropy">     -0.00470534 </i>
    <i name="bandstr">   -491.56295264 </i>
    <i name="atom">   1746.50554237 </i>
    <i name="e_fr_energy">   -124.05661339 </i>
    <i name="e_wo_entrp">   -124.05190806 </i>
    <i name="e_0_energy">   -124.05426072 </i>
   </energy>
  </scstep>
  <scstep>
   <time name="dav">    2.70    2.70</time>
   <time name="total">    2.72    2.72</time>
   <energy>
    <i name="alphaZ">     60.47074313 </i>
    <i name="ewald">   4443.33086587 </i>
    <i name="hartreedc">  -6051.91456849 </i>
    <i name="XCdc">    168.49226056 </i>
    <i name="pawpsdc">   5799.72299749 </i>
    <i name="pawaedc">  -5799.09768643 </i>
    <i name="eentropy">     -0.00470553 </i>
    <i name="bandstr">   -491.56206238 </i>
    <i name="atom">   1746.50554237 </i>
    <i name="e_fr_energy">   -124.05661341 </i>
    <i name="e_wo_entrp">   -124.05190788 </i>
    <i name="e_0_energy">   -124.05426065 </i>
   </energy>
  </scstep>
  <structure>
   <crystal>
    <varray name="basis" >
     <v>       4.31194049       2.48950000       0.00000000 </v>
     <v>      -4.31194049       2.48950000       0.00000000 </v>
     <v>       0.00000000       0.00000000      15.00000000 </v>
    </varray>
    <i name="volume">    322.03727516 </i>
    <varray name="rec_basis" >
     <v>       0.11595707       0.20084354       0.00000000 </v>
     <v>      -0.11595707       0.20084354       0.00000000 </v>
     <v>       0.00000000       0.00000000       0.06666667 </v>
    </varray>
   </crystal>
   <varray name="positions" >
    <v>       0.66962787      -0.00011406       0.09998950 </v>
    <v>       0.33040346      -0.00001203       0.10000299 </v>
    <v>       0.00011406       0.33037113       0.09998950 </v>
    <v>       0.00001203       0.66959554       0.10000299 </v>
    <v>       0.33035721       0.33027838       0.10000367 </v>
    <v>       0.66972062       0.66964179       0.10000367 </v>
    <v>       0.66655324       0.33344576       0.09921367 </v>
    <v>       0.33324772       0.66675128       0.10078441 </v>
    <v>       0.25000557       0.25001842       0.33532849 </v>
    <v>       0.41667144       0.08336602       0.33534370 </v>
    <v>       0.24998578       0.75001322       0.33532539 </v>
    <v>       0.41669268       0.58330632       0.33535346 </v>
    <v>       0.74999317       0.25000583       0.33534637 </v>
    <v>       0.91666125       0.08333775       0.33530668 </v>
    <v>       0.74998058       0.74999343       0.33532849 </v>
    <v>       0.91663298       0.58332756       0.33534370 </v>
   </varray>
  </structure>
  <varray name="forces" >
   <v>       0.00214577       0.00619269      -0.00619787 </v>
   <v>       0.00767468       0.00337099       0.00154134 </v>
   <v>       0.00214577      -0.00619269      -0.00619787 </v>
   <v>       0.00767468      -0.00337099       0.00154134 </v>
   <v>       0.00086653       0.00078039       0.00198847 </v>
   <v>       0.00086653      -0.00078039       0.00198847 </v>
   <v>      -0.00536569      -0.00000000      -0.00378747 </v>
   <v>      -0.00324828       0.00000000       0.00282408 </v>
   <v>      -0.00036758      -0.00277017      -0.00115471 </v>
   <v>       0.00027544      -0.00360045       0.00392319 </v>
   <v>       0.00190324       0.00000000      -0.00033264 </v>
   <v>      -0.01158538       0.00000000       0.00625049 </v>
   <v>      -0.00087943       0.00000000       0.00463267 </v>
   <v>      -0.00201411       0.00000000      -0.00978795 </v>
   <v>      -0.00036758       0.00277017      -0.00115471 </v>
   <v>       0.00027544       0.00360045       0.00392319 </v>
  </varray>
  <varray name="stress" >
   <v>       0.47037879       0.00000000      -0.22412086 </v>
   <v>       0.00000000       0.29001197       0.00000000 </v>
   <v>      -0.22412087       0.00000000      -1.47000954 </v>
  </varray>
  <energy>
   <i name="e_fr_energy">   -125.91332147 </i>
   <i name="e_wo_entrp">   -125.90861595 </i>
   <i name="e_0_energy">   -125.91096871 </i>
  </energy>
  <time name="totalsc">    8.74    8.75</time>
 </calculation>
 <calculation>
  <scstep>
   <time name="dav">    2.36    2.36</time>
   <time name="total">    2.51    2.51</time>
   <energy>
    <i name="alphaZ">     60.47074313 </i>
    <i name="ewald">   4443.33272226 </i>
    <i name="hartreedc">  -6051.91658583 </i>
    <i name="XCdc">    168.49230946 </i>
    <i name="pawpsdc">   5799.72668945 </i>
    <i name="pawaedc">  -5799.10138057 </i>
    <i name="eentropy">     -0.00470574 </i>
    <i name="bandstr">   -491.56194815 </i>
    <i name="atom">   1746.50554237 </i>
    <i name="e_fr_energy">   -124.05661361 </i>
    <i name="e_wo_entrp">   -124.05190788 </i>
    <i name="e_0_energy">   -124.05426075 </i>
   </energy>
  </scstep>
  <scstep>
   <time name="dav">    3.01    3.01</time>
   <time name="total">    3.03    3.03</time>
   <energy>
    <i name="alphaZ">     60.47074313 </i>
    <i name="ewald">   4443.33272226 </i>
    <i name="hartreedc">  -6051.91719544 </i>
    <i name="XCdc">    168.49232042 </i>
    <i name="pawpsdc">   5799.73537204 </i>
    <i name="pawaedc">  -5799.11006583 </i>
    <i name="eentropy">     -0.00470580 </i>
    <i name="bandstr">   -491.56134678 </i>
    <i name="atom">   1746.50554237 </i>
    <i name="e_fr_energy">   -124.05661362 </i>
    <i name="e_wo_entrp">   -124.05190782 </i>
    <i name="e_0_energy">   -124.05426072 </i>
   </energy>
  </scstep>
  <structure>
   <crystal>
    <varray name="basis" >
     <v>       4.31194049       2.48950000       0.00000000 </v>
     <v>      -4.31194049       2.48950000       0.00000000 </v>
     <v>       0.00000000       0.00000000      15.00000000 </v>
    </varray>
    <i name="volume">    322.03727516 </i>
    <varray name="rec_basis" >
     <v>       0.11595707       0.20084354       0.00000000 </v>
     <v>      -0.11595707       0.20084354       0.00000000 </v>
     <v>       0.00000000       0.00000000       0.06666667 </v>
    </varray>
   </crystal>
   <varray name="positions" >
    <v>       0.66962618      -0.00011380       0.09998952 </v>
    <v>       0.33040508      -0.00001201       0.10000298 </v>
    <v>       0.00011380       0.33037282       0.09998952 </v>
    <v>       0.00001201       0.66959392       0.10000298 </v>
    <v>       0.33035893       0.33028028       0.10000366 </v>
    <v>       0.66971872       0.66964007       0.10000366 </v>
    <v>       0.66655349       0.33344551       0.09921369 </v>
    <v>       0.33324792       0.66675108       0.10078440 </v>
    <v>       0.25000556       0.25001837       0.33532850 </v>
    <v>       0.41667143       0.08336594       0.33534368 </v>
    <v>       0.24998581       0.75001319       0.33532541 </v>
    <v>       0.41669262       0.58330638       0.33535342 </v>
    <v>       0.74999318       0.25000582       0.33534634 </v>
    <v>       0.91666127       0.08333773       0.33530674 </v>
    <v>       0.74998063       0.74999344       0.33532850 </v>
    <v>       0.91663306       0.58332757       0.33534368 </v>
   </varray>
  </structure>
  <varray name="forces" >
   <v>       0.00252392       0.00634095      -0.00619935 </v>
   <v>       0.00734127       0.00317474       0.00154133 </v>
   <v>       0.00252392      -0.00634095      -0.00619935 </v>
   <v>       0.00734127      -0.00317474       0.00154133 </v>
   <v>       0.00089816       0.00036967       0.00198822 </v>
   <v>       0.00089816      -0.00036967       0.00198822 </v>
   <v>      -0.00544893      -0.00000000      -0.00379130 </v>
   <v>      -0.00331033      -0.00000000       0.00282699 </v>
   <v>      -0.00036985      -0.00275520      -0.00115985 </v>
   <v>       0.00025763      -0.00357938       0.00393208 </v>
   <v>       0.00188285      -0.00000000      -0.00034284 </v>
   <v>      -0.01152787      -0.00000000       0.00626902 </v>
   <v>      -0.00088458      -0.00000000       0.00464323 </v>
   <v>      -0.00201340      -0.00000000      -0.00980994 </v>
   <v>      -0.00036985       0.00275520      -0.00115985 </v>
   <v>       0.00025763       0.00357938       0.00393208 </v>
  </varray>
  <varray name="stress" >
   <v>       0.47181478       0.00000000      -0.22414659 </v>
   <v>       0.00000000       0.29161824       0.00000000 </v>
   <v>      -0.22414662       0.00000000      -1.47096475 </v>
  </varray>
  <energy>
   <i name="e_fr_energy">   -125.91332151 </i>
   <i name="e_wo_entrp">   -125.90861571 </i>
   <i name="e_0_energy">   -125.91096861 </i>
  </energy>
  <time name="totalsc">    8.53    8.54</time>
 </calculation>
 <calculation>
  <scstep>
   <time name="dav">    2.28    2.28</time>
   <time name="total">    2.43    2.43</time>
   <energy>
    <i name="alphaZ">     60.47074313 </i>
    <i name="ewald">   4443.33336160 </i>
    <i name="hartreedc">  -6051.91824519 </i>
    <i name="XCdc">    168.49234114 </i>
    <i name="pawpsdc">   5799.74185161 </i>
    <i name="pawaedc">  -5799.11654756 </i>
    <i name="eentropy">     -0.00470586 </i>
    <i name="bandstr">   -491.56095492 </i>
    <i name="atom">   1746.50554237 </i>
    <i name="e_fr_energy">   -124.05661368 </i>
    <i name="e_wo_entrp">   -124.05190783 </i>
    <i name="e_0_energy">   -124.05426076 </i>
   </energy>
  </scstep>
  <scstep>
   <time name="dav">    2.89    2.89</time>
   <time name="total">    2.92    2.92</time>
   <energy>
    <i name="alphaZ">     60.47074313 </i>
    <i name="ewald">   4443.33336160 </i>
    <i name="hartreedc">  -6051.91857168 </i>
    <i name="XCdc">    168.49234543 </i>
    <i name="pawpsdc">   5799.74543098 </i>
    <i name="pawaedc">  -5799.12012798 </i>
    <i name="eentropy">     -0.00470587 </i>
    <i name="bandstr">   -491.56063165 </i>
    <i name="atom">   1746.50554237 </i>
    <i name="e_fr_energy">   -124.05661369 </i>
    <i name="e_wo_entrp">   -124.05190782 </i>
    <i name="e_0_energy">   -124.05426075 </i>
   </energy>
  </scstep>
  <structure>
   <crystal>
    <varray name="basis" >
     <v>       4.31194049       2.48950000       0.00000000 </v>
     <v>      -4.31194049       2.48950000       0.00000000 </v>
     <v>       0.00000000       0.00000000      15.00000000 </v>
    </varray>
    <i name="volume">    322.03727516 </i>
    <varray name="rec_basis" >
     <v>       0.11595707       0.20084354       0.00000000 </v>
     <v>      -0.11595707       0.20084354       0.00000000 </v>
     <v>       0.00000000       0.00000000       0.06666667 </v>
    </varray>
   </crystal>
   <varray name="positions" >
    <v>       0.66962559      -0.00011371       0.09998953 </v>
    <v>       0.33040564      -0.00001200       0.10000298 </v>
    <v>       0.00011371       0.33037341       0.09998953 </v>
    <v>       0.00001200       0.66959336       0.10000298 </v>
    <v>       0.33035953       0.33028094       0.10000365 </v>
    <v>       0.66971806       0.66963947       0.10000365 </v>
    <v>       0.66655358       0.33344542       0.09921369 </v>
    <v>       0.33324798       0.66675102       0.10078440 </v>
    <v>       0.25000555       0.25001836       0.33532850 </v>
    <v>       0.41667142       0.08336592       0.33534367 </v>
    <v>       0.24998582       0.75001318       0.33532541 </v>
    <v>       0.41669260       0.58330640       0.33535340 </v>
    <v>       0.74999319       0.25000581       0.33534633 </v>
    <v>       0.91666127       0.08333773       0.33530676 </v>
    <v>       0.74998064       0.74999345       0.33532850 </v>
    <v>       0.91663308       0.58332758       0.33534367 </v>
   </varray>
  </structure>
  <varray name="forces" >
   <v>       0.00266208       0.00639436      -0.00619917 </v>
   <v>       0.00721740       0.00310237       0.00154179 </v>
   <v>       0.00266208      -0.00639436      -0.00619917 </v>
   <v>       0.00721740      -0.00310237       0.00154179 </v>
   <v>       0.00091036       0.00021684       0.00198837 </v>
   <v>       0.00091036      -0.00021684       0.00198837 </v>
   <v>      -0.00547829       0.00000000      -0.00379181 </v>
   <v>      -0.00333345       0.00000000       0.00282801 </v>
   <v>      -0.00037112      -0.00275240      -0.00116028 </v>
   <v>       0.00025454      -0.00357507       0.00393198 </v>
   <v>       0.00187875       0.00000000      -0.00034470 </v>
   <v>      -0.01151557      -0.00000000       0.00627001 </v>
   <v>      -0.00088457       0.00000000       0.00464306 </v>
   <v>      -0.00201339       0.00000000      -0.00980994 </v>
   <v>      -0.00037112       0.00275240      -0.00116028 </v>
   <v>       0.00025454       0.00357507       0.00393198 </v>
  </varray>
  <varray name="stress" >
   <v>       0.47240593       0.00000000      -0.22415332 </v>
   <v>       0.00000000       0.29228306       0.00000000 </v>
   <v>      -0.22415331       0.00000000      -1.47204668 </v>
  </varray>
  <energy>
   <i name="e_fr_energy">   -125.91332152 </i>
   <i name="e_wo_entrp">   -125.90861565 </i>
   <i name="e_0_energy">   -125.91096859 </i>
  </energy>
  <time name="totalsc">    8.34    8.35</time>
 </calculation>
 <calculation>
  <scstep>
   <time name="dav">    2.58    2.58</time>
   <time name="total">    2.73    2.73</time>
   <energy>
    <i name="alphaZ">     60.47074313 </i>
    <i name="ewald">   4443.21326089 </i>
    <i name="hartreedc">  -6051.79925272 </i>
    <i name="XCdc">    168.49226943 </i>
    <i name="pawpsdc">   5799.74899352 </i>
    <i name="pawaedc">  -5799.12369145 </i>
    <i name="eentropy">     -0.00470668 </i>
    <i name="bandstr">   -491.55980973 </i>
    <i name="atom">   1746.50554237 </i>
    <i name="e_fr_energy">   -124.05665125 </i>
    <i name="e_wo_entrp">   -124.05194457 </i>
    <i name="e_0_energy">   -124.05429791 </i>
   </energy>
  </scstep>
  <scstep>
   <time name="dav">    3.16    3.16</time>
   <time name="total">    3.30    3.30</time>
   <energy>
    <i name="e_fr_energy">   -124.05665023 </i>
    <i name="e_wo_entrp">   -124.05194403 </i>
    <i name="e_0_energy">   -124.05429713 </i>
   </energy>
  </scstep>
  <scstep>
   <time name="dav">    2.92    2.92</time>
   <time name="total">    2.94    2.94</time>
   <energy>
    <i name="alphaZ">     60.47074313 </i>
    <i name="ewald">   4443.21326089 </i>
    <i name="hartreedc">  -6051.79803648 </i>
    <i name="XCdc">    168.49229656 </i>
    <i name="pawpsdc">   5799.72783508 </i>
    <i name="pawaedc">  -5799.10252981 </i>
    <i name="eentropy">     -0.00470614 </i>
    <i name="bandstr">   -491.56105528 </i>
    <i name="atom">   1746.50554237 </i>
    <i name="e_fr_energy">   -124.05664967 </i>
    <i name="e_wo_entrp">   -124.05194354 </i>
    <i name="e_0_energy">   -124.05429661 </i>
   </energy>
  </scstep>
  <structure>
   <crystal>
    <varray name="basis" >
     <v>       4.31194049       2.48950000       0.00000000 </v>
     <v>      -4.31194049       2.48950000       0.00000000 </v>
     <v>       0.00000000       0.00000000      15.00000000 </v>
    </varray>
    <i name="volume">    322.03727516 </i>
    <varray name="rec_basis" >
     <v>       0.11595707       0.20084354       0.00000000 </v>
     <v>      -0.11595707       0.20084354       0.00000000 </v>
     <v>       0.00000000       0.00000000       0.06666667 </v>
    </varray>
   </crystal>
   <varray name="positions" >
    <v>       0.66970201      -0.00007226       0.09997142 </v>
    <v>       0.33046260      -0.00002143       0.10000749 </v>
    <v>       0.00007226       0.33029699       0.09997142 </v>
    <v>       0.00002143       0.66953640       0.10000749 </v>
    <v>       0.33035891       0.33027038       0.10000947 </v>
    <v>       0.66972862       0.66964009       0.10000947 </v>
    <v>       0.66652483       0.33347417       0.09920260 </v>
    <v>       0.33323033       0.66676867       0.10079267 </v>
    <v>       0.24997964       0.24999632       0.33532509 </v>
    <v>       0.41664146       0.08333365       0.33535519 </v>
    <v>       0.24999519       0.75000381       0.33532434 </v>
    <v>       0.41663464       0.58336436       0.33537181 </v>
    <v>       0.74998866       0.25001034       0.33535995 </v>
    <v>       0.91665105       0.08334795       0.33527800 </v>
    <v>       0.75000268       0.75001936       0.33532509 </v>
    <v>       0.91666535       0.58335754       0.33535519 </v>
   </varray>
  </structure>
  <varray name="forces" >
   <v>       0.00172152      -0.00593375      -0.00564646 </v>
   <v>       0.00159133      -0.00110699       0.00151149 </v>
   <v>       0.00172152       0.00593375      -0.00564646 </v>
   <v>       0.00159133       0.00110699       0.00151149 </v>
   <v>       0.00098752       0.00019535       0.00176045 </v>
   <v>       0.00098752      -0.00019535       0.00176045 </v>
   <v>       0.00123985      -0.00000000      -0.00375160 </v>
   <v>       0.00293482       0.00000000       0.00282587 </v>
   <v>      -0.00617974       0.00657069      -0.00019486 </v>
   <v>      -0.00404694       0.00816512       0.00180513 </v>
   <v>      -0.01161274       0.00000000       0.00238952 </v>
   <v>       0.02390149      -0.00000000       0.00178065 </v>
   <v>      -0.00532083       0.00000000       0.00140160 </v>
   <v>       0.00071000       0.00000000      -0.00311756 </v>
   <v>      -0.00617974      -0.00657069      -0.00019486 </v>
   <v>      -0.00404694      -0.00816512       0.00180513 </v>
  </varray>
  <varray name="stress" >
   <v>       0.50577924       0.00000000      -0.22422764 </v>
   <v>       0.00000000       0.25996942       0.00000000 </v>
   <v>      -0.22422765       0.00000000      -1.47836149 </v>
  </varray>
  <energy>
   <i name="e_fr_energy">   -125.91333204 </i>
   <i name="e_wo_entrp">   -125.90862590 </i>
   <i name="e_0_energy">   -125.91097897 </i>
  </energy>
  <time name="totalsc">   11.95   11.96</time>
 </calculation>
 <calculation>
  <scstep>
   <time name="dav">    2.60    2.60</time>
   <time name="total">    2.74    2.74</time>
   <energy>
    <i name="alphaZ">     60.47074313 </i>
    <i name="ewald">   4443.24643446 </i>
    <i name="hartreedc">  -6051.83143495 </i>
    <i name="XCdc">    168.49230967 </i>
    <i name="pawpsdc">   5799.73600733 </i>
    <i name="pawaedc">  -5799.11070107 </i>
    <i name="eentropy">     -0.00470597 </i>
    <i name="bandstr">   -491.56083918 </i>
    <i name="atom">   1746.50554237 </i>
    <i name="e_fr_energy">   -124.05664422 </i>
    <i name="e_wo_entrp">   -124.05193825 </i>
    <i name="e_0_energy">   -124.05429124 </i>
   </energy>
  </scstep>
  <scstep>
   <time name="dav">    2.56    2.56</time>
   <time name="total">    2.59    2.59</time>
   <energy>
    <i name="alphaZ">     60.47074313 </i>
    <i name="ewald">   4443.24643446 </i>
    <i name="hartreedc">  -6051.83204211 </i>
    <i name="XCdc">    168.49230484 </i>
    <i name="pawpsdc">   5799.74151772 </i>
    <i name="pawaedc">  -5799.11621166 </i>
    <i name="eentropy">     -0.00470611 </i>
    <i name="bandstr">   -491.56022684 </i>
    <i name="atom">   1746.50554237 </i>
    <i name="e_fr_energy">   -124.05664420 </i>
    <i name="e_wo_entrp">   -124.05193809 </i>
    <i name="e_0_energy">   -124.05429115 </i>
   </energy>
  </scstep>
  <structure>
   <crystal>
    <varray name="basis" >
     <v>       4.31194049       2.48950000       0.00000000 </v>
     <v>      -4.31194049       2.48950000       0.00000000 </v>
     <v>       0.00000000       0.00000000      15.00000000 </v>
    </varray>
    <i name="volume">    322.03727516 </i>
    <varray name="rec_basis" >
     <v>       0.11595707       0.20084354       0.00000000 </v>
     <v>      -0.11595707       0.20084354       0.00000000 </v>
     <v>       0.00000000       0.00000000       0.06666667 </v>
    </varray>
   </crystal>
   <varray name="positions" >
    <v>       0.66968090      -0.00008371       0.09997642 </v>
    <v>       0.33044687      -0.00001882       0.10000624 </v>
    <v>       0.00008371       0.33031810       0.09997642 </v>
    <v>       0.00001882       0.66955213       0.10000624 </v>
    <v>       0.33035908       0.33027329       0.10000786 </v>
    <v>       0.66972571       0.66963992       0.10000786 </v>
    <v>       0.66653277       0.33346623       0.09920566 </v>
    <v>       0.33323521       0.66676379       0.10079039 </v>
    <v>       0.24998679       0.25000240       0.33532603 </v>
    <v>       0.41664973       0.08334256       0.33535201 </v>
    <v>       0.24999260       0.75000640       0.33532464 </v>
    <v>       0.41665065       0.58334835       0.33536673 </v>
    <v>       0.74998991       0.25000909       0.33535619 </v>
    <v>       0.91665387       0.08334513       0.33528594 </v>
    <v>       0.74999660       0.75001221       0.33532603 </v>
    <v>       0.91665644       0.58334927       0.33535201 </v>
   </varray>
  </structure>
  <varray name="forces" >
   <v>       0.00190146      -0.00265769      -0.00576771 </v>
   <v>       0.00303068       0.00024534       0.00146333 </v>
   <v>       0.00190146       0.00265769      -0.00576771 </v>
   <v>       0.00303068      -0.00024534       0.00146333 </v>
   <v>       0.00071388       0.00007134       0.00178051 </v>
   <v>       0.00071388      -0.00007134       0.00178051 </v>
   <v>      -0.00014153      -0.00000000      -0.00376927 </v>
   <v>       0.00176946      -0.00000000       0.00278658 </v>
   <v>      -0.00474749       0.00377894      -0.00051530 </v>
   <v>      -0.00269868       0.00454449       0.00252644 </v>
   <v>      -0.00786201      -0.00000000       0.00166552 </v>
   <v>       0.01389095      -0.00000000       0.00307879 </v>
   <v>      -0.00387219      -0.00000000       0.00245640 </v>
   <v>      -0.00018437      -0.00000000      -0.00519256 </v>
   <v>      -0.00474749      -0.00377894      -0.00051530 </v>
   <v>      -0.00269868      -0.00454449       0.00252644 </v>
  </varray>
  <varray name="stress" >
   <v>       0.50336548       0.00000000      -0.22458747 </v>
   <v>       0.00000000       0.26284215       0.00000000 </v>
   <v>      -0.22458749       0.00000000      -1.47400691 </v>
  </varray>
  <energy>
   <i name="e_fr_energy">   -125.91333362 </i>
   <i name="e_wo_entrp">   -125.90862751 </i>
   <i name="e_0_energy">   -125.91098057 </i>
  </energy>
  <time name="totalsc">    8.31    8.31</time>
 </calculation>
 <calculation>
  <scstep>
   <time name="dav">    2.57    2.57</time>
   <time name="total">    2.72    2.72</time>
   <energy>
    <i name="alphaZ">     60.47074313 </i>
    <i name="ewald">   4443.11396973 </i>
    <i name="hartreedc">  -6051.69847465 </i>
    <i name="XCdc">    168.49231680 </i>
    <i name="pawpsdc">   5799.74653293 </i>
    <i name="pawaedc">  -5799.12122956 </i>
    <i name="eentropy">     -0.00470631 </i>
    <i name="bandstr">   -491.56137814 </i>
    <i name="atom">   1746.50554237 </i>
    <i name="e_fr_energy">   -124.05668371 </i>
    <i name="e_wo_entrp">   -124.05197740 </i>
    <i name="e_0_energy">   -124.05433055 </i>
   </energy>
  </scstep>
  <scstep>
   <time name="dav">    2.72    2.72</time>
   <time name="total">    2.87    2.87</time>
   <energy>
    <i name="e_fr_energy">   -124.05668375 </i>
    <i name="e_wo_entrp">   -124.05197733 </i>
    <i name="e_0_energy">   -124.05433054 </i>
   </energy>
  </scstep>
  <scstep>
   <time name="dav">    2.48    2.48</time>
   <time name="total">    2.50    2.50</time>
   <energy>
    <i name="alphaZ">     60.47074313 </i>
    <i name="ewald">   4443.11396973 </i>
    <i name="hartreedc">  -6051.69805576 </i>
    <i name="XCdc">    168.49237724 </i>
    <i name="pawpsdc">   5799.78354491 </i>
    <i name="pawaedc">  -5799.15825132 </i>
    <i name="eentropy">     -0.00470647 </i>
    <i name="bandstr">   -491.56184739 </i>
    <i name="atom">   1746.50554237 </i>
    <i name="e_fr_energy">   -124.05668356 </i>
    <i name="e_wo_entrp">   -124.05197709 </i>
    <i name="e_0_energy">   -124.05433032 </i>
   </energy>
  </scstep>
  <structure>
   <crystal>
    <varray name="basis" >
     <v>       4.31194049       2.48950000       0.00000000 </v>
     <v>      -4.31194049       2.48950000       0.00000000 </v>
     <v>       0.00000000       0.00000000      15.00000000 </v>
    </varray>
    <i name="volume">    322.03727516 </i>
    <varray name="rec_basis" >
     <v>       0.11595707       0.20084354       0.00000000 </v>
     <v>      -0.11595707       0.20084354       0.00000000 </v>
     <v>       0.00000000       0.00000000       0.06666667 </v>
    </varray>
   </crystal>
   <varray name="positions" >
    <v>       0.66971193      -0.00008351       0.09995601 </v>
    <v>       0.33048804      -0.00003235       0.10001137 </v>
    <v>       0.00008351       0.33028707       0.09995601 </v>
    <v>       0.00003235       0.66951096       0.10001137 </v>
    <v>       0.33036153       0.33026583       0.10001428 </v>
    <v>       0.66973317       0.66963747       0.10001428 </v>
    <v>       0.66651728       0.33348172       0.09919271 </v>
    <v>       0.33323182       0.66676718       0.10080000 </v>
    <v>       0.24997918       0.25002815       0.33532327 </v>
    <v>       0.41665114       0.08336057       0.33536283 </v>
    <v>       0.24997155       0.75002745       0.33532723 </v>
    <v>       0.41666620       0.58333280       0.33538219 </v>
    <v>       0.74997476       0.25002424       0.33536796 </v>
    <v>       0.91664792       0.08335108       0.33526106 </v>
    <v>       0.74997085       0.75001982       0.33532327 </v>
    <v>       0.91663843       0.58334786       0.33536283 </v>
   </varray>
  </structure>
  <varray name="forces" >
   <v>       0.00040981      -0.00490520      -0.00525931 </v>
   <v>      -0.00150138      -0.00174809       0.00137292 </v>
   <v>       0.00040981       0.00490520      -0.00525931 </v>
   <v>      -0.00150138       0.00174809       0.00137292 </v>
   <v>       0.00265480      -0.00027502       0.00149372 </v>
   <v>       0.00265480       0.00027502       0.00149372 </v>
   <v>       0.00467232       0.00000000      -0.00375776 </v>
   <v>       0.00450701      -0.00000000       0.00281799 </v>
   <v>       0.00177804       0.00003681       0.00033138 </v>
   <v>      -0.00514740       0.00078975       0.00087675 </v>
   <v>       0.00211351       0.00000000       0.00342167 </v>
   <v>      -0.00453541       0.00000000      -0.00045998 </v>
   <v>       0.00120558       0.00000000      -0.00026238 </v>
   <v>      -0.00435076       0.00000000       0.00060953 </v>
   <v>       0.00177804      -0.00003681       0.00033138 </v>
   <v>      -0.00514740      -0.00078975       0.00087675 </v>
  </varray>
  <varray name="stress" >
   <v>       0.48883607       0.00000000      -0.22399810 </v>
   <v>       0.00000000       0.28536647       0.00000000 </v>
   <v>      -0.22399810       0.00000000      -1.47784950 </v>
  </varray>
  <energy>
   <i name="e_fr_energy">   -125.91334338 </i>
   <i name="e_wo_entrp">   -125.90863691 </i>
   <i name="e_0_energy">   -125.91099015 </i>
  </energy>
  <time name="totalsc">   11.06   11.07</time>
 </calculation>
 <calculation>
  <scstep>
   <time name="dav">    3.16    3.16</time>
   <time name="total">    3.31    3.31</time>
   <energy>
    <i name="alphaZ">     60.47074313 </i>
    <i name="ewald">   4443.09529725 </i>
    <i name="hartreedc">  -6051.67971418 </i>
    <i name="XCdc">    168.49237333 </i>
    <i name="pawpsdc">   5799.78792621 </i>
    <i name="pawaedc">  -5799.16263415 </i>
    <i name="eentropy">     -0.00470646 </i>
    <i name="bandstr">   -491.56151545 </i>
    <i name="atom">   1746.50554237 </i>
    <i name="e_fr_energy">   -124.05668795 </i>
    <i name="e_wo_entrp">   -124.05198149 </i>
    <i name="e_0_energy">   -124.05433472 </i>
   </energy>
  </scstep>
  <scstep>
   <time name="dav">    2.80    2.80</time>
   <time name="total">    2.82    2.82</time>
   <energy>
    <i name="alphaZ">     60.47074313 </i>
    <i name="ewald">   4443.09529725 </i>
    <i name="hartreedc">  -6051.67985850 </i>
    <i name="XCdc">    168.49237773 </i>
    <i name="pawpsdc">   5799.78932649 </i>
    <i name="pawaedc">  -5799.16403482 </i>
    <i name="eentropy">     -0.00470646 </i>
    <i name="bandstr">   -491.56137513 </i>
    <i name="atom">   1746.50554237 </i>
    <i name="e_fr_energy">   -124.05668795 </i>
    <i name="e_wo_entrp">   -124.05198149 </i>
    <i name="e_0_energy">   -124.05433472 </i>
   </energy>
  </scstep>
  <structure>
   <crystal>
    <varray name="basis" >
     <v>       4.31194049       2.48950000       0.00000000 </v>
     <v>      -4.31194049       2.48950000       0.00000000 </v>
     <v>       0.00000000       0.00000000      15.00000000 </v>
    </varray>
    <i name="volume">    322.03727516 </i>
    <varray name="rec_basis" >
     <v>       0.11595707       0.20084354       0.00000000 </v>
     <v>      -0.11595707       0.20084354       0.00000000 </v>
     <v>       0.00000000       0.00000000       0.06666667 </v>
    </varray>
   </crystal>
   <varray name="positions" >
    <v>       0.66971630      -0.00008348       0.09995313 </v>
    <v>       0.33049384      -0.00003426       0.10001210 </v>
    <v>       0.00008348       0.33028270       0.09995313 </v>
    <v>       0.00003426       0.66950516       0.10001210 </v>
    <v>       0.33036187       0.33026477       0.10001518 </v>
    <v>       0.66973423       0.66963713       0.10001518 </v>
    <v>       0.66651510       0.33348390       0.09919089 </v>
    <v>       0.33323134       0.66676766       0.10080135 </v>
    <v>       0.24997811       0.25003178       0.33532288 </v>
    <v>       0.41665134       0.08336311       0.33536435 </v>
    <v>       0.24996859       0.75003041       0.33532760 </v>
    <v>       0.41666839       0.58333061       0.33538437 </v>
    <v>       0.74997263       0.25002637       0.33536962 </v>
    <v>       0.91664708       0.08335192       0.33525756 </v>
[...]
       <r>   -7.5450    1.0000 </r>
       <r>   -7.4571    1.0000 </r>
       <r>   -7.3661    1.0000 </r>
       <r>   -7.3419    1.0000 </r>
       <r>   -6.5912    1.0000 </r>
       <r>   -6.2913    1.0000 </r>
       <r>   -6.0911    1.0000 </r>
       <r>   -5.7398    1.0000 </r>
       <r>   -5.2158    1.0000 </r>
       <r>   -4.9114    1.0000 </r>
       <r>   -4.2500    1.0000 </r>
       <r>   -4.0890    1.0000 </r>
       <r>   -3.8286    1.0000 </r>
       <r>   -2.5131    1.0000 </r>
       <r>   -1.1428    1.0000 </r>
       <r>    0.1642    0.0000 </r>
       <r>    2.0328    0.0000 </r>
       <r>    3.2388    0.0000 </r>
       <r>    3.5766    0.0000 </r>
       <r>    4.0134    0.0000 </r>
       <r>    4.6189    0.0000 </r>
       <r>    4.6732    0.0000 </r>
       <r>    4.8171    0.0000 </r>
       <r>    4.8917    0.0000 </r>
       <r>    5.4792    0.0000 </r>
       <r>    5.6113    0.0000 </r>
       <r>    5.6502    0.0000 </r>
       <r>    6.0689    0.0000 </r>
       <r>    6.2771    0.0000 </r>
       <r>    6.5270    0.0000 </r>
       <r>    6.6475    0.0000 </r>
       <r>    6.8778    0.0000 </r>
       <r>    7.1428    0.0000 </r>
       <r>    7.3689    0.0000 </r>
       <r>    7.4226    0.0000 </r>
      </set>
      <set comment="kpoint 43">
       <r>  -17.8157    1.0000 </r>
       <r>  -17.8117    1.0000 </r>
       <r>  -17.8088    1.0000 </r>
       <r>  -14.6664    1.0000 </r>
       <r>  -14.6633    1.0000 </r>
       <r>  -12.9439    1.0000 </r>
       <r>  -12.9433    1.0000 </r>
       <r>  -12.5908    1.0000 </r>
       <r>  -10.7757    1.0000 </r>
       <r>   -9.0197    1.0000 </r>
       <r>   -9.0144    1.0000 </r>
       <r>   -8.1592    1.0000 </r>
       <r>   -8.1569    1.0000 </r>
       <r>   -8.1557    1.0000 </r>
       <r>   -7.6333    1.0000 </r>
       <r>   -7.4734    1.0000 </r>
       <r>   -6.7614    1.0000 </r>
       <r>   -6.7605    1.0000 </r>
       <r>   -6.7596    1.0000 </r>
       <r>   -5.8769    1.0000 </r>
       <r>   -5.7904    1.0000 </r>
       <r>   -5.6820    1.0000 </r>
       <r>   -4.6271    1.0000 </r>
       <r>   -4.5298    1.0000 </r>
       <r>   -3.9283    1.0000 </r>
       <r>   -3.9165    1.0000 </r>
       <r>   -2.6782    1.0000 </r>
       <r>   -0.4875    0.9939 </r>
       <r>   -0.4738    0.9896 </r>
       <r>    2.8001    0.0000 </r>
       <r>    2.8135    0.0000 </r>
       <r>    3.7225    0.0000 </r>
       <r>    3.7270    0.0000 </r>
       <r>    4.3005    0.0000 </r>
       <r>    4.5222    0.0000 </r>
       <r>    5.2928    0.0000 </r>
       <r>    5.3038    0.0000 </r>
       <r>    5.6547    0.0000 </r>
       <r>    5.7509    0.0000 </r>
       <r>    5.7522    0.0000 </r>
       <r>    5.7617    0.0000 </r>
       <r>    6.1477    0.0000 </r>
       <r>    6.1594    0.0000 </r>
       <r>    6.3368    0.0000 </r>
       <r>    6.9104    0.0000 </r>
       <r>    6.9931    0.0000 </r>
       <r>    7.4174    0.0000 </r>
       <r>    7.9100    0.0000 </r>
      </set>
     </set>
    </set>
   </array>
  </eigenvalues>
  <separator name="orbital magnetization" >
   <v name="MAGDIPOLOUT">      0.00000000      0.00000000      0.00000000</v>
  </separator>
  <dos>
   <i name="efermi">     -0.31044167 </i>
   <total>
    <array>
     <dimension dim="1">gridpoints</dimension>
     <dimension dim="2">spin</dimension>
     <field>energy</field>
     <field>total</field>
     <field>integrated</field>
     <set>
      <set comment="spin 1">
       <r>   -21.1318     0.0000     0.0000 </r>
       <r>   -21.0288     0.0000     0.0000 </r>
       <r>   -20.9258     0.0000     0.0000 </r>
       <r>   -20.8227     0.0000     0.0000 </r>
       <r>   -20.7197     0.0000     0.0000 </r>
       <r>   -20.6167     0.0000     0.0000 </r>
       <r>   -20.5137     0.0000     0.0000 </r>
       <r>   -20.4107     0.0000     0.0000 </r>
       <r>   -20.3077     0.0000     0.0000 </r>
       <r>   -20.2046     0.0000     0.0000 </r>
       <r>   -20.1016     0.0000     0.0000 </r>
       <r>   -19.9986     0.0000     0.0000 </r>
       <r>   -19.8956     0.0024     0.0003 </r>
       <r>   -19.7926     0.0796     0.0084 </r>
       <r>   -19.6895     0.5323     0.0633 </r>
       <r>   -19.5865     1.1020     0.1768 </r>
       <r>   -19.4835     1.2197     0.3025 </r>
       <r>   -19.3805     1.3073     0.4371 </r>
       <r>   -19.2775     1.1386     0.5544 </r>
       <r>   -19.1744     1.4280     0.7016 </r>
       <r>   -19.0714     1.1139     0.8163 </r>
       <r>   -18.9684     1.1999     0.9399 </r>
       <r>   -18.8654     1.5678     1.1014 </r>
       <r>   -18.7624     0.9848     1.2029 </r>
       <r>   -18.6594     1.1341     1.3197 </r>
       <r>   -18.5563     1.6306     1.4877 </r>
       <r>   -18.4533     1.3158     1.6233 </r>
       <r>   -18.3503     0.7760     1.7032 </r>
       <r>   -18.2473     1.3568     1.8430 </r>
       <r>   -18.1443     1.7671     2.0250 </r>
       <r>   -18.0412     1.1585     2.1444 </r>
       <r>   -17.9382     0.9542     2.2427 </r>
       <r>   -17.8352     0.9590     2.3415 </r>
       <r>   -17.7322     1.9085     2.5381 </r>
       <r>   -17.6292     1.5677     2.6996 </r>
       <r>   -17.5261     0.8437     2.7865 </r>
       <r>   -17.4231     0.9770     2.8871 </r>
       <r>   -17.3201     1.2074     3.0115 </r>
       <r>   -17.2171     1.8308     3.2001 </r>
       <r>   -17.1141     1.6314     3.3682 </r>
       <r>   -17.0111     1.0893     3.4804 </r>
       <r>   -16.9080     0.5880     3.5410 </r>
       <r>   -16.8050     1.2558     3.6704 </r>
       <r>   -16.7020     1.8559     3.8616 </r>
       <r>   -16.5990     1.6301     4.0295 </r>
       <r>   -16.4960     1.3352     4.1670 </r>
       <r>   -16.3929     1.1329     4.2837 </r>
       <r>   -16.2899     0.6424     4.3499 </r>
       <r>   -16.1869     1.0781     4.4610 </r>
       <r>   -16.0839     2.3638     4.7045 </r>
       <r>   -15.9809     1.7698     4.8868 </r>
       <r>   -15.8778     2.0471     5.0977 </r>
       <r>   -15.7748     2.5166     5.3570 </r>
       <r>   -15.6718     2.6987     5.6350 </r>
       <r>   -15.5688     2.4944     5.8920 </r>
       <r>   -15.4658     3.5362     6.2563 </r>
       <r>   -15.3628     4.1198     6.6807 </r>
       <r>   -15.2597     3.3456     7.0253 </r>
       <r>   -15.1567     3.1611     7.3510 </r>
       <r>   -15.0537     3.6737     7.7295 </r>
       <r>   -14.9507     2.8515     8.0232 </r>
       <r>   -14.8477     2.6228     8.2934 </r>
       <r>   -14.7446     2.8828     8.5904 </r>
       <r>   -14.6416     2.7134     8.8699 </r>
       <r>   -14.5386     2.1362     9.0900 </r>
       <r>   -14.4356     2.1112     9.3075 </r>
       <r>   -14.3326     1.8723     9.5004 </r>
       <r>   -14.2295     2.4897     9.7569 </r>
       <r>   -14.1265     4.2439    10.1941 </r>
       <r>   -14.0235     3.1449    10.5180 </r>
       <r>   -13.9205     1.4794    10.6705 </r>
       <r>   -13.8175     1.3740    10.8120 </r>
       <r>   -13.7145     1.2050    10.9361 </r>
       <r>   -13.6114     1.1168    11.0512 </r>
       <r>   -13.5084     1.9281    11.2498 </r>
       <r>   -13.4054     2.3454    11.4914 </r>
       <r>   -13.3024     1.7086    11.6674 </r>
       <r>   -13.1994     1.5371    11.8258 </r>
       <r>   -13.0963     1.9168    12.0233 </r>
       <r>   -12.9933     2.2066    12.2506 </r>
       <r>   -12.8903     1.6878    12.4245 </r>
       <r>   -12.7873     2.0856    12.6393 </r>
       <r>   -12.6843     2.2421    12.8703 </r>
       <r>   -12.5812     2.6974    13.1482 </r>
       <r>   -12.4782     3.6201    13.5211 </r>
       <r>   -12.3752     2.7609    13.8055 </r>
       <r>   -12.2722     3.5473    14.1710 </r>
       <r>   -12.1692     3.1581    14.4963 </r>
       <r>   -12.0662     3.3250    14.8389 </r>
       <r>   -11.9631     5.1763    15.3721 </r>
       <r>   -11.8601     4.1975    15.8045 </r>
       <r>   -11.7571     3.0541    16.1192 </r>
       <r>   -11.6541     2.8672    16.4145 </r>
       <r>   -11.5511     2.7004    16.6927 </r>
       <r>   -11.4480     2.0734    16.9063 </r>
       <r>   -11.3450     1.1827    17.0282 </r>
       <r>   -11.2420     0.8124    17.1119 </r>
       <r>   -11.1390     1.2796    17.2437 </r>
       <r>   -11.0360     1.4224    17.3902 </r>
       <r>   -10.9329     1.5792    17.5529 </r>
       <r>   -10.8299     1.7966    17.7380 </r>
       <r>   -10.7269     2.3041    17.9753 </r>
       <r>   -10.6239     2.1952    18.2015 </r>
       <r>   -10.5209     3.4314    18.5550 </r>
       <r>   -10.4179     5.4059    19.1119 </r>
       <r>   -10.3148     4.2159    19.5462 </r>
       <r>   -10.2118     1.6461    19.7158 </r>
       <r>   -10.1088     0.9675    19.8155 </r>
       <r>   -10.0058     2.7453    20.0983 </r>
       <r>    -9.9028     4.8200    20.5948 </r>
       <r>    -9.7997     2.6220    20.8649 </r>
       <r>    -9.6967     1.1981    20.9884 </r>
       <r>    -9.5937     1.6976    21.1633 </r>
       <r>    -9.4907     3.4062    21.5142 </r>
       <r>    -9.3877     5.0348    22.0328 </r>
       <r>    -9.2846     4.0064    22.4456 </r>
       <r>    -9.1816     4.5990    22.9194 </r>
       <r>    -9.0786     3.8091    23.3118 </r>
       <r>    -8.9756     2.8752    23.6080 </r>
       <r>    -8.8726     3.8157    24.0011 </r>
       <r>    -8.7696     4.4782    24.4624 </r>
       <r>    -8.6665     3.5820    24.8314 </r>
       <r>    -8.5635     2.4214    25.0809 </r>
       <r>    -8.4605     3.5556    25.4472 </r>
       <r>    -8.3575     5.4458    26.0082 </r>
       <r>    -8.2545     4.0812    26.4286 </r>
       <r>    -8.1514     2.1062    26.6456 </r>
       <r>    -8.0484     3.4960    27.0057 </r>
       <r>    -7.9454     3.6073    27.3774 </r>
       <r>    -7.8424     4.5004    27.8410 </r>
       <r>    -7.7394     6.6193    28.5229 </r>
       <r>    -7.6363     4.7088    29.0080 </r>
       <r>    -7.5333     3.5363    29.3723 </r>
       <r>    -7.4303     3.8349    29.7674 </r>
       <r>    -7.3273     5.1366    30.2965 </r>
       <r>    -7.2243     5.0077    30.8124 </r>
       <r>    -7.1213     3.8179    31.2057 </r>
       <r>    -7.0182     3.7886    31.5960 </r>
       <r>    -6.9152     4.6420    32.0743 </r>
       <r>    -6.8122     6.2594    32.7191 </r>
       <r>    -6.7092     6.5158    33.3903 </r>
       <r>    -6.6062     7.0745    34.1191 </r>
       <r>    -6.5031     6.3748    34.7759 </r>
       <r>    -6.4001     6.7756    35.4739 </r>
       <r>    -6.2971     7.0508    36.2002 </r>
       <r>    -6.1941     5.6954    36.7870 </r>
       <r>    -6.0911     4.3434    37.2344 </r>
       <r>    -5.9881     3.9242    37.6387 </r>
       <r>    -5.8850     4.0700    38.0580 </r>
       <r>    -5.7820     4.1740    38.4880 </r>
       <r>    -5.6790     4.9147    38.9943 </r>
       <r>    -5.5760     3.5238    39.3573 </r>
       <r>    -5.4730     2.1000    39.5736 </r>
       <r>    -5.3699     3.5612    39.9405 </r>
       <r>    -5.2669     4.8890    40.4442 </r>
       <r>    -5.1639     4.3123    40.8884 </r>
       <r>    -5.0609     3.0795    41.2057 </r>
       <r>    -4.9579     3.9551    41.6131 </r>
       <r>    -4.8548     4.7169    42.0990 </r>
       <r>    -4.7518     3.0427    42.4125 </r>
       <r>    -4.6488     2.6025    42.6806 </r>
       <r>    -4.5458     3.5576    43.0471 </r>
       <r>    -4.4428     4.9425    43.5563 </r>
       <r>    -4.3398     4.6022    44.0304 </r>
       <r>    -4.2367     4.3931    44.4830 </r>
       <r>    -4.1337     4.9798    44.9960 </r>
       <r>    -4.0307     5.1130    45.5227 </r>
       <r>    -3.9277     5.6650    46.1063 </r>
       <r>    -3.8247     6.3045    46.7558 </r>
       <r>    -3.7216     7.1651    47.4939 </r>
       <r>    -3.6186     7.3523    48.2514 </r>
       <r>    -3.5156     5.7791    48.8467 </r>
       <r>    -3.4126     3.7092    49.2288 </r>
       <r>    -3.3096     3.2509    49.5637 </r>
       <r>    -3.2065     3.5056    49.9249 </r>
       <r>    -3.1035     2.9517    50.2290 </r>
       <r>    -3.0005     3.4214    50.5814 </r>
       <r>    -2.8975     3.9482    50.9882 </r>
       <r>    -2.7945     2.8921    51.2861 </r>
       <r>    -2.6915     2.1059    51.5031 </r>
       <r>    -2.5884     2.4756    51.7581 </r>
       <r>    -2.4854     4.6377    52.2359 </r>
       <r>    -2.3824     4.2442    52.6731 </r>
       <r>    -2.2794     1.7158    52.8499 </r>
       <r>    -2.1764     1.8034    53.0356 </r>
       <r>    -2.0733     2.4445    53.2875 </r>
       <r>    -1.9703     2.2898    53.5234 </r>
       <r>    -1.8673     2.3773    53.7683 </r>
       <r>    -1.7643     2.3556    54.0109 </r>
       <r>    -1.6613     1.6692    54.1829 </r>
       <r>    -1.5582     1.7398    54.3621 </r>
       <r>    -1.4552     2.6548    54.6356 </r>
       <r>    -1.3522     1.7441    54.8153 </r>
       <r>    -1.2492     1.2165    54.9406 </r>
       <r>    -1.1462     1.9288    55.1393 </r>
       <r>    -1.0432     1.6289    55.3071 </r>
       <r>    -0.9401     1.6317    55.4752 </r>
       <r>    -0.8371     1.3598    55.6153 </r>
       <r>    -0.7341     0.6131    55.6785 </r>
       <r>    -0.6311     0.3210    55.7116 </r>
       <r>    -0.5281     0.8901    55.8033 </r>
       <r>    -0.4250     1.0839    55.9149 </r>
       <r>    -0.3220     0.7557    55.9928 </r>
       <r>    -0.2190     0.5128    56.0456 </r>
       <r>    -0.1160     0.6712    56.1147 </r>
       <r>    -0.0130     0.8532    56.2026 </r>
       <r>     0.0901     0.8633    56.2916 </r>
       <r>     0.1931     1.6005    56.4565 </r>
       <r>     0.2961     2.0119    56.6637 </r>
       <r>     0.3991     2.5922    56.9308 </r>
       <r>     0.5021     2.5778    57.1963 </r>
       <r>     0.6051     2.0598    57.4085 </r>
       <r>     0.7082     1.4883    57.5618 </r>
       <r>     0.8112     2.6363    57.8334 </r>
       <r>     0.9142     2.5808    58.0993 </r>
       <r>     1.0172     1.7623    58.2808 </r>
       <r>     1.1202     2.4074    58.5288 </r>
       <r>     1.2233     4.1418    58.9555 </r>
       <r>     1.3263     4.5626    59.4256 </r>
       <r>     1.4293     3.5258    59.7888 </r>
       <r>     1.5323     2.3227    60.0281 </r>
       <r>     1.6353     1.5697    60.1898 </r>
       <r>     1.7384     1.9378    60.3894 </r>
       <r>     1.8414     2.7392    60.6716 </r>
       <r>     1.9444     2.7025    60.9500 </r>
       <r>     2.0474     3.3849    61.2987 </r>
       <r>     2.1504     3.0786    61.6159 </r>
       <r>     2.2534     2.9094    61.9156 </r>
       <r>     2.3565     2.0042    62.1220 </r>
       <r>     2.4595     1.2023    62.2459 </r>
       <r>     2.5625     2.8964    62.5443 </r>
       <r>     2.6655     3.8454    62.9404 </r>
       <r>     2.7685     3.3224    63.2827 </r>
       <r>     2.8716     3.2737    63.6199 </r>
       <r>     2.9746     2.2224    63.8489 </r>
       <r>     3.0776     2.7323    64.1304 </r>
       <r>     3.1806     4.1811    64.5611 </r>
       <r>     3.2836     4.7898    65.0545 </r>
       <r>     3.3867     4.7371    65.5425 </r>
       <r>     3.4897     3.5997    65.9134 </r>
       <r>     3.5927     5.0790    66.4366 </r>
       <r>     3.6957     5.7030    67.0241 </r>
       <r>     3.7987     5.1082    67.5504 </r>
       <r>     3.9017     4.8661    68.0517 </r>
       <r>     4.0048     4.5160    68.5169 </r>
       <r>     4.1078     4.6022    68.9910 </r>
       <r>     4.2108     5.9211    69.6010 </r>
       <r>     4.3138     6.8113    70.3027 </r>
       <r>     4.4168     5.7266    70.8926 </r>
       <r>     4.5199     4.1789    71.3231 </r>
       <r>     4.6229     6.4405    71.9866 </r>
       <r>     4.7259     7.4055    72.7495 </r>
       <r>     4.8289     4.8326    73.2474 </r>
       <r>     4.9319     5.4251    73.8063 </r>
       <r>     5.0350     7.1125    74.5390 </r>
       <r>     5.1380     8.2181    75.3856 </r>
       <r>     5.2410     7.5640    76.1648 </r>
       <r>     5.3440     6.7877    76.8641 </r>
       <r>     5.4470     5.3345    77.4136 </r>
       <r>     5.5500     6.4712    78.0803 </r>
       <r>     5.6531     7.6158    78.8649 </r>
       <r>     5.7561     6.5445    79.5391 </r>
       <r>     5.8591     5.7202    80.1284 </r>
       <r>     5.9621     4.5669    80.5988 </r>
       <r>     6.0651     5.9661    81.2135 </r>
       <r>     6.1682     6.0979    81.8417 </r>
       <r>     6.2712     4.5225    82.3076 </r>
       <r>     6.3742     5.1645    82.8396 </r>
       <r>     6.4772     5.6154    83.4181 </r>
       <r>     6.5802     6.2613    84.0631 </r>
       <r>     6.6833     7.3446    84.8198 </r>
       <r>     6.7863     7.8425    85.6277 </r>
       <r>     6.8893     7.7922    86.4304 </r>
       <r>     6.9923     6.7718    87.1280 </r>
       <r>     7.0953     6.1298    87.7595 </r>
       <r>     7.1983     7.5594    88.5383 </r>
       <r>     7.3014     8.5532    89.4194 </r>
       <r>     7.4044    10.8810    90.5404 </r>
       <r>     7.5074    10.3905    91.6108 </r>
       <r>     7.6104     7.3019    92.3630 </r>
       <r>     7.7134     8.1702    93.2047 </r>
       <r>     7.8165     9.1648    94.1489 </r>
       <r>     7.9195     7.2046    94.8911 </r>
       <r>     8.0225     4.9451    95.4005 </r>
       <r>     8.1255     4.0024    95.8128 </r>
       <r>     8.2285     1.5442    95.9719 </r>
       <r>     8.3316     0.1759    95.9900 </r>
       <r>     8.4346     0.0730    95.9975 </r>
       <r>     8.5376     0.0227    95.9999 </r>
       <r>     8.6406     0.0011    96.0000 </r>
       <r>     8.7436     0.0000    96.0000 </r>
       <r>     8.8466     0.0000    96.0000 </r>
       <r>     8.9497     0.0000    96.0000 </r>
       <r>     9.0527     0.0000    96.0000 </r>
       <r>     9.1557     0.0000    96.0000 </r>
       <r>     9.2587     0.0000    96.0000 </r>
       <r>     9.3617     0.0000    96.0000 </r>
       <r>     9.4648     0.0000    96.0000 </r>
       <r>     9.5678     0.0000    96.0000 </r>
       <r>     9.6708     0.0000    96.0000 </r>
       <r>     9.7738     0.0000    96.0000 </r>
      </set>
     </set>
    </array>
   </total>
  </dos>
 </calculation>
 <structure name="finalpos" >
  <crystal>
   <varray name="basis" >
    <v>       4.31194049       2.48950000       0.00000000 </v>
    <v>      -4.31194049       2.48950000       0.00000000 </v>
    <v>       0.00000000       0.00000000      15.00000000 </v>
   </varray>
   <i name="volume">    322.03727516 </i>
   <varray name="rec_basis" >
    <v>       0.11595707       0.20084354       0.00000000 </v>
    <v>      -0.11595707       0.20084354       0.00000000 </v>
    <v>       0.00000000       0.00000000       0.06666667 </v>
   </varray>
  </crystal>
  <varray name="positions" >
   <v>       0.69956616      -0.03096941       0.10134344 </v>
   <v>       0.36249102      -0.03090714       0.10150507 </v>
   <v>       0.03096941       0.30043284       0.10134344 </v>
   <v>       0.03090714       0.63750798       0.10150507 </v>
   <v>       0.36244870       0.30055952       0.10076808 </v>
   <v>       0.69943948       0.63755030       0.10076808 </v>
   <v>       0.69745536       0.30254364       0.08829214 </v>
   <v>       0.36406411       0.63593489       0.11399410 </v>
   <v>       0.21908434       0.28089954       0.33417175 </v>
   <v>       0.38575897       0.11427372       0.33410516 </v>
   <v>       0.21906138       0.78093762       0.33423945 </v>
   <v>       0.38576578       0.61423322       0.33422616 </v>
   <v>       0.71906832       0.28093068       0.33408364 </v>
   <v>       0.88575474       0.11424426       0.33404420 </v>
   <v>       0.71909946       0.78091466       0.33417175 </v>
   <v>       0.88572528       0.61424003       0.33410516 </v>
  </varray>
 </structure>
</modeling>
