Lattice                                 
           1
     4.191563    2.420000    0.000000
    -4.191563    2.420000    0.000000
     0.000000    0.000000   15.000000
   B    C 
     4    11
Direct configuration=     1
   0.00415361  0.00267210  0.12034134
   0.35695335  0.00285503  0.09748893
   0.00423858  0.35550699  0.09749256
   0.65142295  0.65006557  0.09747688
   0.32808646  0.32671938  0.10030508
   0.68027775  0.00278085  0.10027562
   0.00416530  0.67883808  0.10026559
   0.08333267  0.41666633  0.33646667
   0.24999967  0.24999933  0.33646667
   0.08333267  0.91666633  0.33646667
   0.24999967  0.74999933  0.33646667
   0.58333267  0.41666633  0.33646667
   0.74999967  0.24999933  0.33646667
   0.58333267  0.91666633  0.33646667
   0.74999967  0.74999933  0.33646667
Direct configuration=     2
   0.00414324  0.00267210  0.11916067
   0.35573409  0.00282913  0.09780431
   0.00413867  0.35449220  0.09786529
   0.65256115  0.65104407  0.09783614
   0.32489900  0.32329902  0.10029980
   0.68384165  0.00285624  0.10032450
   0.00417283  0.68207087  0.10027608
   0.08331748  0.41677927  0.33646285
   0.25017813  0.25026458  0.33655929
   0.08349789  0.91679441  0.33645083
   0.25029783  0.74995646  0.33643599
   0.58328442  0.41664526  0.33642129
   0.74993303  0.25000213  0.33646115
   0.58309135  0.91661677  0.33653630
   0.74953658  0.74977816  0.33648484
Direct configuration=     3
   0.00414858  0.00267210  0.11976908
   0.35636239  0.00284248  0.09764179
   0.00419015  0.35501513  0.09767322
   0.65197462  0.65053984  0.09765101
   0.32654154  0.32506157  0.10030252
   0.68200513  0.00281739  0.10029931
   0.00416895  0.68040497  0.10027067
   0.08332531  0.41672107  0.33646481
   0.25008617  0.25012789  0.33651156
   0.08341275  0.91672841  0.33645899
   0.25014418  0.74997855  0.33645180
   0.58330928  0.41665612  0.33644467
   0.74996737  0.25000069  0.33646399
   0.58321570  0.91664231  0.33650042
   0.74977521  0.74989213  0.33647548
Direct configuration=     4
   0.00414890  0.00269784  0.11873668
   0.35682960  0.00280738  0.09793629
   0.00415765  0.35545022  0.09802517
   0.65160766  0.65000175  0.09798860
   0.32668218  0.32503206  0.10026679
   0.68199944  0.00285331  0.10031497
   0.00418198  0.68031410  0.10024987
   0.08328512  0.41665734  0.33646733
   0.24988865  0.24998675  0.33658531
   0.08321692  0.91664328  0.33645610
   0.24983748  0.75006155  0.33642685
   0.58331756  0.41667883  0.33641528
   0.74996873  0.25002926  0.33645845
   0.58339962  0.91675241  0.33656115
   0.75010586  0.75013458  0.33649048
Direct configuration=     5
   0.00414970  0.00276336  0.11610894
   0.35801876  0.00271805  0.09868588
   0.00407492  0.35655763  0.09892097
   0.65067365  0.64863216  0.09884786
   0.32704015  0.32495694  0.10017584
   0.68198495  0.00294473  0.10035482
   0.00421515  0.68008279  0.10019692
   0.08318285  0.41649514  0.33647373
   0.24938593  0.24962752  0.33677303
   0.08271847  0.91642660  0.33644874
   0.24905683  0.75027280  0.33636335
   0.58333862  0.41673664  0.33634047
   0.74997218  0.25010197  0.33644435
   0.58386773  0.91703265  0.33671575
   0.75094744  0.75075169  0.33652867
Direct configuration=     6
   0.00415334  0.00276759  0.11581428
   0.35812945  0.00270763  0.09875748
   0.00407727  0.35665105  0.09900573
   0.65059155  0.64851189  0.09892928
   0.32711221  0.32499716  0.10018070
   0.68193417  0.00294189  0.10037214
   0.00422192  0.68002128  0.10020555
   0.08318260  0.41654469  0.33647556
   0.24944492  0.24968395  0.33678640
   0.08278122  0.91649483  0.33645090
   0.24916468  0.75025878  0.33636014
   0.58331187  0.41675422  0.33633768
   0.74995942  0.25010646  0.33644390
   0.58376598  0.91699769  0.33672753
   0.75079673  0.75066153  0.33653206
Direct configuration=     7
   0.00416429  0.00278028  0.11493028
   0.35846152  0.00267640  0.09897227
   0.00408432  0.35693131  0.09926001
   0.65034527  0.64815108  0.09917355
   0.32732840  0.32511783  0.10019529
   0.68178184  0.00293337  0.10042409
   0.00424221  0.67983676  0.10023142
   0.08318187  0.41669337  0.33648107
   0.24962186  0.24985327  0.33682649
   0.08296946  0.91669954  0.33645738
   0.24948821  0.75021674  0.33635052
   0.58323160  0.41680695  0.33632931
   0.74992114  0.25011993  0.33644254
   0.58346075  0.91689280  0.33676288
   0.75034459  0.75039105  0.33654223
Direct configuration=     8
   0.00418617  0.00280566  0.11316229
   0.35912566  0.00261392  0.09940187
   0.00409841  0.35749183  0.09976856
   0.64985270  0.64742947  0.09966207
   0.32776078  0.32535916  0.10022446
   0.68147717  0.00291633  0.10052800
   0.00428280  0.67946770  0.10028316
   0.08318039  0.41699073  0.33649207
   0.24997575  0.25019190  0.33690667
   0.08334594  0.91710895  0.33647035
   0.25013529  0.75013264  0.33633127
   0.58307108  0.41691240  0.33631257
   0.74984457  0.25014686  0.33643982
   0.58285029  0.91668303  0.33683358
   0.74944032  0.74985009  0.33656258
Direct configuration=     9
   0.00420488  0.00279284  0.11270715
   0.35912323  0.00259728  0.09946812
   0.00413730  0.35745810  0.09984098
   0.64988189  0.64744322  0.09973273
   0.32782288  0.32542737  0.10028859
   0.68140817  0.00286942  0.10060133
   0.00430480  0.67940413  0.10035024
   0.08317441  0.41696889  0.33649830
   0.24997360  0.25029687  0.33689883
   0.08332635  0.91704460  0.33648301
   0.25011195  0.75015564  0.33634213
   0.58307561  0.41685929  0.33632841
   0.74979667  0.25016312  0.33644443
   0.58287550  0.91671251  0.33682972
   0.74941008  0.74990737  0.33656538
Direct configuration=    10
   0.00426102  0.00275439  0.11134173
   0.35911595  0.00254737  0.09966686
   0.00425398  0.35735692  0.10005821
   0.64996948  0.64748447  0.09994470
   0.32800917  0.32563200  0.10048099
   0.68120118  0.00272869  0.10082130
   0.00437081  0.67921342  0.10055147
   0.08315646  0.41690336  0.33651700
   0.24996715  0.25061179  0.33687529
   0.08326756  0.91685158  0.33652098
   0.25004191  0.75022465  0.33637471
   0.58308919  0.41669995  0.33637592
   0.74965298  0.25021190  0.33645824
   0.58295113  0.91680097  0.33681813
   0.74931935  0.75007922  0.33657380
Direct configuration=    11
   0.00437331  0.00267748  0.10861089
   0.35910137  0.00244755  0.10006434
   0.00448734  0.35715456  0.10049269
   0.65014466  0.64756696  0.10036863
   0.32838176  0.32604127  0.10086580
   0.68078719  0.00244722  0.10126125
   0.00450283  0.67883200  0.10095392
   0.08312057  0.41677230  0.33655438
   0.24995426  0.25124163  0.33682823
   0.08315000  0.91646553  0.33659693
   0.24990184  0.75036267  0.33643989
   0.58311634  0.41638127  0.33647093
   0.74936558  0.25030944  0.33648588
   0.58310238  0.91697788  0.33679495
   0.74913790  0.75042291  0.33659062
Direct configuration=    12
   0.00439797  0.00265359  0.10809857
   0.35909660  0.00243001  0.10013779
   0.00453103  0.35712615  0.10056624
   0.65016864  0.64758686  0.10044215
   0.32842536  0.32609255  0.10094462
   0.68074614  0.00239711  0.10134508
   0.00452902  0.67877323  0.10103478
   0.08307167  0.41681668  0.33656074
   0.24989434  0.25109280  0.33681487
   0.08309766  0.91655428  0.33661146
   0.24984716  0.75034895  0.33645770
   0.58309159  0.41648872  0.33649157
   0.74940730  0.25029803  0.33649437
   0.58309213  0.91702438  0.33678442
   0.74923071  0.75041734  0.33659497
Direct configuration=    13
   0.00447196  0.00258190  0.10656161
   0.35908230  0.00237737  0.10035814
   0.00466212  0.35704091  0.10078691
   0.65024059  0.64764656  0.10066272
   0.32855617  0.32624640  0.10118108
   0.68062299  0.00224677  0.10159656
   0.00460758  0.67859694  0.10127736
   0.08292495  0.41694981  0.33657982
   0.24971461  0.25064629  0.33677480
   0.08294065  0.91682052  0.33665504
   0.24968311  0.75030780  0.33651114
   0.58301732  0.41681107  0.33655349
   0.74953246  0.25026380  0.33651982
   0.58306137  0.91716388  0.33675283
   0.74950914  0.75040063  0.33660803
Direct configuration=    14
   0.00450683  0.00254812  0.10583728
   0.35907555  0.00235256  0.10046198
   0.00472390  0.35700074  0.10089091
   0.65027450  0.64767470  0.10076667
   0.32861782  0.32631891  0.10129251
   0.68056495  0.00217592  0.10171507
   0.00464460  0.67851386  0.10139168
   0.08285581  0.41701255  0.33658881
   0.24962990  0.25043586  0.33675591
   0.08286666  0.91694600  0.33667558
   0.24960580  0.75028841  0.33653632
   0.58298232  0.41696299  0.33658267
   0.74959144  0.25024767  0.33653182
   0.58304688  0.91722962  0.33673794
   0.74964036  0.75039275  0.33661418
Direct configuration=    15
   0.00451276  0.00253087  0.10577156
   0.35913283  0.00235329  0.10048978
   0.00471396  0.35706360  0.10090603
   0.65020961  0.64762212  0.10078553
   0.32857271  0.32625288  0.10129426
   0.68064719  0.00219686  0.10170654
   0.00464493  0.67854136  0.10139149
   0.08289108  0.41702089  0.33658755
   0.24961541  0.25038507  0.33675489
   0.08291755  0.91701323  0.33667376
   0.24963132  0.75033079  0.33654523
   0.58295763  0.41699977  0.33658395
   0.74960059  0.25030165  0.33653867
   0.58297645  0.91712409  0.33673136
   0.74960332  0.75036420  0.33661873
Direct configuration=    16
   0.00452868  0.00248460  0.10559524
   0.35928650  0.00235525  0.10056435
   0.00468729  0.35723224  0.10094661
   0.65003551  0.64748108  0.10083613
   0.32845170  0.32607572  0.10129896
   0.68086782  0.00225304  0.10168363
   0.00464582  0.67861514  0.10139098
   0.08298571  0.41704327  0.33658418
   0.24957651  0.25024879  0.33675216
   0.08305409  0.91719361  0.33666885
   0.24969978  0.75044449  0.33656915
   0.58289136  0.41709845  0.33658738
   0.74962514  0.25044647  0.33655705
   0.58278748  0.91684094  0.33671372
   0.74950393  0.75028759  0.33663095
Direct configuration=    17
   0.00453714  0.00245690  0.10553352
   0.35940243  0.00235751  0.10061145
   0.00466520  0.35732433  0.10096689
   0.64991947  0.64738283  0.10086416
   0.32839990  0.32598513  0.10129168
   0.68097620  0.00229695  0.10165268
   0.00464268  0.67865678  0.10137915
   0.08298564  0.41704675  0.33658304
   0.24959044  0.25030959  0.33675135
   0.08302056  0.91714732  0.33666485
   0.24967535  0.75043383  0.33658172
   0.58288412  0.41707066  0.33658839
   0.74959600  0.25042211  0.33656743
   0.58281799  0.91689425  0.33670563
   0.74951420  0.75031572  0.33663740
Direct configuration=    18
   0.00455542  0.00239710  0.10540024
   0.35965274  0.00236237  0.10071313
   0.00461751  0.35752317  0.10101066
   0.64966890  0.64717070  0.10092469
   0.32828804  0.32578952  0.10127597
   0.68121021  0.00239176  0.10158585
   0.00463590  0.67874669  0.10135361
   0.08298549  0.41705427  0.33658060
   0.24962053  0.25044088  0.33674959
   0.08294817  0.91704737  0.33665623
   0.24962259  0.75041081  0.33660885
   0.58286849  0.41701066  0.33659058
   0.74953309  0.25036954  0.33658986
   0.58288387  0.91700936  0.33668816
   0.74953637  0.75037646  0.33665132
Direct configuration=    19
   0.00456444  0.00238250  0.10536190
   0.35970443  0.00236326  0.10074829
   0.00461079  0.35750247  0.10102053
   0.64964542  0.64714575  0.10094168
   0.32832713  0.32581018  0.10127271
   0.68118394  0.00240917  0.10155714
   0.00463361  0.67873003  0.10134566
   0.08291055  0.41705719  0.33658532
   0.24959364  0.25040177  0.33674741
   0.08293309  0.91707966  0.33665749
   0.24962780  0.75038930  0.33661179
   0.58290130  0.41703814  0.33659464
   0.74956461  0.25036212  0.33659281
   0.58289193  0.91706407  0.33669080
   0.74953467  0.75036507  0.33665117
Direct configuration=    20
   0.00456999  0.00237350  0.10533826
   0.35973630  0.00236380  0.10076997
   0.00460664  0.35748970  0.10102661
   0.64963094  0.64713037  0.10095216
   0.32835124  0.32582291  0.10127070
   0.68116774  0.00241991  0.10153944
   0.00463220  0.67871975  0.10134076
   0.08286435  0.41705900  0.33658822
   0.24957707  0.25037765  0.33674607
   0.08292378  0.91709957  0.33665826
   0.24963100  0.75037604  0.33661359
   0.58292152  0.41705508  0.33659714
   0.74958404  0.25035754  0.33659462
   0.58289690  0.91709780  0.33669243
   0.74953363  0.75035804  0.33665109
Direct configuration=    21
   0.00458312  0.00235919  0.10529372
   0.35973880  0.00236553  0.10080511
   0.00460708  0.35742433  0.10103215
   0.64966178  0.64715062  0.10096598
   0.32840699  0.32586513  0.10127268
   0.68112207  0.00242329  0.10150873
   0.00463183  0.67867962  0.10133683
   0.08287001  0.41705497  0.33659619
   0.24956443  0.25038517  0.33674416
   0.08293170  0.91710778  0.33666187
   0.24962699  0.75040425  0.33661375
   0.58291298  0.41705639  0.33660293
   0.74957581  0.25038694  0.33659593
   0.58287827  0.91706747  0.33670027
   0.74951548  0.75036998  0.33664903
Direct configuration=    22
   0.00460208  0.00233852  0.10522935
   0.35974242  0.00236802  0.10085588
   0.00460772  0.35732985  0.10104015
   0.64970636  0.64717987  0.10098596
   0.32848755  0.32592614  0.10127554
   0.68105608  0.00242818  0.10146435
   0.00463129  0.67862163  0.10133115
   0.08287820  0.41704916  0.33660769
   0.24954617  0.25039604  0.33674140
   0.08294314  0.91711965  0.33666708
   0.24962120  0.75044502  0.33661397
   0.58290063  0.41705829  0.33661130
   0.74956392  0.25042943  0.33659781
   0.58285134  0.91702363  0.33671161
   0.74948925  0.75038724  0.33664607
Direct configuration=    23
   0.00462019  0.00232055  0.10516428
   0.35969426  0.00236897  0.10088983
   0.00461623  0.35727397  0.10104078
   0.64977384  0.64723089  0.10099586
   0.32849336  0.32591795  0.10128738
   0.68108235  0.00241284  0.10143543
   0.00463860  0.67858790  0.10133569
   0.08290711  0.41708709  0.33661564
   0.24956451  0.25043102  0.33674348
   0.08291424  0.91711368  0.33667036
   0.24959728  0.75043698  0.33661574
   0.58285637  0.41706594  0.33661618
   0.74952707  0.25040505  0.33660162
   0.58284425  0.91705430  0.33672086
   0.74949767  0.75039352  0.33664620
Direct configuration=    24
   0.00463655  0.00230433  0.10510548
   0.35965075  0.00236982  0.10092050
   0.00462392  0.35722348  0.10104135
   0.64983481  0.64727698  0.10100481
   0.32849861  0.32591055  0.10129809
   0.68110608  0.00239898  0.10140930
   0.00464522  0.67855743  0.10133979
   0.08293323  0.41712135  0.33662282
   0.24958109  0.25046263  0.33674535
   0.08288813  0.91710829  0.33667332
   0.24957567  0.75042973  0.33661734
   0.58281639  0.41707286  0.33662059
   0.74949379  0.25038303  0.33660505
   0.58283784  0.91708201  0.33672922
   0.74950527  0.75039919  0.33664632
Direct configuration=    25
   0.00465663  0.00228696  0.10501968
   0.35962987  0.00236185  0.10094580
   0.00464204  0.35721230  0.10103757
   0.64987620  0.64729069  0.10100899
   0.32848342  0.32587579  0.10131995
   0.68115956  0.00236794  0.10138898
   0.00466323  0.67853893  0.10135425
   0.08287170  0.41711471  0.33662825
   0.24954220  0.25045152  0.33675342
   0.08287980  0.91713574  0.33667509
   0.24956990  0.75044497  0.33662321
   0.58283550  0.41709088  0.33662303
   0.74950657  0.25041395  0.33661319
   0.58282902  0.91710215  0.33673665
   0.74948167  0.75041227  0.33665127
Direct configuration=    26
   0.00468261  0.00226449  0.10490866
   0.35960287  0.00235155  0.10097854
   0.00466550  0.35719783  0.10103266
   0.64992977  0.64730842  0.10101440
   0.32846376  0.32583081  0.10134825
   0.68122876  0.00232777  0.10136269
   0.00468654  0.67851501  0.10137297
   0.08279209  0.41710611  0.33663527
   0.24949189  0.25043715  0.33676387
   0.08286902  0.91717126  0.33667739
   0.24956244  0.75046470  0.33663080
   0.58286023  0.41711420  0.33662619
   0.74952312  0.25045397  0.33662372
   0.58281761  0.91712821  0.33674627
   0.74945113  0.75042920  0.33665766
Direct configuration=    27
   0.00469714  0.00225442  0.10483619
   0.35963967  0.00233696  0.10099205
   0.00468320  0.35720543  0.10103072
   0.64992407  0.64727284  0.10101656
   0.32847704  0.32582279  0.10136598
   0.68123451  0.00230417  0.10135271
   0.00470423  0.67850601  0.10138604
   0.08278695  0.41711559  0.33663875
   0.24948066  0.25045481  0.33677147
   0.08286026  0.91717940  0.33667925
   0.24955129  0.75048252  0.33663668
   0.58284552  0.41712201  0.33662813
   0.74950619  0.25046989  0.33663082
   0.58280248  0.91712991  0.33675083
   0.74943413  0.75044391  0.33666317
Direct configuration=    28
   0.00474072  0.00222423  0.10461876
   0.35975010  0.00229318  0.10103257
   0.00473630  0.35722823  0.10102487
   0.64990699  0.64716610  0.10102306
   0.32851685  0.32579876  0.10141918
   0.68125178  0.00223339  0.10132277
   0.00475730  0.67847901  0.10142525
   0.08277153  0.41714400  0.33664919
   0.24944696  0.25050781  0.33679426
   0.08283397  0.91720384  0.33668483
   0.24951784  0.75053600  0.33665434
   0.58280138  0.41714544  0.33663393
   0.74945541  0.25051764  0.33665214
   0.58275710  0.91713500  0.33676452
   0.74938310  0.75048804  0.33667968
Direct configuration=    29
   0.00482789  0.00216383  0.10418391
   0.35997094  0.00220563  0.10111362
   0.00484251  0.35727383  0.10101317
   0.64987281  0.64695262  0.10103604
   0.32859648  0.32575068  0.10152557
   0.68128632  0.00209181  0.10126288
   0.00486344  0.67842500  0.10150367
   0.08274068  0.41720084  0.33667006
   0.24937958  0.25061381  0.33683985
   0.08278139  0.91725271  0.33669599
   0.24945094  0.75064295  0.33668966
   0.58271310  0.41719230  0.33664554
   0.74935385  0.25061316  0.33669478
   0.58266633  0.91714517  0.33679189
   0.74928106  0.75057631  0.33671270
Direct configuration=    30
   0.00480414  0.00218029  0.10430240
   0.35991077  0.00222949  0.10109154
   0.00481357  0.35726141  0.10101636
   0.64988213  0.64701079  0.10103250
   0.32857478  0.32576378  0.10149658
   0.68127691  0.00213039  0.10127920
   0.00483452  0.67843972  0.10148230
   0.08274909  0.41718535  0.33666437
   0.24939794  0.25058493  0.33682742
   0.08279572  0.91723940  0.33669295
   0.24946917  0.75061381  0.33668004
   0.58273715  0.41717954  0.33664237
   0.74938152  0.25058713  0.33668316
   0.58269106  0.91714240  0.33678443
   0.74930887  0.75055226  0.33670370
Direct configuration=    31
   0.00482377  0.00216592  0.10419926
   0.35996300  0.00220351  0.10110742
   0.00483682  0.35725736  0.10102248
   0.64987770  0.64696104  0.10104098
   0.32860431  0.32575109  0.10151255
   0.68128106  0.00210872  0.10126835
   0.00485861  0.67842950  0.10149398
   0.08273460  0.41722603  0.33667169
   0.24939091  0.25059101  0.33683494
   0.08276040  0.91726467  0.33669970
   0.24944271  0.75060609  0.33668687
   0.58270320  0.41721256  0.33664920
   0.74936245  0.25057649  0.33669034
   0.58267525  0.91719091  0.33679168
   0.74931254  0.75055576  0.33670991
Direct configuration=    32
   0.00485268  0.00214476  0.10404741
   0.36003989  0.00216528  0.10113080
   0.00487106  0.35725140  0.10103149
   0.64987117  0.64688778  0.10105346
   0.32864779  0.32573241  0.10153606
   0.68128716  0.00207682  0.10125237
   0.00489407  0.67841446  0.10151117
   0.08271326  0.41728593  0.33668247
   0.24938056  0.25059997  0.33684600
   0.08270841  0.91730189  0.33670963
   0.24940376  0.75059472  0.33669692
   0.58265322  0.41726117  0.33665924
   0.74933437  0.25056081  0.33670091
   0.58265197  0.91726234  0.33680236
   0.74931796  0.75056093  0.33671906
Direct configuration=    33
   0.00486662  0.00213136  0.10397109
   0.36005367  0.00214263  0.10113936
   0.00488461  0.35722660  0.10104924
   0.64989029  0.64687238  0.10106832
   0.32867090  0.32570947  0.10153358
   0.68130700  0.00207599  0.10124888
   0.00490905  0.67840336  0.10150894
   0.08268746  0.41729343  0.33669070
   0.24935899  0.25060951  0.33684733
   0.08269144  0.91731506  0.33671963
   0.24938406  0.75060747  0.33670015
   0.58264579  0.41727378  0.33666938
   0.74932590  0.25057879  0.33670254
   0.58264365  0.91728276  0.33680843
   0.74930792  0.75057809  0.33672178
Direct configuration=    34
   0.00490843  0.00209117  0.10374212
   0.36009500  0.00207467  0.10116502
   0.00492527  0.35715217  0.10110247
   0.64994765  0.64682616  0.10111291
   0.32874022  0.32564067  0.10152614
   0.68136652  0.00207348  0.10123841
   0.00495398  0.67837007  0.10150226
   0.08261004  0.41731592  0.33671537
   0.24929426  0.25063811  0.33685133
   0.08264051  0.91735456  0.33674962
   0.24932496  0.75064572  0.33670986
   0.58262350  0.41731160  0.33669979
   0.74930050  0.25063274  0.33670742
   0.58261869  0.91734403  0.33682666
   0.74927779  0.75062958  0.33672995
Direct configuration=    35
   0.00499206  0.00201080  0.10328420
   0.36017767  0.00193877  0.10121634
   0.00500658  0.35700333  0.10120895
   0.65006237  0.64673371  0.10120209
   0.32887886  0.32550307  0.10151126
   0.68148555  0.00206847  0.10121747
   0.00504385  0.67830349  0.10148891
   0.08245520  0.41736091  0.33676472
   0.24916480  0.25069532  0.33685933
   0.08253866  0.91743356  0.33680962
   0.24920675  0.75072223  0.33672927
   0.58257892  0.41738725  0.33676061
   0.74924970  0.25074063  0.33671718
   0.58256879  0.91746655  0.33686310
   0.74921755  0.75073257  0.33674628
Direct configuration=    36
   0.00515932  0.00185004  0.10236836
   0.36034301  0.00166696  0.10131898
   0.00516922  0.35670564  0.10142190
   0.65029181  0.64654883  0.10138045
   0.32915614  0.32522786  0.10148149
   0.68172362  0.00205844  0.10117560
   0.00522359  0.67817033  0.10146220
   0.08214552  0.41745089  0.33686342
   0.24890589  0.25080974  0.33687533
   0.08233497  0.91759157  0.33692961
   0.24897035  0.75087525  0.33676810
   0.58248977  0.41753855  0.33688225
   0.74914810  0.25095642  0.33673670
   0.58246897  0.91771161  0.33693600
   0.74909707  0.75093855  0.33677895
Direct configuration=    37
   0.00503651  0.00196807  0.10304080
   0.36022161  0.00186653  0.10124361
   0.00504981  0.35692421  0.10126555
   0.65012335  0.64668458  0.10124949
   0.32895255  0.32542993  0.10150335
   0.68154882  0.00206580  0.10120634
   0.00509162  0.67826810  0.10148181
   0.08237290  0.41738482  0.33679095
   0.24909599  0.25072573  0.33686358
   0.08248453  0.91747556  0.33684151
   0.24914392  0.75076290  0.33673959
   0.58255523  0.41742746  0.33679294
   0.74922270  0.25079798  0.33672237
   0.58254226  0.91753168  0.33688248
   0.74918553  0.75078732  0.33675496
Direct configuration=    38
   0.00505124  0.00195206  0.10296726
   0.36023015  0.00184811  0.10125070
   0.00506440  0.35691030  0.10128331
   0.65014399  0.64667274  0.10126406
   0.32897450  0.32541118  0.10149906
   0.68157019  0.00205832  0.10120590
   0.00510630  0.67824504  0.10147858
   0.08237475  0.41740436  0.33679653
   0.24909014  0.25074850  0.33686744
   0.08247627  0.91748893  0.33684881
   0.24913852  0.75078222  0.33674487
   0.58253160  0.41744016  0.33680027
   0.74919798  0.25080969  0.33672618
   0.58251735  0.91753073  0.33688636
   0.74915995  0.75079833  0.33676003
Direct configuration=    39
   0.00509542  0.00190403  0.10274663
   0.36025576  0.00179284  0.10127195
   0.00510819  0.35686857  0.10133660
   0.65020593  0.64663723  0.10130776
   0.32904034  0.32535493  0.10148620
   0.68163429  0.00203588  0.10120457
   0.00515036  0.67817587  0.10146887
   0.08238030  0.41746297  0.33681325
   0.24907257  0.25081681  0.33687901
   0.08245151  0.91752905  0.33687072
   0.24912229  0.75084018  0.33676072
   0.58246071  0.41747825  0.33682224
   0.74912384  0.25084483  0.33673761
   0.58244262  0.91752788  0.33689800
   0.74908321  0.75083136  0.33677521
Direct configuration=    40
   0.00518378  0.00180797  0.10230538
   0.36030699  0.00168230  0.10131446
   0.00519576  0.35678511  0.10144318
   0.65032980  0.64656620  0.10139517
   0.32917202  0.32524244  0.10146048
   0.68176249  0.00199099  0.10120190
   0.00523847  0.67803754  0.10144947
   0.08239140  0.41758018  0.33684670
   0.24903744  0.25095343  0.33690214
   0.08240198  0.91760928  0.33691452
   0.24908984  0.75095611  0.33679240
   0.58231892  0.41755442  0.33686620
   0.74897555  0.25091509  0.33676046
   0.58229317  0.91752218  0.33692127
   0.74892973  0.75089742  0.33680559
Direct configuration=    41
   0.00521036  0.00177978  0.10220159
   0.36032716  0.00166783  0.10132105
   0.00522490  0.35678479  0.10146438
   0.65035528  0.64654567  0.10141233
   0.32919643  0.32523135  0.10145356
   0.68178403  0.00195089  0.10121213
   0.00526233  0.67799119  0.10144585
   0.08236902  0.41761071  0.33684657
   0.24901897  0.25096288  0.33691698
   0.08237338  0.91763526  0.33691575
   0.24906581  0.75096705  0.33680647
   0.58229271  0.41758485  0.33686710
   0.74895626  0.25092352  0.33677369
   0.58227220  0.91755391  0.33692144
   0.74891848  0.75091101  0.33682044
Direct configuration=    42
   0.00529012  0.00169521  0.10189022
   0.36038768  0.00162440  0.10134082
   0.00531231  0.35678383  0.10152799
   0.65043173  0.64648409  0.10146383
   0.32926967  0.32519806  0.10143279
   0.68184865  0.00183059  0.10124281
   0.00533391  0.67785213  0.10143498
   0.08230190  0.41770230  0.33684618
   0.24896357  0.25099124  0.33696149
   0.08228758  0.91771318  0.33691944
   0.24899374  0.75099988  0.33684869
   0.58221409  0.41767613  0.33686981
   0.74889838  0.25094879  0.33681337
   0.58220930  0.91764908  0.33692192
   0.74888471  0.75095176  0.33686499
Direct configuration=    43
   0.00532232  0.00166107  0.10176451
   0.36041212  0.00160687  0.10134881
   0.00534760  0.35678345  0.10155367
   0.65046259  0.64645922  0.10148462
   0.32929924  0.32518462  0.10142441
   0.68187474  0.00178202  0.10125520
   0.00536281  0.67779599  0.10143060
   0.08227480  0.41773928  0.33684603
   0.24894120  0.25100269  0.33697945
   0.08225294  0.91774464  0.33692093
   0.24896464  0.75101313  0.33686573
   0.58218235  0.41771298  0.33687090
   0.74887501  0.25095899  0.33682938
   0.58218390  0.91768750  0.33692212
   0.74887107  0.75096821  0.33688298
Direct configuration=    44
   0.00537547  0.00161786  0.10158882
   0.36048080  0.00158928  0.10135761
   0.00540541  0.35674873  0.10158055
   0.65049680  0.64640964  0.10150711
   0.32932149  0.32516800  0.10141393
   0.68189395  0.00169157  0.10128647
   0.00541006  0.67776368  0.10142747
   0.08220804  0.41773264  0.33684554
   0.24887432  0.25104617  0.33700681
   0.08221807  0.91776105  0.33692043
   0.24890822  0.75106606  0.33688822
   0.58217632  0.41772227  0.33686962
   0.74885185  0.25103116  0.33685270
   0.58217008  0.91772026  0.33692614
   0.74883645  0.75103230  0.33690791
Direct configuration=    45
   0.00541479  0.00158589  0.10145886
   0.36053160  0.00157627  0.10136412
   0.00544817  0.35672305  0.10160044
   0.65052211  0.64637295  0.10152374
   0.32933794  0.32515571  0.10140617
   0.68190817  0.00162466  0.10130961
   0.00544501  0.67773978  0.10142515
   0.08215866  0.41772772  0.33684518
   0.24882484  0.25107833  0.33702704
   0.08219228  0.91777320  0.33692006
   0.24886649  0.75110521  0.33690486
   0.58217186  0.41772914  0.33686867
   0.74883471  0.25108454  0.33686995
   0.58215986  0.91774450  0.33692912
   0.74881084  0.75107971  0.33692635
Direct configuration=    46
   0.00544248  0.00157293  0.10138724
   0.36058518  0.00156828  0.10136841
   0.00547363  0.35666854  0.10160189
   0.65053110  0.64634197  0.10152689
   0.32933328  0.32513972  0.10140320
   0.68191119  0.00158447  0.10133332
   0.00547142  0.67777050  0.10142636
   0.08215059  0.41775082  0.33685270
   0.24881698  0.25110429  0.33703190
   0.08218334  0.91779568  0.33692511
   0.24886368  0.75112117  0.33690549
   0.58214758  0.41774449  0.33687345
   0.74881075  0.25109762  0.33687303
   0.58212998  0.91775276  0.33694183
   0.74877614  0.75108742  0.33692851
Direct configuration=    47
   0.00548841  0.00155143  0.10126846
   0.36067404  0.00155502  0.10137552
   0.00551586  0.35657814  0.10160430
   0.65054601  0.64629059  0.10153210
   0.32932554  0.32511322  0.10139828
   0.68191620  0.00151781  0.10137264
   0.00551522  0.67782144  0.10142837
   0.08213721  0.41778913  0.33686517
   0.24880394  0.25114734  0.33703997
   0.08216852  0.91783297  0.33693349
   0.24885902  0.75114766  0.33690653
   0.58210731  0.41776995  0.33688139
   0.74877102  0.25111932  0.33687814
   0.58208043  0.91776645  0.33696290
   0.74871859  0.75110021  0.33693208
Direct configuration=    48
   0.00551207  0.00152700  0.10121058
   0.36069799  0.00154275  0.10138413
   0.00553013  0.35656684  0.10159854
   0.65055967  0.64627218  0.10153175
   0.32934018  0.32509804  0.10139446
   0.68194131  0.00149564  0.10139713
   0.00554079  0.67779277  0.10142855
   0.08211514  0.41781374  0.33687813
   0.24878305  0.25114408  0.33703734
   0.08213261  0.91784684  0.33694227
   0.24882294  0.75115643  0.33690087
   0.58208748  0.41780038  0.33689067
   0.74875838  0.25112319  0.33687608
   0.58207507  0.91780114  0.33698163
   0.74873050  0.75111963  0.33692720
Direct configuration=    49
   0.00552834  0.00151020  0.10117078
   0.36071446  0.00153432  0.10139006
   0.00553994  0.35655906  0.10159459
   0.65056907  0.64625953  0.10153151
   0.32935025  0.32508760  0.10139184
   0.68195858  0.00148039  0.10141397
   0.00555838  0.67777306  0.10142867
   0.08209997  0.41783067  0.33688705
   0.24876869  0.25114183  0.33703553
   0.08210791  0.91785639  0.33694830
   0.24879814  0.75116246  0.33689697
   0.58207385  0.41782131  0.33689705
   0.74874969  0.25112585  0.33687467
   0.58207139  0.91782500  0.33699451
   0.74873870  0.75113299  0.33692385
Direct configuration=    50
   0.00554530  0.00147964  0.10112968
   0.36071225  0.00151497  0.10140333
   0.00554717  0.35657003  0.10158745
   0.65059026  0.64625409  0.10153155
   0.32938241  0.32507009  0.10138497
   0.68199569  0.00147632  0.10143127
   0.00557921  0.67771341  0.10142496
   0.08208300  0.41782741  0.33689640
   0.24874345  0.25117046  0.33703315
   0.08210271  0.91786468  0.33695331
   0.24878454  0.75119401  0.33689501
   0.58206719  0.41782105  0.33690341