 vasp.6.3.2 27Jun22 (build Dec 22 2022 13:13:19) complex                        
  
 executed on             LinuxIFC date 2023.08.22  23:19:23
 running   48 mpi-ranks, with    1 threads/rank
 distrk:  each k-point on   48 cores,    1 groups
 distr:  one band on NCORE=   1 cores,   48 groups


--------------------------------------------------------------------------------------------------------


 INCAR:
   SYSTEM = Lattice
   ISTART = 0
   ICHARG = 2
   PREC = Accurate
   ENCUT = 450
   LCHARG = .FALSE.
   LWAVE = .FALSE.
   ALGO = Normal
   NELM = 64
   EDIFF = 1E-6
   EDIFFG = -1E-3
   SIGMA = 0.1
   ISMEAR = 0
   ISPIN = 2
   NSW = 128
   IBRION = 2
   POTIM = .5
   ISIF = 2
   GGA = PE
   IVDW = 12

 POTCAR:    PAW_PBE B 06Sep2000                   
 POTCAR:    PAW_PBE C 08Apr2002                   
 -----------------------------------------------------------------------------
|                                                                             |
|           W    W    AA    RRRRR   N    N  II  N    N   GGGG   !!!           |
|           W    W   A  A   R    R  NN   N  II  NN   N  G    G  !!!           |
|           W    W  A    A  R    R  N N  N  II  N N  N  G       !!!           |
|           W WW W  AAAAAA  RRRRR   N  N N  II  N  N N  G  GGG   !            |
|           WW  WW  A    A  R   R   N   NN  II  N   NN  G    G                |
|           W    W  A    A  R    R  N    N  II  N    N   GGGG   !!!           |
|                                                                             |
|     You use a magnetic or noncollinear calculation, but did not specify     |
|     the initial magnetic moment with the MAGMOM tag. Note that a            |
|     default of 1 will be used for all atoms. This ferromagnetic setup       |
|     may break the symmetry of the crystal, in particular it may rule        |
|     out finding an antiferromagnetic solution. Thence, we recommend         |
|     setting the initial magnetic moment manually or verifying carefully     |
|     that this magnetic setup is desired.                                    |
|                                                                             |
 -----------------------------------------------------------------------------

 POTCAR:    PAW_PBE B 06Sep2000                   
   SHA256 =  a32ced30f5ae56fd4d10b4325ff17eb3e4e38ee0f4288bc219fb012fddfa6e97 B/POTCAR              
   COPYR  = (c) Copyright 06Sep2000 Georg Kresse                                                    
   COPYR  = This file is part of the software VASP. Any use, copying, and all other rights are regul
   COPYR  = If you do not have a valid VASP license, you may not use, copy or distribute this file. 
   VRHFIN =B: s2p1                                                                                  
   LEXCH  = PE                                                                                      
   EATOM  =    71.1703 eV,    5.2309 Ry                                                             
                                                                                                    
   TITEL  = PAW_PBE B 06Sep2000                                                                     
   LULTRA =        F    use ultrasoft PP ?                                                          
   IUNSCR =        1    unscreen: 0-lin 1-nonlin 2-no                                               
   RPACOR =    1.200    partial core radius                                                         
   POMASS =   10.811; ZVAL   =    3.000    mass and valenz                                          
   RCORE  =    1.700    outmost cutoff radius                                                       
   RWIGS  =    1.710; RWIGS  =    0.905    wigner-seitz radius (au A)                               
   ENMAX  =  318.614; ENMIN  =  238.960 eV                                                          
   ICORE  =        2    local potential                                                             
   LCOR   =        T    correct aug charges                                                         
   LPAW   =        T    paw PP                                                                      
   EAUG   =  535.514                                                                                
   DEXC   =    0.000                                                                                
   RMAX   =    1.732    core radius for proj-oper                                                   
   RAUG   =    1.300    factor for augmentation sphere                                              
   RDEP   =    1.757    radius for radial grids                                                     
   RDEPT  =    1.436    core radius for aug-charge                                                  
                                                                                                    
   Atomic configuration                                                                             
    4 entries                                                                                       
     n  l   j            E        occ.                                                              
     1  0  0.50      -180.5896   2.0000                                                             
     2  0  0.50        -9.4431   2.0000                                                             
     2  1  0.50        -3.6068   1.0000                                                             
     3  2  1.50        -4.0817   0.0000                                                             
   Description                                                                                      
     l       E           TYP  RCUT    TYP  RCUT                                                     
     0     -9.4430752     23  1.500                                                                 
     0      0.8675899     23  1.500                                                                 
     1     -3.6067955     23  1.700                                                                 
     1      6.1086146     23  1.700                                                                 
     2     -4.0817478      7  1.700                                                                 
  local pseudopotential read in
  partial core-charges read in
  partial kinetic energy density read in
  atomic valenz-charges read in
  non local Contribution for L=           0  read in
    real space projection operators read in
  non local Contribution for L=           0  read in
    real space projection operators read in
  non local Contribution for L=           1  read in
    real space projection operators read in
  non local Contribution for L=           1  read in
    real space projection operators read in
    PAW grid and wavefunctions read in
 
   number of l-projection  operators is LMAX  =           4
   number of lm-projection operators is LMMAX =           8
 
 POTCAR:    PAW_PBE C 08Apr2002                   
   SHA256 =  253f7b50bb8d59471dbedb8285d89021f4a42ed1a2c5d38a03a736e69125dd95 C/POTCAR              
   COPYR  = (c) Copyright 08Apr2002 Georg Kresse                                                    
   COPYR  = This file is part of the software VASP. Any use, copying, and all other rights are regul
   COPYR  = If you do not have a valid VASP license, you may not use, copy or distribute this file. 
   VRHFIN =C: s2p2                                                                                  
   LEXCH  = PE                                                                                      
   EATOM  =   147.1560 eV,   10.8157 Ry                                                             
                                                                                                    
   TITEL  = PAW_PBE C 08Apr2002                                                                     
   LULTRA =        F    use ultrasoft PP ?                                                          
   IUNSCR =        1    unscreen: 0-lin 1-nonlin 2-no                                               
   RPACOR =    1.200    partial core radius                                                         
   POMASS =   12.011; ZVAL   =    4.000    mass and valenz                                          
   RCORE  =    1.500    outmost cutoff radius                                                       
   RWIGS  =    1.630; RWIGS  =    0.863    wigner-seitz radius (au A)                               
   ENMAX  =  400.000; ENMIN  =  300.000 eV                                                          
   ICORE  =        2    local potential                                                             
   LCOR   =        T    correct aug charges                                                         
   LPAW   =        T    paw PP                                                                      
   EAUG   =  644.873                                                                                
   DEXC   =    0.000                                                                                
   RMAX   =    1.529    core radius for proj-oper                                                   
   RAUG   =    1.300    factor for augmentation sphere                                              
   RDEP   =    1.501    radius for radial grids                                                     
   RDEPT  =    1.300    core radius for aug-charge                                                  
                                                                                                    
   Atomic configuration                                                                             
    4 entries                                                                                       
     n  l   j            E        occ.                                                              
     1  0  0.50      -273.3789   2.0000                                                             
     2  0  0.50       -13.7508   2.0000                                                             
     2  1  0.50        -5.2854   2.0000                                                             
     3  2  1.50        -5.4423   0.0000                                                             
   Description                                                                                      
     l       E           TYP  RCUT    TYP  RCUT                                                     
     0    -13.7508458     23  1.200                                                                 
     0     -8.2022199     23  1.200                                                                 
     1     -5.2854383     23  1.500                                                                 
     1     34.0145650     23  1.500                                                                 
     2     -5.4423304      7  1.500                                                                 
  local pseudopotential read in
  partial core-charges read in
  partial kinetic energy density read in
  atomic valenz-charges read in
  non local Contribution for L=           0  read in
    real space projection operators read in
  non local Contribution for L=           0  read in
    real space projection operators read in
  non local Contribution for L=           1  read in
    real space projection operators read in
  non local Contribution for L=           1  read in
    real space projection operators read in
    PAW grid and wavefunctions read in
 
   number of l-projection  operators is LMAX  =           4
   number of lm-projection operators is LMMAX =           8
 
  PAW_PBE B 06Sep2000                   :
 energy of atom  1       EATOM=  -71.1703
 kinetic energy error for atom=    0.0015 (will be added to EATOM!!)
  PAW_PBE C 08Apr2002                   :
 energy of atom  2       EATOM= -147.1560
 kinetic energy error for atom=    0.0116 (will be added to EATOM!!)
 
 
 POSCAR: Graphene-Borophene Bridge with lattice p
  positions in direct lattice
  No initial velocities read in
 exchange correlation table for  LEXCH =        8
   RHO(1)=    0.500       N(1)  =     2000
   RHO(2)=  100.500       N(2)  =     4000

 VTST: version 4.2, (08/11/21)

 CHAIN: initializing optimizer
 
 OPT: Using VASP Conjugate-Gradient optimizer
 CHAIN: Read ICHAIN            0
 
 POSCAR: Graphene-Borophene Bridge with lattice p
  positions in direct lattice
  No initial velocities read in
 


--------------------------------------------------------------------------------------------------------


 ion  position               nearest neighbor table
   1  0.669  0.000  0.100-   3 1.65   6 1.65   7 1.67   8 1.67   2 1.68
   2  0.331  0.000  0.100-   5 1.65   4 1.65   7 1.67   8 1.67   1 1.68
   3  0.000  0.331  0.100-   5 1.65   1 1.65   8 1.67   7 1.67   4 1.68
   4  0.000  0.669  0.100-   2 1.65   6 1.65   8 1.67   7 1.67   3 1.68
   5  0.331  0.331  0.100-   2 1.65   3 1.65   8 1.67   7 1.67   6 1.68
   6  0.669  0.669  0.100-   1 1.65   4 1.65   7 1.67   8 1.67   5 1.68
   7  0.667  0.333  0.099-   6 1.67   5 1.67   2 1.67   1 1.67   4 1.67   3 1.67
   8  0.333  0.667  0.101-   5 1.67   6 1.67   3 1.67   4 1.67   1 1.67   2 1.67
   9  0.250  0.250  0.469-  12 1.44  14 1.44  10 1.44
  10  0.417  0.083  0.469-  11 1.44  13 1.44   9 1.44
  11  0.250  0.750  0.469-  10 1.44  16 1.44  12 1.44
  12  0.417  0.583  0.469-   9 1.44  15 1.44  11 1.44
  13  0.750  0.250  0.469-  10 1.44  16 1.44  14 1.44
  14  0.917  0.083  0.469-   9 1.44  15 1.44  13 1.44
  15  0.750  0.750  0.469-  12 1.44  14 1.44  16 1.44
  16  0.917  0.583  0.469-  11 1.44  13 1.44  15 1.44
 
  LATTYP: Found a hexagonal cell.
 ALAT       =     4.9840000000
 C/A-ratio  =     3.0096308186
  
  Lattice vectors:
  
 A1 = (   4.3162706125,   2.4920000000,   0.0000000000)
 A2 = (  -4.3162706125,   2.4920000000,   0.0000000000)
 A3 = (   0.0000000000,   0.0000000000,  15.0000000000)


Analysis of symmetry for initial positions (statically):
=====================================================================
 Subroutine PRICEL returns:
 Original cell was already a primitive cell.
 

 Routine SETGRP: Setting up the symmetry group for a 
 hexagonal supercell.


 Subroutine GETGRP returns: Found  2 space group operations
 (whereof  2 operations were pure point group operations)
 out of a pool of 24 trial point group operations.


The static configuration has the point symmetry C_1h.


Analysis of symmetry for dynamics (positions and initial velocities):
=====================================================================
 Subroutine PRICEL returns:
 Original cell was already a primitive cell.
 

 Routine SETGRP: Setting up the symmetry group for a 
 hexagonal supercell.


 Subroutine GETGRP returns: Found  2 space group operations
 (whereof  2 operations were pure point group operations)
 out of a pool of 24 trial point group operations.


The dynamic configuration has the point symmetry C_1h.


Analysis of structural, dynamic, and magnetic symmetry:
=====================================================================
 Subroutine PRICEL returns:
 Original cell was already a primitive cell.
 

 Routine SETGRP: Setting up the symmetry group for a 
 hexagonal supercell.


 Subroutine GETGRP returns: Found  2 space group operations
 (whereof  2 operations were pure point group operations)
 out of a pool of 24 trial point group operations.


The overall configuration has the point symmetry C_1h.


 Subroutine INISYM returns: Found  2 space group operations
 (whereof  2 operations are pure point group operations),
 and found     1 'primitive' translations


----------------------------------------------------------------------------------------

                                     Primitive cell                                     

  volume of cell :     322.6844

  direct lattice vectors                    reciprocal lattice vectors
     4.316270612  2.492000000  0.000000000     0.115840744  0.200642055  0.000000000
    -4.316270612  2.492000000  0.000000000    -0.115840744  0.200642055  0.000000000
     0.000000000  0.000000000 15.000000000     0.000000000  0.000000000  0.066666667

  length of vectors
     4.984000000  4.984000000 15.000000000     0.231681488  0.231681488  0.066666667

  position of ions in fractional coordinates (direct lattice)
     0.668886888  0.000000000  0.100000000
     0.331112112  0.000000000  0.100000000
     0.000000000  0.331112112  0.100000000
     0.000000000  0.668886888  0.100000000
     0.331112112  0.331112112  0.100000000
     0.668886888  0.668886888  0.100000000
     0.666666000  0.333333000  0.099221887
     0.333333000  0.666666000  0.100778113
     0.249999333  0.249999667  0.469066667
     0.416666333  0.083332667  0.469066667
     0.249999333  0.749999667  0.469066667
     0.416666333  0.583332667  0.469066667
     0.749999333  0.249999667  0.469066667
     0.916666333  0.083332667  0.469066667
     0.749999333  0.749999667  0.469066667
     0.916666333  0.583332667  0.469066667

  ion indices of the primitive-cell ions
   primitive index   ion index
                 1           1
                 2           2
                 3           3
                 4           4
                 5           5
                 6           6
                 7           7
                 8           8
                 9           9
                10          10
                11          11
                12          12
                13          13
                14          14
                15          15
                16          16

----------------------------------------------------------------------------------------

 
 
 KPOINTS: k-points                                

Automatic generation of k-mesh.
 Grid dimensions read from file:
 generate k-points for:   12   12    1

 Generating k-lattice:

  Cartesian coordinates                     Fractional coordinates (reciprocal lattice)
     0.009653395  0.016720171  0.000000000     0.083333333 -0.000000000  0.000000000
    -0.009653395  0.016720171  0.000000000    -0.000000000  0.083333333  0.000000000
     0.000000000  0.000000000  0.066666667     0.000000000  0.000000000  1.000000000

  Length of vectors
     0.019306791  0.019306791  0.066666667

  Shift w.r.t. Gamma in fractional coordinates (k-lattice)
     0.000000000  0.000000000  0.000000000

 
 Subroutine IBZKPT returns following result:
 ===========================================
 
 Found     43 irreducible k-points:
 
 Following reciprocal coordinates:
            Coordinates               Weight
  0.000000  0.000000  0.000000      1.000000
  0.083333  0.000000  0.000000      4.000000
 -0.083333  0.083333  0.000000      2.000000
  0.166667  0.000000  0.000000      4.000000
 -0.166667  0.166667  0.000000      2.000000
  0.250000  0.000000  0.000000      4.000000
 -0.250000  0.250000  0.000000      2.000000
  0.333333  0.000000  0.000000      4.000000
 -0.333333  0.333333  0.000000      2.000000
  0.416667  0.000000  0.000000      4.000000
 -0.416667  0.416667  0.000000      2.000000
  0.500000  0.000000  0.000000      2.000000
  0.500000  0.500000  0.000000      1.000000
  0.083333  0.083333  0.000000      2.000000
 -0.083333  0.166667  0.000000      4.000000
  0.166667  0.083333  0.000000      4.000000
 -0.083333  0.250000  0.000000      4.000000
 -0.250000  0.166667  0.000000      4.000000
  0.250000  0.083333  0.000000      4.000000
 -0.083333  0.333333  0.000000      4.000000
 -0.333333  0.250000  0.000000      4.000000
  0.333333  0.083333  0.000000      4.000000
 -0.083333  0.416667  0.000000      4.000000
 -0.416667  0.333333  0.000000      4.000000
  0.416667  0.083333  0.000000      4.000000
 -0.083333  0.500000  0.000000      4.000000
  0.500000  0.416667  0.000000      4.000000
  0.166667  0.166667  0.000000      2.000000
 -0.166667  0.333333  0.000000      4.000000
  0.250000  0.166667  0.000000      4.000000
 -0.166667  0.416667  0.000000      4.000000
 -0.416667  0.250000  0.000000      4.000000
  0.333333  0.166667  0.000000      4.000000
 -0.166667  0.500000  0.000000      4.000000
  0.500000  0.333333  0.000000      4.000000
  0.416667  0.166667  0.000000      4.000000
  0.416667  0.416667  0.000000      2.000000
  0.250000  0.250000  0.000000      2.000000
 -0.250000  0.500000  0.000000      4.000000
  0.333333  0.250000  0.000000      4.000000
 -0.250000 -0.416667  0.000000      4.000000
  0.416667  0.333333  0.000000      4.000000
  0.333333  0.333333  0.000000      2.000000
 
 Following cartesian coordinates:
            Coordinates               Weight
  0.000000  0.000000  0.000000      1.000000
  0.009653  0.016720  0.000000      4.000000
 -0.019307 -0.000000  0.000000      2.000000
  0.019307  0.033440  0.000000      4.000000
 -0.038614  0.000000  0.000000      2.000000
  0.028960  0.050161  0.000000      4.000000
 -0.057920  0.000000  0.000000      2.000000
  0.038614  0.066881  0.000000      4.000000
 -0.077227  0.000000  0.000000      2.000000
  0.048267  0.083601  0.000000      4.000000
 -0.096534  0.000000  0.000000      2.000000
  0.057920  0.100321  0.000000      2.000000
  0.000000  0.200642  0.000000      1.000000
 -0.000000  0.033440  0.000000      2.000000
 -0.028960  0.016720  0.000000      4.000000
  0.009653  0.050161  0.000000      4.000000
 -0.038614  0.033440  0.000000      4.000000
 -0.048267 -0.016720  0.000000      4.000000
  0.019307  0.066881  0.000000      4.000000
 -0.048267  0.050161  0.000000      4.000000
 -0.067574 -0.016720  0.000000      4.000000
  0.028960  0.083601  0.000000      4.000000
 -0.057920  0.066881  0.000000      4.000000
 -0.086881 -0.016720  0.000000      4.000000
  0.038614  0.100321  0.000000      4.000000
 -0.067574  0.083601  0.000000      4.000000
  0.009653  0.183922  0.000000      4.000000
 -0.000000  0.066881  0.000000      2.000000
 -0.057920  0.033440  0.000000      4.000000
  0.009653  0.083601  0.000000      4.000000
 -0.067574  0.050161  0.000000      4.000000
 -0.077227 -0.033440  0.000000      4.000000
  0.019307  0.100321  0.000000      4.000000
 -0.077227  0.066881  0.000000      4.000000
  0.019307  0.167202  0.000000      4.000000
  0.028960  0.117041  0.000000      4.000000
  0.000000  0.167202  0.000000      2.000000
  0.000000  0.100321  0.000000      2.000000
 -0.086881  0.050161  0.000000      4.000000
  0.009653  0.117041  0.000000      4.000000
  0.019307 -0.133761  0.000000      4.000000
  0.009653  0.150482  0.000000      4.000000
  0.000000  0.133761  0.000000      2.000000
 


--------------------------------------------------------------------------------------------------------




 Dimension of arrays:
   k-points           NKPTS =     43   k-points in BZ     NKDIM =     43   number of bands    NBANDS=     48
   number of dos      NEDOS =    301   number of ions     NIONS =     16
   non local maximal  LDIM  =      4   non local SUM 2l+1 LMDIM =      8
   total plane-waves  NPLWV = 139968
   max r-space proj   IRMAX =      1   max aug-charges    IRDMAX=   6963
   dimension x,y,z NGX =    36 NGY =   36 NGZ =  108
   dimension x,y,z NGXF=    72 NGYF=   72 NGZF=  216
   support grid    NGXF=    72 NGYF=   72 NGZF=  216
   ions per type =               8   8
   NGX,Y,Z   is equivalent  to a cutoff of  12.01, 12.01, 11.97 a.u.
   NGXF,Y,Z  is equivalent  to a cutoff of  24.02, 24.02, 23.94 a.u.

 SYSTEM =  Lattice                                 
 POSCAR =  Graphene-Borophene Bridge with lattice p

 Startparameter for this run:
   NWRITE =      2    write-flag & timer
   PREC   = accura    normal or accurate (medium, high low for compatibility)
   ISTART =      0    job   : 0-new  1-cont  2-samecut
   ICHARG =      2    charge: 1-file 2-atom 10-const
   ISPIN  =      2    spin polarized calculation?
   LNONCOLLINEAR =      F non collinear calculations
   LSORBIT =      F    spin-orbit coupling
   INIWAV =      1    electr: 0-lowe 1-rand  2-diag
   LASPH  =      F    aspherical Exc in radial PAW
 Electronic Relaxation 1
   ENCUT  =  450.0 eV  33.07 Ry    5.75 a.u.   8.62  8.62 25.95*2*pi/ulx,y,z
   ENINI  =  450.0     initial cutoff
   ENAUG  =  644.9 eV  augmentation charge cutoff
   NELM   =     64;   NELMIN=  2; NELMDL= -5     # of ELM steps 
   EDIFF  = 0.1E-05   stopping-criterion for ELM
   LREAL  =      F    real-space projection
   NLSPLINE    = F    spline interpolate recip. space projectors
   LCOMPAT=      F    compatible to vasp.4.4
   GGA_COMPAT  = T    GGA compatible to vasp.4.4-vasp.4.6
   LMAXPAW     = -100 max onsite density
   LMAXMIX     =    2 max onsite mixed and CHGCAR
   VOSKOWN=      0    Vosko Wilk Nusair interpolation
   ROPT   =    0.00000   0.00000
 Ionic relaxation
   EDIFFG = -.1E-02   stopping-criterion for IOM
   NSW    =    128    number of steps for IOM
   NBLOCK =      1;   KBLOCK =    128    inner block; outer block 
   IBRION =      2    ionic relax: 0-MD 1-quasi-New 2-CG
   NFREE  =      1    steps in history (QN), initial steepest desc. (CG)
   ISIF   =      2    stress and relaxation
   IWAVPR =     11    prediction:  0-non 1-charg 2-wave 3-comb
   ISYM   =      2    0-nonsym 1-usesym 2-fastsym
   LCORR  =      T    Harris-Foulkes like correction to forces

   POTIM  = 0.5000    time-step for ionic-motion
   TEIN   =    0.0    initial temperature
   TEBEG  =    0.0;   TEEND  =   0.0 temperature during run
   SMASS  =  -3.00    Nose mass-parameter (am)
   estimated Nose-frequenzy (Omega)   =  0.10E-29 period in steps = 0.13E+47 mass=  -0.568E-27a.u.
   SCALEE = 1.0000    scale energy and forces
   NPACO  =    256;   APACO  = 10.0  distance and # of slots for P.C.
   PSTRESS=    0.0 pullay stress

  Mass of Ions in am
   POMASS =  10.81 12.01
  Ionic Valenz
   ZVAL   =   3.00  4.00
  Atomic Wigner-Seitz radii
   RWIGS  =  -1.00 -1.00
  virtual crystal weights 
   VCA    =   1.00  1.00
   NELECT =      56.0000    total number of electrons
   NUPDOWN=      -1.0000    fix difference up-down

 DOS related values:
   EMIN   =  10.00;   EMAX   =-10.00  energy-range for DOS
   EFERMI =   0.00
   ISMEAR =     0;   SIGMA  =   0.10  broadening in eV -4-tet -1-fermi 0-gaus

 Electronic relaxation 2 (details)
   IALGO  =     38    algorithm
   LDIAG  =      T    sub-space diagonalisation (order eigenvalues)
   LSUBROT=      F    optimize rotation matrix (better conditioning)
   TURBO    =      0    0=normal 1=particle mesh
   IRESTART =      0    0=no restart 2=restart with 2 vectors
   NREBOOT  =      0    no. of reboots
   NMIN     =      0    reboot dimension
   EREF     =   0.00    reference energy to select bands
   IMIX   =      4    mixing-type and parameters
     AMIX     =   0.40;   BMIX     =  1.00
     AMIX_MAG =   1.60;   BMIX_MAG =  1.00
     AMIN     =   0.10
     WC   =   100.;   INIMIX=   1;  MIXPRE=   1;  MAXMIX= -45

 Intra band minimization:
   WEIMIN = 0.0010     energy-eigenvalue tresh-hold
   EBREAK =  0.52E-08  absolut break condition
   DEPER  =   0.30     relativ break condition  

   TIME   =   0.40     timestep for ELM

  volume/ion in A,a.u.               =      20.17       136.10
  Fermi-wavevector in a.u.,A,eV,Ry     =   0.913156  1.725614 11.345264  0.833853
  Thomas-Fermi vector in A             =   2.037635
 
 Write flags
   LWAVE        =      F    write WAVECAR
   LDOWNSAMPLE  =      F    k-point downsampling of WAVECAR
   LCHARG       =      F    write CHGCAR
   LVTOT        =      F    write LOCPOT, total local potential
   LVHAR        =      F    write LOCPOT, Hartree potential only
   LELF         =      F    write electronic localiz. function (ELF)
   LORBIT       =      0    0 simple, 1 ext, 2 COOP (PROOUT), +10 PAW based schemes


 Dipole corrections
   LMONO  =      F    monopole corrections only (constant potential shift)
   LDIPOL =      F    correct potential (dipole corrections)
   IDIPOL =      0    1-x, 2-y, 3-z, 4-all directions 
   EPSILON=  1.0000000 bulk dielectric constant

 Exchange correlation treatment:
   GGA     =    PE    GGA type
   LEXCH   =     8    internal setting for exchange type
   LIBXC   =     F    Libxc                    
   VOSKOWN =     0    Vosko Wilk Nusair interpolation
   LHFCALC =     F    Hartree Fock is set to
   LHFONE  =     F    Hartree Fock one center treatment
   AEXX    =    0.0000 exact exchange contribution

 Linear response parameters
   LEPSILON=     F    determine dielectric tensor
   LRPA    =     F    only Hartree local field effects (RPA)
   LNABLA  =     F    use nabla operator in PAW spheres
   LVEL    =     F    velocity operator in full k-point grid
   CSHIFT  =0.1000    complex shift for real part using Kramers Kronig
   OMEGAMAX=  -1.0    maximum frequency
   DEG_THRESHOLD= 0.2000000E-02 threshold for treating states as degnerate
   RTIME   =   -0.100 relaxation time in fs
  (WPLASMAI=    0.000 imaginary part of plasma frequency in eV, 0.658/RTIME)
   DFIELD  = 0.0000000 0.0000000 0.0000000 field for delta impulse in time
 
  Optional k-point grid parameters
   LKPOINTS_OPT  =     F    use optional k-point grid
   KPOINTS_OPT_MODE=     1    mode for optional k-point grid
 
 Orbital magnetization related:
   ORBITALMAG=     F  switch on orbital magnetization
   LCHIMAG   =     F  perturbation theory with respect to B field
   DQ        =  0.001000  dq finite difference perturbation B field
   LLRAUG    =     F  two centre corrections for induced B field



--------------------------------------------------------------------------------------------------------


 conjugate gradient relaxation of ions
 charge density and potential will be updated during run
 spin polarized calculation
 Variant of blocked Davidson
 Davidson routine will perform the subspace rotation
 perform sub-space diagonalisation
    after iterative eigenvector-optimisation
 modified Broyden-mixing scheme, WC =      100.0
 initial mixing is a Kerker type mixing with AMIX =  0.4000 and BMIX =      1.0000
 Hartree-type preconditioning will be used
 using additional bands           20
 reciprocal scheme for non local part
 use partial core corrections
 calculate Harris-corrections to forces 
   (improved forces if not selfconsistent)
 use gradient corrections 
 use of overlap-Matrix (Vanderbilt PP)
 Gauss-broadening in eV      SIGMA  =   0.10


--------------------------------------------------------------------------------------------------------


  energy-cutoff  :      450.00
  volume of cell :      322.68
      direct lattice vectors                 reciprocal lattice vectors
     4.316270612  2.492000000  0.000000000     0.115840744  0.200642055  0.000000000
    -4.316270612  2.492000000  0.000000000    -0.115840744  0.200642055  0.000000000
     0.000000000  0.000000000 15.000000000     0.000000000  0.000000000  0.066666667

  length of vectors
     4.984000000  4.984000000 15.000000000     0.231681488  0.231681488  0.066666667


 
 k-points in units of 2pi/SCALE and weight: k-points                                
   0.00000000  0.00000000  0.00000000       0.007
   0.00965340  0.01672017  0.00000000       0.028
  -0.01930679 -0.00000000  0.00000000       0.014
   0.01930679  0.03344034  0.00000000       0.028
  -0.03861358  0.00000000  0.00000000       0.014
   0.02896019  0.05016051  0.00000000       0.028
  -0.05792037  0.00000000  0.00000000       0.014
   0.03861358  0.06688068  0.00000000       0.028
  -0.07722716  0.00000000  0.00000000       0.014
   0.04826698  0.08360086  0.00000000       0.028
  -0.09653395  0.00000000  0.00000000       0.014
   0.05792037  0.10032103  0.00000000       0.014
   0.00000000  0.20064205  0.00000000       0.007
  -0.00000000  0.03344034  0.00000000       0.014
  -0.02896019  0.01672017  0.00000000       0.028
   0.00965340  0.05016051  0.00000000       0.028
  -0.03861358  0.03344034  0.00000000       0.028
  -0.04826698 -0.01672017  0.00000000       0.028
   0.01930679  0.06688068  0.00000000       0.028
  -0.04826698  0.05016051  0.00000000       0.028
  -0.06757377 -0.01672017  0.00000000       0.028
   0.02896019  0.08360086  0.00000000       0.028
  -0.05792037  0.06688068  0.00000000       0.028
  -0.08688056 -0.01672017  0.00000000       0.028
   0.03861358  0.10032103  0.00000000       0.028
  -0.06757377  0.08360086  0.00000000       0.028
   0.00965340  0.18392188  0.00000000       0.028
  -0.00000000  0.06688068  0.00000000       0.014
  -0.05792037  0.03344034  0.00000000       0.028
   0.00965340  0.08360086  0.00000000       0.028
  -0.06757377  0.05016051  0.00000000       0.028
  -0.07722716 -0.03344034  0.00000000       0.028
   0.01930679  0.10032103  0.00000000       0.028
  -0.07722716  0.06688068  0.00000000       0.028
   0.01930679  0.16720171  0.00000000       0.028
   0.02896019  0.11704120  0.00000000       0.028
   0.00000000  0.16720171  0.00000000       0.014
   0.00000000  0.10032103  0.00000000       0.014
  -0.08688056  0.05016051  0.00000000       0.028
   0.00965340  0.11704120  0.00000000       0.028
   0.01930679 -0.13376137  0.00000000       0.028
   0.00965340  0.15048154  0.00000000       0.028
   0.00000000  0.13376137  0.00000000       0.014
 
 k-points in reciprocal lattice and weights: k-points                                
   0.00000000  0.00000000  0.00000000       0.007
   0.08333333  0.00000000  0.00000000       0.028
  -0.08333333  0.08333333  0.00000000       0.014
   0.16666667  0.00000000  0.00000000       0.028
  -0.16666667  0.16666667  0.00000000       0.014
   0.25000000  0.00000000  0.00000000       0.028
  -0.25000000  0.25000000  0.00000000       0.014
   0.33333333  0.00000000  0.00000000       0.028
  -0.33333333  0.33333333  0.00000000       0.014
   0.41666667  0.00000000  0.00000000       0.028
  -0.41666667  0.41666667  0.00000000       0.014
   0.50000000  0.00000000  0.00000000       0.014
   0.50000000  0.50000000  0.00000000       0.007
   0.08333333  0.08333333  0.00000000       0.014
  -0.08333333  0.16666667  0.00000000       0.028
   0.16666667  0.08333333  0.00000000       0.028
  -0.08333333  0.25000000  0.00000000       0.028
  -0.25000000  0.16666667  0.00000000       0.028
   0.25000000  0.08333333  0.00000000       0.028
  -0.08333333  0.33333333  0.00000000       0.028
  -0.33333333  0.25000000  0.00000000       0.028
   0.33333333  0.08333333  0.00000000       0.028
  -0.08333333  0.41666667  0.00000000       0.028
  -0.41666667  0.33333333  0.00000000       0.028
   0.41666667  0.08333333  0.00000000       0.028
  -0.08333333  0.50000000  0.00000000       0.028
   0.50000000  0.41666667  0.00000000       0.028
   0.16666667  0.16666667  0.00000000       0.014
  -0.16666667  0.33333333  0.00000000       0.028
   0.25000000  0.16666667  0.00000000       0.028
  -0.16666667  0.41666667  0.00000000       0.028
  -0.41666667  0.25000000  0.00000000       0.028
   0.33333333  0.16666667  0.00000000       0.028
  -0.16666667  0.50000000  0.00000000       0.028
   0.50000000  0.33333333  0.00000000       0.028
   0.41666667  0.16666667  0.00000000       0.028
   0.41666667  0.41666667  0.00000000       0.014
   0.25000000  0.25000000  0.00000000       0.014
  -0.25000000  0.50000000  0.00000000       0.028
   0.33333333  0.25000000  0.00000000       0.028
  -0.25000000 -0.41666667  0.00000000       0.028
   0.41666667  0.33333333  0.00000000       0.028
   0.33333333  0.33333333  0.00000000       0.014
 
 position of ions in fractional coordinates (direct lattice) 
   0.66888689  0.00000000  0.10000000
   0.33111211  0.00000000  0.10000000
   0.00000000  0.33111211  0.10000000
   0.00000000  0.66888689  0.10000000
   0.33111211  0.33111211  0.10000000
   0.66888689  0.66888689  0.10000000
   0.66666600  0.33333300  0.09922189
   0.33333300  0.66666600  0.10077811
   0.24999933  0.24999967  0.46906667
   0.41666633  0.08333267  0.46906667
   0.24999933  0.74999967  0.46906667
   0.41666633  0.58333267  0.46906667
   0.74999933  0.24999967  0.46906667
   0.91666633  0.08333267  0.46906667
   0.74999933  0.74999967  0.46906667
   0.91666633  0.58333267  0.46906667
 
 position of ions in cartesian coordinates  (Angst):
   2.88709682  1.66686612  1.50000000
   1.42916948  0.82513138  1.50000000
  -1.42916948  0.82513138  1.50000000
  -2.88709682  1.66686612  1.50000000
   0.00000000  1.65026277  1.50000000
  -0.00000000  3.33373225  1.50000000
   1.43875543  2.49199751  1.48832830
  -1.43875543  2.49199751  1.51167170
  -0.00000144  1.24599751  7.03600000
   1.43875831  1.24599751  7.03600000
  -2.15813674  2.49199751  7.03600000
  -0.71937700  2.49199751  7.03600000
   2.15813387  2.49199751  7.03600000
   3.59689362  2.49199751  7.03600000
  -0.00000144  3.73799751  7.03600000
   1.43875831  3.73799751  7.03600000
 


--------------------------------------------------------------------------------------------------------


 k-point   1 :   0.0000 0.0000 0.0000  plane waves:    7041
 k-point   2 :   0.0833 0.0000 0.0000  plane waves:    7011
 k-point   3 :  -0.0833 0.0833 0.0000  plane waves:    7011
 k-point   4 :   0.1667 0.0000 0.0000  plane waves:    7019
 k-point   5 :  -0.1667 0.1667 0.0000  plane waves:    7019
 k-point   6 :   0.2500 0.0000 0.0000  plane waves:    6999
 k-point   7 :  -0.2500 0.2500 0.0000  plane waves:    6999
 k-point   8 :   0.3333 0.0000 0.0000  plane waves:    7003
 k-point   9 :  -0.3333 0.3333 0.0000  plane waves:    7003
 k-point  10 :   0.4167 0.0000 0.0000  plane waves:    6983
 k-point  11 :  -0.4167 0.4167 0.0000  plane waves:    6983
 k-point  12 :   0.5000 0.0000 0.0000  plane waves:    6986
 k-point  13 :   0.5000 0.5000 0.0000  plane waves:    6986
 k-point  14 :   0.0833 0.0833 0.0000  plane waves:    7013
 k-point  15 :  -0.0833 0.1667 0.0000  plane waves:    7013
 k-point  16 :   0.1667 0.0833 0.0000  plane waves:    7009
 k-point  17 :  -0.0833 0.2500 0.0000  plane waves:    7009
 k-point  18 :  -0.2500 0.1667 0.0000  plane waves:    7009
 k-point  19 :   0.2500 0.0833 0.0000  plane waves:    7011
 k-point  20 :  -0.0833 0.3333 0.0000  plane waves:    7011
 k-point  21 :  -0.3333 0.2500 0.0000  plane waves:    7011
 k-point  22 :   0.3333 0.0833 0.0000  plane waves:    7003
 k-point  23 :  -0.0833 0.4167 0.0000  plane waves:    7003
 k-point  24 :  -0.4167 0.3333 0.0000  plane waves:    7003
 k-point  25 :   0.4167 0.0833 0.0000  plane waves:    6982
 k-point  26 :  -0.0833 0.5000 0.0000  plane waves:    6982
 k-point  27 :   0.5000 0.4167 0.0000  plane waves:    6982
 k-point  28 :   0.1667 0.1667 0.0000  plane waves:    7005
 k-point  29 :  -0.1667 0.3333 0.0000  plane waves:    7005
 k-point  30 :   0.2500 0.1667 0.0000  plane waves:    6994
 k-point  31 :  -0.1667 0.4167 0.0000  plane waves:    6994
 k-point  32 :  -0.4167 0.2500 0.0000  plane waves:    6994
 k-point  33 :   0.3333 0.1667 0.0000  plane waves:    6980
 k-point  34 :  -0.1667 0.5000 0.0000  plane waves:    6980
 k-point  35 :   0.5000 0.3333 0.0000  plane waves:    6980
 k-point  36 :   0.4167 0.1667 0.0000  plane waves:    6960
 k-point  37 :   0.4167 0.4167 0.0000  plane waves:    6960
 k-point  38 :   0.2500 0.2500 0.0000  plane waves:    6967
 k-point  39 :  -0.2500 0.5000 0.0000  plane waves:    6967
 k-point  40 :   0.3333 0.2500 0.0000  plane waves:    6967
 k-point  41 :  -0.2500-0.4167 0.0000  plane waves:    6967
 k-point  42 :   0.4167 0.3333 0.0000  plane waves:    6967
 k-point  43 :   0.3333 0.3333 0.0000  plane waves:    6948

 maximum and minimum number of plane-waves per node :      7041     6948

 maximum number of plane-waves:      7041
 maximum index in each direction: 
   IXMAX=    9   IYMAX=    9   IZMAX=   25
   IXMIN=   -9   IYMIN=   -9   IZMIN=  -25


 serial   3D FFT for wavefunctions
 parallel 3D FFT for charge:
    minimum data exchange during FFTs selected (reduces bandwidth)


 total amount of memory used by VASP MPI-rank0    95952. kBytes
=======================================================================

   base      :      30000. kBytes
   nonl-proj :      40642. kBytes
   fftplans  :       1560. kBytes
   grid      :      13745. kBytes
   one-center:         98. kBytes
   wavefun   :       9907. kBytes
 
     INWAV:  cpu time      0.0000: real time      0.0000
 Broyden mixing: mesh for mixing (old mesh)
   NGX = 17   NGY = 17   NGZ = 51
  (NGX  = 72   NGY  = 72   NGZ  =216)
  gives a total of  14739 points

 initial charge density was supplied:
 charge density of overlapping atoms calculated
 number of electron      56.0000000 magnetization      16.0000000
 keeping initial charge density in first step


--------------------------------------------------------------------------------------------------------


 Maximum index for augmentation-charges          386 (set IRDMAX)


--------------------------------------------------------------------------------------------------------


 First call to EWALD:  gamma=   0.258
 Maximum number of real-space cells 4x 4x 2
 Maximum number of reciprocal cells 2x 2x 5

    FEWALD:  cpu time      0.0016: real time      0.0019


--------------------------------------- Iteration      1(   1)  ---------------------------------------


    POTLOK:  cpu time      0.0408: real time      0.0423
    SETDIJ:  cpu time      0.0041: real time      0.0041
     EDDAV:  cpu time      3.2943: real time      3.3371
       DOS:  cpu time      0.0017: real time      0.0025
    --------------------------------------------
      LOOP:  cpu time      3.3409: real time      3.3860

 eigenvalue-minimisations  :  8256
 total energy-change (2. order) : 0.1873757E+03  (-0.2536170E+04)
 number of electron      56.0000000 magnetization      16.0000000
 augmentation part       56.0000000 magnetization      16.0000000

 Free energy of the ion-electron system (eV)
  ---------------------------------------------------
  alpha Z        PSCENC =        60.34947425
  Ewald energy   TEWEN  =      1868.60248417
  -Hartree energ DENC   =     -3283.42661626
  -exchange      EXHF   =         0.00000000
  -V(xc)+E(xc)   XCENC  =       163.37729306
  PAW double counting   =      1214.24570090    -1211.68112031
  entropy T*S    EENTRO =        -0.01748207
  eigenvalues    EBANDS =      -370.57961449
  atomic energy  EATOM  =      1746.50554237
  Solvation  Ediel_sol  =         0.00000000
  ---------------------------------------------------
  free energy    TOTEN  =       187.37566162 eV

  energy without entropy =      187.39314369  energy(sigma->0) =      187.38440266


--------------------------------------------------------------------------------------------------------




--------------------------------------- Iteration      1(   2)  ---------------------------------------


     EDDAV:  cpu time      5.2315: real time      5.2850
       DOS:  cpu time      0.0010: real time      0.0010
    --------------------------------------------
      LOOP:  cpu time      5.2325: real time      5.2860

 eigenvalue-minimisations  : 12912
 total energy-change (2. order) :-0.3060000E+03  (-0.3053267E+03)
 number of electron      56.0000000 magnetization      16.0000000
 augmentation part       56.0000000 magnetization      16.0000000

 Free energy of the ion-electron system (eV)
  ---------------------------------------------------
  alpha Z        PSCENC =        60.34947425
  Ewald energy   TEWEN  =      1868.60248417
  -Hartree energ DENC   =     -3283.42661626
  -exchange      EXHF   =         0.00000000
  -V(xc)+E(xc)   XCENC  =       163.37729306
  PAW double counting   =      1214.24570090    -1211.68112031
  entropy T*S    EENTRO =        -0.01052525
  eigenvalues    EBANDS =      -676.58652966
  atomic energy  EATOM  =      1746.50554237
  Solvation  Ediel_sol  =         0.00000000
  ---------------------------------------------------
  free energy    TOTEN  =      -118.62429674 eV

  energy without entropy =     -118.61377149  energy(sigma->0) =     -118.61903411


--------------------------------------------------------------------------------------------------------




--------------------------------------- Iteration      1(   3)  ---------------------------------------


     EDDAV:  cpu time      6.0399: real time      6.0873
       DOS:  cpu time      0.0009: real time      0.0009
    --------------------------------------------
      LOOP:  cpu time      6.0408: real time      6.0882

 eigenvalue-minimisations  : 14256
 total energy-change (2. order) :-0.9212831E+01  (-0.9189133E+01)
 number of electron      56.0000000 magnetization      16.0000000
 augmentation part       56.0000000 magnetization      16.0000000

 Free energy of the ion-electron system (eV)
  ---------------------------------------------------
  alpha Z        PSCENC =        60.34947425
  Ewald energy   TEWEN  =      1868.60248417
  -Hartree energ DENC   =     -3283.42661626
  -exchange      EXHF   =         0.00000000
  -V(xc)+E(xc)   XCENC  =       163.37729306
  PAW double counting   =      1214.24570090    -1211.68112031
  entropy T*S    EENTRO =        -0.01247019
  eigenvalues    EBANDS =      -685.79741548
  atomic energy  EATOM  =      1746.50554237
  Solvation  Ediel_sol  =         0.00000000
  ---------------------------------------------------
  free energy    TOTEN  =      -127.83712749 eV

  energy without entropy =     -127.82465730  energy(sigma->0) =     -127.83089240


--------------------------------------------------------------------------------------------------------




--------------------------------------- Iteration      1(   4)  ---------------------------------------


     EDDAV:  cpu time      5.4348: real time      5.4806
       DOS:  cpu time      0.0010: real time      0.0010
    --------------------------------------------
      LOOP:  cpu time      5.4358: real time      5.4816

 eigenvalue-minimisations  : 12960
 total energy-change (2. order) :-0.2403721E-01  (-0.2403539E-01)
 number of electron      56.0000000 magnetization      16.0000000
 augmentation part       56.0000000 magnetization      16.0000000

 Free energy of the ion-electron system (eV)
  ---------------------------------------------------
  alpha Z        PSCENC =        60.34947425
  Ewald energy   TEWEN  =      1868.60248417
  -Hartree energ DENC   =     -3283.42661626
  -exchange      EXHF   =         0.00000000
  -V(xc)+E(xc)   XCENC  =       163.37729306
  PAW double counting   =      1214.24570090    -1211.68112031
  entropy T*S    EENTRO =        -0.01242440
  eigenvalues    EBANDS =      -685.82149848
  atomic energy  EATOM  =      1746.50554237
  Solvation  Ediel_sol  =         0.00000000
  ---------------------------------------------------
  free energy    TOTEN  =      -127.86116470 eV

  energy without entropy =     -127.84874030  energy(sigma->0) =     -127.85495250


--------------------------------------------------------------------------------------------------------




--------------------------------------- Iteration      1(   5)  ---------------------------------------


     EDDAV:  cpu time      5.5223: real time      5.5640
       DOS:  cpu time      0.0008: real time      0.0008
    CHARGE:  cpu time      0.1782: real time      0.1973
    MIXING:  cpu time      0.0018: real time      0.0028
    --------------------------------------------
      LOOP:  cpu time      5.7031: real time      5.7650

 eigenvalue-minimisations  : 13104
 total energy-change (2. order) :-0.3092740E-04  (-0.3092769E-04)
 number of electron      55.9999990 magnetization      12.4619378
 augmentation part        0.8544651 magnetization      11.3185995

 Broyden mixing:
  rms(total) = 0.22682E+01    rms(broyden)= 0.22681E+01
  rms(prec ) = 0.24404E+01
  weight for this iteration     100.00

 Free energy of the ion-electron system (eV)
  ---------------------------------------------------
  alpha Z        PSCENC =        60.34947425
  Ewald energy   TEWEN  =      1868.60248417
  -Hartree energ DENC   =     -3283.42661626
  -exchange      EXHF   =         0.00000000
  -V(xc)+E(xc)   XCENC  =       163.37729306
  PAW double counting   =      1214.24570090    -1211.68112031
  entropy T*S    EENTRO =        -0.01242443
  eigenvalues    EBANDS =      -685.82152938
  atomic energy  EATOM  =      1746.50554237
  Solvation  Ediel_sol  =         0.00000000
  ---------------------------------------------------
  free energy    TOTEN  =      -127.86119563 eV

  energy without entropy =     -127.84877120  energy(sigma->0) =     -127.85498342


--------------------------------------------------------------------------------------------------------




--------------------------------------- Iteration      1(   6)  ---------------------------------------


    POTLOK:  cpu time      0.0366: real time      0.0415
    SETDIJ:  cpu time      0.0036: real time      0.0041
     EDDAV:  cpu time      4.3257: real time      4.3659
       DOS:  cpu time      0.0013: real time      0.0013
    CHARGE:  cpu time      0.1757: real time      0.1947
    MIXING:  cpu time      0.0010: real time      0.0013
    --------------------------------------------
      LOOP:  cpu time      4.5438: real time      4.6087

 eigenvalue-minimisations  : 10464
 total energy-change (2. order) : 0.3333181E+02  (-0.5746778E+01)
 number of electron      55.9999990 magnetization       8.6902057
 augmentation part        0.8293167 magnetization       7.2530307

 Broyden mixing:
  rms(total) = 0.12344E+01    rms(broyden)= 0.12344E+01
  rms(prec ) = 0.13667E+01
  weight for this iteration     100.00

 eigenvalues of (default mixing * dielectric matrix)
  average eigenvalue GAMMA=   1.1051
  1.1051

 Free energy of the ion-electron system (eV)
  ---------------------------------------------------
  alpha Z        PSCENC =        60.34947425
  Ewald energy   TEWEN  =      1868.60248417
  -Hartree energ DENC   =     -3349.46738015
  -exchange      EXHF   =         0.00000000
  -V(xc)+E(xc)   XCENC  =       186.54095126
  PAW double counting   =      2509.09394505    -2507.75527945
  entropy T*S    EENTRO =        -0.01085305
  eigenvalues    EBANDS =      -608.38826796
  atomic energy  EATOM  =      1746.50554237
  Solvation  Ediel_sol  =         0.00000000
  ---------------------------------------------------
  free energy    TOTEN  =       -94.52938350 eV

  energy without entropy =      -94.51853045  energy(sigma->0) =      -94.52395698


--------------------------------------------------------------------------------------------------------




--------------------------------------- Iteration      1(   7)  ---------------------------------------


    POTLOK:  cpu time      0.0313: real time      0.0341
    SETDIJ:  cpu time      0.0033: real time      0.0034
     EDDAV:  cpu time      5.3016: real time      5.3399
       DOS:  cpu time      0.0008: real time      0.0008
    CHARGE:  cpu time      0.1796: real time      0.1941
    MIXING:  cpu time      0.0013: real time      0.0015
    --------------------------------------------
      LOOP:  cpu time      5.5177: real time      5.5738

 eigenvalue-minimisations  : 12672
 total energy-change (2. order) :-0.1113742E+02  (-0.1402099E+01)
 number of electron      55.9999990 magnetization       5.3958083
 augmentation part        0.7725941 magnetization       4.4941410

 Broyden mixing:
  rms(total) = 0.67037E+00    rms(broyden)= 0.67033E+00
  rms(prec ) = 0.70995E+00
  weight for this iteration     100.00

 eigenvalues of (default mixing * dielectric matrix)
  average eigenvalue GAMMA=   1.3320
  0.8601  1.8038

 Free energy of the ion-electron system (eV)
  ---------------------------------------------------
  alpha Z        PSCENC =        60.34947425
  Ewald energy   TEWEN  =      1868.60248417
  -Hartree energ DENC   =     -3425.75157141
  -exchange      EXHF   =         0.00000000
  -V(xc)+E(xc)   XCENC  =       178.82486986
  PAW double counting   =      4189.47402494    -4188.84691534
  entropy T*S    EENTRO =        -0.00957153
  eigenvalues    EBANDS =      -534.81514312
  atomic energy  EATOM  =      1746.50554237
  Solvation  Ediel_sol  =         0.00000000
  ---------------------------------------------------
  free energy    TOTEN  =      -105.66680581 eV

  energy without entropy =     -105.65723428  energy(sigma->0) =     -105.66202005


--------------------------------------------------------------------------------------------------------




--------------------------------------- Iteration      1(   8)  ---------------------------------------


    POTLOK:  cpu time      0.0310: real time      0.0323
    SETDIJ:  cpu time      0.0033: real time      0.0033
     EDDAV:  cpu time      5.1153: real time      5.1550
       DOS:  cpu time      0.0008: real time      0.0008
    CHARGE:  cpu time      0.1711: real time      0.1783
    MIXING:  cpu time      0.0008: real time      0.0008
    --------------------------------------------
      LOOP:  cpu time      5.3223: real time      5.3706

 eigenvalue-minimisations  : 12192
 total energy-change (2. order) :-0.5817706E+01  (-0.5110612E+00)
 number of electron      55.9999991 magnetization       3.6937840
 augmentation part        0.7356870 magnetization       3.1447089

 Broyden mixing:
  rms(total) = 0.37467E+00    rms(broyden)= 0.37463E+00
  rms(prec ) = 0.38861E+00
  weight for this iteration     100.00

 eigenvalues of (default mixing * dielectric matrix)
  average eigenvalue GAMMA=   1.3566
  2.3169  1.0593  0.6936

 Free energy of the ion-electron system (eV)
  ---------------------------------------------------
  alpha Z        PSCENC =        60.34947425
  Ewald energy   TEWEN  =      1868.60248417
  -Hartree energ DENC   =     -3471.19697994
  -exchange      EXHF   =         0.00000000
  -V(xc)+E(xc)   XCENC  =       176.29153578
  PAW double counting   =      5517.72865857    -5517.36070055
  entropy T*S    EENTRO =        -0.00941738
  eigenvalues    EBANDS =      -492.39510867
  atomic energy  EATOM  =      1746.50554237
  Solvation  Ediel_sol  =         0.00000000
  ---------------------------------------------------
  free energy    TOTEN  =      -111.48451140 eV

  energy without entropy =     -111.47509402  energy(sigma->0) =     -111.47980271


--------------------------------------------------------------------------------------------------------




--------------------------------------- Iteration      1(   9)  ---------------------------------------


    POTLOK:  cpu time      0.0304: real time      0.0319
    SETDIJ:  cpu time      0.0034: real time      0.0035
     EDDAV:  cpu time      4.2379: real time      4.2745
       DOS:  cpu time      0.0008: real time      0.0008
    CHARGE:  cpu time      0.1729: real time      0.1904
    MIXING:  cpu time      0.0008: real time      0.0008
    --------------------------------------------
      LOOP:  cpu time      4.4462: real time      4.5019

 eigenvalue-minimisations  : 10416
 total energy-change (2. order) :-0.5279294E+01  (-0.2792254E+00)
 number of electron      55.9999991 magnetization       1.9912528
 augmentation part        0.7243752 magnetization       1.6616996

 Broyden mixing:
  rms(total) = 0.25291E+00    rms(broyden)= 0.25289E+00
  rms(prec ) = 0.26397E+00
  weight for this iteration     100.00

 eigenvalues of (default mixing * dielectric matrix)
  average eigenvalue GAMMA=   1.4147
  2.6573  1.5082  0.8736  0.6198

 Free energy of the ion-electron system (eV)
  ---------------------------------------------------
  alpha Z        PSCENC =        60.34947425
  Ewald energy   TEWEN  =      1868.60248417
  -Hartree energ DENC   =     -3480.53115638
  -exchange      EXHF   =         0.00000000
  -V(xc)+E(xc)   XCENC  =       173.19058157
  PAW double counting   =      5860.75730498    -5860.32302795
  entropy T*S    EENTRO =        -0.00260686
  eigenvalues    EBANDS =      -485.31240197
  atomic energy  EATOM  =      1746.50554237
  Solvation  Ediel_sol  =         0.00000000
  ---------------------------------------------------
  free energy    TOTEN  =      -116.76380583 eV

  energy without entropy =     -116.76119897  energy(sigma->0) =     -116.76250240


--------------------------------------------------------------------------------------------------------




--------------------------------------- Iteration      1(  10)  ---------------------------------------


    POTLOK:  cpu time      0.0299: real time      0.0303
    SETDIJ:  cpu time      0.0034: real time      0.0034
     EDDAV:  cpu time      5.1398: real time      5.1686
       DOS:  cpu time      0.0008: real time      0.0008
    CHARGE:  cpu time      0.1719: real time      0.1767
    MIXING:  cpu time      0.0010: real time      0.0009
    --------------------------------------------
      LOOP:  cpu time      5.3467: real time      5.3807

 eigenvalue-minimisations  : 12384
 total energy-change (2. order) :-0.4152198E+01  (-0.3218991E+00)
 number of electron      55.9999991 magnetization       1.0624842
 augmentation part        0.7208093 magnetization       0.8682142

 Broyden mixing:
  rms(total) = 0.13507E+00    rms(broyden)= 0.13505E+00
  rms(prec ) = 0.14398E+00
  weight for this iteration     100.00

 eigenvalues of (default mixing * dielectric matrix)
  average eigenvalue GAMMA=   1.5223
  3.0108  2.1345  1.0615  0.8059  0.5987

 Free energy of the ion-electron system (eV)
  ---------------------------------------------------
  alpha Z        PSCENC =        60.34947425
  Ewald energy   TEWEN  =      1868.60248417
  -Hartree energ DENC   =     -3482.58328304
  -exchange      EXHF   =         0.00000000
  -V(xc)+E(xc)   XCENC  =       170.59396309
  PAW double counting   =      5970.65234697    -5970.06336142
  entropy T*S    EENTRO =        -0.00483647
  eigenvalues    EBANDS =      -484.96833402
  atomic energy  EATOM  =      1746.50554237
  Solvation  Ediel_sol  =         0.00000000
  ---------------------------------------------------
  free energy    TOTEN  =      -120.91600412 eV

  energy without entropy =     -120.91116765  energy(sigma->0) =     -120.91358589


--------------------------------------------------------------------------------------------------------




--------------------------------------- Iteration      1(  11)  ---------------------------------------


    POTLOK:  cpu time      0.0311: real time      0.0314
    SETDIJ:  cpu time      0.0033: real time      0.0033
     EDDAV:  cpu time      4.9214: real time      4.9559
       DOS:  cpu time      0.0008: real time      0.0008
    CHARGE:  cpu time      0.1746: real time      0.1903
    MIXING:  cpu time      0.0010: real time      0.0010
    --------------------------------------------
      LOOP:  cpu time      5.1322: real time      5.1827

 eigenvalue-minimisations  : 11952
 total energy-change (2. order) :-0.1856781E+01  (-0.1444513E+00)
 number of electron      55.9999991 magnetization       0.4374574
 augmentation part        0.7195821 magnetization       0.3397753

 Broyden mixing:
  rms(total) = 0.82066E-01    rms(broyden)= 0.82051E-01
  rms(prec ) = 0.91522E-01
  weight for this iteration     100.00

 eigenvalues of (default mixing * dielectric matrix)
  average eigenvalue GAMMA=   1.5716
  3.4196  2.3360  1.3131  0.9990  0.7618  0.6003

 Free energy of the ion-electron system (eV)
  ---------------------------------------------------
  alpha Z        PSCENC =        60.34947425
  Ewald energy   TEWEN  =      1868.60248417
  -Hartree energ DENC   =     -3481.83996342
  -exchange      EXHF   =         0.00000000
  -V(xc)+E(xc)   XCENC  =       169.40485997
  PAW double counting   =      5914.71332838    -5914.05854206
  entropy T*S    EENTRO =        -0.00321143
  eigenvalues    EBANDS =      -486.44675695
  atomic energy  EATOM  =      1746.50554237
  Solvation  Ediel_sol  =         0.00000000
  ---------------------------------------------------
  free energy    TOTEN  =      -122.77278473 eV

  energy without entropy =     -122.76957330  energy(sigma->0) =     -122.77117901


--------------------------------------------------------------------------------------------------------




--------------------------------------- Iteration      1(  12)  ---------------------------------------


    POTLOK:  cpu time      0.0298: real time      0.0317
    SETDIJ:  cpu time      0.0033: real time      0.0033
     EDDAV:  cpu time      5.5564: real time      5.5918
       DOS:  cpu time      0.0011: real time      0.0011
    CHARGE:  cpu time      0.1733: real time      0.1804
    MIXING:  cpu time      0.0009: real time      0.0009
    --------------------------------------------
      LOOP:  cpu time      5.7648: real time      5.8093

 eigenvalue-minimisations  : 13248
 total energy-change (2. order) :-0.9875149E+00  (-0.7913605E-01)
 number of electron      55.9999991 magnetization       0.1394028
 augmentation part        0.7184842 magnetization       0.0837419

 Broyden mixing:
  rms(total) = 0.40312E-01    rms(broyden)= 0.40303E-01
  rms(prec ) = 0.49935E-01
  weight for this iteration     100.00

 eigenvalues of (default mixing * dielectric matrix)
  average eigenvalue GAMMA=   1.6845
  4.1594  2.3535  2.0366  1.0944  0.8271  0.7140  0.6069

 Free energy of the ion-electron system (eV)
  ---------------------------------------------------
  alpha Z        PSCENC =        60.34947425
  Ewald energy   TEWEN  =      1868.60248417
  -Hartree energ DENC   =     -3480.24850334
  -exchange      EXHF   =         0.00000000
  -V(xc)+E(xc)   XCENC  =       168.66311362
  PAW double counting   =      5814.31036863    -5813.65413943
  entropy T*S    EENTRO =        -0.00465413
  eigenvalues    EBANDS =      -488.28398578
  atomic energy  EATOM  =      1746.50554237
  Solvation  Ediel_sol  =         0.00000000
  ---------------------------------------------------
  free energy    TOTEN  =      -123.76029965 eV

  energy without entropy =     -123.75564552  energy(sigma->0) =     -123.75797258


--------------------------------------------------------------------------------------------------------




--------------------------------------- Iteration      1(  13)  ---------------------------------------


    POTLOK:  cpu time      0.0312: real time      0.0315
    SETDIJ:  cpu time      0.0032: real time      0.0033
     EDDAV:  cpu time      5.1459: real time      5.1822
       DOS:  cpu time      0.0008: real time      0.0008
    CHARGE:  cpu time      0.1703: real time      0.1761
    MIXING:  cpu time      0.0011: real time      0.0011
    --------------------------------------------
      LOOP:  cpu time      5.3525: real time      5.3950

 eigenvalue-minimisations  : 12288
 total energy-change (2. order) :-0.3067741E+00  (-0.1913219E-01)
 number of electron      55.9999991 magnetization       0.0597888
 augmentation part        0.7179172 magnetization       0.0362292

 Broyden mixing:
  rms(total) = 0.19507E-01    rms(broyden)= 0.19499E-01
  rms(prec ) = 0.28291E-01
  weight for this iteration     100.00

 eigenvalues of (default mixing * dielectric matrix)
  average eigenvalue GAMMA=   1.6767
  4.4452  2.3040  2.3040  1.2244  1.0293  0.8115  0.6140  0.6816

 Free energy of the ion-electron system (eV)
  ---------------------------------------------------
  alpha Z        PSCENC =        60.34947425
  Ewald energy   TEWEN  =      1868.60248417
  -Hartree energ DENC   =     -3479.25524499
  -exchange      EXHF   =         0.00000000
  -V(xc)+E(xc)   XCENC  =       168.36940150
  PAW double counting   =      5773.78845079    -5773.14541551
  entropy T*S    EENTRO =        -0.00605003
  eigenvalues    EBANDS =      -489.27571629
  atomic energy  EATOM  =      1746.50554237
  Solvation  Ediel_sol  =         0.00000000
  ---------------------------------------------------
  free energy    TOTEN  =      -124.06707374 eV

  energy without entropy =     -124.06102371  energy(sigma->0) =     -124.06404873


--------------------------------------------------------------------------------------------------------




--------------------------------------- Iteration      1(  14)  ---------------------------------------


    POTLOK:  cpu time      0.0301: real time      0.0307
    SETDIJ:  cpu time      0.0033: real time      0.0033
     EDDAV:  cpu time      4.2847: real time      4.3074
       DOS:  cpu time      0.0008: real time      0.0008
    CHARGE:  cpu time      0.1692: real time      0.1804
    MIXING:  cpu time      0.0010: real time      0.0010
    --------------------------------------------
      LOOP:  cpu time      4.4893: real time      4.5237

 eigenvalue-minimisations  : 10464
 total energy-change (2. order) :-0.5380580E-01  (-0.2911071E-02)
 number of electron      55.9999991 magnetization       0.0117423
 augmentation part        0.7179550 magnetization       0.0013660

 Broyden mixing:
  rms(total) = 0.10838E-01    rms(broyden)= 0.10837E-01
  rms(prec ) = 0.18775E-01
  weight for this iteration     100.00

 eigenvalues of (default mixing * dielectric matrix)
  average eigenvalue GAMMA=   1.6869
  4.5626  2.4963  2.4963  1.5841  1.1085  0.8624  0.7925  0.6195  0.6603

 Free energy of the ion-electron system (eV)
  ---------------------------------------------------
  alpha Z        PSCENC =        60.34947425
  Ewald energy   TEWEN  =      1868.60248417
  -Hartree energ DENC   =     -3478.52753669
  -exchange      EXHF   =         0.00000000
  -V(xc)+E(xc)   XCENC  =       168.29008228
  PAW double counting   =      5779.20224204    -5778.56379805
  entropy T*S    EENTRO =        -0.00609459
  eigenvalues    EBANDS =      -489.97327532
  atomic energy  EATOM  =      1746.50554237
  Solvation  Ediel_sol  =         0.00000000
  ---------------------------------------------------
  free energy    TOTEN  =      -124.12087954 eV

  energy without entropy =     -124.11478496  energy(sigma->0) =     -124.11783225


--------------------------------------------------------------------------------------------------------




--------------------------------------- Iteration      1(  15)  ---------------------------------------


    POTLOK:  cpu time      0.0308: real time      0.0312
    SETDIJ:  cpu time      0.0033: real time      0.0033
     EDDAV:  cpu time      3.9870: real time      4.0092
       DOS:  cpu time      0.0008: real time      0.0008
    CHARGE:  cpu time      0.1725: real time      0.1843
    MIXING:  cpu time      0.0010: real time      0.0010
    --------------------------------------------
      LOOP:  cpu time      4.1955: real time      4.2298

 eigenvalue-minimisations  :  9888
 total energy-change (2. order) :-0.2354198E-01  (-0.1476693E-02)
 number of electron      55.9999991 magnetization      -0.0049419
 augmentation part        0.7181879 magnetization      -0.0072159

 Broyden mixing:
  rms(total) = 0.57799E-02    rms(broyden)= 0.57793E-02
  rms(prec ) = 0.96502E-02
  weight for this iteration     100.00

 eigenvalues of (default mixing * dielectric matrix)
  average eigenvalue GAMMA=   1.6785
  4.6426  2.6977  2.6977  1.8204  1.1273  1.0027  0.8236  0.7199  0.6267  0.6267

 Free energy of the ion-electron system (eV)
  ---------------------------------------------------
  alpha Z        PSCENC =        60.34947425
  Ewald energy   TEWEN  =      1868.60248417
  -Hartree energ DENC   =     -3477.61559094
  -exchange      EXHF   =         0.00000000
  -V(xc)+E(xc)   XCENC  =       168.21568939
  PAW double counting   =      5775.21721623    -5774.58258129
  entropy T*S    EENTRO =        -0.00608084
  eigenvalues    EBANDS =      -490.83057485
  atomic energy  EATOM  =      1746.50554237
  Solvation  Ediel_sol  =         0.00000000
  ---------------------------------------------------
  free energy    TOTEN  =      -124.14442152 eV

  energy without entropy =     -124.13834068  energy(sigma->0) =     -124.14138110


--------------------------------------------------------------------------------------------------------




--------------------------------------- Iteration      1(  16)  ---------------------------------------


    POTLOK:  cpu time      0.0298: real time      0.0302
    SETDIJ:  cpu time      0.0033: real time      0.0033
     EDDAV:  cpu time      3.9802: real time      4.0172
       DOS:  cpu time      0.0008: real time      0.0008
    CHARGE:  cpu time      0.1726: real time      0.1827
    MIXING:  cpu time      0.0012: real time      0.0012
    --------------------------------------------
      LOOP:  cpu time      4.1879: real time      4.2354

 eigenvalue-minimisations  :  9792
 total energy-change (2. order) :-0.1430200E-02  (-0.2233464E-03)
 number of electron      55.9999991 magnetization      -0.0013932
 augmentation part        0.7184509 magnetization      -0.0019726

 Broyden mixing:
  rms(total) = 0.37108E-02    rms(broyden)= 0.37104E-02
  rms(prec ) = 0.53244E-02
  weight for this iteration     100.00

 eigenvalues of (default mixing * dielectric matrix)
  average eigenvalue GAMMA=   1.7105
  4.6265  2.9563  2.9563  2.0529  1.4205  1.1068  0.9526  0.8157  0.6875  0.6204
  0.6204

 Free energy of the ion-electron system (eV)
  ---------------------------------------------------
  alpha Z        PSCENC =        60.34947425
  Ewald energy   TEWEN  =      1868.60248417
  -Hartree energ DENC   =     -3477.35100869
  -exchange      EXHF   =         0.00000000
  -V(xc)+E(xc)   XCENC  =       168.18752890
  PAW double counting   =      5774.42517928    -5773.78989969
  entropy T*S    EENTRO =        -0.00605696
  eigenvalues    EBANDS =      -491.06909535
  atomic energy  EATOM  =      1746.50554237
  Solvation  Ediel_sol  =         0.00000000
  ---------------------------------------------------
  free energy    TOTEN  =      -124.14585172 eV

  energy without entropy =     -124.13979476  energy(sigma->0) =     -124.14282324


--------------------------------------------------------------------------------------------------------




--------------------------------------- Iteration      1(  17)  ---------------------------------------


    POTLOK:  cpu time      0.0296: real time      0.0298
    SETDIJ:  cpu time      0.0030: real time      0.0032
     EDDAV:  cpu time      3.6205: real time      3.6402
       DOS:  cpu time      0.0008: real time      0.0008
    CHARGE:  cpu time      0.1706: real time      0.1775
    MIXING:  cpu time      0.0011: real time      0.0011
    --------------------------------------------
      LOOP:  cpu time      3.8255: real time      3.8527

 eigenvalue-minimisations  :  9072
 total energy-change (2. order) :-0.5929981E-03  (-0.7666707E-04)
 number of electron      55.9999991 magnetization      -0.0033322
 augmentation part        0.7184882 magnetization      -0.0037755

 Broyden mixing:
  rms(total) = 0.15172E-02    rms(broyden)= 0.15171E-02
  rms(prec ) = 0.27277E-02
  weight for this iteration     100.00

 eigenvalues of (default mixing * dielectric matrix)
  average eigenvalue GAMMA=   1.7210
  4.6912  3.7437  2.5306  2.3372  1.6263  1.1140  0.9426  0.9426  0.8067  0.6771
  0.6201  0.6201

 Free energy of the ion-electron system (eV)
  ---------------------------------------------------
  alpha Z        PSCENC =        60.34947425
  Ewald energy   TEWEN  =      1868.60248417
  -Hartree energ DENC   =     -3477.57740943
  -exchange      EXHF   =         0.00000000
  -V(xc)+E(xc)   XCENC  =       168.18872589
  PAW double counting   =      5777.93002622    -5777.29399973
  entropy T*S    EENTRO =        -0.00604689
  eigenvalues    EBANDS =      -490.84524155
  atomic energy  EATOM  =      1746.50554237
  Solvation  Ediel_sol  =         0.00000000
  ---------------------------------------------------
  free energy    TOTEN  =      -124.14644472 eV

  energy without entropy =     -124.14039783  energy(sigma->0) =     -124.14342127


--------------------------------------------------------------------------------------------------------




--------------------------------------- Iteration      1(  18)  ---------------------------------------


    POTLOK:  cpu time      0.0300: real time      0.0303
    SETDIJ:  cpu time      0.0033: real time      0.0033
     EDDAV:  cpu time      3.5616: real time      3.5885
       DOS:  cpu time      0.0008: real time      0.0008
    CHARGE:  cpu time      0.1708: real time      0.1757
    MIXING:  cpu time      0.0011: real time      0.0011
    --------------------------------------------
      LOOP:  cpu time      3.7677: real time      3.7997

 eigenvalue-minimisations  :  8832
 total energy-change (2. order) :-0.3321507E-04  (-0.1640648E-04)
 number of electron      55.9999991 magnetization      -0.0041069
 augmentation part        0.7184929 magnetization      -0.0039821

 Broyden mixing:
  rms(total) = 0.85037E-03    rms(broyden)= 0.85033E-03
  rms(prec ) = 0.16003E-02
  weight for this iteration     100.00

 eigenvalues of (default mixing * dielectric matrix)
  average eigenvalue GAMMA=   1.7433
  4.8937  3.9198  2.6017  2.6017  1.8162  1.2580  1.1216  0.9989  0.8181  0.7361
  0.6545  0.6126  0.6304

 Free energy of the ion-electron system (eV)
  ---------------------------------------------------
  alpha Z        PSCENC =        60.34947425
  Ewald energy   TEWEN  =      1868.60248417
  -Hartree energ DENC   =     -3477.72156762
  -exchange      EXHF   =         0.00000000
  -V(xc)+E(xc)   XCENC  =       168.18673071
  PAW double counting   =      5777.88638946    -5777.25090415
  entropy T*S    EENTRO =        -0.00605903
  eigenvalues    EBANDS =      -490.69856809
  atomic energy  EATOM  =      1746.50554237
  Solvation  Ediel_sol  =         0.00000000
  ---------------------------------------------------
  free energy    TOTEN  =      -124.14647793 eV

  energy without entropy =     -124.14041891  energy(sigma->0) =     -124.14344842


--------------------------------------------------------------------------------------------------------




--------------------------------------- Iteration      1(  19)  ---------------------------------------


    POTLOK:  cpu time      0.0312: real time      0.0365
    SETDIJ:  cpu time      0.0032: real time      0.0032
     EDDAV:  cpu time      3.5410: real time      3.5621
       DOS:  cpu time      0.0008: real time      0.0008
    CHARGE:  cpu time      0.1730: real time      0.1848
    MIXING:  cpu time      0.0011: real time      0.0012
    --------------------------------------------
      LOOP:  cpu time      3.7503: real time      3.7886

 eigenvalue-minimisations  :  8832
 total energy-change (2. order) :-0.5293225E-04  (-0.3874459E-05)
 number of electron      55.9999991 magnetization      -0.0028511
 augmentation part        0.7184825 magnetization      -0.0024931

 Broyden mixing:
  rms(total) = 0.51135E-03    rms(broyden)= 0.51133E-03
  rms(prec ) = 0.10808E-02
  weight for this iteration     100.00

 eigenvalues of (default mixing * dielectric matrix)
  average eigenvalue GAMMA=   1.7102
  4.9145  3.8250  2.7496  2.7496  1.8714  1.3735  1.1616  0.9459  0.9459  0.8089
  0.7041  0.6547  0.6113  0.6271

 Free energy of the ion-electron system (eV)
  ---------------------------------------------------
  alpha Z        PSCENC =        60.34947425
  Ewald energy   TEWEN  =      1868.60248417
  -Hartree energ DENC   =     -3477.88502654
  -exchange      EXHF   =         0.00000000
  -V(xc)+E(xc)   XCENC  =       168.18892810
  PAW double counting   =      5777.53397676    -5776.89849508
  entropy T*S    EENTRO =        -0.00606375
  eigenvalues    EBANDS =      -490.53735114
  atomic energy  EATOM  =      1746.50554237
  Solvation  Ediel_sol  =         0.00000000
  ---------------------------------------------------
  free energy    TOTEN  =      -124.14653087 eV

  energy without entropy =     -124.14046712  energy(sigma->0) =     -124.14349899


--------------------------------------------------------------------------------------------------------




--------------------------------------- Iteration      1(  20)  ---------------------------------------


    POTLOK:  cpu time      0.0291: real time      0.0312
    SETDIJ:  cpu time      0.0032: real time      0.0032
     EDDAV:  cpu time      3.3987: real time      3.4213
       DOS:  cpu time      0.0008: real time      0.0008
    CHARGE:  cpu time      0.1685: real time      0.1781
    MIXING:  cpu time      0.0012: real time      0.0012
    --------------------------------------------
      LOOP:  cpu time      3.6014: real time      3.6357

 eigenvalue-minimisations  :  8544
 total energy-change (2. order) :-0.2684804E-04  (-0.2025504E-05)
 number of electron      55.9999991 magnetization      -0.0013387
 augmentation part        0.7184564 magnetization      -0.0011429

 Broyden mixing:
  rms(total) = 0.36332E-03    rms(broyden)= 0.36330E-03
  rms(prec ) = 0.72426E-03
  weight for this iteration     100.00

 eigenvalues of (default mixing * dielectric matrix)
  average eigenvalue GAMMA=   1.7027
  4.9467  3.7100  3.1100  2.7003  1.8739  1.7184  1.2256  1.0355  1.0355  0.8092
  0.8092  0.6865  0.6107  0.6381  0.6308

 Free energy of the ion-electron system (eV)
  ---------------------------------------------------
  alpha Z        PSCENC =        60.34947425
  Ewald energy   TEWEN  =      1868.60248417
  -Hartree energ DENC   =     -3478.05586814
  -exchange      EXHF   =         0.00000000
  -V(xc)+E(xc)   XCENC  =       168.19289062
  PAW double counting   =      5777.60251582    -5776.96691523
  entropy T*S    EENTRO =        -0.00606079
  eigenvalues    EBANDS =      -490.37062078
  atomic energy  EATOM  =      1746.50554237
  Solvation  Ediel_sol  =         0.00000000
  ---------------------------------------------------
  free energy    TOTEN  =      -124.14655771 eV

  energy without entropy =     -124.14049693  energy(sigma->0) =     -124.14352732


--------------------------------------------------------------------------------------------------------




--------------------------------------- Iteration      1(  21)  ---------------------------------------


    POTLOK:  cpu time      0.0292: real time      0.0296
    SETDIJ:  cpu time      0.0032: real time      0.0032
     EDDAV:  cpu time      3.4318: real time      3.4594
       DOS:  cpu time      0.0011: real time      0.0011
    CHARGE:  cpu time      0.1711: real time      0.1761
    MIXING:  cpu time      0.0013: real time      0.0013
    --------------------------------------------
      LOOP:  cpu time      3.6378: real time      3.6707

 eigenvalue-minimisations  :  8544
 total energy-change (2. order) :-0.4895922E-04  (-0.1673926E-05)
 number of electron      55.9999991 magnetization      -0.0004755
 augmentation part        0.7184375 magnetization      -0.0003485

 Broyden mixing:
  rms(total) = 0.23318E-03    rms(broyden)= 0.23316E-03
  rms(prec ) = 0.37535E-03
  weight for this iteration     100.00

 eigenvalues of (default mixing * dielectric matrix)
  average eigenvalue GAMMA=   1.7414
  5.0440  3.6678  3.1979  3.1979  2.0821  2.0821  1.3249  1.1807  0.9875  0.9875
  0.8078  0.7534  0.6783  0.6109  0.6296  0.6296

 Free energy of the ion-electron system (eV)
  ---------------------------------------------------
  alpha Z        PSCENC =        60.34947425
  Ewald energy   TEWEN  =      1868.60248417
  -Hartree energ DENC   =     -3478.19187864
  -exchange      EXHF   =         0.00000000
  -V(xc)+E(xc)   XCENC  =       168.19434627
  PAW double counting   =      5777.40397835    -5776.76845135
  entropy T*S    EENTRO =        -0.00605933
  eigenvalues    EBANDS =      -490.23604275
  atomic energy  EATOM  =      1746.50554237
  Solvation  Ediel_sol  =         0.00000000
  ---------------------------------------------------
  free energy    TOTEN  =      -124.14660667 eV

  energy without entropy =     -124.14054734  energy(sigma->0) =     -124.14357701


--------------------------------------------------------------------------------------------------------




--------------------------------------- Iteration      1(  22)  ---------------------------------------


[...]
      5     -14.6006      1.00000
      6     -13.3819      1.00000
      7     -12.7457      1.00000
      8     -12.3828      1.00000
      9     -10.4148      1.00000
     10      -9.6735      1.00000
     11      -9.0441      1.00000
     12      -8.8260      1.00000
     13      -8.2597      1.00000
     14      -7.7809      1.00000
     15      -7.5909      1.00000
     16      -7.3910      1.00000
     17      -7.2258      1.00000
     18      -6.4632      1.00000
     19      -5.9943      1.00000
     20      -5.8953      1.00000
     21      -5.4572      1.00000
     22      -5.2798      1.00000
     23      -4.9248      1.00000
     24      -4.5547      1.00000
     25      -4.3507      1.00000
     26      -4.0817      1.00000
     27      -2.7702      1.00000
     28      -1.0085      1.00000
     29       0.3647      0.00000
     30       1.9880      0.00000
     31       3.2752      0.00000
     32       3.4245      0.00000
     33       3.8564      0.00000
     34       4.3745      0.00000
     35       4.5236      0.00000
     36       4.8157      0.00000
     37       4.9564      0.00000
     38       5.1439      0.00000
     39       5.6056      0.00000
     40       5.7602      0.00000
     41       5.7912      0.00000
     42       5.8573      0.00000
     43       6.2812      0.00000
     44       6.4782      0.00000
     45       6.7202      0.00000
     46       6.8826      0.00000
     47       6.9676      0.00000
     48       7.0774      0.00000

 k-point    41 :      -0.2500   -0.4167    0.0000
  band No.  band energies     occupation 
      1     -18.1039      1.00000
      2     -17.6303      1.00000
      3     -17.1568      1.00000
      4     -15.0773      1.00000
      5     -14.6010      1.00000
      6     -13.3630      1.00000
      7     -12.7455      1.00000
      8     -12.4247      1.00000
      9     -10.3903      1.00000
     10      -9.6734      1.00000
     11      -9.0440      1.00000
     12      -8.8025      1.00000
     13      -8.3048      1.00000
     14      -7.7810      1.00000
     15      -7.5912      1.00000
     16      -7.3307      1.00000
     17      -7.2425      1.00000
     18      -6.4133      1.00000
     19      -6.0001      1.00000
     20      -5.9720      1.00000
     21      -5.4503      1.00000
     22      -5.2796      1.00000
     23      -4.9273      1.00000
     24      -4.5551      1.00000
     25      -4.3506      1.00000
     26      -4.0816      1.00000
     27      -2.7701      1.00000
     28      -0.9750      1.00000
     29       0.3241      0.00000
     30       1.9882      0.00000
     31       3.2749      0.00000
     32       3.4248      0.00000
     33       3.8562      0.00000
     34       4.3743      0.00000
     35       4.5236      0.00000
     36       4.8158      0.00000
     37       4.9647      0.00000
     38       5.1437      0.00000
     39       5.6050      0.00000
     40       5.7277      0.00000
     41       5.7913      0.00000
     42       5.8567      0.00000
     43       6.2822      0.00000
     44       6.4799      0.00000
     45       6.7529      0.00000
     46       6.8828      0.00000
     47       6.9678      0.00000
     48       7.0779      0.00000

 k-point    42 :       0.4167    0.3333    0.0000
  band No.  band energies     occupation 
      1     -18.1036      1.00000
      2     -17.6285      1.00000
      3     -17.1587      1.00000
      4     -15.0771      1.00000
      5     -14.6014      1.00000
      6     -13.3491      1.00000
      7     -12.7454      1.00000
      8     -12.4553      1.00000
      9     -10.3725      1.00000
     10      -9.6728      1.00000
     11      -9.0446      1.00000
     12      -8.8862      1.00000
     13      -8.2194      1.00000
     14      -7.7810      1.00000
     15      -7.5914      1.00000
     16      -7.2936      1.00000
     17      -7.1552      1.00000
     18      -6.5159      1.00000
     19      -6.0022      1.00000
     20      -6.0008      1.00000
     21      -5.4608      1.00000
     22      -5.2794      1.00000
     23      -4.9143      1.00000
     24      -4.5555      1.00000
     25      -4.3512      1.00000
     26      -4.0808      1.00000
     27      -2.7699      1.00000
     28      -0.9439      1.00000
     29       0.2865      0.00000
     30       1.9885      0.00000
     31       3.2745      0.00000
     32       3.4251      0.00000
     33       3.8560      0.00000
     34       4.3741      0.00000
     35       4.5236      0.00000
     36       4.8160      0.00000
     37       4.9137      0.00000
     38       5.1433      0.00000
     39       5.6048      0.00000
     40       5.7733      0.00000
     41       5.7909      0.00000
     42       5.8571      0.00000
     43       6.2826      0.00000
     44       6.4807      0.00000
     45       6.7621      0.00000
     46       6.8836      0.00000
     47       6.9683      0.00000
     48       7.0783      0.00000

 k-point    43 :       0.3333    0.3333    0.0000
  band No.  band energies     occupation 
      1     -17.7002      1.00000
      2     -17.6978      1.00000
      3     -17.6067      1.00000
      4     -14.8412      1.00000
      5     -14.8401      1.00000
      6     -12.8451      1.00000
      7     -12.8228      1.00000
      8     -12.7807      1.00000
      9     -10.6326      1.00000
     10      -9.2420      1.00000
     11      -9.2389      1.00000
     12      -8.1189      1.00000
     13      -8.0096      1.00000
     14      -7.9687      1.00000
     15      -7.8621      1.00000
     16      -7.7103      1.00000
     17      -6.7159      1.00000
     18      -6.6396      1.00000
     19      -6.5347      1.00000
     20      -5.5293      1.00000
     21      -5.5207      1.00000
     22      -5.4476      1.00000
     23      -4.9053      1.00000
     24      -4.9026      1.00000
     25      -4.1836      1.00000
     26      -4.1813      1.00000
     27      -2.9400      1.00000
     28      -0.3595      0.86372
     29      -0.2765      0.46952
     30       2.8085      0.00000
     31       2.8118      0.00000
     32       3.5635      0.00000
     33       3.5656      0.00000
     34       4.2272      0.00000
     35       4.3892      0.00000
     36       4.9931      0.00000
     37       4.9937      0.00000
     38       5.3194      0.00000
     39       5.8085      0.00000
     40       5.8957      0.00000
     41       5.9149      0.00000
     42       6.1534      0.00000
     43       6.1645      0.00000
     44       6.3489      0.00000
     45       6.3742      0.00000
     46       6.3823      0.00000
     47       6.5008      0.00000
     48       7.4969      0.00000


--------------------------------------------------------------------------------------------------------


 soft charge-density along one line, spin component           1
         0         1         2         3         4         5         6         7         8         9
 total charge-density along one line
 
 soft charge-density along one line, spin component           2
         0         1         2         3         4         5         6         7         8         9
 total charge-density along one line
 
 pseudopotential strength for first ion, spin component:           1
  6.667  10.168  -0.005   0.000  -0.008  -0.007   0.000  -0.012
 10.168  15.503  -0.007   0.000  -0.012  -0.011   0.000  -0.018
 -0.005  -0.007  -2.283   0.000   0.003  -3.911   0.000   0.005
  0.000   0.000   0.000  -2.277  -0.000   0.000  -3.897  -0.000
 -0.008  -0.012   0.003  -0.000  -2.280   0.005  -0.000  -3.905
 -0.007  -0.011  -3.911   0.000   0.005  -6.503   0.001   0.011
  0.000   0.000   0.000  -3.897  -0.000   0.001  -6.472  -0.000
 -0.012  -0.018   0.005  -0.000  -3.905   0.011  -0.000  -6.491
 pseudopotential strength for first ion, spin component:           2
  6.667  10.168  -0.005   0.000  -0.008  -0.007   0.000  -0.012
 10.168  15.503  -0.007   0.000  -0.012  -0.011   0.000  -0.018
 -0.005  -0.007  -2.283   0.000   0.003  -3.911   0.000   0.005
  0.000   0.000   0.000  -2.277  -0.000   0.000  -3.897  -0.000
 -0.008  -0.012   0.003  -0.000  -2.280   0.005  -0.000  -3.905
 -0.007  -0.011  -3.911   0.000   0.005  -6.503   0.001   0.011
  0.000   0.000   0.000  -3.897  -0.000   0.001  -6.472  -0.000
 -0.012  -0.018   0.005  -0.000  -3.905   0.011  -0.000  -6.491
 total augmentation occupancy for first ion, spin component:           1
  3.788  -1.048  -0.191   0.009  -0.333   0.091  -0.004   0.157
 -1.048   0.308   0.109  -0.005   0.188  -0.040   0.002  -0.070
 -0.191   0.109   4.320  -0.015  -0.281  -1.227   0.007   0.126
  0.009  -0.005  -0.015   1.826   0.002   0.007  -0.390  -0.002
 -0.333   0.188  -0.281   0.002   3.995   0.126  -0.001  -1.082
  0.091  -0.040  -1.227   0.007   0.126   0.358  -0.003  -0.047
 -0.004   0.002   0.007  -0.390  -0.001  -0.003   0.087   0.001
  0.157  -0.070   0.126  -0.002  -1.082  -0.047   0.001   0.303
 total augmentation occupancy for first ion, spin component:           2
  0.000  -0.000   0.000  -0.000   0.000  -0.000   0.000  -0.000
 -0.000   0.000  -0.000   0.000  -0.000   0.000  -0.000   0.000
  0.000  -0.000   0.000  -0.000  -0.000  -0.000   0.000   0.000
 -0.000   0.000  -0.000  -0.000   0.000   0.000   0.000  -0.000
  0.000  -0.000  -0.000   0.000   0.000   0.000  -0.000  -0.000
 -0.000   0.000  -0.000   0.000   0.000   0.000  -0.000  -0.000
  0.000  -0.000   0.000   0.000  -0.000  -0.000  -0.000   0.000
 -0.000   0.000   0.000  -0.000  -0.000  -0.000   0.000   0.000


------------------------ aborting loop because EDIFF is reached ----------------------------------------


    CHARGE:  cpu time      0.1700: real time      0.1802
    FORLOC:  cpu time      0.0015: real time      0.0015
    FORNL :  cpu time      0.4671: real time      0.4733
    STRESS:  cpu time      2.1168: real time      2.1231
    FORCOR:  cpu time      0.0256: real time      0.0257
    FORHAR:  cpu time      0.0037: real time      0.0037
    MIXING:  cpu time      0.0007: real time      0.0007
    OFIELD:  cpu time      0.0000: real time      0.0000

 ---------------------------------------------------------------------------------------------

         DFTD3 V3.0 Rev 1        
 Edisp (eV)   -1.50959

 E6    (eV) :    -1.0256
 E8    (eV) :    -0.4839
 % E8        : 32.06
    FORVDW:  cpu time      0.0413: real time      0.0419

  FORCE on cell =-STRESS in cart. coord.  units (eV):
  Direction    XX          YY          ZZ          XY          YZ          ZX
  --------------------------------------------------------------------------------------
  Alpha Z    60.34947    60.34947    60.34947
  Ewald    3801.94518  3812.96118 -5475.72761     0.00000     0.00001    -0.00676
  Hartree  3688.39198  3689.93485 -3629.51803     0.00000    -0.00000    -0.00146
  E(xc)    -195.58289  -195.54682  -202.49605    -0.00000    -0.00000    -0.00002
  Local   -8039.43101 -8049.94366  8432.58004    -0.00000    -0.00000     0.00756
  n-local   -38.14806   -38.05919   -39.94410    -0.24728     0.00352    -0.00008
  augment    -2.76670    -2.78210    -2.50129     0.00000     0.00000    -0.00001
  Kinetic   725.68365   723.91329   856.93144    -1.12267    -0.01376     0.00248
  Fock        0.00000     0.00000     0.00000     0.00000     0.00000     0.00000
  vdW        -1.11826    -1.12139    -0.49681     0.00000     0.00000     0.00001
  -------------------------------------------------------------------------------------
  Total      -0.67663    -0.29436    -0.82293     0.00000     0.00000     0.00172
  in kB      -3.35959    -1.46156    -4.08596     0.00000     0.00000     0.00856
  external pressure =       -2.97 kB  Pullay stress =        0.00 kB


 VOLUME and BASIS-vectors are now :
 -----------------------------------------------------------------------------
  energy-cutoff  :      450.00
  volume of cell :      322.68
      direct lattice vectors                 reciprocal lattice vectors
     4.316270612  2.492000000  0.000000000     0.115840744  0.200642055  0.000000000
    -4.316270612  2.492000000  0.000000000    -0.115840744  0.200642055  0.000000000
     0.000000000  0.000000000 15.000000000     0.000000000  0.000000000  0.066666667

  length of vectors
     4.984000000  4.984000000 15.000000000     0.231681488  0.231681488  0.066666667


 FORCES acting on ions
    electron-ion (+dipol)            ewald-force                    non-local-force                 convergence-correction
 -----------------------------------------------------------------------------------------------
   -.254E+02 -.146E+02 0.123E+03   0.283E+02 0.163E+02 -.123E+03   -.293E+01 -.169E+01 0.642E-01   0.410E-05 0.343E-04 0.412E-02
   0.254E+02 0.147E+02 0.123E+03   -.283E+02 -.164E+02 -.123E+03   0.293E+01 0.169E+01 0.622E-01   -.307E-04 0.125E-04 0.412E-02
   -.254E+02 0.146E+02 0.123E+03   0.283E+02 -.163E+02 -.123E+03   -.293E+01 0.169E+01 0.642E-01   0.410E-05 -.343E-04 0.412E-02
   0.254E+02 -.147E+02 0.123E+03   -.283E+02 0.164E+02 -.123E+03   0.293E+01 -.169E+01 0.622E-01   -.307E-04 -.125E-04 0.412E-02
   0.244E-01 0.293E+02 0.123E+03   -.287E-01 -.327E+02 -.123E+03   0.111E-02 0.338E+01 0.618E-01   0.276E-04 -.214E-04 0.412E-02
   0.244E-01 -.293E+02 0.123E+03   -.287E-01 0.327E+02 -.123E+03   0.111E-02 -.338E+01 0.618E-01   0.276E-04 0.214E-04 0.412E-02
   -.316E-01 0.767E-04 0.124E+03   0.339E-01 0.315E-03 -.124E+03   0.336E-02 -.465E-18 0.467E-01   0.441E-06 -.266E-09 0.415E-02
   0.110E-01 0.769E-04 0.115E+03   -.128E-01 0.315E-03 -.114E+03   0.214E-02 -.228E-17 -.313E+00   -.205E-05 -.295E-09 0.418E-02
   -.134E+01 0.225E+01 -.122E+03   0.152E+01 -.253E+01 0.122E+03   0.259E-01 -.206E+00 -.150E-01   -.464E-05 -.400E-04 -.603E-02
   0.194E+01 0.174E+01 -.121E+03   -.230E+01 -.185E+01 0.121E+03   -.257E+00 0.187E-01 0.343E-02   -.207E-04 -.147E-04 -.607E-02
   0.101E+01 0.469E-03 -.121E+03   -.977E+00 0.153E-08 0.121E+03   0.559E-01 -.103E-17 0.190E-01   -.205E-04 0.266E-09 -.609E-02
   0.673E+00 0.476E-03 -.122E+03   -.754E+00 0.464E-06 0.122E+03   0.649E-01 0.117E-17 -.810E-02   0.155E-04 -.259E-08 -.608E-02
   -.190E+01 0.463E-03 -.122E+03   0.229E+01 0.504E-08 0.122E+03   0.320E+00 0.246E-17 -.127E-01   0.216E-04 -.399E-09 -.607E-02
   -.991E+00 0.468E-03 -.123E+03   0.994E+00 -.460E-06 0.123E+03   0.215E-01 -.518E-17 -.267E-01   0.350E-04 0.244E-08 -.600E-02
   -.134E+01 -.225E+01 -.122E+03   0.152E+01 0.253E+01 0.122E+03   0.259E-01 0.206E+00 -.150E-01   -.464E-05 0.400E-04 -.603E-02
   0.194E+01 -.173E+01 -.121E+03   -.230E+01 0.185E+01 0.121E+03   -.257E+00 -.187E-01 0.343E-02   -.207E-04 0.147E-04 -.607E-02
 -----------------------------------------------------------------------------------------------
   0.109E-02 0.465E-02 -.427E-01   -.266E-14 0.389E-13 0.142E-13   -.111E-02 0.104E-16 0.584E-01   0.121E-05 -.651E-09 -.154E-01
 
 
 POSITION                                       TOTAL-FORCE (eV/Angst)
 -----------------------------------------------------------------------------------
      2.89085      1.66897      1.64531        -0.006672     -0.008198      0.018086
      1.42567      0.82317      1.64568         0.006855     -0.004221      0.017485
     -1.42542      0.82302      1.64531        -0.006672      0.008198      0.018086
     -2.89059      1.66883      1.64568         0.006855      0.004221      0.017485
      0.00002      1.64632      1.64575        -0.003214      0.000206      0.017214
      0.00002      3.33767      1.64575        -0.003214     -0.000206      0.017214
      1.43868      2.49200      1.63604         0.005726      0.000000     -0.009543
     -1.43883      2.49200      1.68365         0.000401      0.000000     -0.007288
     -0.00197      1.25254      6.88799         0.206165     -0.486620     -0.022108
      1.44612      1.24725      6.88568        -0.616281     -0.096250      0.000599
     -2.15844      2.49200      6.88413         0.089293     -0.000000      0.016639
     -0.72016      2.49200      6.88666        -0.014866     -0.000000     -0.010566
      2.14938      2.49200      6.88726         0.718646     -0.000000     -0.015219
      3.59553      2.49200      6.88943         0.027093     -0.000000     -0.036574
     -0.00197      3.73146      6.88799         0.206165      0.486620     -0.022108
      1.44612      3.73675      6.88568        -0.616281      0.096250      0.000599
 -----------------------------------------------------------------------------------
    total drift:                               -0.000013      0.004649      0.000390


--------------------------------------------------------------------------------------------------------



  FREE ENERGIE OF THE ION-ELECTRON SYSTEM (eV)
  ---------------------------------------------------
  free  energy   TOTEN  =      -125.64859909 eV

  energy  without entropy=     -125.64277294  energy(sigma->0) =     -125.64568602
 
 d Force = 0.5184882E-03[ 0.517E-03, 0.520E-03]  d Energy = 0.5226181E-03-0.413E-05
 d Force =-0.6734726E+01[-0.675E+01,-0.672E+01]  d Ewald  =-0.6734726E+01-0.137E-08


--------------------------------------------------------------------------------------------------------


    POTLOK:  cpu time      0.0340: real time      0.0345


--------------------------------------------------------------------------------------------------------


 stress matrix after NEB project (eV)
     -0.67663      0.00000      0.00172
      0.00000     -0.29436      0.00000
      0.00172      0.00000     -0.82293
  FORCES: max atom, RMS     0.718807    0.341638
  FORCE total and by dimension    1.366552    0.718646
  Stress total and by dimension    1.105305    0.822927


--------------------------------------------------------------------------------------------------------


    WAVPRE:  cpu time      0.0045: real time      0.0077
    FEWALD:  cpu time      0.0004: real time      0.0004
    ORTHCH:  cpu time      0.2150: real time      0.2161
     LOOP+:  cpu time     24.6375: real time     24.8353


--------------------------------------- Iteration     24(   1)  ---------------------------------------


    POTLOK:  cpu time      0.0284: real time      0.0292
    SETDIJ:  cpu time      0.0032: real time      0.0032
     EDDAV:  cpu time      3.2819: real time      3.3005
       DOS:  cpu time      0.0008: real time      0.0008
    CHARGE:  cpu time      0.1722: real time      0.1834
    MIXING:  cpu time      0.0006: real time      0.0006
    --------------------------------------------
      LOOP:  cpu time      3.4873: real time      3.5178

 eigenvalue-minimisations  :  8256
 total energy-change (2. order) :-0.4750737E-03  (-0.1576261E+00)
 number of electron      55.9999995 magnetization       0.0000001
 augmentation part        0.7174361 magnetization      -0.0000018

 Broyden mixing:
  rms(total) = 0.22219E-01    rms(broyden)= 0.22188E-01
  rms(prec ) = 0.27003E-01
  weight for this iteration     100.00

 Free energy of the ion-electron system (eV)
  ---------------------------------------------------
  alpha Z        PSCENC =        60.34947425
  Ewald energy   TEWEN  =      2152.71342975
  -Hartree energ DENC   =     -3762.40391441
  -exchange      EXHF   =         0.00000000
  -V(xc)+E(xc)   XCENC  =       168.17095363
  PAW double counting   =      5768.87060115    -5768.23232892
  entropy T*S    EENTRO =        -0.00582471
  eigenvalues    EBANDS =      -490.10741540
  atomic energy  EATOM  =      1746.50554237
  Solvation  Ediel_sol  =         0.00000000
  ---------------------------------------------------
  free energy    TOTEN  =      -124.13948230 eV

  energy without entropy =     -124.13365759  energy(sigma->0) =     -124.13656995


--------------------------------------------------------------------------------------------------------




--------------------------------------- Iteration     24(   2)  ---------------------------------------


    POTLOK:  cpu time      0.0297: real time      0.0300
    SETDIJ:  cpu time      0.0032: real time      0.0032
