Lattice                                 
           1
     4.316271    2.492000    0.000000
    -4.316271    2.492000    0.000000
     0.000000    0.000000   15.000000
   B    C 
     8     8
Direct configuration=     1
   0.66888689  0.00000000  0.10000000
   0.33111211  0.00000000  0.10000000
   0.00000000  0.33111211  0.10000000
   0.00000000  0.66888689  0.10000000
   0.33111211  0.33111211  0.10000000
   0.66888689  0.66888689  0.10000000
   0.66666600  0.33333300  0.09922189
   0.33333300  0.66666600  0.10077811
   0.24999933  0.24999967  0.46906667
   0.41666633  0.08333267  0.46906667
   0.24999933  0.74999967  0.46906667
   0.41666633  0.58333267  0.46906667
   0.74999933  0.24999967  0.46906667
   0.91666633  0.08333267  0.46906667
   0.74999933  0.74999967  0.46906667
   0.91666633  0.58333267  0.46906667
Direct configuration=     2
   0.67045510 -0.00000012  0.10002638
   0.32954406 -0.00000015  0.10002646
   0.00000012  0.32954390  0.10002638
   0.00000015  0.67045494  0.10002646
   0.32954374  0.32954367  0.10002647
   0.67045533  0.67045526  0.10002647
   0.66666609  0.33333291  0.09924595
   0.33333255  0.66666645  0.10081308
   0.24999508  0.24999486  0.46903973
   0.41666295  0.08333420  0.46903918
   0.24999893  0.75000007  0.46903879
   0.41666705  0.58333195  0.46903942
   0.75000224  0.24999676  0.46903955
   0.91666736  0.08333164  0.46904009
   0.75000414  0.75000392  0.46903973
   0.91666480  0.58333605  0.46903918
Direct configuration=     3
   0.66970154 -0.00000006  0.10001371
   0.33029754 -0.00000008  0.10001374
   0.00000006  0.33029746  0.10001371
   0.00000008  0.66970146  0.10001374
   0.33029737  0.33029734  0.10001375
   0.66970166  0.66970163  0.10001375
   0.66666605  0.33333295  0.09923439
   0.33333277  0.66666623  0.10079628
   0.24999712  0.24999717  0.46905268
   0.41666458  0.08333346  0.46905239
   0.24999912  0.74999988  0.46905218
   0.41666671  0.58333229  0.46905251
   0.75000084  0.24999816  0.46905258
   0.91666686  0.08333214  0.46905286
   0.75000183  0.75000188  0.46905268
   0.91666554  0.58333442  0.46905239
Direct configuration=     4
   0.66970493 -0.00000006  0.10001376
   0.33029415 -0.00000008  0.10001380
   0.00000006  0.33029407  0.10001376
   0.00000008  0.66970485  0.10001380
   0.33029399  0.33029395  0.10001381
   0.66970505  0.66970501  0.10001381
   0.66666605  0.33333295  0.09923444
   0.33333276  0.66666624  0.10079635
   0.24999711  0.24999716  0.46905262
   0.41666457  0.08333347  0.46905233
   0.24999912  0.74999988  0.46905212
   0.41666671  0.58333229  0.46905245
   0.75000085  0.24999815  0.46905252
   0.91666687  0.08333213  0.46905280
   0.75000184  0.75000189  0.46905262
   0.91666553  0.58333443  0.46905233
Direct configuration=     5
   0.66970350 -0.00000006  0.10001374
   0.33029558 -0.00000008  0.10001378
   0.00000006  0.33029550  0.10001374
   0.00000008  0.66970342  0.10001378
   0.33029542  0.33029538  0.10001378
   0.66970362  0.66970358  0.10001378
   0.66666605  0.33333295  0.09923442
   0.33333276  0.66666624  0.10079632
   0.24999712  0.24999716  0.46905264
   0.41666457  0.08333346  0.46905235
   0.24999912  0.74999988  0.46905215
   0.41666671  0.58333229  0.46905248
   0.75000084  0.24999816  0.46905255
   0.91666687  0.08333213  0.46905283
   0.75000184  0.75000188  0.46905264
   0.91666554  0.58333443  0.46905235
Direct configuration=     6
   0.66970252 -0.00000006  0.10001372
   0.33029656 -0.00000008  0.10001376
   0.00000006  0.33029648  0.10001372
   0.00000008  0.66970244  0.10001376
   0.33029640  0.33029636  0.10001377
   0.66970264  0.66970260  0.10001377
   0.66666605  0.33333295  0.09923440
   0.33333277  0.66666623  0.10079630
   0.24999712  0.24999717  0.46905266
   0.41666458  0.08333346  0.46905237
   0.24999912  0.74999988  0.46905217
   0.41666671  0.58333229  0.46905250
   0.75000084  0.24999816  0.46905257
   0.91666687  0.08333213  0.46905285
   0.75000183  0.75000188  0.46905266
   0.91666554  0.58333442  0.46905237
Direct configuration=     7
   0.66970203 -0.00000006  0.10001371
   0.33029705 -0.00000008  0.10001375
   0.00000006  0.33029697  0.10001371
   0.00000008  0.66970195  0.10001375
   0.33029688  0.33029685  0.10001376
   0.66970215  0.66970212  0.10001376
   0.66666605  0.33333295  0.09923440
   0.33333277  0.66666623  0.10079629
   0.24999712  0.24999717  0.46905267
   0.41666458  0.08333346  0.46905238
   0.24999912  0.74999988  0.46905218
   0.41666671  0.58333229  0.46905250
   0.75000084  0.24999816  0.46905257
   0.91666686  0.08333214  0.46905285
   0.75000183  0.75000188  0.46905267
   0.91666554  0.58333442  0.46905238
Direct configuration=     8
   0.66970214 -0.00000009  0.10003787
   0.33029709 -0.00000005  0.10003796
   0.00000009  0.33029686  0.10003787
   0.00000005  0.66970191  0.10003796
   0.33029695  0.33029690  0.10003798
   0.66970210  0.66970205  0.10003798
   0.66666602  0.33333298  0.09925895
   0.33333275  0.66666625  0.10082487
   0.24999993  0.25000117  0.46902807
   0.41666745  0.08333189  0.46902739
   0.24999902  0.74999998  0.46902693
   0.41666648  0.58333252  0.46902768
   0.74999820  0.25000080  0.46902785
   0.91666647  0.08333253  0.46902849
   0.74999783  0.74999907  0.46902807
   0.91666711  0.58333155  0.46902739
Direct configuration=     9
   0.66970247 -0.00000017  0.10011032
   0.33029721  0.00000004  0.10011060
   0.00000017  0.33029653  0.10011032
  -0.00000004  0.66970179  0.10011060
   0.33029715  0.33029707  0.10011065
   0.66970193  0.66970185  0.10011065
   0.66666595  0.33333305  0.09933262
   0.33333269  0.66666631  0.10091061
   0.25000834  0.25001319  0.46895427
   0.41667607  0.08332717  0.46895244
   0.24999872  0.75000028  0.46895120
   0.41666581  0.58333319  0.46895322
   0.74999028  0.25000872  0.46895369
   0.91666527  0.08333373  0.46895542
   0.74998581  0.74999066  0.46895427
   0.91667183  0.58332293  0.46895244
Direct configuration=    10
   0.66970312 -0.00000034  0.10025523
   0.33029745  0.00000023  0.10025588
   0.00000034  0.33029588  0.10025523
  -0.00000023  0.66970155  0.10025588
   0.33029755  0.33029739  0.10025600
   0.66970161  0.66970145  0.10025600
   0.66666581  0.33333319  0.09947996
   0.33333257  0.66666643  0.10108210
   0.25002517  0.25003721  0.46880667
   0.41669331  0.08331773  0.46880253
   0.24999812  0.75000088  0.46879973
   0.41666447  0.58333453  0.46880429
   0.74997444  0.25002456  0.46880536
   0.91666288  0.08333612  0.46880926
   0.74996179  0.74997383  0.46880667
   0.91668127  0.58330569  0.46880253
Direct configuration=    11
   0.66970442 -0.00000068  0.10054505
   0.33029793  0.00000059  0.10054644
   0.00000068  0.33029458  0.10054505
  -0.00000059  0.66970107  0.10054644
   0.33029836  0.33029804  0.10054668
   0.66970096  0.66970064  0.10054668
   0.66666553  0.33333347  0.09977463
   0.33333233  0.66666667  0.10142508
   0.25005883  0.25008526  0.46851148
   0.41672780  0.08329886  0.46850271
   0.24999691  0.75000209  0.46849679
   0.41666178  0.58333722  0.46850644
   0.74994275  0.25005625  0.46850871
   0.91665810  0.08334090  0.46851695
   0.74991374  0.74994017  0.46851148
   0.91670014  0.58327120  0.46850271
Direct configuration=    12
   0.66970702 -0.00000135  0.10112470
   0.33029889  0.00000133  0.10112756
   0.00000135  0.33029198  0.10112470
  -0.00000133  0.66970011  0.10112756
   0.33029997  0.33029934  0.10112805
   0.66969966  0.66969903  0.10112805
   0.66666497  0.33333403  0.10036398
   0.33333186  0.66666714  0.10211103
   0.25012616  0.25018135  0.46792110
   0.41679677  0.08326111  0.46790306
   0.24999450  0.75000450  0.46789092
   0.41665640  0.58334260  0.46791073
   0.74987937  0.25011963  0.46791541
   0.91664854  0.08335046  0.46793233
   0.74981765  0.74987284  0.46792110
   0.91673789  0.58320223  0.46790306
Direct configuration=    13
   0.66971224 -0.00000270  0.10228399
   0.33030081  0.00000279  0.10228979
   0.00000270  0.33028676  0.10228399
  -0.00000279  0.66969819  0.10228979
   0.33030318  0.33030195  0.10229079
   0.66969705  0.66969582  0.10229079
   0.66666385  0.33333515  0.10154269
   0.33333092  0.66666808  0.10348293
   0.25026081  0.25037354  0.46674033
   0.41693471  0.08318562  0.46670378
   0.24998968  0.75000932  0.46667918
   0.41664565  0.58335335  0.46671931
   0.74975262  0.25024638  0.46672880
   0.91662941  0.08336959  0.46676308
   0.74962546  0.74973819  0.46674033
   0.91681338  0.58306429  0.46670378
Direct configuration=    14
   0.66972266 -0.00000539  0.10460256
   0.33030464  0.00000572  0.10461426
   0.00000539  0.33027634  0.10460256
  -0.00000572  0.66969436  0.10461426
   0.33030961  0.33030715  0.10461627
   0.66969185  0.66968939  0.10461627
   0.66666160  0.33333740  0.10390009
   0.33332903  0.66666997  0.10622673
   0.25053010  0.25075793  0.46437879
   0.41721059  0.08303463  0.46430521
   0.24998004  0.75001896  0.46425569
   0.41662415  0.58337485  0.46433647
   0.74949912  0.25049988  0.46435559
   0.91659116  0.08340784  0.46442459
   0.74924107  0.74946890  0.46437879
   0.91696437  0.58278841  0.46430521
Direct configuration=    15
   0.66974350 -0.00001077  0.10923971
   0.33031232  0.00001158  0.10926319
   0.00001077  0.33025550  0.10923971
  -0.00001158  0.66968668  0.10926319
   0.33032247  0.33031756  0.10926722
   0.66968144  0.66967653  0.10926722
   0.66665711  0.33334189  0.10861489
   0.33332526  0.66667374  0.11171434
   0.25106869  0.25152669  0.45965571
   0.41776235  0.08273266  0.45950807
   0.24996075  0.75003825  0.45940871
   0.41658115  0.58341785  0.45957079
   0.74899212  0.25100688  0.45960917
   0.91651466  0.08348434  0.45974760
   0.74847231  0.74893031  0.45965571
   0.91726634  0.58223665  0.45950807
Direct configuration=    16
   0.66974350 -0.00001077  0.10924088
   0.33031232  0.00001158  0.10926437
   0.00001077  0.33025550  0.10924088
  -0.00001158  0.66968668  0.10926437
   0.33032247  0.33031756  0.10926840
   0.66968144  0.66967653  0.10926840
   0.66665711  0.33334189  0.10861608
   0.33332526  0.66667374  0.11171573
   0.25106873  0.25152673  0.45965452
   0.41776237  0.08273265  0.45950686
   0.24996076  0.75003824  0.45940749
   0.41658114  0.58341786  0.45956958
   0.74899211  0.25100689  0.45960797
   0.91651464  0.08348436  0.45974642
   0.74847227  0.74893027  0.45965452
   0.91726635  0.58223663  0.45950686
Direct configuration=    17
   0.66974351 -0.00001078  0.10924440
   0.33031232  0.00001158  0.10926789
   0.00001078  0.33025549  0.10924440
  -0.00001158  0.66968668  0.10926789
   0.33032248  0.33031757  0.10927193
   0.66968143  0.66967652  0.10927193
   0.66665711  0.33334189  0.10861965
   0.33332526  0.66667374  0.11171988
   0.25106885  0.25152683  0.45965094
   0.41776243  0.08273263  0.45950323
   0.24996079  0.75003821  0.45940382
   0.41658110  0.58341790  0.45956597
   0.74899205  0.25100695  0.45960437
   0.91651459  0.08348441  0.45974287
   0.74847217  0.74893015  0.45965094
   0.91726637  0.58223657  0.45950323
Direct configuration=    18
   0.66974352 -0.00001079  0.10925143
   0.33031234  0.00001157  0.10927494
   0.00001079  0.33025548  0.10925143
  -0.00001157  0.66968666  0.10927494
   0.33032250  0.33031759  0.10927898
   0.66968141  0.66967650  0.10927898
   0.66665711  0.33334189  0.10862678
   0.33332526  0.66667374  0.11172819
   0.25106909  0.25152703  0.45964377
   0.41776255  0.08273259  0.45949596
   0.24996084  0.75003816  0.45939649
   0.41658102  0.58341798  0.45955875
   0.74899194  0.25100706  0.45959718
   0.91651450  0.08348450  0.45973577
   0.74847197  0.74892991  0.45964377
   0.91726641  0.58223645  0.45949596
Direct configuration=    19
   0.66974355 -0.00001082  0.10926550
   0.33031236  0.00001157  0.10928905
   0.00001082  0.33025545  0.10926550
  -0.00001157  0.66968664  0.10928905
   0.33032253  0.33031763  0.10929309
   0.66968137  0.66967647  0.10929309
   0.66665711  0.33334189  0.10864106
   0.33332524  0.66667376  0.11174481
   0.25106956  0.25152744  0.45962944
   0.41776278  0.08273250  0.45948143
   0.24996095  0.75003805  0.45938182
   0.41658086  0.58341814  0.45954430
   0.74899173  0.25100727  0.45958278
   0.91651431  0.08348469  0.45972156
   0.74847156  0.74892944  0.45962944
   0.91726650  0.58223622  0.45948143
Direct configuration=    20
   0.66974360 -0.00001088  0.10929363
   0.33031240  0.00001155  0.10931725
   0.00001088  0.33025540  0.10929363
  -0.00001155  0.66968660  0.10931725
   0.33032260  0.33031771  0.10932131
   0.66968129  0.66967640  0.10932131
   0.66665710  0.33334190  0.10866961
   0.33332522  0.66667378  0.11177805
   0.25107051  0.25152825  0.45960078
   0.41776325  0.08273232  0.45945236
   0.24996118  0.75003782  0.45935249
   0.41658053  0.58341847  0.45951540
   0.74899129  0.25100771  0.45955399
   0.91651394  0.08348506  0.45969314
   0.74847075  0.74892849  0.45960078
   0.91726668  0.58223575  0.45945236
Direct configuration=    21
   0.66974370 -0.00001100  0.10934990
   0.33031249  0.00001152  0.10937366
   0.00001100  0.33025530  0.10934990
  -0.00001152  0.66968651  0.10937366
   0.33032274  0.33031786  0.10937774
   0.66968114  0.66967626  0.10937774
   0.66665709  0.33334191  0.10872671
   0.33332518  0.66667382  0.11184452
   0.25107241  0.25152988  0.45954345
   0.41776419  0.08273197  0.45939423
   0.24996162  0.75003738  0.45929382
   0.41657987  0.58341913  0.45945760
   0.74899042  0.25100858  0.45949641
   0.91651318  0.08348582  0.45963632
   0.74846912  0.74892659  0.45954345
   0.91726703  0.58223481  0.45939423
Direct configuration=    22
   0.66974391 -0.00001124  0.10946244
   0.33031267  0.00001146  0.10948648
   0.00001124  0.33025509  0.10946244
  -0.00001146  0.66968633  0.10948648
   0.33032301  0.33031816  0.10949061
   0.66968084  0.66967599  0.10949061
   0.66665706  0.33334194  0.10884090
   0.33332509  0.66667391  0.11197746
   0.25107620  0.25153314  0.45942879
   0.41776608  0.08273126  0.45927796
   0.24996251  0.75003649  0.45917647
   0.41657856  0.58342044  0.45934201
   0.74898869  0.25101031  0.45938124
   0.91651168  0.08348732  0.45952266
   0.74846586  0.74892280  0.45942879
   0.91726774  0.58223292  0.45927796
Direct configuration=    23
   0.66974432 -0.00001171  0.10968752
   0.33031304  0.00001134  0.10971212
   0.00001171  0.33025468  0.10968752
  -0.00001134  0.66968596  0.10971212
   0.33032355  0.33031877  0.10971634
   0.66968023  0.66967545  0.10971634
   0.66665701  0.33334199  0.10906930
   0.33332492  0.66667408  0.11224336
   0.25108379  0.25153965  0.45919948
   0.41776984  0.08272985  0.45904543
   0.24996428  0.75003472  0.45894179
   0.41657595  0.58342305  0.45911082
   0.74898521  0.25101379  0.45915091
   0.91650866  0.08349034  0.45929535
   0.74845935  0.74891521  0.45919948
   0.91726915  0.58222916  0.45904543
