<?xml version="1.0" encoding="ISO-8859-1"?>
<modeling>
 <generator>
  <i name="program" type="string">vasp </i>
  <i name="version" type="string">6.3.2  </i>
  <i name="subversion" type="string">27Jun22 (build Dec 22 2022 13:13:19) complex                          parallel </i>
  <i name="platform" type="string">LinuxIFC </i>
  <i name="date" type="string">2023 08 22 </i>
  <i name="time" type="string">23:06:59 </i>
 </generator>
 <incar>
  <i type="string" name="SYSTEM">Lattice</i>
  <i type="int" name="ISTART">     0</i>
  <i type="string" name="PREC">Accurate</i>
  <i type="string" name="ALGO">Normal</i>
  <i type="int" name="ISPIN">     2</i>
  <i type="int" name="ICHARG">     2</i>
  <i type="int" name="NELM">    64</i>
  <i type="int" name="IBRION">     2</i>
  <i name="EDIFF">      0.00000100</i>
  <i name="EDIFFG">     -0.00100000</i>
  <i type="int" name="NSW">   128</i>
  <i type="int" name="ISIF">     2</i>
  <i name="ENCUT">    450.00000000</i>
  <i name="POTIM">      0.50000000</i>
  <i type="int" name="ISMEAR">     0</i>
  <i name="SIGMA">      0.10000000</i>
  <i type="logical" name="LWAVE"> F  </i>
  <i type="logical" name="LCHARG"> F  </i>
  <i type="string" name="GGA">PE</i>
  <i type="int" name="IVDW">    12</i>
 </incar>
 <primitive_cell>
  <structure name="primitive_cell" >
   <crystal>
    <varray name="basis" >
     <v>       4.37169624       2.52400000       0.00000000 </v>
     <v>      -4.37169624       2.52400000       0.00000000 </v>
     <v>       0.00000000       0.00000000      15.00000000 </v>
    </varray>
    <i name="volume">    331.02483916 </i>
    <varray name="rec_basis" >
     <v>       0.11437208       0.19809826       0.00000000 </v>
     <v>      -0.11437208       0.19809826       0.00000000 </v>
     <v>       0.00000000       0.00000000       0.06666667 </v>
    </varray>
   </crystal>
   <varray name="positions" >
    <v>       0.33833034       0.66916432       0.10000000 </v>
    <v>       0.67165522       0.33584146       0.10000000 </v>
    <v>       0.16373946       0.31999962       0.10000000 </v>
    <v>       0.32250218       0.16126397       0.10000000 </v>
    <v>       0.16376430       0.84376384       0.10000000 </v>
    <v>       0.84623863       0.16123684       0.10000000 </v>
    <v>       0.68749850       0.84373000       0.10000000 </v>
    <v>       0.84626736       0.68499594       0.10000000 </v>
    <v>       0.16666600       0.33333300       0.32880000 </v>
    <v>       0.33333300       0.16666600       0.32880000 </v>
    <v>       0.16666600       0.83333300       0.32880000 </v>
    <v>       0.33333300       0.66666600       0.32880000 </v>
    <v>       0.66666600       0.33333300       0.32880000 </v>
    <v>       0.83333300       0.16666600       0.32880000 </v>
    <v>       0.66666600       0.83333300       0.32880000 </v>
    <v>       0.83333300       0.66666600       0.32880000 </v>
   </varray>
  </structure>
  <varray name="primitive_index" >
   <v type="int" >        1 </v>
   <v type="int" >        2 </v>
   <v type="int" >        3 </v>
   <v type="int" >        4 </v>
   <v type="int" >        5 </v>
   <v type="int" >        6 </v>
   <v type="int" >        7 </v>
   <v type="int" >        8 </v>
   <v type="int" >        9 </v>
   <v type="int" >       10 </v>
   <v type="int" >       11 </v>
   <v type="int" >       12 </v>
   <v type="int" >       13 </v>
   <v type="int" >       14 </v>
   <v type="int" >       15 </v>
   <v type="int" >       16 </v>
  </varray>
 </primitive_cell>
 <kpoints>
  <generation param="Gamma">
   <v type="int" name="divisions">      12       12        1 </v>
   <v name="usershift">      0.00000000       0.00000000       0.00000000 </v>
   <v name="genvec1">      0.08333333       0.00000000       0.00000000 </v>
   <v name="genvec2">      0.00000000       0.08333333       0.00000000 </v>
   <v name="genvec3">      0.00000000       0.00000000       1.00000000 </v>
   <v name="shift">      0.00000000       0.00000000       0.00000000 </v>
  </generation>
  <varray name="kpointlist" >
   <v>       0.00000000       0.00000000       0.00000000 </v>
   <v>       0.08333333       0.00000000       0.00000000 </v>
   <v>       0.00000000       0.08333333       0.00000000 </v>
   <v>      -0.08333333       0.08333333       0.00000000 </v>
   <v>       0.16666667      -0.00000000       0.00000000 </v>
   <v>       0.00000000       0.16666667       0.00000000 </v>
   <v>      -0.16666667       0.16666667       0.00000000 </v>
   <v>       0.25000000       0.00000000       0.00000000 </v>
   <v>       0.00000000       0.25000000       0.00000000 </v>
   <v>      -0.25000000       0.25000000       0.00000000 </v>
   <v>       0.33333333       0.00000000       0.00000000 </v>
   <v>       0.00000000       0.33333333       0.00000000 </v>
   <v>      -0.33333333       0.33333333       0.00000000 </v>
   <v>       0.41666667       0.00000000       0.00000000 </v>
   <v>       0.00000000       0.41666667       0.00000000 </v>
   <v>      -0.41666667       0.41666667       0.00000000 </v>
   <v>       0.50000000       0.00000000       0.00000000 </v>
   <v>       0.00000000       0.50000000       0.00000000 </v>
   <v>       0.50000000       0.50000000       0.00000000 </v>
   <v>       0.08333333       0.08333333       0.00000000 </v>
   <v>      -0.08333333       0.16666667       0.00000000 </v>
   <v>      -0.16666667       0.08333333       0.00000000 </v>
   <v>       0.16666667       0.08333333       0.00000000 </v>
   <v>      -0.08333333       0.25000000       0.00000000 </v>
   <v>      -0.25000000       0.16666667       0.00000000 </v>
   <v>      -0.16666667       0.25000000       0.00000000 </v>
   <v>       0.08333333       0.16666667       0.00000000 </v>
   <v>       0.25000000      -0.08333333       0.00000000 </v>
   <v>       0.25000000       0.08333333       0.00000000 </v>
   <v>      -0.08333333       0.33333333       0.00000000 </v>
   <v>      -0.33333333       0.25000000       0.00000000 </v>
   <v>      -0.25000000       0.33333333       0.00000000 </v>
   <v>       0.08333333       0.25000000       0.00000000 </v>
   <v>       0.33333333      -0.08333333       0.00000000 </v>
   <v>       0.33333333       0.08333333       0.00000000 </v>
   <v>      -0.08333333       0.41666667       0.00000000 </v>
   <v>      -0.41666667       0.33333333       0.00000000 </v>
   <v>      -0.33333333       0.41666667       0.00000000 </v>
   <v>       0.08333333       0.33333333       0.00000000 </v>
   <v>       0.41666667      -0.08333333       0.00000000 </v>
   <v>       0.41666667       0.08333333       0.00000000 </v>
   <v>      -0.08333333       0.50000000       0.00000000 </v>
   <v>       0.50000000       0.41666667       0.00000000 </v>
   <v>      -0.41666667       0.50000000       0.00000000 </v>
   <v>       0.08333333       0.41666667       0.00000000 </v>
   <v>       0.50000000      -0.08333333       0.00000000 </v>
   <v>       0.16666667       0.16666667       0.00000000 </v>
   <v>      -0.16666667       0.33333333       0.00000000 </v>
   <v>      -0.33333333       0.16666667       0.00000000 </v>
   <v>       0.25000000       0.16666667       0.00000000 </v>
   <v>      -0.16666667       0.41666667       0.00000000 </v>
   <v>      -0.41666667       0.25000000       0.00000000 </v>
   <v>      -0.25000000       0.41666667       0.00000000 </v>
   <v>       0.16666667       0.25000000       0.00000000 </v>
   <v>       0.41666667      -0.16666667       0.00000000 </v>
   <v>       0.33333333       0.16666667       0.00000000 </v>
   <v>      -0.16666667       0.50000000       0.00000000 </v>
   <v>       0.50000000       0.33333333       0.00000000 </v>
   <v>      -0.33333333       0.50000000       0.00000000 </v>
   <v>       0.16666667       0.33333333       0.00000000 </v>
   <v>       0.50000000      -0.16666667       0.00000000 </v>
   <v>       0.41666667       0.16666667       0.00000000 </v>
   <v>      -0.16666667      -0.41666667       0.00000000 </v>
   <v>       0.41666667       0.41666667       0.00000000 </v>
   <v>       0.25000000       0.25000000       0.00000000 </v>
   <v>      -0.25000000       0.50000000       0.00000000 </v>
   <v>       0.50000000       0.25000000       0.00000000 </v>
   <v>       0.33333333       0.25000000       0.00000000 </v>
   <v>      -0.25000000      -0.41666667       0.00000000 </v>
   <v>       0.41666667       0.33333333       0.00000000 </v>
   <v>      -0.33333333      -0.41666667       0.00000000 </v>
   <v>       0.25000000       0.33333333       0.00000000 </v>
   <v>      -0.41666667      -0.25000000       0.00000000 </v>
   <v>       0.33333333       0.33333333       0.00000000 </v>
  </varray>
  <varray name="weights" >
   <v>       0.00694444 </v>
   <v>       0.01388889 </v>
   <v>       0.01388889 </v>
   <v>       0.01388889 </v>
   <v>       0.01388889 </v>
   <v>       0.01388889 </v>
   <v>       0.01388889 </v>
   <v>       0.01388889 </v>
   <v>       0.01388889 </v>
   <v>       0.01388889 </v>
   <v>       0.01388889 </v>
   <v>       0.01388889 </v>
   <v>       0.01388889 </v>
   <v>       0.01388889 </v>
   <v>       0.01388889 </v>
   <v>       0.01388889 </v>
   <v>       0.00694444 </v>
   <v>       0.00694444 </v>
   <v>       0.00694444 </v>
   <v>       0.01388889 </v>
   <v>       0.01388889 </v>
   <v>       0.01388889 </v>
   <v>       0.01388889 </v>
   <v>       0.01388889 </v>
   <v>       0.01388889 </v>
   <v>       0.01388889 </v>
   <v>       0.01388889 </v>
   <v>       0.01388889 </v>
   <v>       0.01388889 </v>
   <v>       0.01388889 </v>
   <v>       0.01388889 </v>
   <v>       0.01388889 </v>
   <v>       0.01388889 </v>
   <v>       0.01388889 </v>
   <v>       0.01388889 </v>
   <v>       0.01388889 </v>
   <v>       0.01388889 </v>
   <v>       0.01388889 </v>
   <v>       0.01388889 </v>
   <v>       0.01388889 </v>
   <v>       0.01388889 </v>
   <v>       0.01388889 </v>
   <v>       0.01388889 </v>
   <v>       0.01388889 </v>
   <v>       0.01388889 </v>
   <v>       0.01388889 </v>
   <v>       0.01388889 </v>
   <v>       0.01388889 </v>
   <v>       0.01388889 </v>
   <v>       0.01388889 </v>
   <v>       0.01388889 </v>
   <v>       0.01388889 </v>
   <v>       0.01388889 </v>
   <v>       0.01388889 </v>
   <v>       0.01388889 </v>
   <v>       0.01388889 </v>
   <v>       0.01388889 </v>
   <v>       0.01388889 </v>
   <v>       0.01388889 </v>
   <v>       0.01388889 </v>
   <v>       0.01388889 </v>
   <v>       0.01388889 </v>
   <v>       0.01388889 </v>
   <v>       0.01388889 </v>
   <v>       0.01388889 </v>
   <v>       0.01388889 </v>
   <v>       0.01388889 </v>
   <v>       0.01388889 </v>
   <v>       0.01388889 </v>
   <v>       0.01388889 </v>
   <v>       0.01388889 </v>
   <v>       0.01388889 </v>
   <v>       0.01388889 </v>
   <v>       0.01388889 </v>
  </varray>
 </kpoints>
 <parameters>
  <separator name="general" >
   <i type="string" name="SYSTEM">Lattice</i>
   <i type="logical" name="LCOMPAT"> F  </i>
  </separator>
  <separator name="electronic" >
   <i type="string" name="PREC">accura</i>
   <i name="ENMAX">    450.00000000</i>
   <i name="ENAUG">    644.87300000</i>
   <i name="EDIFF">      0.00000100</i>
   <i type="int" name="IALGO">    38</i>
   <i type="int" name="IWAVPR">    11</i>
   <i type="int" name="NBANDS">    48</i>
   <i type="int" name="NBANDSLOW">    -1</i>
   <i type="int" name="NBANDSHIGH">    -1</i>
   <i name="NELECT">     62.00000000</i>
   <i type="int" name="TURBO">     0</i>
   <i type="int" name="IRESTART">     0</i>
   <i type="int" name="NREBOOT">     0</i>
   <i type="int" name="NMIN">     0</i>
   <i name="EREF">      0.00000000</i>
   <separator name="electronic smearing" >
    <i type="int" name="ISMEAR">     0</i>
    <i name="SIGMA">      0.10000000</i>
    <i name="KSPACING">      0.50000000</i>
    <i type="logical" name="KGAMMA"> T  </i>
    <i type="logical" name="KBLOWUP"> T  </i>
   </separator>
   <separator name="electronic projectors" >
    <i type="logical" name="LREAL"> F  </i>
    <v name="ROPT">      0.00000000      0.00000000</v>
    <i type="int" name="LMAXPAW">  -100</i>
    <i type="int" name="LMAXMIX">     2</i>
    <i type="logical" name="NLSPLINE"> F  </i>
   </separator>
   <separator name="electronic startup" >
    <i type="int" name="ISTART">     0</i>
    <i type="int" name="ICHARG">     2</i>
    <i type="int" name="INIWAV">     1</i>
   </separator>
   <separator name="electronic spin" >
    <i type="int" name="ISPIN">     2</i>
    <i type="logical" name="LNONCOLLINEAR"> F  </i>
    <v name="MAGMOM">      1.00000000      1.00000000      1.00000000      1.00000000      1.00000000      1.00000000      1.00000000      1.00000000      1.00000000      1.00000000      1.00000000      1.00000000      1.00000000      1.00000000      1.00000000      1.00000000</v>
    <i name="NUPDOWN">     -1.00000000</i>
    <i type="logical" name="LSORBIT"> F  </i>
    <v name="SAXIS">      0.00000000      0.00000000      1.00000000</v>
    <i type="logical" name="LSPIRAL"> F  </i>
    <v name="QSPIRAL">      0.00000000      0.00000000      0.00000000</v>
    <i type="logical" name="LZEROZ"> F  </i>
   </separator>
   <separator name="electronic exchange-correlation" >
    <i type="logical" name="LASPH"> F  </i>
    <i type="logical" name="LMETAGGA"> F  </i>
   </separator>
   <separator name="electronic convergence" >
    <i type="int" name="NELM">    64</i>
    <i type="int" name="NELMDL">    -5</i>
    <i type="int" name="NELMIN">     2</i>
    <i name="ENINI">    450.00000000</i>
    <separator name="electronic convergence detail" >
     <i type="logical" name="LDIAG"> T  </i>
     <i type="logical" name="LSUBROT"> F  </i>
     <i name="WEIMIN">      0.00100000</i>
     <i name="EBREAK">      0.00000001</i>
     <i name="DEPER">      0.30000000</i>
     <i type="int" name="NRMM">     4</i>
     <i name="TIME">      0.40000000</i>
    </separator>
   </separator>
   <separator name="electronic mixer" >
    <i name="AMIX">      0.40000000</i>
    <i name="BMIX">      1.00000000</i>
    <i name="AMIN">      0.10000000</i>
    <i name="AMIX_MAG">      1.60000000</i>
    <i name="BMIX_MAG">      1.00000000</i>
    <separator name="electronic mixer details" >
     <i type="int" name="IMIX">     4</i>
     <i type="logical" name="MIXFIRST"> F  </i>
     <i type="int" name="MAXMIX">   -45</i>
     <i name="WC">    100.00000000</i>
     <i type="int" name="INIMIX">     1</i>
     <i type="int" name="MIXPRE">     1</i>
     <i type="int" name="MREMOVE">     5</i>
    </separator>
   </separator>
   <separator name="electronic dipolcorrection" >
    <i type="logical" name="LDIPOL"> F  </i>
    <i type="logical" name="LMONO"> F  </i>
    <i type="int" name="IDIPOL">     0</i>
    <i name="EPSILON">      1.00000000</i>
    <v name="DIPOL">   -100.00000000   -100.00000000   -100.00000000</v>
    <i name="EFIELD">      0.00000000</i>
   </separator>
  </separator>
  <separator name="grids" >
   <i type="int" name="NGX">    36</i>
   <i type="int" name="NGY">    36</i>
   <i type="int" name="NGZ">   108</i>
   <i type="int" name="NGXF">    72</i>
   <i type="int" name="NGYF">    72</i>
   <i type="int" name="NGZF">   216</i>
   <i type="logical" name="ADDGRID"> F  </i>
  </separator>
  <separator name="ionic" >
   <i type="int" name="NSW">   128</i>
   <i type="int" name="IBRION">     2</i>
   <i type="int" name="MDALGO">     0</i>
   <i type="int" name="ISIF">     2</i>
   <i name="PSTRESS">      0.00000000</i>
   <i name="EDIFFG">     -0.00100000</i>
   <i type="int" name="NFREE">     1</i>
   <i name="POTIM">      0.50000000</i>
   <i name="SMASS">     -3.00000000</i>
   <i name="SCALEE">      1.00000000</i>
  </separator>
  <separator name="ionic md" >
   <i name="TEBEG">      0.00010000</i>
   <i name="TEEND">      0.00010000</i>
   <i type="int" name="NBLOCK">     1</i>
   <i type="int" name="KBLOCK">   128</i>
   <i type="int" name="NPACO">   256</i>
   <i name="APACO">     10.00000000</i>
  </separator>
  <separator name="symmetry" >
   <i type="int" name="ISYM">     2</i>
   <i name="SYMPREC">      0.00001000</i>
  </separator>
  <separator name="dos" >
   <i type="int" name="LORBIT">     0</i>
   <v name="RWIGS">     -1.00000000     -1.00000000</v>
   <i type="int" name="NEDOS">   301</i>
   <i name="EMIN">     10.00000000</i>
   <i name="EMAX">    -10.00000000</i>
   <i name="EFERMI">      0.00000000</i>
  </separator>
  <separator name="writing" >
   <i type="int" name="NWRITE">     2</i>
   <i type="logical" name="LWAVE"> F  </i>
   <i type="logical" name="LDOWNSAMPLE"> F  </i>
   <i type="logical" name="LCHARG"> F  </i>
   <i type="logical" name="LPARD"> F  </i>
   <i type="logical" name="LVTOT"> F  </i>
   <i type="logical" name="LVHAR"> F  </i>
   <i type="logical" name="LELF"> F  </i>
   <i type="logical" name="LOPTICS"> F  </i>
   <v name="STM">      0.00000000      0.00000000      0.00000000      0.00000000      0.00000000      0.00000000      0.00000000</v>
  </separator>
  <separator name="performance" >
   <i type="int" name="NPAR">    48</i>
   <i type="int" name="NSIM">     4</i>
   <i type="int" name="NBLK">    -1</i>
   <i type="logical" name="LPLANE"> T  </i>
   <i type="logical" name="LSCALAPACK"> T  </i>
   <i type="logical" name="LSCAAWARE"> F  </i>
   <i type="logical" name="LSCALU"> F  </i>
   <i type="logical" name="LASYNC"> F  </i>
   <i type="logical" name="LORBITALREAL"> F  </i>
  </separator>
  <separator name="miscellaneous" >
   <i type="int" name="IDIOT">     3</i>
   <i type="int" name="PHON_NSTRUCT">    -1</i>
   <i type="logical" name="LMUSIC"> F  </i>
   <v name="POMASS">     10.81100000     12.01100000</v>
   <v name="DARWINR">      0.00000000      0.00000000</v>
   <v name="DARWINV">      1.00000000      1.00000000</v>
   <i type="logical" name="LCORR"> T  </i>
  </separator>
  <i type="logical" name="GGA_COMPAT"> T  </i>
  <i type="logical" name="LBERRY"> F  </i>
  <i type="int" name="ICORELEVEL">     0</i>
  <i type="logical" name="LDAU"> F  </i>
  <i type="int" name="I_CONSTRAINED_M">     0</i>
  <separator name="electronic exchange-correlation" >
   <i type="string" name="GGA">PE</i>
   <i type="int" name="VOSKOWN">     0</i>
   <i type="logical" name="LHFCALC"> F  </i>
   <i type="string" name="PRECFOCK"></i>
   <i type="logical" name="LSYMGRAD"> F  </i>
   <i type="logical" name="LHFONE"> F  </i>
   <i type="logical" name="LRHFCALC"> F  </i>
   <i type="logical" name="LTHOMAS"> F  </i>
   <i type="logical" name="LMODELHF"> F  </i>
   <i type="logical" name="LFOCKACE"> F  </i>
   <i name="ENCUT4O">     -1.00000000</i>
   <i type="int" name="EXXOEP">     0</i>
   <i type="int" name="FOURORBIT">     0</i>
   <i name="AEXX">      0.00000000</i>
   <i name="HFALPHA">      0.00000000</i>
   <i name="MCALPHA">      0.00000000</i>
   <i name="ALDAX">      1.00000000</i>
   <i name="AGGAX">      1.00000000</i>
   <i name="ALDAC">      1.00000000</i>
   <i name="AGGAC">      1.00000000</i>
   <i type="int" name="NKREDX">     1</i>
   <i type="int" name="NKREDY">     1</i>
   <i type="int" name="NKREDZ">     1</i>
   <i type="logical" name="SHIFTRED"> F  </i>
   <i type="logical" name="ODDONLY"> F  </i>
   <i type="logical" name="EVENONLY"> F  </i>
   <i type="int" name="LMAXFOCK">     0</i>
   <i type="int" name="NMAXFOCKAE">     0</i>
   <i type="logical" name="LFOCKAEDFT"> F  </i>
   <i name="HFSCREEN">      0.00000000</i>
   <i name="HFSCREENC">      0.00000000</i>
   <i type="int" name="NBANDSGWLOW">     0</i>
  </separator>
  <separator name="vdW DFT" >
   <i type="logical" name="LUSE_VDW"> F  </i>
   <i name="Zab_VDW">     -0.84910000</i>
   <i name="PARAM1">      0.12340000</i>
   <i name="PARAM2">      1.00000000</i>
   <i name="PARAM3">      0.00000000</i>
  </separator>
  <separator name="model GW" >
   <i type="int" name="MODEL_GW">     0</i>
   <i name="MODEL_EPS0">     12.41343147</i>
   <i name="MODEL_ALPHA">      1.00000000</i>
  </separator>
  <separator name="linear response parameters" >
   <i type="logical" name="LEPSILON"> F  </i>
   <i type="logical" name="LRPA"> F  </i>
   <i type="logical" name="LNABLA"> F  </i>
   <i type="logical" name="LVEL"> F  </i>
   <i name="CSHIFT">      0.10000000</i>
   <i name="OMEGAMAX">     -1.00000000</i>
   <i name="DEG_THRESHOLD">      0.00200000</i>
   <i name="RTIME">     -0.10000000</i>
   <i name="WPLASMAI">      0.00000000</i>
   <v name="DFIELD">      0.00000000      0.00000000      0.00000000</v>
   <v name="WPLASMA">      0.00000000      0.00000000      0.00000000      0.00000000      0.00000000      0.00000000      0.00000000      0.00000000      0.00000000</v>
  </separator>
  <separator name="orbital magnetization" >
   <i type="logical" name="NUCIND"> F  </i>
   <v name="MAGPOS">      0.00000000      0.00000000      0.00000000</v>
   <i type="logical" name="LNICSALL"> T  </i>
   <i type="logical" name="ORBITALMAG"> F  </i>
   <i type="logical" name="LMAGBLOCH"> F  </i>
   <i type="logical" name="LCHIMAG"> F  </i>
   <i type="logical" name="LGAUGE"> T  </i>
   <i type="int" name="MAGATOM">     0</i>
   <v name="MAGDIPOL">      0.00000000      0.00000000      0.00000000</v>
   <v name="AVECCONST">      0.00000000      0.00000000      0.00000000</v>
  </separator>
  <separator name="response functions" >
   <i type="logical" name="LFINITE_TEMPERATURE"> F  </i>
   <i type="logical" name="LADDER"> F  </i>
   <i type="logical" name="LRPAFORCE"> F  </i>
   <i type="logical" name="LFXC"> F  </i>
   <i type="logical" name="LHARTREE"> T  </i>
   <i type="int" name="IBSE">     0</i>
   <v type="int" name="KPOINT">    -1     0     0     0</v>
   <i type="logical" name="LTCTC"> F  </i>
   <i type="logical" name="LTCTE"> F  </i>
   <i type="logical" name="LTETE"> F  </i>
   <i type="logical" name="LTRIPLET"> F  </i>
   <i type="logical" name="LFXCEPS"> F  </i>
   <i type="logical" name="LFXHEG"> F  </i>
   <i type="int" name="NATURALO">     2</i>
   <i type="logical" name="LHOLEGF"> F  </i>
   <i type="logical" name="L2ORDER"> F  </i>
   <i type="logical" name="LDMP1"> F  </i>
   <i type="logical" name="LMP2LT"> F  </i>
   <i type="logical" name="LSMP2LT"> F  </i>
   <i type="logical" name="LGWLF"> F  </i>
   <i name="ENCUTGW">     -2.00000000</i>
   <i name="ENCUTGWSOFT">     -2.00000000</i>
   <i name="ENCUTLF">     -1.00000000</i>
   <i type="logical" name="LESF_SPLINES"> F  </i>
   <i type="int" name="LMAXMP2">    -1</i>
   <i name="SCISSOR">      0.00000000</i>
   <i type="int" name="NOMEGA">     0</i>
   <i type="int" name="NOMEGAR">     0</i>
   <i type="int" name="NBANDSGW">    -1</i>
   <i type="int" name="NBANDSO">    -1</i>
   <i type="int" name="NBANDSV">    -1</i>
   <i type="int" name="NELMGW">     1</i>
   <i type="int" name="NELMHF">     1</i>
   <i type="int" name="DIM">     3</i>
   <i type="int" name="IESPILON">     4</i>
   <i type="int" name="ANTIRES">     0</i>
   <i name="OMEGAMAX">    -30.00000000</i>
   <i name="OMEGAMIN">    -30.00000000</i>
   <i name="OMEGATL">   -200.00000000</i>
   <i type="int" name="OMEGAGRID">     0</i>
   <i name="CSHIFT">     -0.10000000</i>
   <i type="logical" name="LSELFENERGY"> F  </i>
   <i type="logical" name="LSPECTRAL"> F  </i>
   <i type="logical" name="LSPECTRALGW"> F  </i>
   <i type="logical" name="LSINGLES"> F  </i>
   <i type="logical" name="LFERMIGW"> F  </i>
   <i type="logical" name="ODDONLYGW"> F  </i>
   <i type="logical" name="EVENONLYGW"> F  </i>
   <i type="int" name="NKREDLFX">     1</i>
   <i type="int" name="NKREDLFY">     1</i>
   <i type="int" name="NKREDLFZ">     1</i>
   <i type="int" name="MAXMEM">  2800</i>
   <i type="int" name="TELESCOPE">     0</i>
   <i type="int" name="NTAUPAR">    -1</i>
   <i type="int" name="NOMEGAPAR">    -1</i>
   <i name="DAMP_NEWTON">      0.80000001</i>
   <i name="LAMBDA">      1.00000000</i>
  </separator>
  <separator name="External order field" >
   <i name="OFIELD_KAPPA">      0.00000000</i>
   <v name="OFIELD_K">      0.00000000      0.00000000      0.00000000</v>
   <i name="OFIELD_Q6_NEAR">      0.00000000</i>
   <i name="OFIELD_Q6_FAR">      0.00000000</i>
   <i name="OFIELD_A">      0.00000000</i>
  </separator>
  <separator name="optional k-points parameters" >
   <i type="int" name="KPOINTS_OPT_MODE">     1</i>
   <i type="logical" name="LKPOINTS_OPT"> F  </i>
  </separator>
  <separator name="solvation model" >
   <i type="logical" name="LSOL"> F  </i>
  </separator>
 </parameters>
 <atominfo>
  <atoms>      16 </atoms>
  <types>       2 </types>
  <array name="atoms" >
   <dimension dim="1">ion</dimension>
   <field type="string">element</field>
   <field type="int">atomtype</field>
   <set>
    <rc><c>B </c><c>   1</c></rc>
    <rc><c>B </c><c>   1</c></rc>
    <rc><c>C </c><c>   2</c></rc>
    <rc><c>C </c><c>   2</c></rc>
    <rc><c>C </c><c>   2</c></rc>
    <rc><c>C </c><c>   2</c></rc>
    <rc><c>C </c><c>   2</c></rc>
    <rc><c>C </c><c>   2</c></rc>
    <rc><c>C </c><c>   2</c></rc>
    <rc><c>C </c><c>   2</c></rc>
    <rc><c>C </c><c>   2</c></rc>
    <rc><c>C </c><c>   2</c></rc>
    <rc><c>C </c><c>   2</c></rc>
    <rc><c>C </c><c>   2</c></rc>
    <rc><c>C </c><c>   2</c></rc>
    <rc><c>C </c><c>   2</c></rc>
   </set>
  </array>
  <array name="atomtypes" >
   <dimension dim="1">type</dimension>
   <field type="int">atomspertype</field>
   <field type="string">element</field>
   <field>mass</field>
   <field>valence</field>
   <field type="string">pseudopotential</field>
   <set>
    <rc><c>   2</c><c>B </c><c>     10.81100000</c><c>      3.00000000</c><c>  PAW_PBE B 06Sep2000                   </c></rc>
    <rc><c>  14</c><c>C </c><c>     12.01100000</c><c>      4.00000000</c><c>  PAW_PBE C 08Apr2002                   </c></rc>
   </set>
  </array>
 </atominfo>
 <structure name="initialpos" >
  <crystal>
   <varray name="basis" >
    <v>       4.37169624       2.52400000       0.00000000 </v>
    <v>      -4.37169624       2.52400000       0.00000000 </v>
    <v>       0.00000000       0.00000000      15.00000000 </v>
   </varray>
   <i name="volume">    331.02483916 </i>
   <varray name="rec_basis" >
    <v>       0.11437208       0.19809826       0.00000000 </v>
    <v>      -0.11437208       0.19809826       0.00000000 </v>
    <v>       0.00000000       0.00000000       0.06666667 </v>
   </varray>
  </crystal>
  <varray name="positions" >
   <v>       0.33833034       0.66916432       0.10000000 </v>
   <v>       0.67165522       0.33584146       0.10000000 </v>
   <v>       0.16373946       0.31999962       0.10000000 </v>
   <v>       0.32250218       0.16126397       0.10000000 </v>
   <v>       0.16376430       0.84376384       0.10000000 </v>
   <v>       0.84623863       0.16123684       0.10000000 </v>
   <v>       0.68749850       0.84373000       0.10000000 </v>
   <v>       0.84626736       0.68499594       0.10000000 </v>
   <v>       0.16666600       0.33333300       0.32880000 </v>
   <v>       0.33333300       0.16666600       0.32880000 </v>
   <v>       0.16666600       0.83333300       0.32880000 </v>
   <v>       0.33333300       0.66666600       0.32880000 </v>
   <v>       0.66666600       0.33333300       0.32880000 </v>
   <v>       0.83333300       0.16666600       0.32880000 </v>
   <v>       0.66666600       0.83333300       0.32880000 </v>
   <v>       0.83333300       0.66666600       0.32880000 </v>
  </varray>
 </structure>
 <calculation>
  <scstep>
   <time name="dav">    5.69    5.73</time>
   <time name="total">    5.73    5.78</time>
   <energy>
    <i name="alphaZ">     62.44053498 </i>
    <i name="ewald">   5342.57440407 </i>
    <i name="hartreedc">  -7161.24248278 </i>
    <i name="XCdc">    199.67628786 </i>
    <i name="pawpsdc">   1604.28699987 </i>
    <i name="pawaedc">  -1610.37247880 </i>
    <i name="eentropy">     -0.02163753 </i>
    <i name="bandstr">   -381.14391683 </i>
    <i name="atom">   2202.35892741 </i>
    <i name="e_fr_energy">    258.55663825 </i>
    <i name="e_wo_entrp">    258.57827578 </i>
    <i name="e_0_energy">    258.56745701 </i>
   </energy>
  </scstep>
  <scstep>
   <time name="dav">    8.81    8.87</time>
   <time name="total">    8.81    8.87</time>
   <energy>
    <i name="e_fr_energy">   -129.93436947 </i>
    <i name="e_wo_entrp">   -129.92340918 </i>
    <i name="e_0_energy">   -129.92888933 </i>
   </energy>
  </scstep>
  <scstep>
   <time name="dav">   10.93   11.01</time>
   <time name="total">   10.93   11.01</time>
   <energy>
    <i name="e_fr_energy">   -145.66786408 </i>
    <i name="e_wo_entrp">   -145.66041722 </i>
    <i name="e_0_energy">   -145.66414065 </i>
   </energy>
  </scstep>
  <scstep>
   <time name="dav">    8.81    8.89</time>
   <time name="total">    8.81    8.89</time>
   <energy>
    <i name="e_fr_energy">   -145.71578270 </i>
    <i name="e_wo_entrp">   -145.70844200 </i>
    <i name="e_0_energy">   -145.71211235 </i>
   </energy>
  </scstep>
  <scstep>
   <time name="dav">   10.37   10.44</time>
   <time name="total">   10.63   10.71</time>
   <energy>
    <i name="e_fr_energy">   -145.71587101 </i>
    <i name="e_wo_entrp">   -145.70853064 </i>
    <i name="e_0_energy">   -145.71220083 </i>
   </energy>
  </scstep>
  <scstep>
   <time name="dav">   10.08   10.16</time>
   <time name="total">   10.38   10.47</time>
   <energy>
    <i name="e_fr_energy">   -107.06467124 </i>
    <i name="e_wo_entrp">   -107.04430375 </i>
    <i name="e_0_energy">   -107.05448749 </i>
   </energy>
  </scstep>
  <scstep>
   <time name="dav">    9.61    9.69</time>
   <time name="total">    9.91   10.00</time>
   <energy>
    <i name="e_fr_energy">   -113.76200126 </i>
    <i name="e_wo_entrp">   -113.74570739 </i>
    <i name="e_0_energy">   -113.75385432 </i>
   </energy>
  </scstep>
  <scstep>
   <time name="dav">   10.64   10.72</time>
   <time name="total">   10.94   11.03</time>
   <energy>
    <i name="e_fr_energy">   -123.53685390 </i>
    <i name="e_wo_entrp">   -123.53051435 </i>
    <i name="e_0_energy">   -123.53368413 </i>
   </energy>
  </scstep>
  <scstep>
   <time name="dav">    6.82    6.88</time>
   <time name="total">    7.11    7.18</time>
   <energy>
    <i name="e_fr_energy">   -131.34010348 </i>
    <i name="e_wo_entrp">   -131.33532643 </i>
    <i name="e_0_energy">   -131.33771496 </i>
   </energy>
  </scstep>
  <scstep>
   <time name="dav">    9.25    9.32</time>
   <time name="total">    9.54    9.62</time>
   <energy>
    <i name="e_fr_energy">   -138.36401793 </i>
    <i name="e_wo_entrp">   -138.36237766 </i>
    <i name="e_0_energy">   -138.36319779 </i>
   </energy>
  </scstep>
  <scstep>
   <time name="dav">    9.23    9.30</time>
   <time name="total">    9.52    9.60</time>
   <energy>
    <i name="e_fr_energy">   -139.96915029 </i>
    <i name="e_wo_entrp">   -139.96761173 </i>
    <i name="e_0_energy">   -139.96838101 </i>
   </energy>
  </scstep>
  <scstep>
   <time name="dav">    8.19    8.25</time>
   <time name="total">    8.48    8.55</time>
   <energy>
    <i name="e_fr_energy">   -140.31020980 </i>
    <i name="e_wo_entrp">   -140.30864063 </i>
    <i name="e_0_energy">   -140.30942522 </i>
   </energy>
  </scstep>
  <scstep>
   <time name="dav">    7.28    7.32</time>
   <time name="total">    7.57    7.63</time>
   <energy>
    <i name="e_fr_energy">   -140.36150829 </i>
    <i name="e_wo_entrp">   -140.35983747 </i>
    <i name="e_0_energy">   -140.36067288 </i>
   </energy>
  </scstep>
  <scstep>
   <time name="dav">    7.35    7.40</time>
   <time name="total">    7.64    7.71</time>
   <energy>
    <i name="e_fr_energy">   -140.37797151 </i>
    <i name="e_wo_entrp">   -140.37623531 </i>
    <i name="e_0_energy">   -140.37710341 </i>
   </energy>
  </scstep>
  <scstep>
   <time name="dav">    8.57    8.64</time>
   <time name="total">    8.87    8.95</time>
   <energy>
    <i name="e_fr_energy">   -140.38519085 </i>
    <i name="e_wo_entrp">   -140.38339508 </i>
    <i name="e_0_energy">   -140.38429297 </i>
   </energy>
  </scstep>
  <scstep>
   <time name="dav">    6.12    6.17</time>
   <time name="total">    6.42    6.48</time>
   <energy>
    <i name="e_fr_energy">   -140.38646263 </i>
    <i name="e_wo_entrp">   -140.38463804 </i>
    <i name="e_0_energy">   -140.38555034 </i>
   </energy>
  </scstep>
  <scstep>
   <time name="dav">    6.22    6.27</time>
   <time name="total">    6.52    6.57</time>
   <energy>
    <i name="e_fr_energy">   -140.38810778 </i>
    <i name="e_wo_entrp">   -140.38626754 </i>
    <i name="e_0_energy">   -140.38718766 </i>
   </energy>
  </scstep>
  <scstep>
   <time name="dav">    6.51    6.57</time>
   <time name="total">    6.81    6.87</time>
   <energy>
    <i name="e_fr_energy">   -140.38900338 </i>
    <i name="e_wo_entrp">   -140.38716725 </i>
    <i name="e_0_energy">   -140.38808531 </i>
   </energy>
  </scstep>
  <scstep>
   <time name="dav">    7.57    7.62</time>
   <time name="total">    7.86    7.93</time>
   <energy>
    <i name="e_fr_energy">   -140.38951673 </i>
    <i name="e_wo_entrp">   -140.38768383 </i>
    <i name="e_0_energy">   -140.38860028 </i>
   </energy>
  </scstep>
  <scstep>
   <time name="dav">    7.00    7.05</time>
   <time name="total">    7.30    7.36</time>
   <energy>
    <i name="e_fr_energy">   -140.38959513 </i>
    <i name="e_wo_entrp">   -140.38776032 </i>
    <i name="e_0_energy">   -140.38867773 </i>
   </energy>
  </scstep>
  <scstep>
   <time name="dav">    7.80    7.85</time>
   <time name="total">    8.09    8.16</time>
   <energy>
    <i name="e_fr_energy">   -140.38964074 </i>
    <i name="e_wo_entrp">   -140.38780498 </i>
    <i name="e_0_energy">   -140.38872286 </i>
   </energy>
  </scstep>
  <scstep>
   <time name="dav">   10.28   10.35</time>
   <time name="total">   10.57   10.66</time>
   <energy>
    <i name="e_fr_energy">   -140.38964636 </i>
    <i name="e_wo_entrp">   -140.38781078 </i>
    <i name="e_0_energy">   -140.38872857 </i>
   </energy>
  </scstep>
  <scstep>
   <time name="dav">    8.43    8.48</time>
   <time name="total">    8.72    8.79</time>
   <energy>
    <i name="e_fr_energy">   -140.38965136 </i>
    <i name="e_wo_entrp">   -140.38781557 </i>
    <i name="e_0_energy">   -140.38873347 </i>
   </energy>
  </scstep>
  <scstep>
   <time name="dav">    8.54    8.60</time>
   <time name="total">    8.83    8.90</time>
   <energy>
    <i name="e_fr_energy">   -140.38965446 </i>
    <i name="e_wo_entrp">   -140.38781873 </i>
    <i name="e_0_energy">   -140.38873660 </i>
   </energy>
  </scstep>
  <scstep>
   <time name="dav">    8.66    8.72</time>
   <time name="total">    8.96    9.03</time>
   <energy>
    <i name="e_fr_energy">   -140.38965573 </i>
    <i name="e_wo_entrp">   -140.38782025 </i>
    <i name="e_0_energy">   -140.38873799 </i>
   </energy>
  </scstep>
  <scstep>
   <time name="dav">    7.90    7.96</time>
   <time name="total">    7.94    8.00</time>
   <energy>
    <i name="alphaZ">     62.44053498 </i>
    <i name="ewald">   5342.57440407 </i>
    <i name="hartreedc">  -7391.98186225 </i>
    <i name="XCdc">    206.29249989 </i>
    <i name="pawpsdc">   6290.89145051 </i>
    <i name="pawaedc">  -6298.89335314 </i>
    <i name="eentropy">     -0.00183534 </i>
    <i name="bandstr">   -554.07042262 </i>
    <i name="atom">   2202.35892741 </i>
    <i name="e_fr_energy">   -140.38965649 </i>
    <i name="e_wo_entrp">   -140.38782115 </i>
    <i name="e_0_energy">   -140.38873882 </i>
   </energy>
  </scstep>
  <structure>
   <crystal>
    <varray name="basis" >
     <v>       4.37169624       2.52400000       0.00000000 </v>
     <v>      -4.37169624       2.52400000       0.00000000 </v>
     <v>       0.00000000       0.00000000      15.00000000 </v>
    </varray>
    <i name="volume">    331.02483916 </i>
    <varray name="rec_basis" >
     <v>       0.11437208       0.19809826       0.00000000 </v>
     <v>      -0.11437208       0.19809826       0.00000000 </v>
     <v>       0.00000000       0.00000000       0.06666667 </v>
    </varray>
   </crystal>
   <varray name="positions" >
    <v>       0.33833034       0.66916432       0.10000000 </v>
    <v>       0.67165522       0.33584146       0.10000000 </v>
    <v>       0.16373946       0.31999962       0.10000000 </v>
    <v>       0.32250218       0.16126397       0.10000000 </v>
    <v>       0.16376430       0.84376384       0.10000000 </v>
    <v>       0.84623863       0.16123684       0.10000000 </v>
    <v>       0.68749850       0.84373000       0.10000000 </v>
    <v>       0.84626736       0.68499594       0.10000000 </v>
    <v>       0.16666600       0.33333300       0.32880000 </v>
    <v>       0.33333300       0.16666600       0.32880000 </v>
    <v>       0.16666600       0.83333300       0.32880000 </v>
    <v>       0.33333300       0.66666600       0.32880000 </v>
    <v>       0.66666600       0.33333300       0.32880000 </v>
    <v>       0.83333300       0.16666600       0.32880000 </v>
    <v>       0.66666600       0.83333300       0.32880000 </v>
    <v>       0.83333300       0.66666600       0.32880000 </v>
   </varray>
  </structure>
  <varray name="forces" >
   <v>      -0.00006997      -0.00019240       0.04564987 </v>
   <v>       0.00447452      -0.00042948       0.04564785 </v>
   <v>      -0.28298864       0.48916027      -0.01688362 </v>
   <v>       0.28260584       0.48868922      -0.01699126 </v>
   <v>       0.56616575      -0.00052164      -0.01687890 </v>
   <v>      -0.56572134      -0.00055643      -0.01677121 </v>
   <v>      -0.28320732      -0.48647602      -0.01671492 </v>
   <v>       0.27924428      -0.48882814      -0.01677490 </v>
   <v>       0.02802644      -0.04817000       0.02243865 </v>
   <v>      -0.02799004      -0.04825716       0.02262557 </v>
   <v>      -0.05553945       0.00008119       0.02243681 </v>
   <v>      -0.00036835      -0.00041324      -0.06180153 </v>
   <v>      -0.00011173      -0.00040246      -0.06180086 </v>
   <v>       0.05542252       0.00010498       0.02201499 </v>
   <v>       0.02786700       0.04805554       0.02178318 </v>
   <v>      -0.02780949       0.04815578       0.02202026 </v>
  </varray>
  <varray name="stress" >
   <v>      -3.15326394       0.00369353      -0.00974133 </v>
   <v>       0.00369358      -3.14363952      -0.01673809 </v>
   <v>      -0.00974135      -0.01673808      -2.20998612 </v>
  </varray>
  <energy>
   <i name="e_fr_energy">   -142.26108902 </i>
   <i name="e_wo_entrp">   -142.25925368 </i>
   <i name="e_0_energy">   -142.26017135 </i>
  </energy>
  <time name="totalsc">  228.20  230.11</time>
 </calculation>
 <calculation>
  <scstep>
   <time name="dav">    5.68    5.72</time>
   <time name="total">    5.97    6.02</time>
   <energy>
    <i name="alphaZ">     62.44053498 </i>
    <i name="ewald">   5333.68984467 </i>
    <i name="hartreedc">  -7385.43797430 </i>
    <i name="XCdc">    206.15552615 </i>
    <i name="pawpsdc">   6290.89858951 </i>
    <i name="pawaedc">  -6298.90049413 </i>
    <i name="eentropy">     -0.00296798 </i>
    <i name="bandstr">   -551.55018019 </i>
    <i name="atom">   2202.35892741 </i>
    <i name="e_fr_energy">   -140.34819390 </i>
    <i name="e_wo_entrp">   -140.34522591 </i>
    <i name="e_0_energy">   -140.34670990 </i>
   </energy>
  </scstep>
  <scstep>
   <time name="dav">   10.42   10.49</time>
   <time name="total">   10.71   10.79</time>
   <energy>
    <i name="e_fr_energy">   -140.31255675 </i>
    <i name="e_wo_entrp">   -140.30965162 </i>
    <i name="e_0_energy">   -140.31110418 </i>
   </energy>
  </scstep>
  <scstep>
   <time name="dav">    9.57    9.63</time>
   <time name="total">    9.86    9.94</time>
   <energy>
    <i name="e_fr_energy">   -140.30906707 </i>
    <i name="e_wo_entrp">   -140.30638088 </i>
    <i name="e_0_energy">   -140.30772398 </i>
   </energy>
  </scstep>
  <scstep>
   <time name="dav">    7.84    7.90</time>
   <time name="total">    8.13    8.20</time>
   <energy>
    <i name="e_fr_energy">   -140.30902194 </i>
    <i name="e_wo_entrp">   -140.30634039 </i>
    <i name="e_0_energy">   -140.30768116 </i>
   </energy>
  </scstep>
  <scstep>
   <time name="dav">    7.95    8.01</time>
   <time name="total">    8.24    8.30</time>
   <energy>
    <i name="e_fr_energy">   -140.30902518 </i>
    <i name="e_wo_entrp">   -140.30639514 </i>
    <i name="e_0_energy">   -140.30771016 </i>
   </energy>
  </scstep>
  <scstep>
   <time name="dav">    8.52    8.57</time>
   <time name="total">    8.80    8.87</time>
   <energy>
    <i name="e_fr_energy">   -140.30903017 </i>
    <i name="e_wo_entrp">   -140.30639447 </i>
    <i name="e_0_energy">   -140.30771232 </i>
   </energy>
  </scstep>
  <scstep>
   <time name="dav">    9.31    9.38</time>
   <time name="total">    9.60    9.68</time>
   <energy>
    <i name="e_fr_energy">   -140.30903917 </i>
    <i name="e_wo_entrp">   -140.30640062 </i>
    <i name="e_0_energy">   -140.30771990 </i>
   </energy>
  </scstep>
  <scstep>
   <time name="dav">    8.13    8.19</time>
   <time name="total">    8.42    8.49</time>
   <energy>
    <i name="e_fr_energy">   -140.30904925 </i>
    <i name="e_wo_entrp">   -140.30641215 </i>
    <i name="e_0_energy">   -140.30773070 </i>
   </energy>
  </scstep>
  <scstep>
   <time name="dav">    7.72    7.77</time>
   <time name="total">    8.01    8.07</time>
   <energy>
    <i name="e_fr_energy">   -140.30906173 </i>
    <i name="e_wo_entrp">   -140.30642688 </i>
    <i name="e_0_energy">   -140.30774430 </i>
   </energy>
  </scstep>
  <scstep>
   <time name="dav">    7.86    7.91</time>
   <time name="total">    8.15    8.22</time>
   <energy>
    <i name="e_fr_energy">   -140.30906923 </i>
    <i name="e_wo_entrp">   -140.30643572 </i>
    <i name="e_0_energy">   -140.30775248 </i>
   </energy>
  </scstep>
  <scstep>
   <time name="dav">    7.17    7.23</time>
   <time name="total">    7.46    7.53</time>
   <energy>
    <i name="e_fr_energy">   -140.30907466 </i>
    <i name="e_wo_entrp">   -140.30644179 </i>
    <i name="e_0_energy">   -140.30775823 </i>
   </energy>
  </scstep>
  <scstep>
   <time name="dav">    6.53    6.57</time>
   <time name="total">    6.81    6.87</time>
   <energy>
    <i name="e_fr_energy">   -140.30907689 </i>
    <i name="e_wo_entrp">   -140.30644425 </i>
    <i name="e_0_energy">   -140.30776057 </i>
   </energy>
  </scstep>
  <scstep>
   <time name="dav">    8.83    8.90</time>
   <time name="total">    8.87    8.93</time>
   <energy>
    <i name="alphaZ">     62.44053498 </i>
    <i name="ewald">   5333.68984467 </i>
    <i name="hartreedc">  -7382.83148648 </i>
    <i name="XCdc">    206.05234103 </i>
    <i name="pawpsdc">   6250.83649255 </i>
    <i name="pawaedc">  -6258.82450570 </i>
    <i name="eentropy">     -0.00263260 </i>
    <i name="bandstr">   -554.02859310 </i>
    <i name="atom">   2202.35892741 </i>
    <i name="e_fr_energy">   -140.30907725 </i>
    <i name="e_wo_entrp">   -140.30644465 </i>
    <i name="e_0_energy">   -140.30776095 </i>
   </energy>
  </scstep>
  <structure>
   <crystal>
    <varray name="basis" >
     <v>       4.37169624       2.52400000       0.00000000 </v>
     <v>      -4.37169624       2.52400000       0.00000000 </v>
     <v>       0.00000000       0.00000000      15.00000000 </v>
    </varray>
    <i name="volume">    331.02483916 </i>
    <varray name="rec_basis" >
     <v>       0.11437208       0.19809826       0.00000000 </v>
     <v>      -0.11437208       0.19809826       0.00000000 </v>
     <v>       0.00000000       0.00000000       0.06666667 </v>
    </varray>
   </crystal>
   <varray name="positions" >
    <v>       0.33832812       0.66916287       0.10014682 </v>
    <v>       0.67167580       0.33581267       0.10014681 </v>
    <v>       0.16685284       0.32623584       0.09994570 </v>
    <v>       0.32873179       0.16437495       0.09994535 </v>
    <v>       0.16688320       0.84063497       0.09994571 </v>
    <v>       0.84311189       0.16435296       0.09994606 </v>
    <v>       0.68128673       0.84064348       0.09994624 </v>
    <v>       0.84313649       0.67878356       0.09994605 </v>
    <v>       0.16636029       0.33271801       0.32887217 </v>
    <v>       0.33271738       0.16635925       0.32887277 </v>
    <v>       0.16636033       0.83364022       0.32887216 </v>
    <v>       0.33332702       0.66666408       0.32860124 </v>
    <v>       0.66666154       0.33332977       0.32860124 </v>
    <v>       0.83363980       0.16636120       0.32887080 </v>
    <v>       0.66727902       0.83363850       0.32887006 </v>
    <v>       0.83363977       0.66727966       0.32887082 </v>
   </varray>
  </structure>
  <varray name="forces" >
   <v>       0.00221323       0.00209390       0.01252105 </v>
   <v>      -0.01027745       0.00155410       0.01250904 </v>
   <v>       0.74297200      -1.28374994      -0.00502535 </v>
   <v>      -0.73884941      -1.28286116      -0.00501276 </v>
   <v>      -1.48756770      -0.00096657      -0.00504274 </v>
   <v>       1.48656456       0.00528500      -0.00490117 </v>
   <v>       0.73851093       1.27741739      -0.00486313 </v>
   <v>      -0.73310477       1.28201622      -0.00487138 </v>
   <v>      -0.06175422       0.10515219       0.00185328 </v>
   <v>       0.06123076       0.10535195       0.00190766 </v>
   <v>       0.12133007      -0.00056358       0.00186345 </v>
   <v>       0.00077978       0.00066204      -0.00304863 </v>
   <v>       0.00000402       0.00064459      -0.00305150 </v>
   <v>      -0.12148202      -0.00062581       0.00175152 </v>
   <v>      -0.06135067      -0.10558279       0.00167896 </v>
   <v>       0.06078091      -0.10582752       0.00173169 </v>
  </varray>
  <varray name="stress" >
   <v>     -10.45907452      -0.01023044      -0.00836615 </v>
   <v>      -0.01023045     -10.50015848      -0.01448604 </v>
   <v>      -0.00836616      -0.01448607      -2.30620080 </v>
  </varray>
  <energy>
   <i name="e_fr_energy">   -142.18484577 </i>
   <i name="e_wo_entrp">   -142.18221317 </i>
   <i name="e_0_energy">   -142.18352947 </i>
  </energy>
  <time name="totalsc">  114.34  115.26</time>
 </calculation>
 <calculation>
  <scstep>
   <time name="dav">    5.69    5.73</time>
   <time name="total">    5.99    6.04</time>
   <energy>
    <i name="alphaZ">     62.44053498 </i>
    <i name="ewald">   5339.91908601 </i>
    <i name="hartreedc">  -7387.31386745 </i>
    <i name="XCdc">    206.14423597 </i>
    <i name="pawpsdc">   6250.83128273 </i>
    <i name="pawaedc">  -6258.81930427 </i>
    <i name="eentropy">     -0.00161367 </i>
    <i name="bandstr">   -555.98013832 </i>
    <i name="atom">   2202.35892741 </i>
    <i name="e_fr_energy">   -140.42085662 </i>
    <i name="e_wo_entrp">   -140.41924294 </i>
    <i name="e_0_energy">   -140.42004978 </i>
   </energy>
  </scstep>
  <scstep>
   <time name="dav">    9.87    9.93</time>
   <time name="total">   10.16   10.23</time>
   <energy>
    <i name="e_fr_energy">   -140.40318691 </i>
    <i name="e_wo_entrp">   -140.40144510 </i>
    <i name="e_0_energy">   -140.40231601 </i>
   </energy>
  </scstep>
  <scstep>
   <time name="dav">   10.24   10.31</time>
   <time name="total">   10.53   10.61</time>
   <energy>
    <i name="e_fr_energy">   -140.40110473 </i>
    <i name="e_wo_entrp">   -140.39919257 </i>
    <i name="e_0_energy">   -140.40014865 </i>
   </energy>
  </scstep>
  <scstep>
   <time name="dav">    8.03    8.08</time>
   <time name="total">    8.31    8.38</time>
   <energy>
    <i name="e_fr_energy">   -140.40101075 </i>
    <i name="e_wo_entrp">   -140.39905396 </i>
    <i name="e_0_energy">   -140.40003236 </i>
   </energy>
  </scstep>
  <scstep>
   <time name="dav">    6.29    6.34</time>
   <time name="total">    6.58    6.64</time>
   <energy>
    <i name="e_fr_energy">   -140.40099827 </i>
    <i name="e_wo_entrp">   -140.39896384 </i>
    <i name="e_0_energy">   -140.39998105 </i>
   </energy>
  </scstep>
  <scstep>
   <time name="dav">   10.58   10.65</time>
   <time name="total">   10.87   10.95</time>
   <energy>
    <i name="e_fr_energy">   -140.40099507 </i>
    <i name="e_wo_entrp">   -140.39896128 </i>
    <i name="e_0_energy">   -140.39997817 </i>
   </energy>
  </scstep>
  <scstep>
   <time name="dav">    8.44    8.50</time>
   <time name="total">    8.73    8.80</time>
   <energy>
    <i name="e_fr_energy">   -140.40099745 </i>
    <i name="e_wo_entrp">   -140.39895715 </i>
    <i name="e_0_energy">   -140.39997730 </i>
   </energy>
  </scstep>
  <scstep>
   <time name="dav">    9.91    9.99</time>
   <time name="total">   10.21   10.29</time>
   <energy>
    <i name="e_fr_energy">   -140.40100074 </i>
    <i name="e_wo_entrp">   -140.39895667 </i>
    <i name="e_0_energy">   -140.39997871 </i>
   </energy>
  </scstep>
  <scstep>
   <time name="dav">    7.72    7.77</time>
   <time name="total">    8.01    8.07</time>
   <energy>
    <i name="e_fr_energy">   -140.40100715 </i>
    <i name="e_wo_entrp">   -140.39896022 </i>
    <i name="e_0_energy">   -140.39998369 </i>
   </energy>
  </scstep>
  <scstep>
   <time name="dav">    7.51    7.56</time>
   <time name="total">    7.81    7.87</time>
   <energy>
    <i name="e_fr_energy">   -140.40101296 </i>
    <i name="e_wo_entrp">   -140.39896384 </i>
    <i name="e_0_energy">   -140.39998840 </i>
   </energy>
  </scstep>
  <scstep>
   <time name="dav">    5.79    5.84</time>
   <time name="total">    6.08    6.15</time>
   <energy>
    <i name="e_fr_energy">   -140.40101758 </i>
    <i name="e_wo_entrp">   -140.39896838 </i>
    <i name="e_0_energy">   -140.39999298 </i>
   </energy>
  </scstep>
  <scstep>
   <time name="dav">    9.21    9.27</time>
   <time name="total">    9.51    9.57</time>
   <energy>
    <i name="e_fr_energy">   -140.40101859 </i>
    <i name="e_wo_entrp">   -140.39896938 </i>
    <i name="e_0_energy">   -140.39999398 </i>
   </energy>
  </scstep>
  <scstep>
   <time name="dav">    7.12    7.17</time>
   <time name="total">    7.16    7.20</time>
   <energy>
    <i name="alphaZ">     62.44053498 </i>
    <i name="ewald">   5339.91908601 </i>
    <i name="hartreedc">  -7389.29823671 </i>
    <i name="XCdc">    206.22200389 </i>
    <i name="pawpsdc">   6277.30727660 </i>
    <i name="pawaedc">  -6285.30432287 </i>
    <i name="eentropy">     -0.00204921 </i>
    <i name="bandstr">   -554.04423903 </i>
    <i name="atom">   2202.35892741 </i>
    <i name="e_fr_energy">   -140.40101894 </i>
    <i name="e_wo_entrp">   -140.39896973 </i>
    <i name="e_0_energy">   -140.39999434 </i>
   </energy>
  </scstep>
  <structure>
   <crystal>
    <varray name="basis" >
     <v>       4.37169624       2.52400000       0.00000000 </v>
     <v>      -4.37169624       2.52400000       0.00000000 </v>
     <v>       0.00000000       0.00000000      15.00000000 </v>
    </varray>
    <i name="volume">    331.02483916 </i>
    <varray name="rec_basis" >
     <v>       0.11437208       0.19809826       0.00000000 </v>
     <v>      -0.11437208       0.19809826       0.00000000 </v>
     <v>       0.00000000       0.00000000       0.06666667 </v>
    </varray>
   </crystal>
   <varray name="positions" >
    <v>       0.33832973       0.66916392       0.10004018 </v>
    <v>       0.67166085       0.33583358       0.10004018 </v>
    <v>       0.16459156       0.32170641       0.09998514 </v>
    <v>       0.32420717       0.16211541       0.09998504 </v>
    <v>       0.16461791       0.84290750       0.09998514 </v>
    <v>       0.84538287       0.16208969       0.09998524 </v>
    <v>       0.68579840       0.84288525       0.09998529 </v>
    <v>       0.84541047       0.68329567       0.09998523 </v>
    <v>       0.16658233       0.33316468       0.32881975 </v>
    <v>       0.33316451       0.16658205       0.32881992 </v>
    <v>       0.16658234       0.83341708       0.32881975 </v>
    <v>       0.33333136       0.66666548       0.32874560 </v>
    <v>       0.66666478       0.33333212       0.32874560 </v>
    <v>       0.83341697       0.16658258       0.32881938 </v>
    <v>       0.66683378       0.83341661       0.32881917 </v>
    <v>       0.83341696       0.66683395       0.32881938 </v>
   </varray>
  </structure>
  <varray name="forces" >
   <v>       0.00047137       0.00035160       0.03612347 </v>
   <v>       0.00070706       0.00003374       0.03611885 </v>
   <v>       0.00245914      -0.00408284      -0.01341353 </v>
   <v>      -0.00163620      -0.00426594      -0.01349861 </v>
   <v>      -0.00517431      -0.00069201      -0.01341298 </v>
   <v>       0.00501602       0.00119594      -0.01328745 </v>
   <v>       0.00105370       0.00424790      -0.01325671 </v>
   <v>      -0.00238649       0.00407479      -0.01328686 </v>
   <v>       0.00354987      -0.00637571       0.01684401 </v>
   <v>      -0.00367071      -0.00638385       0.01699534 </v>
   <v>      -0.00732548      -0.00009919       0.01684468 </v>
   <v>      -0.00005657      -0.00012502      -0.04604954 </v>
   <v>      -0.00008508      -0.00012216      -0.04604982 </v>
   <v>       0.00719553      -0.00009809       0.01650629 </v>
   <v>       0.00354458       0.00616727       0.01631742 </v>
   <v>      -0.00366243       0.00617358       0.01650546 </v>
  </varray>
  <varray name="stress" >
   <v>      -5.63567222      -0.00120456      -0.00932105 </v>
   <v>      -0.00120453      -5.63894003      -0.01612803 </v>
   <v>      -0.00932107      -0.01612806      -2.24017977 </v>
  </varray>
  <energy>
   <i name="e_fr_energy">   -142.27390944 </i>
   <i name="e_wo_entrp">   -142.27186023 </i>
   <i name="e_0_energy">   -142.27288484 </i>
  </energy>
  <time name="totalsc">  115.30  116.23</time>
 </calculation>
 <calculation>
  <scstep>
   <time name="dav">    5.67    5.72</time>
   <time name="total">    5.97    6.02</time>
   <energy>
    <i name="alphaZ">     62.44053498 </i>
    <i name="ewald">   5339.53708756 </i>
    <i name="hartreedc">  -7388.91152082 </i>
    <i name="XCdc">    206.22240077 </i>
    <i name="pawpsdc">   6277.30791759 </i>
    <i name="pawaedc">  -6285.30495900 </i>
    <i name="eentropy">     -0.00203783 </i>
    <i name="bandstr">   -554.04965266 </i>
    <i name="atom">   2202.35892741 </i>
    <i name="e_fr_energy">   -140.40130199 </i>
    <i name="e_wo_entrp">   -140.39926416 </i>
    <i name="e_0_energy">   -140.40028307 </i>
   </energy>
  </scstep>
  <scstep>
   <time name="dav">   11.40   11.47</time>
   <time name="total">   11.69   11.77</time>
   <energy>
    <i name="e_fr_energy">   -140.40130887 </i>
    <i name="e_wo_entrp">   -140.39927587 </i>
    <i name="e_0_energy">   -140.40029237 </i>
   </energy>
  </scstep>
  <scstep>
   <time name="dav">    6.56    6.60</time>
   <time name="total">    6.85    6.91</time>
   <energy>
    <i name="e_fr_energy">   -140.40131075 </i>
    <i name="e_wo_entrp">   -140.39928396 </i>
    <i name="e_0_energy">   -140.40029735 </i>
   </energy>
  </scstep>
  <scstep>
   <time name="dav">    9.74    9.81</time>
   <time name="total">    9.77    9.84</time>
   <energy>
    <i name="alphaZ">     62.44053498 </i>
    <i name="ewald">   5339.53708756 </i>
    <i name="hartreedc">  -7388.88905444 </i>
    <i name="XCdc">    206.22244348 </i>
    <i name="pawpsdc">   6277.29522206 </i>
    <i name="pawaedc">  -6285.29227101 </i>
    <i name="eentropy">     -0.00202571 </i>
    <i name="bandstr">   -554.07217511 </i>
    <i name="atom">   2202.35892741 </i>
    <i name="e_fr_energy">   -140.40131080 </i>
    <i name="e_wo_entrp">   -140.39928509 </i>
    <i name="e_0_energy">   -140.40029794 </i>
   </energy>
  </scstep>
  <structure>
   <crystal>
    <varray name="basis" >
     <v>       4.37169624       2.52400000       0.00000000 </v>
     <v>      -4.37169624       2.52400000       0.00000000 </v>
     <v>       0.00000000       0.00000000      15.00000000 </v>
    </varray>
    <i name="volume">    331.02483916 </i>
    <varray name="rec_basis" >
     <v>       0.11437208       0.19809826       0.00000000 </v>
     <v>      -0.11437208       0.19809826       0.00000000 </v>
     <v>       0.00000000       0.00000000       0.06666667 </v>
    </varray>
   </crystal>
   <varray name="positions" >
    <v>       0.33833482       0.66916457       0.10014020 </v>
    <v>       0.67166456       0.33583038       0.10014019 </v>
    <v>       0.16458497       0.32169183       0.09994800 </v>
    <v>       0.32419493       0.16210343       0.09994767 </v>
    <v>       0.16460304       0.84291102       0.09994801 </v>
    <v>       0.84540108       0.16209097       0.09994845 </v>
    <v>       0.68580783       0.84289996       0.09994858 </v>
    <v>       0.84541726       0.68330997       0.09994845 </v>
    <v>       0.16654550       0.33309287       0.32886641 </v>
    <v>       0.33309206       0.16654572       0.32886699 </v>
    <v>       0.16654550       0.83345232       0.32886641 </v>
    <v>       0.33333005       0.66666471       0.32861804 </v>
    <v>       0.66666336       0.33333150       0.32861804 </v>
    <v>       0.83345160       0.16654636       0.32886510 </v>
    <v>       0.66690386       0.83345176       0.32886437 </v>
    <v>       0.83345161       0.66690464       0.32886510 </v>
   </varray>
  </structure>
  <varray name="forces" >
   <v>      -0.00128770      -0.00067133       0.01749044 </v>
   <v>      -0.00035238       0.00042904       0.01749004 </v>
   <v>       0.00218603       0.00168921      -0.00684374 </v>
   <v>      -0.00060594      -0.00027405      -0.00692037 </v>
   <v>       0.00118518       0.00047178      -0.00684775 </v>
   <v>      -0.00038645      -0.00102435      -0.00672460 </v>
   <v>       0.00213472       0.00129071      -0.00668009 </v>
   <v>      -0.00237673      -0.00107180      -0.00672350 </v>
   <v>      -0.00650574       0.01108466       0.00428852 </v>
   <v>       0.00636695       0.01109693       0.00437681 </v>
   <v>       0.01290884      -0.00012233       0.00428842 </v>
   <v>      -0.00007866      -0.00006669      -0.00970488 </v>
   <v>      -0.00000925      -0.00007321      -0.00970520 </v>
   <v>      -0.01303627      -0.00012301       0.00410469 </v>
   <v>      -0.00649722      -0.01131445       0.00400830 </v>
   <v>       0.00635462      -0.01132109       0.00410290 </v>
  </varray>
  <varray name="stress" >
   <v>      -5.62237042       0.00621264      -0.00910636 </v>
   <v>       0.00621266      -5.60301314      -0.01574889 </v>
   <v>      -0.00910635      -0.01574890      -2.28124421 </v>
  </varray>
  <energy>
   <i name="e_fr_energy">   -142.27416905 </i>
   <i name="e_wo_entrp">   -142.27214334 </i>
   <i name="e_0_energy">   -142.27315619 </i>
  </energy>
  <time name="totalsc">   39.57   39.87</time>
 </calculation>
 <calculation>
  <scstep>
   <time name="dav">    5.68    5.72</time>
   <time name="total">    5.97    6.02</time>
   <energy>
    <i name="alphaZ">     62.44053498 </i>
    <i name="ewald">   5339.40541699 </i>
    <i name="hartreedc">  -7388.75243745 </i>
    <i name="XCdc">    206.22252002 </i>
    <i name="pawpsdc">   6277.31603498 </i>
    <i name="pawaedc">  -6285.31308359 </i>
    <i name="eentropy">     -0.00202105 </i>
    <i name="bandstr">   -554.07723048 </i>
    <i name="atom">   2202.35892741 </i>
    <i name="e_fr_energy">   -140.40133821 </i>
    <i name="e_wo_entrp">   -140.39931715 </i>
    <i name="e_0_energy">   -140.40032768 </i>
   </energy>
  </scstep>
  <scstep>
   <time name="dav">   10.79   10.86</time>
   <time name="total">   11.08   11.16</time>
   <energy>
    <i name="e_fr_energy">   -140.40133892 </i>
    <i name="e_wo_entrp">   -140.39931983 </i>
    <i name="e_0_energy">   -140.40032937 </i>
   </energy>
  </scstep>
  <scstep>
   <time name="dav">    6.64    6.69</time>
   <time name="total">    6.67    6.72</time>
   <energy>
    <i name="alphaZ">     62.44053498 </i>
    <i name="ewald">   5339.40541699 </i>
    <i name="hartreedc">  -7388.74072188 </i>
    <i name="XCdc">    206.22252937 </i>
    <i name="pawpsdc">   6277.34460709 </i>
    <i name="pawaedc">  -6285.34166920 </i>
    <i name="eentropy">     -0.00201641 </i>
    <i name="bandstr">   -554.08894780 </i>
    <i name="atom">   2202.35892741 </i>
    <i name="e_fr_energy">   -140.40133946 </i>
    <i name="e_wo_entrp">   -140.39932305 </i>
    <i name="e_0_energy">   -140.40033126 </i>
   </energy>
  </scstep>
  <structure>
   <crystal>
    <varray name="basis" >
     <v>       4.37169624       2.52400000       0.00000000 </v>
     <v>      -4.37169624       2.52400000       0.00000000 </v>
     <v>       0.00000000       0.00000000      15.00000000 </v>
    </varray>
    <i name="volume">    331.02483916 </i>
    <varray name="rec_basis" >
     <v>       0.11437208       0.19809826       0.00000000 </v>
     <v>      -0.11437208       0.19809826       0.00000000 </v>
     <v>       0.00000000       0.00000000       0.06666667 </v>
    </varray>
   </crystal>
   <varray name="positions" >
    <v>       0.33833655       0.66916479       0.10017432 </v>
    <v>       0.67166583       0.33582929       0.10017430 </v>
    <v>       0.16458272       0.32168685       0.09993533 </v>
    <v>       0.32419076       0.16209934       0.09993492 </v>
    <v>       0.16459797       0.84291222       0.09993534 </v>
    <v>       0.84540729       0.16209141       0.09993590 </v>
    <v>       0.68581104       0.84290497       0.09993606 </v>
    <v>       0.84541957       0.68331485       0.09993590 </v>
    <v>       0.16653294       0.33306837       0.32888232 </v>
    <v>       0.33306734       0.16653333       0.32888305 </v>
    <v>       0.16653293       0.83346434       0.32888232 </v>
    <v>       0.33332960       0.66666445       0.32857453 </v>
    <v>       0.66666287       0.33333129       0.32857453 </v>
    <v>       0.83346341       0.16653400       0.32888070 </v>
    <v>       0.66692776       0.83346375       0.32887979 </v>
    <v>       0.83346343       0.66692876       0.32888070 </v>
   </varray>
  </structure>
  <varray name="forces" >
   <v>      -0.00186485      -0.00100353       0.01113176 </v>
   <v>      -0.00074393       0.00056199       0.01113327 </v>
   <v>       0.00210032       0.00370786      -0.00457043 </v>
   <v>      -0.00024859       0.00112321      -0.00465180 </v>
   <v>       0.00338159       0.00087403      -0.00457125 </v>
   <v>      -0.00226727      -0.00179857      -0.00444810 </v>
   <v>       0.00250676       0.00023053      -0.00441500 </v>
   <v>      -0.00236971      -0.00286587      -0.00446312 </v>
   <v>      -0.01017195       0.01744937      -0.00003658 </v>
   <v>       0.01002716       0.01747050       0.00002925 </v>
   <v>       0.02028313      -0.00013024      -0.00003684 </v>
   <v>      -0.00008759      -0.00004716       0.00273461 </v>
   <v>       0.00001475      -0.00005826       0.00273443 </v>
   <v>      -0.02040782      -0.00013187      -0.00016781 </v>
   <v>      -0.01015828      -0.01768490      -0.00023270 </v>
   <v>       0.01000629      -0.01769708      -0.00016968 </v>
  </varray>
  <varray name="stress" >
   <v>      -5.61864713       0.00857821      -0.00902039 </v>
   <v>       0.00857821      -5.59207871      -0.01564062 </v>
   <v>      -0.00902036      -0.01564062      -2.29261087 </v>
  </varray>
  <energy>
   <i name="e_fr_energy">   -142.27418691 </i>
   <i name="e_wo_entrp">   -142.27217049 </i>
   <i name="e_0_energy">   -142.27317870 </i>
  </energy>
  <time name="totalsc">   29.02   29.23</time>
 </calculation>
 <calculation>
  <scstep>
   <time name="dav">    6.23    6.27</time>
   <time name="total">    6.52    6.58</time>
   <energy>
    <i name="alphaZ">     62.44053498 </i>
    <i name="ewald">   5339.06788714 </i>
    <i name="hartreedc">  -7388.40569609 </i>
    <i name="XCdc">    206.22222421 </i>
    <i name="pawpsdc">   6277.35000388 </i>
    <i name="pawaedc">  -6285.34706238 </i>
    <i name="eentropy">     -0.00202034 </i>
    <i name="bandstr">   -554.08613129 </i>
    <i name="atom">   2202.35892741 </i>
    <i name="e_fr_energy">   -140.40133247 </i>
    <i name="e_wo_entrp">   -140.39931214 </i>
    <i name="e_0_energy">   -140.40032230 </i>
   </energy>
  </scstep>
  <scstep>
   <time name="dav">    6.21    6.26</time>
   <time name="total">    6.50    6.56</time>
   <energy>
    <i name="e_fr_energy">   -140.40132712 </i>
    <i name="e_wo_entrp">   -140.39930913 </i>
    <i name="e_0_energy">   -140.40031812 </i>
   </energy>
  </scstep>
  <scstep>
   <time name="dav">    8.35    8.40</time>
   <time name="total">    8.64    8.71</time>
   <energy>
    <i name="e_fr_energy">   -140.40132716 </i>
    <i name="e_wo_entrp">   -140.39931145 </i>
    <i name="e_0_energy">   -140.40031931 </i>
   </energy>
  </scstep>
  <scstep>
   <time name="dav">    8.86    8.92</time>
   <time name="total">    8.89    8.95</time>
   <energy>
    <i name="alphaZ">     62.44053498 </i>
    <i name="ewald">   5339.06788714 </i>
    <i name="hartreedc">  -7388.37952765 </i>
    <i name="XCdc">    206.22195895 </i>
    <i name="pawpsdc">   6277.14231074 </i>
    <i name="pawaedc">  -6285.13929908 </i>
    <i name="eentropy">     -0.00201485 </i>
    <i name="bandstr">   -554.11210486 </i>
    <i name="atom">   2202.35892741 </i>
    <i name="e_fr_energy">   -140.40132722 </i>
    <i name="e_wo_entrp">   -140.39931237 </i>
    <i name="e_0_energy">   -140.40031979 </i>
   </energy>
  </scstep>
  <structure>
   <crystal>
    <varray name="basis" >
     <v>       4.37169624       2.52400000       0.00000000 </v>
     <v>      -4.37169624       2.52400000       0.00000000 </v>
     <v>       0.00000000       0.00000000      15.00000000 </v>
    </varray>
    <i name="volume">    331.02483916 </i>
    <varray name="rec_basis" >
     <v>       0.11437208       0.19809826       0.00000000 </v>
     <v>      -0.11437208       0.19809826       0.00000000 </v>
     <v>       0.00000000       0.00000000       0.06666667 </v>
    </varray>
   </crystal>
   <varray name="positions" >
    <v>       0.33832000       0.66916563       0.10023839 </v>
    <v>       0.67166815       0.33583694       0.10023837 </v>
    <v>       0.16462358       0.32170405       0.09991026 </v>
    <v>       0.32419547       0.16210663       0.09990954 </v>
    <v>       0.16461797       0.84290391       0.09991026 </v>
    <v>       0.84538588       0.16208754       0.09991129 </v>
    <v>       0.68582864       0.84289897       0.09991158 </v>
    <v>       0.84538476       0.68330626       0.09991125 </v>
    <v>       0.16662240       0.33324935       0.32889685 </v>
    <v>       0.33324757       0.16662386       0.32889790 </v>
    <v>       0.16662241       0.83337207       0.32889685 </v>
    <v>       0.33332833       0.66666424       0.32854254 </v>
    <v>       0.66666199       0.33333052       0.32854254 </v>
    <v>       0.83337031       0.16662430       0.32889455 </v>
    <v>       0.66674425       0.83337164       0.32889329 </v>
    <v>       0.83337029       0.66674610       0.32889454 </v>
   </varray>
  </structure>
  <varray name="forces" >
   <v>       0.00537009       0.00387549      -0.00134836 </v>
   <v>      -0.00107996      -0.00187894      -0.00134518 </v>
   <v>      -0.00780096      -0.00891303      -0.00049354 </v>
   <v>       0.00552744      -0.00035520      -0.00053615 </v>
   <v>      -0.00919248      -0.00477887      -0.00050301 </v>
   <v>       0.00693663       0.00800854      -0.00036680 </v>
   <v>      -0.00963176      -0.00303274      -0.00028964 </v>
   <v>       0.01037644       0.00791602      -0.00037244 </v>
   <v>       0.01586870      -0.02783128      -0.00317560 </v>
   <v>      -0.01595742      -0.02787189      -0.00315817 </v>
   <v>      -0.03224649      -0.00005287      -0.00317658 </v>
   <v>       0.00000933      -0.00021724       0.01220046 </v>
   <v>      -0.00024004      -0.00018597       0.01219876 </v>
   <v>       0.03213521      -0.00005938      -0.00320702 </v>
   <v>       0.01584783       0.02768703      -0.00322051 </v>
   <v>      -0.01592256       0.02769031      -0.00320623 </v>
  </varray>
  <varray name="stress" >
   <v>      -5.57367568      -0.03088787      -0.00904930 </v>
   <v>      -0.03088787      -5.67054879      -0.01570999 </v>
   <v>      -0.00904930      -0.01570998      -2.29648300 </v>
  </varray>
  <energy>
   <i name="e_fr_energy">   -142.27415975 </i>
   <i name="e_wo_entrp">   -142.27214490 </i>
   <i name="e_0_energy">   -142.27315233 </i>
  </energy>
  <time name="totalsc">   35.88   36.16</time>
 </calculation>
 <calculation>
  <scstep>
   <time name="dav">    6.54    6.59</time>
   <time name="total">    6.83    6.89</time>
   <energy>
    <i name="alphaZ">     62.44053498 </i>
    <i name="ewald">   5339.26427892 </i>
    <i name="hartreedc">  -7388.56611281 </i>
    <i name="XCdc">    206.22208778 </i>
    <i name="pawpsdc">   6277.22614741 </i>
    <i name="pawaedc">  -6285.22315890 </i>
    <i name="eentropy">     -0.00201119 </i>
    <i name="bandstr">   -554.12206730 </i>
    <i name="atom">   2202.35892741 </i>
    <i name="e_fr_energy">   -140.40137371 </i>
    <i name="e_wo_entrp">   -140.39936252 </i>
    <i name="e_0_energy">   -140.40036811 </i>
   </energy>
  </scstep>
  <scstep>
   <time name="dav">    5.90    5.94</time>
   <time name="total">    6.19    6.24</time>
   <energy>
    <i name="e_fr_energy">   -140.40137137 </i>
    <i name="e_wo_entrp">   -140.39935928 </i>
    <i name="e_0_energy">   -140.40036533 </i>
   </energy>
  </scstep>
  <scstep>
   <time name="dav">    6.83    6.89</time>
   <time name="total">    7.12    7.19</time>
   <energy>
    <i name="e_fr_energy">   -140.40137142 </i>
    <i name="e_wo_entrp">   -140.39935830 </i>
    <i name="e_0_energy">   -140.40036486 </i>
   </energy>
  </scstep>
  <scstep>
   <time name="dav">    6.34    6.39</time>
   <time name="total">    6.37    6.42</time>
   <energy>
    <i name="alphaZ">     62.44053498 </i>
    <i name="ewald">   5339.26427892 </i>
    <i name="hartreedc">  -7388.57222748 </i>
    <i name="XCdc">    206.22218130 </i>
    <i name="pawpsdc">   6277.39866414 </i>
    <i name="pawaedc">  -6285.39572787 </i>
    <i name="eentropy">     -0.00201343 </i>
    <i name="bandstr">   -554.11598954 </i>
    <i name="atom">   2202.35892741 </i>
    <i name="e_fr_energy">   -140.40137158 </i>
    <i name="e_wo_entrp">   -140.39935814 </i>
    <i name="e_0_energy">   -140.40036486 </i>
   </energy>
  </scstep>
  <structure>
   <crystal>
    <varray name="basis" >
     <v>       4.37169624       2.52400000       0.00000000 </v>
     <v>      -4.37169624       2.52400000       0.00000000 </v>
     <v>       0.00000000       0.00000000      15.00000000 </v>
    </varray>
    <i name="volume">    331.02483916 </i>
    <varray name="rec_basis" >
     <v>       0.11437208       0.19809826       0.00000000 </v>
     <v>      -0.11437208       0.19809826       0.00000000 </v>
     <v>       0.00000000       0.00000000       0.06666667 </v>
    </varray>
   </crystal>
   <varray name="positions" >
    <v>       0.33832964       0.66916514       0.10020109 </v>
    <v>       0.67166679       0.33583248       0.10020107 </v>
    <v>       0.16459979       0.32169403       0.09992486 </v>
    <v>       0.32419273       0.16210239       0.09992432 </v>
    <v>       0.16460632       0.84290875       0.09992486 </v>
    <v>       0.84539834       0.16208980       0.09992562 </v>
    <v>       0.68581840       0.84290246       0.09992583 </v>
    <v>       0.84540503       0.68331126       0.09992560 </v>
    <v>       0.16657032       0.33314398       0.32888839 </v>
    <v>       0.33314264       0.16657115       0.32888925 </v>
    <v>       0.16657031       0.83342579       0.32888839 </v>
    <v>       0.33332907       0.66666436       0.32856117 </v>
    <v>       0.66666251       0.33333097       0.32856116 </v>
    <v>       0.83342451       0.16657173       0.32888648 </v>
    <v>       0.66685109       0.83342527       0.32888543 </v>
    <v>       0.83342452       0.66685244       0.32888648 </v>
   </varray>
  </structure>
  <varray name="forces" >
   <v>       0.00113037       0.00102687       0.00581087 </v>
   <v>      -0.00080785      -0.00044151       0.00580735 </v>
   <v>      -0.00208332      -0.00178332      -0.00284587 </v>
   <v>       0.00215644       0.00033280      -0.00290906 </v>
   <v>      -0.00204202      -0.00155031      -0.00285001 </v>
   <v>       0.00172653       0.00239032      -0.00274336 </v>
   <v>      -0.00261800      -0.00098075      -0.00266503 </v>
   <v>       0.00302529       0.00183685      -0.00273034 </v>
   <v>       0.00119902      -0.00231901      -0.00130283 </v>
   <v>      -0.00131678      -0.00232311      -0.00125676 </v>
   <v>      -0.00264741      -0.00009744      -0.00130269 </v>
   <v>      -0.00004354      -0.00011798       0.00660619 </v>
   <v>      -0.00009127      -0.00011189       0.00660786 </v>
   <v>       0.00252960      -0.00009994      -0.00139416 </v>
   <v>       0.00119682       0.00212088      -0.00143797 </v>
   <v>      -0.00131390       0.00211754      -0.00139420 </v>
  </varray>
  <varray name="stress" >
   <v>      -5.59842203      -0.00935095      -0.00904109 </v>
   <v>      -0.00935090      -5.62782846      -0.01565891 </v>
   <v>      -0.00904112      -0.01565890      -2.28624892 </v>
  </varray>
  <energy>
   <i name="e_fr_energy">   -142.27421277 </i>
   <i name="e_wo_entrp">   -142.27219933 </i>
   <i name="e_0_energy">   -142.27320605 </i>
  </energy>
  <time name="totalsc">   31.81   32.08</time>
 </calculation>
 <calculation>
  <scstep>
   <time name="dav">    6.21    6.25</time>
   <time name="total">    6.50    6.55</time>
   <energy>
    <i name="alphaZ">     62.44053498 </i>
    <i name="ewald">   5339.26948953 </i>
    <i name="hartreedc">  -7388.57789981 </i>
    <i name="XCdc">    206.22218167 </i>
    <i name="pawpsdc">   6277.35268338 </i>
    <i name="pawaedc">  -6285.34973858 </i>
    <i name="eentropy">     -0.00201373 </i>
    <i name="bandstr">   -554.11553637 </i>
    <i name="atom">   2202.35892741 </i>
    <i name="e_fr_energy">   -140.40137151 </i>
    <i name="e_wo_entrp">   -140.39935778 </i>
    <i name="e_0_energy">   -140.40036465 </i>
   </energy>
  </scstep>
  <scstep>
   <time name="dav">   10.21   10.27</time>
   <time name="total">   10.24   10.31</time>
   <energy>
    <i name="alphaZ">     62.44053498 </i>
    <i name="ewald">   5339.26948953 </i>
    <i name="hartreedc">  -7388.57785976 </i>
    <i name="XCdc">    206.22218001 </i>
    <i name="pawpsdc">   6277.34622973 </i>
    <i name="pawaedc">  -6285.34328220 </i>
    <i name="eentropy">     -0.00201378 </i>
    <i name="bandstr">   -554.11557748 </i>
    <i name="atom">   2202.35892741 </i>
    <i name="e_fr_energy">   -140.40137156 </i>
    <i name="e_wo_entrp">   -140.39935778 </i>
    <i name="e_0_energy">   -140.40036467 </i>
   </energy>
  </scstep>
  <structure>
   <crystal>
    <varray name="basis" >
     <v>       4.37169624       2.52400000       0.00000000 </v>
     <v>      -4.37169624       2.52400000       0.00000000 </v>
     <v>       0.00000000       0.00000000      15.00000000 </v>
    </varray>
    <i name="volume">    331.02483916 </i>
    <varray name="rec_basis" >
     <v>       0.11437208       0.19809826       0.00000000 </v>
     <v>      -0.11437208       0.19809826       0.00000000 </v>
     <v>       0.00000000       0.00000000       0.06666667 </v>
    </varray>
   </crystal>
   <varray name="positions" >
    <v>       0.33832989       0.66916512       0.10020010 </v>
    <v>       0.67166676       0.33583237       0.10020008 </v>
    <v>       0.16459916       0.32169377       0.09992524 </v>
    <v>       0.32419265       0.16210227       0.09992471 </v>
    <v>       0.16460601       0.84290888       0.09992525 </v>
    <v>       0.84539867       0.16208986       0.09992600 </v>
    <v>       0.68581813       0.84290256       0.09992621 </v>
    <v>       0.84540556       0.68331139       0.09992598 </v>
    <v>       0.16656894       0.33314119       0.32888817 </v>
    <v>       0.33313986       0.16656975       0.32888903 </v>
    <v>       0.16656893       0.83342721       0.32888817 </v>
    <v>       0.33332909       0.66666437       0.32856166 </v>
    <v>       0.66666252       0.33333098       0.32856166 </v>
    <v>       0.83342595       0.16657034       0.32888627 </v>
    <v>       0.66685392       0.83342669       0.32888522 </v>
    <v>       0.83342595       0.66685526       0.32888627 </v>
   </varray>
  </structure>
  <varray name="forces" >
   <v>       0.00102219       0.00094524       0.00604177 </v>
   <v>      -0.00083124      -0.00041284       0.00604251 </v>
   <v>      -0.00187995      -0.00151432      -0.00294032 </v>
   <v>       0.00204490       0.00040503      -0.00300477 </v>
   <v>      -0.00179760      -0.00142725      -0.00294381 </v>
   <v>       0.00155574       0.00219009      -0.00282620 </v>
   <v>      -0.00237767      -0.00095802      -0.00276037 </v>
   <v>       0.00275458       0.00160353      -0.00282176 </v>
   <v>       0.00058809      -0.00125764      -0.00122421 </v>
   <v>      -0.00070783      -0.00126107      -0.00117698 </v>
   <v>      -0.00141655      -0.00009894      -0.00122417 </v>
   <v>      -0.00004655      -0.00011460       0.00641722 </v>
   <v>      -0.00008714      -0.00010953       0.00641740 </v>
   <v>       0.00129836      -0.00010222      -0.00131708 </v>
   <v>       0.00058731       0.00105871      -0.00136191 </v>
   <v>      -0.00070664       0.00105385      -0.00131733 </v>
  </varray>
  <varray name="stress" >
   <v>      -5.60041970      -0.00768498      -0.00904268 </v>
   <v>      -0.00768500      -5.62463887      -0.01566161 </v>
   <v>      -0.00904269      -0.01566158      -2.28668755 </v>
  </varray>
  <energy>
   <i name="e_fr_energy">   -142.27421298 </i>
   <i name="e_wo_entrp">   -142.27219921 </i>
   <i name="e_0_energy">   -142.27320610 </i>
  </energy>
  <time name="totalsc">   22.06   22.21</time>
 </calculation>
 <calculation>
  <scstep>
   <time name="dav">    5.84    5.88</time>
   <time name="total">    6.13    6.18</time>
   <energy>
    <i name="alphaZ">     62.44053498 </i>
    <i name="ewald">   5339.10352182 </i>
    <i name="hartreedc">  -7388.41201396 </i>
    <i name="XCdc">    206.22216688 </i>
    <i name="pawpsdc">   6277.34103383 </i>
    <i name="pawaedc">  -6285.33808453 </i>
    <i name="eentropy">     -0.00201405 </i>
    <i name="bandstr">   -554.11546714 </i>
    <i name="atom">   2202.35892741 </i>
    <i name="e_fr_energy">   -140.40139475 </i>
    <i name="e_wo_entrp">   -140.39938070 </i>
    <i name="e_0_energy">   -140.40038772 </i>
   </energy>
  </scstep>
  <scstep>
   <time name="dav">    6.87    6.93</time>
   <time name="total">    6.91    6.97</time>
   <energy>
    <i name="alphaZ">     62.44053498 </i>
    <i name="ewald">   5339.10352182 </i>
    <i name="hartreedc">  -7388.40926453 </i>
    <i name="XCdc">    206.22219117 </i>
    <i name="pawpsdc">   6277.34777951 </i>
    <i name="pawaedc">  -6285.34482750 </i>
    <i name="eentropy">     -0.00201357 </i>
    <i name="bandstr">   -554.11824394 </i>
    <i name="atom">   2202.35892741 </i>
    <i name="e_fr_energy">   -140.40139465 </i>
    <i name="e_wo_entrp">   -140.39938108 </i>
    <i name="e_0_energy">   -140.40038786 </i>
   </energy>
  </scstep>
  <structure>
   <crystal>
    <varray name="basis" >
     <v>       4.37169624       2.52400000       0.00000000 </v>
     <v>      -4.37169624       2.52400000       0.00000000 </v>
     <v>       0.00000000       0.00000000      15.00000000 </v>
    </varray>
    <i name="volume">    331.02483916 </i>
[...]
       <r>     2.4481     1.5829    34.3471 </r>
       <r>     2.5514     1.7034    34.5231 </r>
       <r>     2.6547     1.4241    34.6702 </r>
       <r>     2.7580     0.9948    34.7730 </r>
       <r>     2.8613     1.1584    34.8927 </r>
       <r>     2.9647     1.3911    35.0364 </r>
       <r>     3.0680     1.6626    35.2082 </r>
       <r>     3.1713     1.9917    35.4140 </r>
       <r>     3.2746     1.7582    35.5956 </r>
       <r>     3.3780     1.1063    35.7099 </r>
       <r>     3.4813     0.9846    35.8117 </r>
       <r>     3.5846     1.7194    35.9893 </r>
       <r>     3.6879     1.4961    36.1439 </r>
       <r>     3.7912     1.0985    36.2574 </r>
       <r>     3.8946     1.8126    36.4447 </r>
       <r>     3.9979     2.3550    36.6880 </r>
       <r>     4.1012     2.0271    36.8974 </r>
       <r>     4.2045     1.8311    37.0866 </r>
       <r>     4.3078     1.7635    37.2688 </r>
       <r>     4.4112     1.9925    37.4747 </r>
       <r>     4.5145     1.7119    37.6516 </r>
       <r>     4.6178     1.7918    37.8367 </r>
       <r>     4.7211     1.9465    38.0378 </r>
       <r>     4.8244     2.3563    38.2813 </r>
       <r>     4.9278     2.4588    38.5353 </r>
       <r>     5.0311     2.3093    38.7739 </r>
       <r>     5.1344     2.0995    38.9908 </r>
       <r>     5.2377     1.9271    39.1899 </r>
       <r>     5.3410     1.9555    39.3920 </r>
       <r>     5.4444     2.5879    39.6594 </r>
       <r>     5.5477     2.4004    39.9074 </r>
       <r>     5.6510     1.8854    40.1022 </r>
       <r>     5.7543     2.1734    40.3267 </r>
       <r>     5.8577     3.2305    40.6605 </r>
       <r>     5.9610     2.9065    40.9608 </r>
       <r>     6.0643     3.1931    41.2907 </r>
       <r>     6.1676     3.5653    41.6591 </r>
       <r>     6.2709     3.3526    42.0055 </r>
       <r>     6.3743     3.1458    42.3305 </r>
       <r>     6.4776     2.5681    42.5959 </r>
       <r>     6.5809     2.6465    42.8693 </r>
       <r>     6.6842     3.7199    43.2536 </r>
       <r>     6.7875     4.0326    43.6703 </r>
       <r>     6.8909     3.7927    44.0622 </r>
       <r>     6.9942     4.3669    44.5133 </r>
       <r>     7.0975     4.1618    44.9433 </r>
       <r>     7.2008     3.8280    45.3389 </r>
       <r>     7.3041     4.4672    45.8004 </r>
       <r>     7.4075     4.6688    46.2828 </r>
       <r>     7.5108     3.5789    46.6526 </r>
       <r>     7.6141     2.9704    46.9595 </r>
       <r>     7.7174     3.5511    47.3264 </r>
       <r>     7.8207     2.4769    47.5823 </r>
       <r>     7.9241     1.8187    47.7702 </r>
       <r>     8.0274     1.2469    47.8990 </r>
       <r>     8.1307     0.4317    47.9436 </r>
       <r>     8.2340     0.2381    47.9682 </r>
       <r>     8.3374     0.2356    47.9926 </r>
       <r>     8.4407     0.0685    47.9996 </r>
       <r>     8.5440     0.0034    48.0000 </r>
       <r>     8.6473     0.0000    48.0000 </r>
       <r>     8.7506     0.0000    48.0000 </r>
       <r>     8.8540     0.0000    48.0000 </r>
       <r>     8.9573     0.0000    48.0000 </r>
       <r>     9.0606     0.0000    48.0000 </r>
       <r>     9.1639     0.0000    48.0000 </r>
       <r>     9.2672     0.0000    48.0000 </r>
       <r>     9.3706     0.0000    48.0000 </r>
       <r>     9.4739     0.0000    48.0000 </r>
       <r>     9.5772     0.0000    48.0000 </r>
       <r>     9.6805     0.0000    48.0000 </r>
      </set>
      <set comment="spin 2">
       <r>   -21.3157     0.0000     0.0000 </r>
       <r>   -21.2124     0.0000     0.0000 </r>
       <r>   -21.1091     0.0000     0.0000 </r>
       <r>   -21.0058     0.0000     0.0000 </r>
       <r>   -20.9025     0.0000     0.0000 </r>
       <r>   -20.7991     0.0000     0.0000 </r>
       <r>   -20.6958     0.0000     0.0000 </r>
       <r>   -20.5925     0.0000     0.0000 </r>
       <r>   -20.4892     0.0000     0.0000 </r>
       <r>   -20.3859     0.0000     0.0000 </r>
       <r>   -20.2825     0.0000     0.0000 </r>
       <r>   -20.1792     0.0000     0.0000 </r>
       <r>   -20.0759     0.0012     0.0001 </r>
       <r>   -19.9726     0.0405     0.0043 </r>
       <r>   -19.8692     0.2729     0.0325 </r>
       <r>   -19.7659     0.5646     0.0908 </r>
       <r>   -19.6626     0.6290     0.1558 </r>
       <r>   -19.5593     0.6623     0.2242 </r>
       <r>   -19.4560     0.5963     0.2859 </r>
       <r>   -19.3526     0.7271     0.3610 </r>
       <r>   -19.2493     0.5485     0.4176 </r>
       <r>   -19.1460     0.6743     0.4873 </r>
       <r>   -19.0427     0.7567     0.5655 </r>
       <r>   -18.9394     0.4701     0.6141 </r>
       <r>   -18.8360     0.6821     0.6845 </r>
       <r>   -18.7327     0.8150     0.7688 </r>
       <r>   -18.6294     0.5686     0.8275 </r>
       <r>   -18.5261     0.4357     0.8725 </r>
       <r>   -18.4228     0.8644     0.9618 </r>
       <r>   -18.3194     0.7701     1.0414 </r>
       <r>   -18.2161     0.5435     1.0976 </r>
       <r>   -18.1128     0.4331     1.1423 </r>
       <r>   -18.0095     0.8344     1.2285 </r>
       <r>   -17.9062     1.3800     1.3711 </r>
       <r>   -17.8028     1.3777     1.5135 </r>
       <r>   -17.6995     1.4030     1.6584 </r>
       <r>   -17.5962     1.6336     1.8272 </r>
       <r>   -17.4929     2.0584     2.0399 </r>
       <r>   -17.3895     2.5057     2.2988 </r>
       <r>   -17.2862     2.6419     2.5717 </r>
       <r>   -17.1829     1.5927     2.7363 </r>
       <r>   -17.0796     0.7857     2.8175 </r>
       <r>   -16.9763     0.9385     2.9144 </r>
       <r>   -16.8729     0.8682     3.0041 </r>
       <r>   -16.7696     0.7105     3.0776 </r>
       <r>   -16.6663     0.5888     3.1384 </r>
       <r>   -16.5630     0.3494     3.1745 </r>
       <r>   -16.4597     0.5579     3.2321 </r>
       <r>   -16.3563     1.1877     3.3548 </r>
       <r>   -16.2530     0.8111     3.4387 </r>
       <r>   -16.1497     0.6150     3.5022 </r>
       <r>   -16.0464     0.5532     3.5594 </r>
       <r>   -15.9431     0.5373     3.6149 </r>
       <r>   -15.8397     0.4849     3.6650 </r>
       <r>   -15.7364     1.1113     3.7798 </r>
       <r>   -15.6331     1.3812     3.9225 </r>
       <r>   -15.5298     1.5312     4.0807 </r>
       <r>   -15.4264     1.9656     4.2838 </r>
       <r>   -15.3231     2.0477     4.4953 </r>
       <r>   -15.2198     1.6673     4.6676 </r>
       <r>   -15.1165     1.8948     4.8634 </r>
       <r>   -15.0132     2.2702     5.0979 </r>
       <r>   -14.9098     2.0646     5.3113 </r>
       <r>   -14.8065     1.6178     5.4784 </r>
       <r>   -14.7032     1.2204     5.6045 </r>
       <r>   -14.5999     1.2753     5.7363 </r>
       <r>   -14.4966     2.0245     5.9454 </r>
       <r>   -14.3932     2.4136     6.1948 </r>
       <r>   -14.2899     1.9309     6.3943 </r>
       <r>   -14.1866     1.3874     6.5377 </r>
       <r>   -14.0833     1.1432     6.6558 </r>
       <r>   -13.9800     1.0237     6.7616 </r>
       <r>   -13.8766     1.1407     6.8794 </r>
       <r>   -13.7733     0.8933     6.9717 </r>
       <r>   -13.6700     0.4951     7.0229 </r>
       <r>   -13.5667     0.5963     7.0845 </r>
       <r>   -13.4634     0.5696     7.1433 </r>
       <r>   -13.3600     0.7774     7.2236 </r>
       <r>   -13.2567     0.7667     7.3029 </r>
       <r>   -13.1534     0.8052     7.3861 </r>
       <r>   -13.0501     1.0474     7.4943 </r>
       <r>   -12.9467     0.9682     7.5943 </r>
       <r>   -12.8434     1.0732     7.7052 </r>
       <r>   -12.7401     0.7668     7.7844 </r>
       <r>   -12.6368     0.8713     7.8744 </r>
       <r>   -12.5335     0.6851     7.9452 </r>
       <r>   -12.4301     0.5199     7.9990 </r>
       <r>   -12.3268     1.0788     8.1104 </r>
       <r>   -12.2235     0.7888     8.1919 </r>
       <r>   -12.1202     0.6577     8.2599 </r>
       <r>   -12.0169     1.2516     8.3892 </r>
       <r>   -11.9135     1.9476     8.5904 </r>
       <r>   -11.8102     2.0191     8.7990 </r>
       <r>   -11.7069     1.7710     8.9820 </r>
       <r>   -11.6036     1.8798     9.1762 </r>
       <r>   -11.5003     2.2208     9.4057 </r>
       <r>   -11.3969     1.5759     9.5685 </r>
       <r>   -11.2936     1.2227     9.6948 </r>
       <r>   -11.1903     1.2007     9.8189 </r>
       <r>   -11.0870     1.3965     9.9632 </r>
       <r>   -10.9837     1.1754    10.0846 </r>
       <r>   -10.8803     0.8712    10.1746 </r>
       <r>   -10.7770     1.5719    10.3371 </r>
       <r>   -10.6737     2.0097    10.5447 </r>
       <r>   -10.5704     1.5082    10.7005 </r>
       <r>   -10.4670     0.8662    10.7900 </r>
       <r>   -10.3637     1.2716    10.9214 </r>
       <r>   -10.2604     2.2699    11.1559 </r>
       <r>   -10.1571     2.1726    11.3804 </r>
       <r>   -10.0538     1.3409    11.5190 </r>
       <r>    -9.9504     1.2217    11.6452 </r>
       <r>    -9.8471     1.2120    11.7704 </r>
       <r>    -9.7438     1.5005    11.9254 </r>
       <r>    -9.6405     1.0709    12.0361 </r>
       <r>    -9.5372     1.4217    12.1830 </r>
       <r>    -9.4338     1.4101    12.3287 </r>
       <r>    -9.3305     1.3611    12.4693 </r>
       <r>    -9.2272     1.2355    12.5970 </r>
       <r>    -9.1239     0.3926    12.6375 </r>
       <r>    -9.0206     0.2594    12.6643 </r>
       <r>    -8.9172     1.4437    12.8135 </r>
       <r>    -8.8139     2.5205    13.0739 </r>
       <r>    -8.7106     2.1732    13.2984 </r>
       <r>    -8.6073     1.3160    13.4344 </r>
       <r>    -8.5040     0.9904    13.5368 </r>
       <r>    -8.4006     1.1468    13.6552 </r>
       <r>    -8.2973     1.7376    13.8348 </r>
       <r>    -8.1940     3.1473    14.1600 </r>
       <r>    -8.0907     2.8664    14.4561 </r>
       <r>    -7.9873     2.4541    14.7097 </r>
       <r>    -7.8840     1.9321    14.9093 </r>
       <r>    -7.7807     1.7210    15.0871 </r>
       <r>    -7.6774     2.6801    15.3640 </r>
       <r>    -7.5741     3.2609    15.7010 </r>
       <r>    -7.4707     3.0245    16.0134 </r>
       <r>    -7.3674     2.8879    16.3118 </r>
       <r>    -7.2641     3.2921    16.6520 </r>
       <r>    -7.1608     2.9579    16.9576 </r>
       <r>    -7.0575     3.2850    17.2970 </r>
       <r>    -6.9541     3.1261    17.6200 </r>
       <r>    -6.8508     2.2719    17.8547 </r>
       <r>    -6.7475     3.0493    18.1698 </r>
       <r>    -6.6442     3.3981    18.5209 </r>
       <r>    -6.5409     2.8963    18.8201 </r>
       <r>    -6.4375     3.1530    19.1459 </r>
       <r>    -6.3342     2.9843    19.4542 </r>
       <r>    -6.2309     3.2147    19.7864 </r>
       <r>    -6.1276     2.4303    20.0375 </r>
       <r>    -6.0242     2.0398    20.2482 </r>
       <r>    -5.9209     2.5925    20.5161 </r>
       <r>    -5.8176     3.3687    20.8642 </r>
       <r>    -5.7143     2.8005    21.1535 </r>
       <r>    -5.6110     2.2778    21.3889 </r>
       <r>    -5.5076     2.8145    21.6796 </r>
       <r>    -5.4043     3.4385    22.0349 </r>
       <r>    -5.3010     3.6565    22.4127 </r>
       <r>    -5.1977     2.5282    22.6739 </r>
       <r>    -5.0944     1.6292    22.8423 </r>
       <r>    -4.9910     2.0486    23.0539 </r>
       <r>    -4.8877     2.3532    23.2971 </r>
       <r>    -4.7844     2.1345    23.5176 </r>
       <r>    -4.6811     2.1572    23.7405 </r>
       <r>    -4.5778     2.2350    23.9714 </r>
       <r>    -4.4744     2.0721    24.1855 </r>
       <r>    -4.3711     2.4029    24.4337 </r>
       <r>    -4.2678     2.9638    24.7400 </r>
       <r>    -4.1645     4.0685    25.1603 </r>
       <r>    -4.0612     5.1976    25.6973 </r>
       <r>    -3.9578     4.1536    26.1265 </r>
       <r>    -3.8545     2.8288    26.4188 </r>
       <r>    -3.7512     1.9266    26.6178 </r>
       <r>    -3.6479     1.9681    26.8212 </r>
       <r>    -3.5445     2.1389    27.0422 </r>
       <r>    -3.4412     2.6899    27.3201 </r>
       <r>    -3.3379     2.6301    27.5918 </r>
       <r>    -3.2346     1.7687    27.7746 </r>
       <r>    -3.1313     1.6967    27.9499 </r>
       <r>    -3.0279     2.4147    28.1994 </r>
       <r>    -2.9246     3.3292    28.5433 </r>
       <r>    -2.8213     2.4410    28.7956 </r>
       <r>    -2.7180     1.3055    28.9304 </r>
       <r>    -2.6147     1.6983    29.1059 </r>
       <r>    -2.5113     2.7614    29.3912 </r>
       <r>    -2.4080     2.5472    29.6544 </r>
       <r>    -2.3047     2.4221    29.9046 </r>
       <r>    -2.2014     3.0285    30.2176 </r>
       <r>    -2.0981     2.0415    30.4285 </r>
       <r>    -1.9947     0.5781    30.4882 </r>
       <r>    -1.8914     0.7539    30.5661 </r>
       <r>    -1.7881     0.9420    30.6634 </r>
       <r>    -1.6848     0.6772    30.7334 </r>
       <r>    -1.5815     0.8694    30.8232 </r>
       <r>    -1.4781     0.7741    30.9032 </r>
       <r>    -1.3748     0.5066    30.9556 </r>
       <r>    -1.2715     0.2471    30.9811 </r>
       <r>    -1.1682     0.0474    30.9860 </r>
       <r>    -1.0648     0.0362    30.9898 </r>
       <r>    -0.9615     0.1688    31.0072 </r>
       <r>    -0.8582     0.3285    31.0411 </r>
       <r>    -0.7549     0.4162    31.0841 </r>
       <r>    -0.6516     0.5853    31.1446 </r>
       <r>    -0.5482     1.1477    31.2632 </r>
       <r>    -0.4449     1.2210    31.3893 </r>
       <r>    -0.3416     1.1841    31.5117 </r>
       <r>    -0.2383     1.2647    31.6424 </r>
       <r>    -0.1350     1.3772    31.7846 </r>
       <r>    -0.0316     1.2601    31.9148 </r>
       <r>     0.0717     0.4504    31.9614 </r>
       <r>     0.1750     0.6704    32.0306 </r>
       <r>     0.2783     1.2815    32.1630 </r>
       <r>     0.3816     1.0025    32.2666 </r>
       <r>     0.4850     0.8128    32.3506 </r>
       <r>     0.5883     1.0168    32.4557 </r>
       <r>     0.6916     1.3610    32.5963 </r>
       <r>     0.7949     1.2014    32.7204 </r>
       <r>     0.8982     1.3744    32.8624 </r>
       <r>     1.0016     1.0442    32.9703 </r>
       <r>     1.1049     0.5818    33.0304 </r>
       <r>     1.2082     0.7295    33.1058 </r>
       <r>     1.3115     0.6193    33.1698 </r>
       <r>     1.4149     0.5318    33.2247 </r>
       <r>     1.5182     0.5371    33.2802 </r>
       <r>     1.6215     1.3058    33.4151 </r>
       <r>     1.7248     1.3729    33.5570 </r>
       <r>     1.8281     0.4008    33.5984 </r>
       <r>     1.9315     0.4787    33.6478 </r>
       <r>     2.0348     0.6804    33.7181 </r>
       <r>     2.1381     0.8417    33.8051 </r>
       <r>     2.2414     1.7368    33.9846 </r>
       <r>     2.3447     1.9256    34.1835 </r>
       <r>     2.4481     1.5829    34.3471 </r>
       <r>     2.5514     1.7034    34.5231 </r>
       <r>     2.6547     1.4241    34.6702 </r>
       <r>     2.7580     0.9948    34.7730 </r>
       <r>     2.8613     1.1584    34.8927 </r>
       <r>     2.9647     1.3911    35.0364 </r>
       <r>     3.0680     1.6626    35.2082 </r>
       <r>     3.1713     1.9917    35.4140 </r>
       <r>     3.2746     1.7582    35.5956 </r>
       <r>     3.3780     1.1063    35.7099 </r>
       <r>     3.4813     0.9846    35.8116 </r>
       <r>     3.5846     1.7194    35.9893 </r>
       <r>     3.6879     1.4961    36.1439 </r>
       <r>     3.7912     1.0985    36.2574 </r>
       <r>     3.8946     1.8126    36.4447 </r>
       <r>     3.9979     2.3550    36.6880 </r>
       <r>     4.1012     2.0271    36.8974 </r>
       <r>     4.2045     1.8311    37.0866 </r>
       <r>     4.3078     1.7635    37.2688 </r>
       <r>     4.4112     1.9925    37.4747 </r>
       <r>     4.5145     1.7119    37.6516 </r>
       <r>     4.6178     1.7918    37.8367 </r>
       <r>     4.7211     1.9465    38.0378 </r>
       <r>     4.8244     2.3563    38.2813 </r>
       <r>     4.9278     2.4588    38.5353 </r>
       <r>     5.0311     2.3093    38.7739 </r>
       <r>     5.1344     2.0995    38.9908 </r>
       <r>     5.2377     1.9271    39.1899 </r>
       <r>     5.3410     1.9555    39.3920 </r>
       <r>     5.4444     2.5879    39.6594 </r>
       <r>     5.5477     2.4004    39.9074 </r>
       <r>     5.6510     1.8854    40.1022 </r>
       <r>     5.7543     2.1734    40.3267 </r>
       <r>     5.8577     3.2305    40.6605 </r>
       <r>     5.9610     2.9065    40.9608 </r>
       <r>     6.0643     3.1931    41.2907 </r>
       <r>     6.1676     3.5653    41.6591 </r>
       <r>     6.2709     3.3526    42.0055 </r>
       <r>     6.3743     3.1458    42.3305 </r>
       <r>     6.4776     2.5681    42.5959 </r>
       <r>     6.5809     2.6465    42.8693 </r>
       <r>     6.6842     3.7198    43.2536 </r>
       <r>     6.7875     4.0327    43.6703 </r>
       <r>     6.8909     3.7927    44.0621 </r>
       <r>     6.9942     4.3669    44.5133 </r>
       <r>     7.0975     4.1618    44.9433 </r>
       <r>     7.2008     3.8279    45.3388 </r>
       <r>     7.3041     4.4672    45.8004 </r>
       <r>     7.4075     4.6688    46.2828 </r>
       <r>     7.5108     3.5789    46.6526 </r>
       <r>     7.6141     2.9704    46.9595 </r>
       <r>     7.7174     3.5511    47.3264 </r>
       <r>     7.8207     2.4769    47.5823 </r>
       <r>     7.9241     1.8187    47.7702 </r>
       <r>     8.0274     1.2469    47.8990 </r>
       <r>     8.1307     0.4317    47.9436 </r>
       <r>     8.2340     0.2381    47.9682 </r>
       <r>     8.3374     0.2356    47.9926 </r>
       <r>     8.4407     0.0685    47.9996 </r>
       <r>     8.5440     0.0034    48.0000 </r>
       <r>     8.6473     0.0000    48.0000 </r>
       <r>     8.7506     0.0000    48.0000 </r>
       <r>     8.8540     0.0000    48.0000 </r>
       <r>     8.9573     0.0000    48.0000 </r>
       <r>     9.0606     0.0000    48.0000 </r>
       <r>     9.1639     0.0000    48.0000 </r>
       <r>     9.2672     0.0000    48.0000 </r>
       <r>     9.3706     0.0000    48.0000 </r>
       <r>     9.4739     0.0000    48.0000 </r>
       <r>     9.5772     0.0000    48.0000 </r>
       <r>     9.6805     0.0000    48.0000 </r>
      </set>
     </set>
    </array>
   </total>
  </dos>
 </calculation>
 <structure name="finalpos" >
  <crystal>
   <varray name="basis" >
    <v>       4.37169624       2.52400000       0.00000000 </v>
    <v>      -4.37169624       2.52400000       0.00000000 </v>
    <v>       0.00000000       0.00000000      15.00000000 </v>
   </varray>
   <i name="volume">    331.02483916 </i>
   <varray name="rec_basis" >
    <v>       0.11437208       0.19809826       0.00000000 </v>
    <v>      -0.11437208       0.19809826       0.00000000 </v>
    <v>       0.00000000       0.00000000       0.06666667 </v>
   </varray>
  </crystal>
  <varray name="positions" >
   <v>       0.33833461       0.66916729       0.10023315 </v>
   <v>       0.67166765       0.33583365       0.10023314 </v>
   <v>       0.16460015       0.32169399       0.09990850 </v>
   <v>       0.32419741       0.16209886       0.09990755 </v>
   <v>       0.16460125       0.84290670       0.09990849 </v>
   <v>       0.84540943       0.16209625       0.09990996 </v>
   <v>       0.68581628       0.84290717       0.09991054 </v>
   <v>       0.84541073       0.68331248       0.09990996 </v>
   <v>       0.16656405       0.33313538       0.32888517 </v>
   <v>       0.33313274       0.16656617       0.32888628 </v>
   <v>       0.16656405       0.83342826       0.32888517 </v>
   <v>       0.33332649       0.66666304       0.32858756 </v>
   <v>       0.66665987       0.33332973       0.32858756 </v>
   <v>       0.83342570       0.16656675       0.32888276 </v>
   <v>       0.66685590       0.83342775       0.32888147 </v>
   <v>       0.83342569       0.66685853       0.32888276 </v>
  </varray>
 </structure>
</modeling>
