Lattice                                 
           1
     4.371696    2.524000    0.000000
    -4.371696    2.524000    0.000000
     0.000000    0.000000   15.000000
   B    C 
     2    14
Direct configuration=     1
   0.33833034  0.66916432  0.10000000
   0.67165522  0.33584146  0.10000000
   0.16373946  0.31999962  0.10000000
   0.32250218  0.16126397  0.10000000
   0.16376430  0.84376384  0.10000000
   0.84623863  0.16123684  0.10000000
   0.68749850  0.84373000  0.10000000
   0.84626736  0.68499594  0.10000000
   0.16666600  0.33333300  0.32880000
   0.33333300  0.16666600  0.32880000
   0.16666600  0.83333300  0.32880000
   0.33333300  0.66666600  0.32880000
   0.66666600  0.33333300  0.32880000
   0.83333300  0.16666600  0.32880000
   0.66666600  0.83333300  0.32880000
   0.83333300  0.66666600  0.32880000
Direct configuration=     2
   0.33832812  0.66916287  0.10014682
   0.67167580  0.33581267  0.10014681
   0.16685284  0.32623584  0.09994570
   0.32873179  0.16437495  0.09994535
   0.16688320  0.84063497  0.09994571
   0.84311189  0.16435296  0.09994606
   0.68128673  0.84064348  0.09994624
   0.84313649  0.67878356  0.09994605
   0.16636029  0.33271801  0.32887217
   0.33271738  0.16635925  0.32887277
   0.16636033  0.83364022  0.32887216
   0.33332702  0.66666408  0.32860124
   0.66666154  0.33332977  0.32860124
   0.83363980  0.16636120  0.32887080
   0.66727902  0.83363850  0.32887006
   0.83363977  0.66727966  0.32887082
Direct configuration=     3
   0.33832973  0.66916392  0.10004018
   0.67166085  0.33583358  0.10004018
   0.16459156  0.32170641  0.09998514
   0.32420717  0.16211541  0.09998504
   0.16461791  0.84290750  0.09998514
   0.84538287  0.16208969  0.09998524
   0.68579840  0.84288525  0.09998529
   0.84541047  0.68329567  0.09998523
   0.16658233  0.33316468  0.32881975
   0.33316451  0.16658205  0.32881992
   0.16658234  0.83341708  0.32881975
   0.33333136  0.66666548  0.32874560
   0.66666478  0.33333212  0.32874560
   0.83341697  0.16658258  0.32881938
   0.66683378  0.83341661  0.32881917
   0.83341696  0.66683395  0.32881938
Direct configuration=     4
   0.33833482  0.66916457  0.10014020
   0.67166456  0.33583038  0.10014019
   0.16458497  0.32169183  0.09994800
   0.32419493  0.16210343  0.09994767
   0.16460304  0.84291102  0.09994801
   0.84540108  0.16209097  0.09994845
   0.68580783  0.84289996  0.09994858
   0.84541726  0.68330997  0.09994845
   0.16654550  0.33309287  0.32886641
   0.33309206  0.16654572  0.32886699
   0.16654550  0.83345232  0.32886641
   0.33333005  0.66666471  0.32861804
   0.66666336  0.33333150  0.32861804
   0.83345160  0.16654636  0.32886510
   0.66690386  0.83345176  0.32886437
   0.83345161  0.66690464  0.32886510
Direct configuration=     5
   0.33833655  0.66916479  0.10017432
   0.67166583  0.33582929  0.10017430
   0.16458272  0.32168685  0.09993533
   0.32419076  0.16209934  0.09993492
   0.16459797  0.84291222  0.09993534
   0.84540729  0.16209141  0.09993590
   0.68581104  0.84290497  0.09993606
   0.84541957  0.68331485  0.09993590
   0.16653294  0.33306837  0.32888232
   0.33306734  0.16653333  0.32888305
   0.16653293  0.83346434  0.32888232
   0.33332960  0.66666445  0.32857453
   0.66666287  0.33333129  0.32857453
   0.83346341  0.16653400  0.32888070
   0.66692776  0.83346375  0.32887979
   0.83346343  0.66692876  0.32888070
Direct configuration=     6
   0.33832000  0.66916563  0.10023839
   0.67166815  0.33583694  0.10023837
   0.16462358  0.32170405  0.09991026
   0.32419547  0.16210663  0.09990954
   0.16461797  0.84290391  0.09991026
   0.84538588  0.16208754  0.09991129
   0.68582864  0.84289897  0.09991158
   0.84538476  0.68330626  0.09991125
   0.16662240  0.33324935  0.32889685
   0.33324757  0.16662386  0.32889790
   0.16662241  0.83337207  0.32889685
   0.33332833  0.66666424  0.32854254
   0.66666199  0.33333052  0.32854254
   0.83337031  0.16662430  0.32889455
   0.66674425  0.83337164  0.32889329
   0.83337029  0.66674610  0.32889454
Direct configuration=     7
   0.33832964  0.66916514  0.10020109
   0.67166679  0.33583248  0.10020107
   0.16459979  0.32169403  0.09992486
   0.32419273  0.16210239  0.09992432
   0.16460632  0.84290875  0.09992486
   0.84539834  0.16208980  0.09992562
   0.68581840  0.84290246  0.09992583
   0.84540503  0.68331126  0.09992560
   0.16657032  0.33314398  0.32888839
   0.33314264  0.16657115  0.32888925
   0.16657031  0.83342579  0.32888839
   0.33332907  0.66666436  0.32856117
   0.66666251  0.33333097  0.32856116
   0.83342451  0.16657173  0.32888648
   0.66685109  0.83342527  0.32888543
   0.83342452  0.66685244  0.32888648
Direct configuration=     8
   0.33832989  0.66916512  0.10020010
   0.67166676  0.33583237  0.10020008
   0.16459916  0.32169377  0.09992524
   0.32419265  0.16210227  0.09992471
   0.16460601  0.84290888  0.09992525
   0.84539867  0.16208986  0.09992600
   0.68581813  0.84290256  0.09992621
   0.84540556  0.68331139  0.09992598
   0.16656894  0.33314119  0.32888817
   0.33313986  0.16656975  0.32888903
   0.16656893  0.83342721  0.32888817
   0.33332909  0.66666437  0.32856166
   0.66666252  0.33333098  0.32856166
   0.83342595  0.16657034  0.32888627
   0.66685392  0.83342669  0.32888522
   0.83342595  0.66685526  0.32888627
Direct configuration=     9
   0.33834056  0.66916791  0.10022009
   0.67166006  0.33583340  0.10022007
   0.16458197  0.32169165  0.09991593
   0.32420516  0.16209681  0.09991521
   0.16458844  0.84290532  0.09991593
   0.84542094  0.16209952  0.09991701
   0.68580142  0.84290533  0.09991741
   0.84542773  0.68331091  0.09991700
   0.16656798  0.33314125  0.32888599
   0.33313931  0.16656937  0.32888699
   0.16656799  0.83342645  0.32888599
   0.33332791  0.66666368  0.32857607
   0.66666123  0.33333048  0.32857607
   0.83342458  0.16656995  0.32888381
   0.66685216  0.83342594  0.32888262
   0.83342457  0.66685404  0.32888380
Direct configuration=    10
   0.33833986  0.66916773  0.10021878
   0.67166049  0.33583334  0.10021877
   0.16458309  0.32169178  0.09991654
   0.32420434  0.16209717  0.09991583
   0.16458958  0.84290555  0.09991654
   0.84541949  0.16209889  0.09991760
   0.68580251  0.84290515  0.09991798
   0.84542628  0.68331094  0.09991759
   0.16656804  0.33314125  0.32888613
   0.33313935  0.16656940  0.32888713
   0.16656805  0.83342650  0.32888614
   0.33332799  0.66666372  0.32857513
   0.66666132  0.33333051  0.32857513
   0.83342467  0.16656997  0.32888397
   0.66685227  0.83342599  0.32888279
   0.83342466  0.66685412  0.32888397
Direct configuration=    11
   0.33833679  0.66916780  0.10022843
   0.67166473  0.33583369  0.10022841
   0.16459317  0.32169260  0.09991167
   0.32419952  0.16209756  0.09991083
   0.16459648  0.84290660  0.09991166
   0.84541380  0.16209789  0.09991293
   0.68580972  0.84290597  0.09991341
   0.84541747  0.68331140  0.09991293
   0.16656570  0.33313769  0.32888513
   0.33313542  0.16656744  0.32888620
   0.16656571  0.83342771  0.32888513
   0.33332723  0.66666336  0.32858305
   0.66666055  0.33333013  0.32858305
   0.83342551  0.16656803  0.32888281
   0.66685470  0.83342720  0.32888156
   0.83342550  0.66685694  0.32888281
Direct configuration=    12
   0.33833479  0.66916785  0.10023469
   0.67166748  0.33583393  0.10023468
   0.16459972  0.32169314  0.09990850
   0.32419639  0.16209781  0.09990758
   0.16460097  0.84290727  0.09990850
   0.84541010  0.16209725  0.09990990
   0.68581440  0.84290650  0.09991045
   0.84541175  0.68331170  0.09990990
   0.16656418  0.33313538  0.32888447
   0.33313287  0.16656618  0.32888559
   0.16656419  0.83342849  0.32888447
   0.33332674  0.66666312  0.32858819
   0.66666006  0.33332988  0.32858819
   0.83342606  0.16656676  0.32888206
   0.66685627  0.83342798  0.32888077
   0.83342605  0.66685876  0.32888206
Direct configuration=    13
   0.33833486  0.66916785  0.10023448
   0.67166738  0.33583392  0.10023446
   0.16459950  0.32169312  0.09990861
   0.32419649  0.16209780  0.09990769
   0.16460081  0.84290725  0.09990860
   0.84541023  0.16209727  0.09991001
   0.68581424  0.84290648  0.09991055
   0.84541195  0.68331169  0.09991000
   0.16656423  0.33313546  0.32888450
   0.33313295  0.16656622  0.32888561
   0.16656424  0.83342847  0.32888449
   0.33332675  0.66666312  0.32858802
   0.66666007  0.33332989  0.32858802
   0.83342604  0.16656680  0.32888209
   0.66685622  0.83342796  0.32888079
   0.83342603  0.66685870  0.32888209
Direct configuration=    14
   0.33833515  0.66916784  0.10023356
   0.67166698  0.33583389  0.10023355
   0.16459854  0.32169304  0.09990907
   0.32419695  0.16209776  0.09990816
   0.16460016  0.84290715  0.09990906
   0.84541077  0.16209736  0.09991045
   0.68581356  0.84290641  0.09991098
   0.84541278  0.68331165  0.09991045
   0.16656445  0.33313579  0.32888459
   0.33313332  0.16656640  0.32888570
   0.16656446  0.83342835  0.32888459
   0.33332683  0.66666316  0.32858727
   0.66666015  0.33332992  0.32858727
   0.83342596  0.16656699  0.32888220
   0.66685599  0.83342784  0.32888091
   0.83342595  0.66685844  0.32888220
Direct configuration=    15
   0.33833491  0.66916785  0.10023430
   0.67166731  0.33583391  0.10023429
   0.16459932  0.32169310  0.09990870
   0.32419658  0.16209779  0.09990778
   0.16460069  0.84290723  0.09990869
   0.84541033  0.16209729  0.09991009
   0.68581411  0.84290647  0.09991063
   0.84541210  0.68331168  0.09991009
   0.16656427  0.33313552  0.32888451
   0.33313302  0.16656625  0.32888563
   0.16656428  0.83342844  0.32888451
   0.33332677  0.66666313  0.32858787
   0.66666009  0.33332989  0.32858787
   0.83342603  0.16656684  0.32888211
   0.66685617  0.83342794  0.32888082
   0.83342602  0.66685865  0.32888211
Direct configuration=    16
   0.33833461  0.66916729  0.10023315
   0.67166765  0.33583365  0.10023314
   0.16460015  0.32169399  0.09990850
   0.32419741  0.16209886  0.09990755
   0.16460125  0.84290670  0.09990849
   0.84540943  0.16209625  0.09990996
   0.68581628  0.84290717  0.09991054
   0.84541073  0.68331248  0.09990996
   0.16656405  0.33313538  0.32888517
   0.33313274  0.16656617  0.32888628
   0.16656405  0.83342826  0.32888517
   0.33332649  0.66666304  0.32858756
   0.66665987  0.33332973  0.32858756
   0.83342570  0.16656675  0.32888276
   0.66685590  0.83342775  0.32888147
   0.83342569  0.66685853  0.32888276
