Lattice                                 
           1
     4.309342    2.488000    0.000000
    -4.309342    2.488000    0.000000
     0.000000    0.000000   15.000000
   B    C 
     8     8
Direct configuration=     1
   0.66888689  0.00000000  0.10000000
   0.33111211  0.00000000  0.10000000
   0.00000000  0.33111211  0.10000000
   0.00000000  0.66888689  0.10000000
   0.33111211  0.33111211  0.10000000
   0.66888689  0.66888689  0.10000000
   0.66666600  0.33333300  0.09922189
   0.33333300  0.66666600  0.10077811
   0.27777711  0.22222189  0.46960000
   0.44444411  0.05555489  0.46960000
   0.27777711  0.72222189  0.46960000
   0.44444411  0.55555489  0.46960000
   0.77777711  0.22222189  0.46960000
   0.94444411  0.05555489  0.46960000
   0.77777711  0.72222189  0.46960000
   0.94444411  0.55555489  0.46960000
Direct configuration=     2
   0.67065941 -0.00000010  0.10002620
   0.32933971 -0.00000012  0.10002626
   0.00000010  0.32933959  0.10002620
   0.00000012  0.67065929  0.10002626
   0.32933938  0.32933936  0.10002629
   0.67065964  0.67065962  0.10002629
   0.66666614  0.33333286  0.09924345
   0.33333259  0.66666641  0.10081490
   0.27777226  0.22221745  0.46957333
   0.44444185  0.05555715  0.46957271
   0.27777719  0.72222181  0.46957222
   0.44444491  0.55555409  0.46957293
   0.77778053  0.22221847  0.46957315
   0.94444465  0.05555435  0.46957379
   0.77778155  0.72222674  0.46957333
   0.94444185  0.55555715  0.46957271
Direct configuration=     3
   0.66979222 -0.00000005  0.10001338
   0.33020683 -0.00000006  0.10001341
   0.00000005  0.33020678  0.10001338
   0.00000006  0.66979217  0.10001341
   0.33020667  0.33020666  0.10001343
   0.66979234  0.66979233  0.10001343
   0.66666607  0.33333293  0.09923290
   0.33333279  0.66666621  0.10079690
   0.27777463  0.22221962  0.46958638
   0.44444296  0.05555604  0.46958606
   0.27777715  0.72222185  0.46958581
   0.44444452  0.55555448  0.46958618
   0.77777886  0.22222014  0.46958628
   0.94444439  0.05555461  0.46958661
   0.77777938  0.72222437  0.46958638
   0.94444296  0.55555604  0.46958606
Direct configuration=     4
   0.66979752 -0.00000005  0.10001346
   0.33020154 -0.00000006  0.10001349
   0.00000005  0.33020148  0.10001346
   0.00000006  0.66979746  0.10001349
   0.33020137  0.33020136  0.10001350
   0.66979764  0.66979763  0.10001350
   0.66666607  0.33333293  0.09923296
   0.33333279  0.66666621  0.10079701
   0.27777462  0.22221961  0.46958630
   0.44444295  0.05555605  0.46958598
   0.27777715  0.72222185  0.46958573
   0.44444452  0.55555448  0.46958609
   0.77777887  0.22222013  0.46958620
   0.94444439  0.05555461  0.46958653
   0.77777939  0.72222438  0.46958630
   0.94444295  0.55555605  0.46958598
Direct configuration=     5
   0.66979536 -0.00000005  0.10001343
   0.33020370 -0.00000006  0.10001346
   0.00000005  0.33020364  0.10001343
   0.00000006  0.66979530  0.10001346
   0.33020353  0.33020352  0.10001347
   0.66979548  0.66979547  0.10001347
   0.66666607  0.33333293  0.09923294
   0.33333279  0.66666621  0.10079697
   0.27777463  0.22221961  0.46958633
   0.44444295  0.05555605  0.46958601
   0.27777715  0.72222185  0.46958576
   0.44444452  0.55555448  0.46958613
   0.77777887  0.22222013  0.46958624
   0.94444439  0.05555461  0.46958657
   0.77777939  0.72222437  0.46958633
   0.94444295  0.55555605  0.46958601
Direct configuration=     6
   0.66979379 -0.00000005  0.10001341
   0.33020527 -0.00000006  0.10001343
   0.00000005  0.33020521  0.10001341
   0.00000006  0.66979373  0.10001343
   0.33020510  0.33020509  0.10001345
   0.66979391  0.66979390  0.10001345
   0.66666607  0.33333293  0.09923292
   0.33333279  0.66666621  0.10079693
   0.27777463  0.22221962  0.46958635
   0.44444295  0.05555605  0.46958604
   0.27777715  0.72222185  0.46958578
   0.44444452  0.55555448  0.46958615
   0.77777886  0.22222014  0.46958626
   0.94444439  0.05555461  0.46958659
   0.77777938  0.72222437  0.46958635
   0.94444295  0.55555605  0.46958604
Direct configuration=     7
   0.66979301 -0.00000005  0.10001339
   0.33020605 -0.00000006  0.10001342
   0.00000005  0.33020599  0.10001339
   0.00000006  0.66979295  0.10001342
   0.33020588  0.33020587  0.10001344
   0.66979313  0.66979312  0.10001344
   0.66666607  0.33333293  0.09923291
   0.33333279  0.66666621  0.10079692
   0.27777463  0.22221962  0.46958637
   0.44444296  0.05555604  0.46958605
   0.27777715  0.72222185  0.46958580
   0.44444452  0.55555448  0.46958616
   0.77777886  0.22222014  0.46958627
   0.94444439  0.05555461  0.46958660
   0.77777938  0.72222437  0.46958637
   0.94444296  0.55555604  0.46958605
Direct configuration=     8
   0.66979308 -0.00000007  0.10003728
   0.33020609 -0.00000002  0.10003736
   0.00000007  0.33020592  0.10003728
   0.00000002  0.66979291  0.10003736
   0.33020597  0.33020595  0.10003740
   0.66979305  0.66979303  0.10003740
   0.66666605  0.33333295  0.09925541
   0.33333278  0.66666622  0.10082665
   0.27777784  0.22222331  0.46956211
   0.44444499  0.05555395  0.46956136
   0.27777670  0.72222230  0.46956078
   0.44444426  0.55555474  0.46956162
   0.77777588  0.22222312  0.46956189
   0.94444436  0.05555464  0.46956265
   0.77777569  0.72222116  0.46956211
   0.94444505  0.55555401  0.46956136
Direct configuration=     9
   0.66979328 -0.00000013  0.10010894
   0.33020622  0.00000009  0.10010916
   0.00000013  0.33020572  0.10010894
  -0.00000009  0.66979278  0.10010916
   0.33020623  0.33020617  0.10010927
   0.66979283  0.66979277  0.10010927
   0.66666600  0.33333300  0.09932293
   0.33333273  0.66666627  0.10091587
   0.27778747  0.22223440  0.46948934
   0.44445111  0.05554767  0.46948727
   0.27777533  0.72222367  0.46948572
   0.44444348  0.55555552  0.46948800
   0.77776693  0.22223207  0.46948875
   0.94444430  0.05555470  0.46949078
   0.77776460  0.72221153  0.46948934
   0.94445133  0.55554789  0.46948727
Direct configuration=    10
   0.66979369 -0.00000024  0.10025226
   0.33020648  0.00000031  0.10025276
   0.00000024  0.33020531  0.10025226
  -0.00000031  0.66979252  0.10025276
   0.33020674  0.33020660  0.10025302
   0.66979240  0.66979226  0.10025302
   0.66666590  0.33333310  0.09945795
   0.33333264  0.66666636  0.10109429
   0.27780672  0.22225657  0.46934381
   0.44446335  0.05553511  0.46933910
   0.27777259  0.72222641  0.46933560
   0.44444193  0.55555707  0.46934075
   0.77774903  0.22224997  0.46934246
   0.94444416  0.05555484  0.46934706
   0.77774243  0.72219228  0.46934381
   0.94446389  0.55553565  0.46933910
Direct configuration=    11
   0.66979450 -0.00000047  0.10053890
   0.33020700  0.00000075  0.10053996
   0.00000047  0.33020450  0.10053890
  -0.00000075  0.66979200  0.10053996
   0.33020777  0.33020748  0.10054051
   0.66979152  0.66979123  0.10054051
   0.66666569  0.33333331  0.09972800
   0.33333246  0.66666654  0.10145114
   0.27784524  0.22230090  0.46905273
   0.44448782  0.05550998  0.46904277
   0.27776712  0.72223188  0.46903537
   0.44443882  0.55556018  0.46904625
   0.77771324  0.22228576  0.46904988
   0.94444389  0.05555511  0.46905960
   0.77769810  0.72215376  0.46905273
   0.94448902  0.55551118  0.46904277
Direct configuration=    12
   0.66979613 -0.00000093  0.10111217
   0.33020803  0.00000164  0.10111437
   0.00000093  0.33020287  0.10111217
  -0.00000164  0.66979097  0.10111437
   0.33020984  0.33020924  0.10111551
   0.66978976  0.66978916  0.10111551
   0.66666527  0.33333373  0.10026809
   0.33333209  0.66666691  0.10216484
   0.27792226  0.22238957  0.46847059
   0.44453675  0.05545973  0.46845010
   0.27775617  0.72224283  0.46843491
   0.44443260  0.55556640  0.46845726
   0.77764165  0.22235735  0.46846472
   0.94444335  0.05555565  0.46848469
   0.77760943  0.72207674  0.46847059
   0.94453927  0.55546225  0.46845010
Direct configuration=    13
   0.66979939 -0.00000185  0.10225873
   0.33021009  0.00000342  0.10226319
   0.00000185  0.33019961  0.10225873
  -0.00000342  0.66978891  0.10226319
   0.33021396  0.33021274  0.10226549
   0.66978626  0.66978504  0.10226549
   0.66666444  0.33333456  0.10134828
   0.33333136  0.66666764  0.10359224
   0.27807631  0.22256692  0.46730630
   0.44463463  0.05535923  0.46726477
   0.27773428  0.72226472  0.46723398
   0.44442017  0.55557883  0.46727927
   0.77749847  0.22250053  0.46729441
   0.94444226  0.05555674  0.46733488
   0.77743208  0.72192269  0.46730630
   0.94463977  0.55536437  0.46726477
Direct configuration=    14
   0.66980591 -0.00000368  0.10455183
   0.33021422  0.00000698  0.10456083
   0.00000368  0.33019309  0.10455183
  -0.00000698  0.66978478  0.10456083
   0.33022221  0.33021976  0.10456546
   0.66977924  0.66977679  0.10456546
   0.66666277  0.33333623  0.10350867
   0.33332990  0.66666910  0.10644704
   0.27838441  0.22292161  0.46497771
   0.44483038  0.05515824  0.46489409
   0.27769049  0.72230851  0.46483212
   0.44439530  0.55560370  0.46492329
   0.77721210  0.22278690  0.46495379
   0.94444010  0.05555890  0.46503524
   0.77707739  0.72161459  0.46497771
   0.94484076  0.55516862  0.46489409
Direct configuration=    15
   0.66981894 -0.00000735  0.10913804
   0.33022248  0.00001409  0.10915610
   0.00000735  0.33018006  0.10913804
  -0.00001409  0.66977652  0.10915610
   0.33023871  0.33023380  0.10916541
   0.66976520  0.66976029  0.10916541
   0.66665944  0.33333956  0.10782943
   0.33332698  0.66667202  0.11215663
   0.27900060  0.22363100  0.46032055
   0.44522189  0.05475624  0.46015274
   0.27760291  0.72239609  0.46002840
   0.44434557  0.55565343  0.46021132
   0.77663938  0.22335962  0.46027255
   0.94443576  0.05556324  0.46043597
   0.77636800  0.72099840  0.46032055
   0.94524276  0.55477711  0.46015274
Direct configuration=    16
   0.66981894 -0.00000736  0.10913916
   0.33022248  0.00001409  0.10915723
   0.00000736  0.33018006  0.10913916
  -0.00001409  0.66977652  0.10915723
   0.33023871  0.33023380  0.10916653
   0.66976520  0.66976029  0.10916653
   0.66665944  0.33333956  0.10783048
   0.33332698  0.66667202  0.11215802
   0.27900064  0.22363103  0.46031941
   0.44522190  0.05475623  0.46015159
   0.27760291  0.72239609  0.46002723
   0.44434555  0.55565345  0.46021018
   0.77663936  0.22335964  0.46027141
   0.94443575  0.05556325  0.46043485
   0.77636797  0.72099836  0.46031941
   0.94524277  0.55477710  0.46015159
Direct configuration=    17
   0.66981894 -0.00000736  0.10914251
   0.33022249  0.00001409  0.10916059
   0.00000736  0.33018006  0.10914251
  -0.00001409  0.66977651  0.10916059
   0.33023872  0.33023381  0.10916989
   0.66976519  0.66976028  0.10916989
   0.66665944  0.33333956  0.10783364
   0.33332698  0.66667202  0.11216219
   0.27900078  0.22363113  0.46031600
   0.44522194  0.05475618  0.46014813
   0.27760293  0.72239607  0.46002373
   0.44434551  0.55565349  0.46020673
   0.77663928  0.22335972  0.46026799
   0.94443572  0.05556328  0.46043148
   0.77636787  0.72099822  0.46031600
   0.94524282  0.55477706  0.46014813
Direct configuration=    18
   0.66981895 -0.00000738  0.10914922
   0.33022250  0.00001408  0.10916731
   0.00000738  0.33018005  0.10914922
  -0.00001408  0.66977650  0.10916731
   0.33023874  0.33023384  0.10917662
   0.66976516  0.66976026  0.10917662
   0.66665944  0.33333956  0.10783994
   0.33332697  0.66667203  0.11217053
   0.27900106  0.22363133  0.46030919
   0.44522201  0.05475610  0.46014120
   0.27760296  0.72239604  0.46001672
   0.44434543  0.55565357  0.46019984
   0.77663913  0.22335987  0.46026114
   0.94443566  0.05556334  0.46042474
   0.77636767  0.72099794  0.46030919
   0.94524290  0.55477699  0.46014120
Direct configuration=    19
   0.66981895 -0.00000741  0.10916264
   0.33022252  0.00001407  0.10918075
   0.00000741  0.33018005  0.10916264
  -0.00001407  0.66977648  0.10918075
   0.33023878  0.33023389  0.10919008
   0.66976511  0.66976022  0.10919008
   0.66665944  0.33333956  0.10785256
   0.33332696  0.66667204  0.11218721
   0.27900161  0.22363172  0.46029556
   0.44522216  0.05475592  0.46012735
   0.27760301  0.72239599  0.46000270
   0.44434527  0.55565373  0.46018607
   0.77663884  0.22336016  0.46024745
   0.94443554  0.05556346  0.46041126
   0.77636728  0.72099739  0.46029556
   0.94524308  0.55477684  0.46012735
Direct configuration=    20
   0.66981896 -0.00000746  0.10918948
   0.33022257  0.00001406  0.10920764
   0.00000746  0.33018004  0.10918948
  -0.00001406  0.66977643  0.10920764
   0.33023886  0.33023399  0.10921699
   0.66976501  0.66976014  0.10921699
   0.66665943  0.33333957  0.10787779
   0.33332694  0.66667206  0.11222057
   0.27900271  0.22363250  0.46026830
   0.44522246  0.05475558  0.46009964
   0.27760312  0.72239588  0.45997467
   0.44434495  0.55565405  0.46015851
   0.77663824  0.22336076  0.46022006
   0.94443529  0.05556371  0.46038430
   0.77636650  0.72099629  0.46026830
   0.94524342  0.55477654  0.46009964
Direct configuration=    21
   0.66981897 -0.00000758  0.10924315
   0.33022266  0.00001403  0.10926141
   0.00000758  0.33018003  0.10924315
  -0.00001403  0.66977634  0.10926141
   0.33023902  0.33023419  0.10927082
   0.66976481  0.66975998  0.10927082
   0.66665943  0.33333957  0.10792826
   0.33332691  0.66667209  0.11228729
   0.27900492  0.22363407  0.46021377
   0.44522307  0.05475488  0.46004423
   0.27760335  0.72239565  0.45991861
   0.44434431  0.55565469  0.46010341
   0.77663705  0.22336195  0.46016528
   0.94443480  0.05556420  0.46033039
   0.77636493  0.72099408  0.46021377
   0.94524412  0.55477593  0.46004423
Direct configuration=    22
   0.66981900 -0.00000781  0.10935049
   0.33022284  0.00001396  0.10936896
   0.00000781  0.33018000  0.10935049
  -0.00001396  0.66977616  0.10936896
   0.33023934  0.33023459  0.10937848
   0.66976441  0.66975966  0.10937848
   0.66665941  0.33333959  0.10802919
   0.33332683  0.66667217  0.11242074
   0.27900934  0.22363721  0.46010473
   0.44522427  0.05475350  0.45993340
   0.27760379  0.72239521  0.45980648
   0.44434302  0.55565598  0.45999319
   0.77663467  0.22336433  0.46005573
   0.94443383  0.05556517  0.46022255
   0.77636179  0.72098966  0.46010473
   0.94524550  0.55477473  0.45993340
Direct configuration=    23
   0.66981906 -0.00000827  0.10956517
   0.33022320  0.00001384  0.10958407
   0.00000827  0.33017994  0.10956517
  -0.00001384  0.66977580  0.10958407
   0.33023998  0.33023540  0.10959379
   0.66976360  0.66975902  0.10959379
   0.66665938  0.33333962  0.10823106
   0.33332669  0.66667231  0.11268762
   0.27901817  0.22364349  0.45988663
   0.44522669  0.05475072  0.45971175
   0.27760468  0.72239432  0.45958222
   0.44434045  0.55565855  0.45977276
   0.77662991  0.22336909  0.45983662
   0.94443188  0.05556712  0.46000688
   0.77635551  0.72098083  0.45988663
   0.94524828  0.55477231  0.45971175
Direct configuration=    24
   0.66981918 -0.00000918  0.10999454
   0.33022392  0.00001359  0.11001427
   0.00000918  0.33017982  0.10999454
  -0.00001359  0.66977508  0.11001427
   0.33024125  0.33023701  0.11002441
   0.66976199  0.66975775  0.11002441
   0.66665932  0.33333968  0.10863479
   0.33332640  0.66667260  0.11322140
   0.27903584  0.22365605  0.45945045
   0.44523151  0.05474518  0.45926846
   0.27760646  0.72239254  0.45913370
   0.44433530  0.55566370  0.45933190
   0.77662039  0.22337861  0.45939841
   0.94442797  0.05557103  0.45957555
   0.77634295  0.72096316  0.45945045
   0.94525382  0.55476749  0.45926846
Direct configuration=    25
   0.66981942 -0.00001101  0.11085327
   0.33022536  0.00001310  0.11087467
   0.00001101  0.33017958  0.11085327
  -0.00001310  0.66977364  0.11087467
   0.33024380  0.33024023  0.11088566
   0.66975877  0.66975520  0.11088566
   0.66665921  0.33333979  0.10944226
   0.33332581  0.66667319  0.11428895
   0.27907118  0.22368117  0.45857807
   0.44524116  0.05473409  0.45838186
   0.27761002  0.72238898  0.45823667
   0.44432500  0.55567400  0.45845018
   0.77660135  0.22339765  0.45852199
   0.94442016  0.05557884  0.45871287
   0.77631783  0.72092782  0.45857807
   0.94526491  0.55475784  0.45838186
Direct configuration=    26
   0.66981989 -0.00001468  0.11257074
   0.33022824  0.00001210  0.11259547
   0.00001468  0.33017911  0.11257074
  -0.00001210  0.66977076  0.11259547
   0.33024890  0.33024667  0.11260817
   0.66975233  0.66975010  0.11260817
   0.66665897  0.33334003  0.11105719
   0.33332464  0.66667436  0.11642404
   0.27914185  0.22373141  0.45683332
   0.44526046  0.05471192  0.45660867
   0.27761714  0.72238186  0.45644260
   0.44430441  0.55569459  0.45668674
   0.77656326  0.22343574  0.45676915
   0.94440454  0.05559446  0.45698753
   0.77626759  0.72085715  0.45683332
   0.94528708  0.55473854  0.45660867
Direct configuration=    27
   0.66982084 -0.00002201  0.11600568
   0.33023401  0.00001012  0.11603708
   0.00002201  0.33017816  0.11600568
  -0.00001012  0.66976499  0.11603708
   0.33025910  0.33025955  0.11605317
   0.66973945  0.66973990  0.11605317
   0.66665850  0.33334050  0.11428706
   0.33332230  0.66667670  0.12069423
   0.27928318  0.22383189  0.45334382
   0.44529907  0.05466756  0.45306229
   0.27763137  0.72236763  0.45285447
   0.44426323  0.55573577  0.45315986
   0.77648710  0.22351190  0.45326346
   0.94437331  0.05562569  0.45353684
   0.77616711  0.72071582  0.45334382
   0.94533144  0.55469993  0.45306229
Direct configuration=    28
   0.66982273 -0.00003667  0.12287555
   0.33024554  0.00000615  0.12292030
   0.00003667  0.33017627  0.12287555
  -0.00000615  0.66975346  0.12292030
   0.33027950  0.33028531  0.12294317
   0.66971369  0.66971950  0.12294317
   0.66665757  0.33334143  0.12074680
   0.33331763  0.66668137  0.12923461
   0.27956586  0.22403285  0.44636483
   0.44537627  0.05457886  0.44596953
   0.27765984  0.72233916  0.44567820
   0.44418086  0.55581814  0.44610610
   0.77633477  0.22366423  0.44625209
   0.94431083  0.05568817  0.44663545
   0.77596615  0.72043314  0.44636483
   0.94542014  0.55462273  0.44596953
Direct configuration=    29
   0.66982652 -0.00006599  0.13661528
   0.33026860 -0.00000179  0.13668674
   0.00006599  0.33017248  0.13661528
   0.00000179  0.66973040  0.13668674
   0.33032029  0.33033684  0.13672318
   0.66966216  0.66967871  0.13672318
   0.66665569  0.33334331  0.13366626
   0.33330827  0.66669073  0.14631538
   0.28013122  0.22443476  0.43240683
   0.44553068  0.05440145  0.43178400
   0.27771679  0.72228221  0.43132566
   0.44401612  0.55598288  0.43199858
   0.77603010  0.22396890  0.43222934
   0.94418588  0.05581312  0.43283268
   0.77556424  0.71986778  0.43240683
   0.94559755  0.55446832  0.43178400
Direct configuration=    30
   0.66983409 -0.00012463  0.16409476
   0.33031472 -0.00001767  0.16421963
   0.00012463  0.33016491  0.16409476
   0.00001767  0.66968428  0.16421963
   0.33040187  0.33043989  0.16428320
   0.66955911  0.66959713  0.16428320
   0.66665195  0.33334705  0.15950520
   0.33328956  0.66670944  0.18047690
   0.28126193  0.22523859  0.40449085
   0.44583951  0.05404662  0.40341295
   0.27783067  0.72216833  0.40262059
   0.44368664  0.55631236  0.40378355
   0.77542077  0.22457823  0.40418385
   0.94393599  0.05606301  0.40522714
   0.77476041  0.71873707  0.40449085
   0.94595238  0.55415949  0.40341295
Direct configuration=    31
   0.66983296 -0.00011588  0.15999516
   0.33030783 -0.00001530  0.16011205
   0.00011588  0.33016604  0.15999516
   0.00001530  0.66969117  0.16011205
   0.33038970  0.33042452  0.16017158
   0.66957448  0.66960930  0.16017158
   0.66665251  0.33334649  0.15565034
   0.33329236  0.66670664  0.17538041
   0.28109324  0.22511867  0.40865558
   0.44579344  0.05409956  0.40764557
   0.27781368  0.72218532  0.40690304
   0.44373579  0.55626321  0.40799289
   0.77551168  0.22448732  0.40836790
   0.94397327  0.05602573  0.40934555
   0.77488033  0.71890576  0.40865558
   0.94589944  0.55420556  0.40764557
Direct configuration=    32
   0.66983379 -0.00012232  0.16301443
   0.33031290 -0.00001705  0.16313719
   0.00012232  0.33016521  0.16301443
   0.00001705  0.66968610  0.16313719
   0.33039866  0.33043584  0.16319970
   0.66956316  0.66960034  0.16319970
   0.66665210  0.33334690  0.15848936
   0.33329030  0.66670870  0.17913387
   0.28121748  0.22520699  0.40558834
   0.44582737  0.05406057  0.40452834
   0.27782620  0.72217280  0.40374911
   0.44369959  0.55629941  0.40489280
   0.77544473  0.22455427  0.40528643
   0.94394581  0.05605319  0.40631243
   0.77479201  0.71878152  0.40558834
   0.94593843  0.55417163  0.40452834
Direct configuration=    33
   0.66972662 -0.00021278  0.16751892
   0.33034509 -0.00009536  0.16764950
   0.00021278  0.33027238  0.16751892
   0.00009536  0.66965391  0.16764950
   0.33042578  0.33053322  0.16771527
   0.66946578  0.66957322  0.16771527
   0.66665039  0.33334861  0.16269990
   0.33328395  0.66671505  0.18469585
   0.28090014  0.22485970  0.40100968
   0.44563254  0.05426483  0.39989870
   0.27785593  0.72214307  0.39907870
   0.44373905  0.55625995  0.40028157
   0.77572430  0.22427470  0.40069388
   0.94395070  0.05604830  0.40176594
   0.77513930  0.71909886  0.40100968
   0.94573417  0.55436646  0.39989870
Direct configuration=    34
   0.66974684 -0.00019572  0.16666916
   0.33033902 -0.00008059  0.16679826
   0.00019572  0.33025216  0.16666916
   0.00008059  0.66965998  0.16679826
   0.33042066  0.33051485  0.16686342
   0.66948415  0.66957834  0.16686342
   0.66665072  0.33334828  0.16190560
   0.33328515  0.66671385  0.18364660
   0.28096000  0.22492521  0.40187344
   0.44566929  0.05422630  0.40077207
   0.27785032  0.72214868  0.39995977
   0.44373161  0.55626739  0.40115147
   0.77567156  0.22432744  0.40156025
   0.94394978  0.05604922  0.40262362
   0.77507379  0.71903900  0.40187344
   0.94577270  0.55432971  0.40077207
Direct configuration=    35
   0.66964327 -0.00027240  0.16634199
   0.33036634 -0.00014808  0.16646923
   0.00027240  0.33035573  0.16634199
   0.00014808  0.66963266  0.16646923
   0.33043429  0.33058781  0.16653259
   0.66941119  0.66956471  0.16653259
   0.66664777  0.33335123  0.16157378
   0.33328080  0.66671820  0.18320364
   0.28053563  0.22453647  0.40220359
   0.44547712  0.05443986  0.40113040
   0.27785099  0.72214801  0.40033440
   0.44381916  0.55617984  0.40150191
   0.77597754  0.22402146  0.40189884
   0.94399564  0.05600336  0.40293184
   0.77546253  0.71946337  0.40220359
   0.94555914  0.55452188  0.40113040
Direct configuration=    36
   0.66933255 -0.00050246  0.16536049
   0.33044831 -0.00035058  0.16548212
   0.00050246  0.33066645  0.16536049
   0.00035058  0.66955069  0.16548212
   0.33047517  0.33080670  0.16554008
   0.66919230  0.66952383  0.16554008
   0.66663894  0.33336006  0.16057833
   0.33326775  0.66673125  0.18187476
   0.27926250  0.22337025  0.40319406
   0.44490060  0.05508056  0.40220539
   0.27785300  0.72214600  0.40145831
   0.44408182  0.55591718  0.40255324
   0.77689546  0.22310354  0.40291460
   0.94413325  0.05586575  0.40385648
   0.77662875  0.72073650  0.40319406
   0.94491844  0.55509840  0.40220539
Direct configuration=    37
   0.66871112 -0.00096258  0.16339748
   0.33061224 -0.00075558  0.16350790
   0.00096258  0.33128788  0.16339748
   0.00075558  0.66938676  0.16350790
   0.33055693  0.33124448  0.16355508
   0.66875452  0.66944207  0.16355508
   0.66662128  0.33337772  0.15858744
   0.33324165  0.66675735  0.17921700
   0.27671625  0.22103781  0.40517498
   0.44374757  0.05636194  0.40435537
   0.27785703  0.72214197  0.40370612
   0.44460713  0.55539187  0.40465591
   0.77873131  0.22126769  0.40494613
   0.94440845  0.05559055  0.40570577
   0.77896119  0.72328275  0.40517498
   0.94363706  0.55625143  0.40435537
Direct configuration=    38
   0.66901307 -0.00073901  0.16435129
   0.33053259 -0.00055879  0.16446715
   0.00073901  0.33098593  0.16435129
   0.00055879  0.66946641  0.16446715
   0.33051720  0.33103177  0.16451957
   0.66896723  0.66948180  0.16451957
   0.66662986  0.33336914  0.15955480
   0.33325433  0.66674467  0.18050838
   0.27795345  0.22217112  0.40421247
   0.44430782  0.05573933  0.40331072
   0.27785507  0.72214393  0.40261393
   0.44435189  0.55564711  0.40363424
   0.77783929  0.22215971  0.40395903
   0.94427473  0.05572427  0.40480722
   0.77782788  0.72204555  0.40421247
   0.94425967  0.55569118  0.40331072
Direct configuration=    39
   0.66892785 -0.00077041  0.16434542
   0.33058341 -0.00059048  0.16445917
   0.00077041  0.33107115  0.16434542
   0.00059048  0.66941559  0.16445917
   0.33055276  0.33108721  0.16450842
   0.66891179  0.66944624  0.16450842
   0.66662749  0.33337151  0.15949609
   0.33325271  0.66674629  0.18043234
   0.27784757  0.22218508  0.40421406
   0.44435065  0.05570468  0.40335677
   0.27780391  0.72219509  0.40268966
   0.44440683  0.55559217  0.40366756
   0.77781171  0.22218729  0.40397205
   0.94433605  0.05566295  0.40477462
   0.77781392  0.72215143  0.40421406
   0.94429432  0.55564835  0.40335677
Direct configuration=    40
   0.66867222 -0.00086462  0.16432781
   0.33073586 -0.00068555  0.16443521
   0.00086462  0.33132678  0.16432781
   0.00068555  0.66926314  0.16443521
   0.33065943  0.33125352  0.16447495
   0.66874548  0.66933957  0.16447495
   0.66662038  0.33337862  0.15931997
   0.33324786  0.66675114  0.18020424
   0.27752996  0.22222696  0.40421884
   0.44447915  0.05560075  0.40349493
   0.27765043  0.72234857  0.40291685
   0.44457165  0.55542735  0.40376752
   0.77772900  0.22227000  0.40401110
   0.94452000  0.05547900  0.40467683
   0.77777204  0.72246904  0.40421884
   0.94439825  0.55551985  0.40349493
Direct configuration=    41
   0.66856116 -0.00090554  0.16432016
   0.33080209 -0.00072685  0.16442481
   0.00090554  0.33143784  0.16432016
   0.00072685  0.66919691  0.16442481
   0.33070577  0.33132576  0.16446042
   0.66867324  0.66929323  0.16446042
   0.66661730  0.33338170  0.15924346
   0.33324575  0.66675325  0.18010515
   0.27739198  0.22224515  0.40422091
   0.44453498  0.05555559  0.40355495
   0.27758375  0.72241525  0.40301554
   0.44464325  0.55535575  0.40381094
   0.77769306  0.22230594  0.40402807
   0.94459991  0.05539909  0.40463435
   0.77775385  0.72260702  0.40422091
   0.94444341  0.55546402  0.40355495
Direct configuration=    42
   0.66847691 -0.00091253  0.16433293
   0.33087715 -0.00073853  0.16443295
   0.00091253  0.33152209  0.16433293
   0.00073853  0.66912185  0.16443295
   0.33075748  0.33137142  0.16446102
   0.66862758  0.66924152  0.16446102
   0.66661192  0.33338708  0.15913286
   0.33324730  0.66675170  0.17997229
   0.27744681  0.22224586  0.40420137
   0.44452015  0.05556934  0.40362711
   0.27760956  0.72238944  0.40314969
   0.44460582  0.55539318  0.40385613
   0.77769902  0.22229998  0.40403290
   0.94456834  0.05543066  0.40454537
   0.77775314  0.72255219  0.40420137
   0.94442966  0.55547885  0.40362711
Direct configuration=    43
   0.66822414 -0.00093350  0.16437125
   0.33110235 -0.00077356  0.16445736
   0.00093350  0.33177486  0.16437125
   0.00077356  0.66889665  0.16445736
   0.33091260  0.33150838  0.16446284
   0.66849062  0.66908640  0.16446284
   0.66659580  0.33340320  0.15880106
   0.33325193  0.66674707  0.17957370
   0.27761130  0.22224800  0.40414275
   0.44447567  0.05561058  0.40384358
   0.27768699  0.72231201  0.40355215
   0.44449351  0.55550549  0.40399171
   0.77771689  0.22228211  0.40404740
   0.94447361  0.05552539  0.40427843
   0.77775100  0.72238770  0.40414275
   0.94438842  0.55552333  0.40384358
Direct configuration=    44
   0.66771860 -0.00097545  0.16444788
   0.33155274 -0.00084362  0.16450619
   0.00097545  0.33228040  0.16444788
   0.00084362  0.66844626  0.16450619
   0.33122285  0.33178230  0.16446647
   0.66821670  0.66877615  0.16446647
   0.66656356  0.33343544  0.15813745
   0.33326120  0.66673780  0.17877652
   0.27794028  0.22225227  0.40402549
   0.44438670  0.05569306  0.40427654
   0.27784185  0.72215715  0.40435708
   0.44426889  0.55573011  0.40426287
   0.77775263  0.22224637  0.40407640
   0.94428416  0.05571484  0.40374454
   0.77774673  0.72205872  0.40402549
   0.94430594  0.55561230  0.40427654
Direct configuration=    45
   0.66790048 -0.00096035  0.16442031
   0.33139070 -0.00081841  0.16448862
   0.00096035  0.33209852  0.16442031
   0.00081841  0.66860830  0.16448862
   0.33111123  0.33168375  0.16446516
   0.66831525  0.66888777  0.16446516
   0.66657516  0.33342384  0.15837619
   0.33325787  0.66674113  0.17906332
   0.27782192  0.22225073  0.40406768
   0.44441871  0.05566339  0.40412077
   0.27778614  0.72221286  0.40406749
   0.44434970  0.55564930  0.40416532
   0.77773977  0.22225923  0.40406597
   0.94435232  0.05564668  0.40393662
   0.77774827  0.72217708  0.40406768
   0.94433561  0.55558029  0.40412077
Direct configuration=    46
   0.66822730 -0.00077396  0.16447328
   0.33127330 -0.00065336  0.16453201
   0.00077396  0.33177170  0.16447328
   0.00065336  0.66872570  0.16453201
   0.33101390  0.33143181  0.16448906
   0.66856719  0.66898510  0.16448906
   0.66656853  0.33343047  0.15813740
   0.33328336  0.66671564  0.17882605
   0.27781914  0.22229120  0.40403538
   0.44441849  0.05565177  0.40421226
   0.27774390  0.72225510  0.40424985
   0.44439532  0.55560368  0.40422081
   0.77772038  0.22227862  0.40406893
   0.94436873  0.05563027  0.40381301
   0.77770780  0.72217986  0.40403538
   0.94434723  0.55558051  0.40421226
Direct configuration=    47
   0.66889631 -0.00039241  0.16458169
   0.33103298 -0.00031551  0.16462081
   0.00039241  0.33110269  0.16458169
   0.00031551  0.66896602  0.16462081
   0.33081465  0.33091609  0.16453797
   0.66908291  0.66918435  0.16453797
   0.66655494  0.33344406  0.15764858
   0.33333555  0.66666345  0.17834036
   0.27781345  0.22237402  0.40396926
   0.44441804  0.05562800  0.40439954
   0.27765745  0.72234155  0.40462315
   0.44448870  0.55551030  0.40433441
   0.77768070  0.22231830  0.40407498