<?xml version="1.0" encoding="ISO-8859-1"?>
<modeling>
 <generator>
  <i name="program" type="string">vasp </i>
  <i name="version" type="string">6.3.2  </i>
  <i name="subversion" type="string">27Jun22 (build Dec 22 2022 13:13:19) complex                          parallel </i>
  <i name="platform" type="string">LinuxIFC </i>
  <i name="date" type="string">2023 09 12 </i>
  <i name="time" type="string">17:21:22 </i>
 </generator>
 <incar>
  <i type="string" name="SYSTEM">Lattice</i>
  <i type="int" name="ISTART">     0</i>
  <i type="string" name="PREC">Accurate</i>
  <i type="string" name="ALGO">Normal</i>
  <i type="int" name="ISPIN">     1</i>
  <i type="int" name="ICHARG">     2</i>
  <i type="int" name="NELM">    64</i>
  <i type="int" name="IBRION">     2</i>
  <i name="EDIFF">      0.00000100</i>
  <i name="EDIFFG">     -0.00100000</i>
  <i type="int" name="NSW">   128</i>
  <i type="int" name="ISIF">     2</i>
  <i name="ENCUT">    450.00000000</i>
  <i name="POTIM">      0.50000000</i>
  <i type="int" name="ISMEAR">     0</i>
  <i name="SIGMA">      0.10000000</i>
  <i type="logical" name="LWAVE"> F  </i>
  <i type="logical" name="LCHARG"> F  </i>
  <i type="string" name="GGA">PE</i>
  <i type="int" name="IVDW">    12</i>
 </incar>
 <primitive_cell>
  <structure name="primitive_cell" >
   <crystal>
    <varray name="basis" >
     <v>       4.47648500       2.58450000       0.00000000 </v>
     <v>      -4.47648500       2.58450000       0.00000000 </v>
     <v>       0.00000000       0.00000000      15.00000000 </v>
    </varray>
    <i name="volume">    347.08426447 </i>
    <varray name="rec_basis" >
     <v>       0.11169478       0.19346102       0.00000000 </v>
     <v>      -0.11169478       0.19346102       0.00000000 </v>
     <v>       0.00000000       0.00000000       0.06666667 </v>
    </varray>
   </crystal>
   <varray name="positions" >
    <v>       0.33835568       0.66919338       0.25000000 </v>
    <v>       0.67168550       0.33578412       0.25000000 </v>
    <v>       0.16393418       0.32096121       0.25000000 </v>
    <v>       0.32344383       0.16194918       0.25000000 </v>
    <v>       0.16445142       0.84350783       0.25000000 </v>
    <v>       0.84555675       0.16147694       0.25000000 </v>
    <v>       0.68650730       0.84304996       0.25000000 </v>
    <v>       0.84606136       0.68407339       0.25000000 </v>
   </varray>
  </structure>
  <varray name="primitive_index" >
   <v type="int" >        1 </v>
   <v type="int" >        2 </v>
   <v type="int" >        3 </v>
   <v type="int" >        4 </v>
   <v type="int" >        5 </v>
   <v type="int" >        6 </v>
   <v type="int" >        7 </v>
   <v type="int" >        8 </v>
  </varray>
 </primitive_cell>
 <kpoints>
  <generation param="Gamma">
   <v type="int" name="divisions">      19       19        1 </v>
   <v name="usershift">      0.00000000       0.00000000       0.00000000 </v>
   <v name="genvec1">      0.05263158       0.00000000       0.00000000 </v>
   <v name="genvec2">      0.00000000       0.05263158       0.00000000 </v>
   <v name="genvec3">      0.00000000       0.00000000       1.00000000 </v>
   <v name="shift">      0.00000000       0.00000000       0.00000000 </v>
  </generation>
  <varray name="kpointlist" >
   <v>       0.00000000       0.00000000       0.00000000 </v>
   <v>       0.05263158       0.00000000       0.00000000 </v>
   <v>       0.00000000       0.05263158       0.00000000 </v>
   <v>      -0.05263158       0.05263158       0.00000000 </v>
   <v>       0.10526316       0.00000000       0.00000000 </v>
   <v>       0.00000000       0.10526316       0.00000000 </v>
   <v>      -0.10526316       0.10526316       0.00000000 </v>
   <v>       0.15789474      -0.00000000       0.00000000 </v>
   <v>       0.00000000       0.15789474       0.00000000 </v>
   <v>      -0.15789474       0.15789474       0.00000000 </v>
   <v>       0.21052632       0.00000000       0.00000000 </v>
   <v>       0.00000000       0.21052632       0.00000000 </v>
   <v>      -0.21052632       0.21052632       0.00000000 </v>
   <v>       0.26315789       0.00000000       0.00000000 </v>
   <v>       0.00000000       0.26315789       0.00000000 </v>
   <v>      -0.26315789       0.26315789       0.00000000 </v>
   <v>       0.31578947       0.00000000       0.00000000 </v>
   <v>       0.00000000       0.31578947       0.00000000 </v>
   <v>      -0.31578947       0.31578947       0.00000000 </v>
   <v>       0.36842105       0.00000000       0.00000000 </v>
   <v>       0.00000000       0.36842105       0.00000000 </v>
   <v>      -0.36842105       0.36842105       0.00000000 </v>
   <v>       0.42105263       0.00000000       0.00000000 </v>
   <v>       0.00000000       0.42105263       0.00000000 </v>
   <v>      -0.42105263       0.42105263       0.00000000 </v>
   <v>       0.47368421       0.00000000       0.00000000 </v>
   <v>       0.00000000       0.47368421       0.00000000 </v>
   <v>      -0.47368421       0.47368421       0.00000000 </v>
   <v>       0.05263158       0.05263158       0.00000000 </v>
   <v>      -0.05263158       0.10526316       0.00000000 </v>
   <v>      -0.10526316       0.05263158       0.00000000 </v>
   <v>       0.10526316       0.05263158       0.00000000 </v>
   <v>      -0.05263158       0.15789474       0.00000000 </v>
   <v>      -0.15789474       0.10526316       0.00000000 </v>
   <v>      -0.10526316       0.15789474       0.00000000 </v>
   <v>       0.05263158       0.10526316       0.00000000 </v>
   <v>       0.15789474      -0.05263158       0.00000000 </v>
   <v>       0.15789474       0.05263158       0.00000000 </v>
   <v>      -0.05263158       0.21052632       0.00000000 </v>
   <v>      -0.21052632       0.15789474       0.00000000 </v>
   <v>      -0.15789474       0.21052632       0.00000000 </v>
   <v>       0.05263158       0.15789474       0.00000000 </v>
   <v>       0.21052632      -0.05263158       0.00000000 </v>
   <v>       0.21052632       0.05263158       0.00000000 </v>
   <v>      -0.05263158       0.26315789       0.00000000 </v>
   <v>      -0.26315789       0.21052632       0.00000000 </v>
   <v>      -0.21052632       0.26315789       0.00000000 </v>
   <v>       0.05263158       0.21052632       0.00000000 </v>
   <v>       0.26315789      -0.05263158       0.00000000 </v>
   <v>       0.26315789       0.05263158       0.00000000 </v>
   <v>      -0.05263158       0.31578947       0.00000000 </v>
   <v>      -0.31578947       0.26315789       0.00000000 </v>
   <v>      -0.26315789       0.31578947       0.00000000 </v>
   <v>       0.05263158       0.26315789       0.00000000 </v>
   <v>       0.31578947      -0.05263158       0.00000000 </v>
   <v>       0.31578947       0.05263158       0.00000000 </v>
   <v>      -0.05263158       0.36842105       0.00000000 </v>
   <v>      -0.36842105       0.31578947       0.00000000 </v>
   <v>      -0.31578947       0.36842105       0.00000000 </v>
   <v>       0.05263158       0.31578947       0.00000000 </v>
   <v>       0.36842105      -0.05263158       0.00000000 </v>
   <v>       0.36842105       0.05263158       0.00000000 </v>
   <v>      -0.05263158       0.42105263       0.00000000 </v>
   <v>      -0.42105263       0.36842105       0.00000000 </v>
   <v>      -0.36842105       0.42105263       0.00000000 </v>
   <v>       0.05263158       0.36842105       0.00000000 </v>
   <v>       0.42105263      -0.05263158       0.00000000 </v>
   <v>       0.42105263       0.05263158       0.00000000 </v>
   <v>      -0.05263158       0.47368421       0.00000000 </v>
   <v>      -0.47368421       0.42105263       0.00000000 </v>
   <v>      -0.42105263       0.47368421       0.00000000 </v>
   <v>       0.05263158       0.42105263       0.00000000 </v>
   <v>       0.47368421      -0.05263158       0.00000000 </v>
   <v>       0.47368421       0.05263158       0.00000000 </v>
   <v>      -0.05263158      -0.47368421       0.00000000 </v>
   <v>       0.47368421       0.47368421       0.00000000 </v>
   <v>       0.10526316       0.10526316       0.00000000 </v>
   <v>      -0.10526316       0.21052632       0.00000000 </v>
   <v>      -0.21052632       0.10526316       0.00000000 </v>
   <v>       0.15789474       0.10526316       0.00000000 </v>
   <v>      -0.10526316       0.26315789       0.00000000 </v>
   <v>      -0.26315789       0.15789474       0.00000000 </v>
   <v>      -0.15789474       0.26315789       0.00000000 </v>
   <v>       0.10526316       0.15789474       0.00000000 </v>
   <v>       0.26315789      -0.10526316       0.00000000 </v>
   <v>       0.21052632       0.10526316       0.00000000 </v>
   <v>      -0.10526316       0.31578947       0.00000000 </v>
   <v>      -0.31578947       0.21052632       0.00000000 </v>
   <v>      -0.21052632       0.31578947       0.00000000 </v>
   <v>       0.10526316       0.21052632       0.00000000 </v>
   <v>       0.31578947      -0.10526316       0.00000000 </v>
   <v>       0.26315789       0.10526316       0.00000000 </v>
   <v>      -0.10526316       0.36842105       0.00000000 </v>
   <v>      -0.36842105       0.26315789       0.00000000 </v>
   <v>      -0.26315789       0.36842105       0.00000000 </v>
   <v>       0.10526316       0.26315789       0.00000000 </v>
   <v>       0.36842105      -0.10526316       0.00000000 </v>
   <v>       0.31578947       0.10526316       0.00000000 </v>
   <v>      -0.10526316       0.42105263       0.00000000 </v>
   <v>      -0.42105263       0.31578947       0.00000000 </v>
   <v>      -0.31578947       0.42105263       0.00000000 </v>
   <v>       0.10526316       0.31578947       0.00000000 </v>
   <v>       0.42105263      -0.10526316       0.00000000 </v>
   <v>       0.36842105       0.10526316       0.00000000 </v>
   <v>      -0.10526316       0.47368421       0.00000000 </v>
   <v>      -0.47368421       0.36842105       0.00000000 </v>
   <v>      -0.36842105       0.47368421       0.00000000 </v>
   <v>       0.10526316       0.36842105       0.00000000 </v>
   <v>       0.47368421      -0.10526316       0.00000000 </v>
   <v>       0.42105263       0.10526316       0.00000000 </v>
   <v>      -0.10526316      -0.47368421       0.00000000 </v>
   <v>       0.47368421       0.42105263       0.00000000 </v>
   <v>      -0.42105263      -0.47368421       0.00000000 </v>
   <v>       0.10526316       0.42105263       0.00000000 </v>
   <v>      -0.47368421      -0.10526316       0.00000000 </v>
   <v>       0.15789474       0.15789474       0.00000000 </v>
   <v>      -0.15789474       0.31578947       0.00000000 </v>
   <v>      -0.31578947       0.15789474       0.00000000 </v>
   <v>       0.21052632       0.15789474       0.00000000 </v>
   <v>      -0.15789474       0.36842105       0.00000000 </v>
   <v>      -0.36842105       0.21052632       0.00000000 </v>
   <v>      -0.21052632       0.36842105       0.00000000 </v>
   <v>       0.15789474       0.21052632       0.00000000 </v>
   <v>       0.36842105      -0.15789474       0.00000000 </v>
   <v>       0.26315789       0.15789474       0.00000000 </v>
   <v>      -0.15789474       0.42105263       0.00000000 </v>
   <v>      -0.42105263       0.26315789       0.00000000 </v>
   <v>      -0.26315789       0.42105263       0.00000000 </v>
   <v>       0.15789474       0.26315789       0.00000000 </v>
   <v>       0.42105263      -0.15789474       0.00000000 </v>
   <v>       0.31578947       0.15789474       0.00000000 </v>
   <v>      -0.15789474       0.47368421       0.00000000 </v>
   <v>      -0.47368421       0.31578947       0.00000000 </v>
   <v>      -0.31578947       0.47368421       0.00000000 </v>
   <v>       0.15789474       0.31578947       0.00000000 </v>
   <v>       0.47368421      -0.15789474       0.00000000 </v>
   <v>       0.36842105       0.15789474       0.00000000 </v>
   <v>      -0.15789474      -0.47368421       0.00000000 </v>
   <v>       0.47368421       0.36842105       0.00000000 </v>
   <v>      -0.36842105      -0.47368421       0.00000000 </v>
   <v>       0.15789474       0.36842105       0.00000000 </v>
   <v>      -0.47368421      -0.15789474       0.00000000 </v>
   <v>       0.42105263       0.15789474       0.00000000 </v>
   <v>      -0.15789474      -0.42105263       0.00000000 </v>
   <v>       0.42105263       0.42105263       0.00000000 </v>
   <v>       0.21052632       0.21052632       0.00000000 </v>
   <v>      -0.21052632       0.42105263       0.00000000 </v>
   <v>      -0.42105263       0.21052632       0.00000000 </v>
   <v>       0.26315789       0.21052632       0.00000000 </v>
   <v>      -0.21052632       0.47368421       0.00000000 </v>
   <v>      -0.47368421       0.26315789       0.00000000 </v>
   <v>      -0.26315789       0.47368421       0.00000000 </v>
   <v>       0.21052632       0.26315789       0.00000000 </v>
   <v>       0.47368421      -0.21052632       0.00000000 </v>
   <v>       0.31578947       0.21052632       0.00000000 </v>
   <v>      -0.21052632      -0.47368421       0.00000000 </v>
   <v>       0.47368421       0.31578947       0.00000000 </v>
   <v>      -0.31578947      -0.47368421       0.00000000 </v>
   <v>       0.21052632       0.31578947       0.00000000 </v>
   <v>      -0.47368421      -0.21052632       0.00000000 </v>
   <v>       0.36842105       0.21052632       0.00000000 </v>
   <v>      -0.21052632      -0.42105263       0.00000000 </v>
   <v>       0.42105263       0.36842105       0.00000000 </v>
   <v>      -0.36842105      -0.42105263       0.00000000 </v>
   <v>       0.21052632       0.36842105       0.00000000 </v>
   <v>      -0.42105263      -0.21052632       0.00000000 </v>
   <v>       0.26315789       0.26315789       0.00000000 </v>
   <v>      -0.26315789      -0.47368421       0.00000000 </v>
   <v>       0.47368421       0.26315789       0.00000000 </v>
   <v>       0.31578947       0.26315789       0.00000000 </v>
   <v>      -0.26315789      -0.42105263       0.00000000 </v>
   <v>       0.42105263       0.31578947       0.00000000 </v>
   <v>      -0.31578947      -0.42105263       0.00000000 </v>
   <v>       0.26315789       0.31578947       0.00000000 </v>
   <v>      -0.42105263      -0.26315789       0.00000000 </v>
   <v>       0.36842105       0.26315789       0.00000000 </v>
   <v>      -0.26315789      -0.36842105       0.00000000 </v>
   <v>       0.36842105       0.36842105       0.00000000 </v>
   <v>       0.31578947       0.31578947       0.00000000 </v>
   <v>      -0.31578947      -0.36842105       0.00000000 </v>
   <v>       0.36842105       0.31578947       0.00000000 </v>
  </varray>
  <varray name="weights" >
   <v>       0.00277008 </v>
   <v>       0.00554017 </v>
   <v>       0.00554017 </v>
   <v>       0.00554017 </v>
   <v>       0.00554017 </v>
   <v>       0.00554017 </v>
   <v>       0.00554017 </v>
   <v>       0.00554017 </v>
   <v>       0.00554017 </v>
   <v>       0.00554017 </v>
   <v>       0.00554017 </v>
   <v>       0.00554017 </v>
   <v>       0.00554017 </v>
   <v>       0.00554017 </v>
   <v>       0.00554017 </v>
   <v>       0.00554017 </v>
   <v>       0.00554017 </v>
   <v>       0.00554017 </v>
   <v>       0.00554017 </v>
   <v>       0.00554017 </v>
   <v>       0.00554017 </v>
   <v>       0.00554017 </v>
   <v>       0.00554017 </v>
   <v>       0.00554017 </v>
   <v>       0.00554017 </v>
   <v>       0.00554017 </v>
   <v>       0.00554017 </v>
   <v>       0.00554017 </v>
   <v>       0.00554017 </v>
   <v>       0.00554017 </v>
   <v>       0.00554017 </v>
   <v>       0.00554017 </v>
   <v>       0.00554017 </v>
   <v>       0.00554017 </v>
   <v>       0.00554017 </v>
   <v>       0.00554017 </v>
   <v>       0.00554017 </v>
   <v>       0.00554017 </v>
   <v>       0.00554017 </v>
   <v>       0.00554017 </v>
   <v>       0.00554017 </v>
   <v>       0.00554017 </v>
   <v>       0.00554017 </v>
   <v>       0.00554017 </v>
   <v>       0.00554017 </v>
   <v>       0.00554017 </v>
   <v>       0.00554017 </v>
   <v>       0.00554017 </v>
   <v>       0.00554017 </v>
   <v>       0.00554017 </v>
   <v>       0.00554017 </v>
   <v>       0.00554017 </v>
   <v>       0.00554017 </v>
   <v>       0.00554017 </v>
   <v>       0.00554017 </v>
   <v>       0.00554017 </v>
   <v>       0.00554017 </v>
   <v>       0.00554017 </v>
   <v>       0.00554017 </v>
   <v>       0.00554017 </v>
   <v>       0.00554017 </v>
   <v>       0.00554017 </v>
   <v>       0.00554017 </v>
   <v>       0.00554017 </v>
   <v>       0.00554017 </v>
   <v>       0.00554017 </v>
   <v>       0.00554017 </v>
   <v>       0.00554017 </v>
   <v>       0.00554017 </v>
   <v>       0.00554017 </v>
   <v>       0.00554017 </v>
   <v>       0.00554017 </v>
   <v>       0.00554017 </v>
   <v>       0.00554017 </v>
   <v>       0.00554017 </v>
   <v>       0.00554017 </v>
   <v>       0.00554017 </v>
   <v>       0.00554017 </v>
   <v>       0.00554017 </v>
   <v>       0.00554017 </v>
   <v>       0.00554017 </v>
   <v>       0.00554017 </v>
   <v>       0.00554017 </v>
   <v>       0.00554017 </v>
   <v>       0.00554017 </v>
   <v>       0.00554017 </v>
   <v>       0.00554017 </v>
   <v>       0.00554017 </v>
   <v>       0.00554017 </v>
   <v>       0.00554017 </v>
   <v>       0.00554017 </v>
   <v>       0.00554017 </v>
   <v>       0.00554017 </v>
   <v>       0.00554017 </v>
   <v>       0.00554017 </v>
   <v>       0.00554017 </v>
   <v>       0.00554017 </v>
   <v>       0.00554017 </v>
   <v>       0.00554017 </v>
   <v>       0.00554017 </v>
   <v>       0.00554017 </v>
   <v>       0.00554017 </v>
   <v>       0.00554017 </v>
   <v>       0.00554017 </v>
   <v>       0.00554017 </v>
   <v>       0.00554017 </v>
   <v>       0.00554017 </v>
   <v>       0.00554017 </v>
   <v>       0.00554017 </v>
   <v>       0.00554017 </v>
   <v>       0.00554017 </v>
   <v>       0.00554017 </v>
   <v>       0.00554017 </v>
   <v>       0.00554017 </v>
   <v>       0.00554017 </v>
   <v>       0.00554017 </v>
   <v>       0.00554017 </v>
   <v>       0.00554017 </v>
   <v>       0.00554017 </v>
   <v>       0.00554017 </v>
   <v>       0.00554017 </v>
   <v>       0.00554017 </v>
   <v>       0.00554017 </v>
   <v>       0.00554017 </v>
   <v>       0.00554017 </v>
   <v>       0.00554017 </v>
   <v>       0.00554017 </v>
   <v>       0.00554017 </v>
   <v>       0.00554017 </v>
   <v>       0.00554017 </v>
   <v>       0.00554017 </v>
   <v>       0.00554017 </v>
   <v>       0.00554017 </v>
   <v>       0.00554017 </v>
   <v>       0.00554017 </v>
   <v>       0.00554017 </v>
   <v>       0.00554017 </v>
   <v>       0.00554017 </v>
   <v>       0.00554017 </v>
   <v>       0.00554017 </v>
   <v>       0.00554017 </v>
   <v>       0.00554017 </v>
   <v>       0.00554017 </v>
   <v>       0.00554017 </v>
   <v>       0.00554017 </v>
   <v>       0.00554017 </v>
   <v>       0.00554017 </v>
   <v>       0.00554017 </v>
   <v>       0.00554017 </v>
   <v>       0.00554017 </v>
   <v>       0.00554017 </v>
   <v>       0.00554017 </v>
   <v>       0.00554017 </v>
   <v>       0.00554017 </v>
   <v>       0.00554017 </v>
   <v>       0.00554017 </v>
   <v>       0.00554017 </v>
   <v>       0.00554017 </v>
   <v>       0.00554017 </v>
   <v>       0.00554017 </v>
   <v>       0.00554017 </v>
   <v>       0.00554017 </v>
   <v>       0.00554017 </v>
   <v>       0.00554017 </v>
   <v>       0.00554017 </v>
   <v>       0.00554017 </v>
   <v>       0.00554017 </v>
   <v>       0.00554017 </v>
   <v>       0.00554017 </v>
   <v>       0.00554017 </v>
   <v>       0.00554017 </v>
   <v>       0.00554017 </v>
   <v>       0.00554017 </v>
   <v>       0.00554017 </v>
   <v>       0.00554017 </v>
   <v>       0.00554017 </v>
   <v>       0.00554017 </v>
   <v>       0.00554017 </v>
   <v>       0.00554017 </v>
   <v>       0.00554017 </v>
   <v>       0.00554017 </v>
  </varray>
 </kpoints>
 <parameters>
  <separator name="general" >
   <i type="string" name="SYSTEM">Lattice</i>
   <i type="logical" name="LCOMPAT"> F  </i>
  </separator>
  <separator name="electronic" >
   <i type="string" name="PREC">accura</i>
   <i name="ENMAX">    450.00000000</i>
   <i name="ENAUG">    644.87300000</i>
   <i name="EDIFF">      0.00000100</i>
   <i type="int" name="IALGO">    38</i>
   <i type="int" name="IWAVPR">    11</i>
   <i type="int" name="NBANDS">    24</i>
   <i type="int" name="NBANDSLOW">    -1</i>
   <i type="int" name="NBANDSHIGH">    -1</i>
   <i name="NELECT">     30.00000000</i>
   <i type="int" name="TURBO">     0</i>
   <i type="int" name="IRESTART">     0</i>
   <i type="int" name="NREBOOT">     0</i>
   <i type="int" name="NMIN">     0</i>
   <i name="EREF">      0.00000000</i>
   <separator name="electronic smearing" >
    <i type="int" name="ISMEAR">     0</i>
    <i name="SIGMA">      0.10000000</i>
    <i name="KSPACING">      0.50000000</i>
    <i type="logical" name="KGAMMA"> T  </i>
    <i type="logical" name="KBLOWUP"> T  </i>
   </separator>
   <separator name="electronic projectors" >
    <i type="logical" name="LREAL"> F  </i>
    <v name="ROPT">      0.00000000      0.00000000</v>
    <i type="int" name="LMAXPAW">  -100</i>
    <i type="int" name="LMAXMIX">     2</i>
    <i type="logical" name="NLSPLINE"> F  </i>
   </separator>
   <separator name="electronic startup" >
    <i type="int" name="ISTART">     0</i>
    <i type="int" name="ICHARG">     2</i>
    <i type="int" name="INIWAV">     1</i>
   </separator>
   <separator name="electronic spin" >
    <i type="int" name="ISPIN">     1</i>
    <i type="logical" name="LNONCOLLINEAR"> F  </i>
    <v name="MAGMOM">      1.00000000      1.00000000      1.00000000      1.00000000      1.00000000      1.00000000      1.00000000      1.00000000</v>
    <i name="NUPDOWN">     -1.00000000</i>
    <i type="logical" name="LSORBIT"> F  </i>
    <v name="SAXIS">      0.00000000      0.00000000      1.00000000</v>
    <i type="logical" name="LSPIRAL"> F  </i>
    <v name="QSPIRAL">      0.00000000      0.00000000      0.00000000</v>
    <i type="logical" name="LZEROZ"> F  </i>
   </separator>
   <separator name="electronic exchange-correlation" >
    <i type="logical" name="LASPH"> F  </i>
    <i type="logical" name="LMETAGGA"> F  </i>
   </separator>
   <separator name="electronic convergence" >
    <i type="int" name="NELM">    64</i>
    <i type="int" name="NELMDL">    -5</i>
    <i type="int" name="NELMIN">     2</i>
    <i name="ENINI">    450.00000000</i>
    <separator name="electronic convergence detail" >
     <i type="logical" name="LDIAG"> T  </i>
     <i type="logical" name="LSUBROT"> F  </i>
     <i name="WEIMIN">      0.00100000</i>
     <i name="EBREAK">      0.00000001</i>
     <i name="DEPER">      0.30000000</i>
     <i type="int" name="NRMM">     4</i>
     <i name="TIME">      0.40000000</i>
    </separator>
   </separator>
   <separator name="electronic mixer" >
    <i name="AMIX">      0.40000000</i>
    <i name="BMIX">      1.00000000</i>
    <i name="AMIN">      0.10000000</i>
    <i name="AMIX_MAG">      1.60000000</i>
    <i name="BMIX_MAG">      1.00000000</i>
    <separator name="electronic mixer details" >
     <i type="int" name="IMIX">     4</i>
     <i type="logical" name="MIXFIRST"> F  </i>
     <i type="int" name="MAXMIX">   -45</i>
     <i name="WC">    100.00000000</i>
     <i type="int" name="INIMIX">     1</i>
     <i type="int" name="MIXPRE">     1</i>
     <i type="int" name="MREMOVE">     5</i>
    </separator>
   </separator>
   <separator name="electronic dipolcorrection" >
    <i type="logical" name="LDIPOL"> F  </i>
    <i type="logical" name="LMONO"> F  </i>
    <i type="int" name="IDIPOL">     0</i>
    <i name="EPSILON">      1.00000000</i>
    <v name="DIPOL">   -100.00000000   -100.00000000   -100.00000000</v>
    <i name="EFIELD">      0.00000000</i>
   </separator>
  </separator>
  <separator name="grids" >
   <i type="int" name="NGX">    36</i>
   <i type="int" name="NGY">    36</i>
   <i type="int" name="NGZ">   108</i>
   <i type="int" name="NGXF">    72</i>
   <i type="int" name="NGYF">    72</i>
   <i type="int" name="NGZF">   216</i>
   <i type="logical" name="ADDGRID"> F  </i>
  </separator>
  <separator name="ionic" >
   <i type="int" name="NSW">   128</i>
   <i type="int" name="IBRION">     2</i>
   <i type="int" name="MDALGO">     0</i>
   <i type="int" name="ISIF">     2</i>
   <i name="PSTRESS">      0.00000000</i>
   <i name="EDIFFG">     -0.00100000</i>
   <i type="int" name="NFREE">     1</i>
   <i name="POTIM">      0.50000000</i>
   <i name="SMASS">     -3.00000000</i>
   <i name="SCALEE">      1.00000000</i>
  </separator>
  <separator name="ionic md" >
   <i name="TEBEG">      0.00010000</i>
   <i name="TEEND">      0.00010000</i>
   <i type="int" name="NBLOCK">     1</i>
   <i type="int" name="KBLOCK">   128</i>
   <i type="int" name="NPACO">   256</i>
   <i name="APACO">     10.00000000</i>
  </separator>
  <separator name="symmetry" >
   <i type="int" name="ISYM">     2</i>
   <i name="SYMPREC">      0.00001000</i>
  </separator>
  <separator name="dos" >
   <i type="int" name="LORBIT">     0</i>
   <v name="RWIGS">     -1.00000000     -1.00000000</v>
   <i type="int" name="NEDOS">   301</i>
   <i name="EMIN">     10.00000000</i>
   <i name="EMAX">    -10.00000000</i>
   <i name="EFERMI">      0.00000000</i>
  </separator>
  <separator name="writing" >
   <i type="int" name="NWRITE">     2</i>
   <i type="logical" name="LWAVE"> F  </i>
   <i type="logical" name="LDOWNSAMPLE"> F  </i>
   <i type="logical" name="LCHARG"> F  </i>
   <i type="logical" name="LPARD"> F  </i>
   <i type="logical" name="LVTOT"> F  </i>
   <i type="logical" name="LVHAR"> F  </i>
   <i type="logical" name="LELF"> F  </i>
   <i type="logical" name="LOPTICS"> F  </i>
   <v name="STM">      0.00000000      0.00000000      0.00000000      0.00000000      0.00000000      0.00000000      0.00000000</v>
  </separator>
  <separator name="performance" >
   <i type="int" name="NPAR">    24</i>
   <i type="int" name="NSIM">     4</i>
   <i type="int" name="NBLK">    -1</i>
   <i type="logical" name="LPLANE"> T  </i>
   <i type="logical" name="LSCALAPACK"> T  </i>
   <i type="logical" name="LSCAAWARE"> F  </i>
   <i type="logical" name="LSCALU"> F  </i>
   <i type="logical" name="LASYNC"> F  </i>
   <i type="logical" name="LORBITALREAL"> F  </i>
  </separator>
  <separator name="miscellaneous" >
   <i type="int" name="IDIOT">     3</i>
   <i type="int" name="PHON_NSTRUCT">    -1</i>
   <i type="logical" name="LMUSIC"> F  </i>
   <v name="POMASS">     10.81100000     12.01100000</v>
   <v name="DARWINR">      0.00000000      0.00000000</v>
   <v name="DARWINV">      1.00000000      1.00000000</v>
   <i type="logical" name="LCORR"> T  </i>
  </separator>
  <i type="logical" name="GGA_COMPAT"> T  </i>
  <i type="logical" name="LBERRY"> F  </i>
  <i type="int" name="ICORELEVEL">     0</i>
  <i type="logical" name="LDAU"> F  </i>
  <i type="int" name="I_CONSTRAINED_M">     0</i>
  <separator name="electronic exchange-correlation" >
   <i type="string" name="GGA">PE</i>
   <i type="int" name="VOSKOWN">     0</i>
   <i type="logical" name="LHFCALC"> F  </i>
   <i type="string" name="PRECFOCK"></i>
   <i type="logical" name="LSYMGRAD"> F  </i>
   <i type="logical" name="LHFONE"> F  </i>
   <i type="logical" name="LRHFCALC"> F  </i>
   <i type="logical" name="LTHOMAS"> F  </i>
   <i type="logical" name="LMODELHF"> F  </i>
   <i type="logical" name="LFOCKACE"> F  </i>
   <i name="ENCUT4O">     -1.00000000</i>
   <i type="int" name="EXXOEP">     0</i>
   <i type="int" name="FOURORBIT">     0</i>
   <i name="AEXX">      0.00000000</i>
   <i name="HFALPHA">      0.00000000</i>
   <i name="MCALPHA">      0.00000000</i>
   <i name="ALDAX">      1.00000000</i>
   <i name="AGGAX">      1.00000000</i>
   <i name="ALDAC">      1.00000000</i>
   <i name="AGGAC">      1.00000000</i>
   <i type="int" name="NKREDX">     1</i>
   <i type="int" name="NKREDY">     1</i>
   <i type="int" name="NKREDZ">     1</i>
   <i type="logical" name="SHIFTRED"> F  </i>
   <i type="logical" name="ODDONLY"> F  </i>
   <i type="logical" name="EVENONLY"> F  </i>
   <i type="int" name="LMAXFOCK">     0</i>
   <i type="int" name="NMAXFOCKAE">     0</i>
   <i type="logical" name="LFOCKAEDFT"> F  </i>
   <i name="HFSCREEN">      0.00000000</i>
   <i name="HFSCREENC">      0.00000000</i>
   <i type="int" name="NBANDSGWLOW">     0</i>
  </separator>
  <separator name="vdW DFT" >
   <i type="logical" name="LUSE_VDW"> F  </i>
   <i name="Zab_VDW">     -0.84910000</i>
   <i name="PARAM1">      0.12340000</i>
   <i name="PARAM2">      1.00000000</i>
   <i name="PARAM3">      0.00000000</i>
  </separator>
  <separator name="model GW" >
   <i type="int" name="MODEL_GW">     0</i>
   <i name="MODEL_EPS0">     26.03131984</i>
   <i name="MODEL_ALPHA">      1.00000000</i>
  </separator>
  <separator name="linear response parameters" >
   <i type="logical" name="LEPSILON"> F  </i>
   <i type="logical" name="LRPA"> F  </i>
   <i type="logical" name="LNABLA"> F  </i>
   <i type="logical" name="LVEL"> F  </i>
   <i name="CSHIFT">      0.10000000</i>
   <i name="OMEGAMAX">     -1.00000000</i>
   <i name="DEG_THRESHOLD">      0.00200000</i>
   <i name="RTIME">     -0.10000000</i>
   <i name="WPLASMAI">      0.00000000</i>
   <v name="DFIELD">      0.00000000      0.00000000      0.00000000</v>
   <v name="WPLASMA">      0.00000000      0.00000000      0.00000000      0.00000000      0.00000000      0.00000000      0.00000000      0.00000000      0.00000000</v>
  </separator>
  <separator name="orbital magnetization" >
   <i type="logical" name="NUCIND"> F  </i>
   <v name="MAGPOS">      0.00000000      0.00000000      0.00000000</v>
   <i type="logical" name="LNICSALL"> T  </i>
   <i type="logical" name="ORBITALMAG"> F  </i>
   <i type="logical" name="LMAGBLOCH"> F  </i>
   <i type="logical" name="LCHIMAG"> F  </i>
   <i type="logical" name="LGAUGE"> T  </i>
   <i type="int" name="MAGATOM">     0</i>
   <v name="MAGDIPOL">      0.00000000      0.00000000      0.00000000</v>
   <v name="AVECCONST">      0.00000000      0.00000000      0.00000000</v>
  </separator>
  <separator name="response functions" >
   <i type="logical" name="LFINITE_TEMPERATURE"> F  </i>
   <i type="logical" name="LADDER"> F  </i>
   <i type="logical" name="LRPAFORCE"> F  </i>
   <i type="logical" name="LFXC"> F  </i>
   <i type="logical" name="LHARTREE"> T  </i>
   <i type="int" name="IBSE">     0</i>
   <v type="int" name="KPOINT">    -1     0     0     0</v>
   <i type="logical" name="LTCTC"> F  </i>
   <i type="logical" name="LTCTE"> F  </i>
   <i type="logical" name="LTETE"> F  </i>
   <i type="logical" name="LTRIPLET"> F  </i>
   <i type="logical" name="LFXCEPS"> F  </i>
   <i type="logical" name="LFXHEG"> F  </i>
   <i type="int" name="NATURALO">     2</i>
   <i type="logical" name="LHOLEGF"> F  </i>
   <i type="logical" name="L2ORDER"> F  </i>
   <i type="logical" name="LDMP1"> F  </i>
   <i type="logical" name="LMP2LT"> F  </i>
   <i type="logical" name="LSMP2LT"> F  </i>
   <i type="logical" name="LGWLF"> F  </i>
   <i name="ENCUTGW">     -2.00000000</i>
   <i name="ENCUTGWSOFT">     -2.00000000</i>
   <i name="ENCUTLF">     -1.00000000</i>
   <i type="logical" name="LESF_SPLINES"> F  </i>
   <i type="int" name="LMAXMP2">    -1</i>
   <i name="SCISSOR">      0.00000000</i>
   <i type="int" name="NOMEGA">     0</i>
   <i type="int" name="NOMEGAR">     0</i>
   <i type="int" name="NBANDSGW">    -1</i>
   <i type="int" name="NBANDSO">    -1</i>
   <i type="int" name="NBANDSV">    -1</i>
   <i type="int" name="NELMGW">     1</i>
   <i type="int" name="NELMHF">     1</i>
   <i type="int" name="DIM">     3</i>
   <i type="int" name="IESPILON">     4</i>
   <i type="int" name="ANTIRES">     0</i>
   <i name="OMEGAMAX">    -30.00000000</i>
   <i name="OMEGAMIN">    -30.00000000</i>
   <i name="OMEGATL">   -200.00000000</i>
   <i type="int" name="OMEGAGRID">     0</i>
   <i name="CSHIFT">     -0.10000000</i>
   <i type="logical" name="LSELFENERGY"> F  </i>
   <i type="logical" name="LSPECTRAL"> F  </i>
   <i type="logical" name="LSPECTRALGW"> F  </i>
   <i type="logical" name="LSINGLES"> F  </i>
   <i type="logical" name="LFERMIGW"> F  </i>
   <i type="logical" name="ODDONLYGW"> F  </i>
   <i type="logical" name="EVENONLYGW"> F  </i>
   <i type="int" name="NKREDLFX">     1</i>
   <i type="int" name="NKREDLFY">     1</i>
   <i type="int" name="NKREDLFZ">     1</i>
   <i type="int" name="MAXMEM">  2800</i>
   <i type="int" name="TELESCOPE">     0</i>
   <i type="int" name="NTAUPAR">    -1</i>
   <i type="int" name="NOMEGAPAR">    -1</i>
   <i name="DAMP_NEWTON">      0.80000001</i>
   <i name="LAMBDA">      1.00000000</i>
  </separator>
  <separator name="External order field" >
   <i name="OFIELD_KAPPA">      0.00000000</i>
   <v name="OFIELD_K">      0.00000000      0.00000000      0.00000000</v>
   <i name="OFIELD_Q6_NEAR">      0.00000000</i>
   <i name="OFIELD_Q6_FAR">      0.00000000</i>
   <i name="OFIELD_A">      0.00000000</i>
  </separator>
  <separator name="optional k-points parameters" >
   <i type="int" name="KPOINTS_OPT_MODE">     1</i>
   <i type="logical" name="LKPOINTS_OPT"> F  </i>
  </separator>
  <separator name="solvation model" >
   <i type="logical" name="LSOL"> F  </i>
  </separator>
 </parameters>
 <atominfo>
  <atoms>       8 </atoms>
  <types>       2 </types>
  <array name="atoms" >
   <dimension dim="1">ion</dimension>
   <field type="string">element</field>
   <field type="int">atomtype</field>
   <set>
    <rc><c>B </c><c>   1</c></rc>
    <rc><c>B </c><c>   1</c></rc>
    <rc><c>C </c><c>   2</c></rc>
    <rc><c>C </c><c>   2</c></rc>
    <rc><c>C </c><c>   2</c></rc>
    <rc><c>C </c><c>   2</c></rc>
    <rc><c>C </c><c>   2</c></rc>
    <rc><c>C </c><c>   2</c></rc>
   </set>
  </array>
  <array name="atomtypes" >
   <dimension dim="1">type</dimension>
   <field type="int">atomspertype</field>
   <field type="string">element</field>
   <field>mass</field>
   <field>valence</field>
   <field type="string">pseudopotential</field>
   <set>
    <rc><c>   2</c><c>B </c><c>     10.81100000</c><c>      3.00000000</c><c>  PAW_PBE B 06Sep2000                   </c></rc>
    <rc><c>   6</c><c>C </c><c>     12.01100000</c><c>      4.00000000</c><c>  PAW_PBE C 08Apr2002                   </c></rc>
   </set>
  </array>
 </atominfo>
 <structure name="initialpos" >
  <crystal>
   <varray name="basis" >
    <v>       4.47648500       2.58450000       0.00000000 </v>
    <v>      -4.47648500       2.58450000       0.00000000 </v>
    <v>       0.00000000       0.00000000      15.00000000 </v>
   </varray>
   <i name="volume">    347.08426447 </i>
   <varray name="rec_basis" >
    <v>       0.11169478       0.19346102       0.00000000 </v>
    <v>      -0.11169478       0.19346102       0.00000000 </v>
    <v>       0.00000000       0.00000000       0.06666667 </v>
   </varray>
  </crystal>
  <varray name="positions" >
   <v>       0.33835568       0.66919338       0.25000000 </v>
   <v>       0.67168550       0.33578412       0.25000000 </v>
   <v>       0.16393418       0.32096121       0.25000000 </v>
   <v>       0.32344383       0.16194918       0.25000000 </v>
   <v>       0.16445142       0.84350783       0.25000000 </v>
   <v>       0.84555675       0.16147694       0.25000000 </v>
   <v>       0.68650730       0.84304996       0.25000000 </v>
   <v>       0.84606136       0.68407339       0.25000000 </v>
  </varray>
 </structure>
 <calculation>
  <scstep>
   <time name="dav">    5.06    5.06</time>
   <time name="total">    5.09    5.09</time>
   <energy>
    <i name="alphaZ">     14.61461864 </i>
    <i name="ewald">   2602.09786459 </i>
    <i name="hartreedc">  -3360.46115414 </i>
    <i name="XCdc">     91.16088409 </i>
    <i name="pawpsdc">    738.13200929 </i>
    <i name="pawaedc">   -739.83780425 </i>
    <i name="eentropy">     -0.01505659 </i>
    <i name="bandstr">   -186.54287860 </i>
    <i name="atom">   1025.20389953 </i>
    <i name="e_fr_energy">    184.35238258 </i>
    <i name="e_wo_entrp">    184.36743916 </i>
    <i name="e_0_energy">    184.35991087 </i>
   </energy>
  </scstep>
  <scstep>
   <time name="dav">    7.46    7.46</time>
   <time name="total">    7.46    7.46</time>
   <energy>
    <i name="e_fr_energy">    -56.26270694 </i>
    <i name="e_wo_entrp">    -56.26178579 </i>
    <i name="e_0_energy">    -56.26224637 </i>
   </energy>
  </scstep>
  <scstep>
   <time name="dav">    7.48    7.48</time>
   <time name="total">    7.48    7.48</time>
   <energy>
    <i name="e_fr_energy">    -73.29380246 </i>
    <i name="e_wo_entrp">    -73.29380246 </i>
    <i name="e_0_energy">    -73.29380246 </i>
   </energy>
  </scstep>
  <scstep>
   <time name="dav">    7.55    7.55</time>
   <time name="total">    7.55    7.55</time>
   <energy>
    <i name="e_fr_energy">    -73.43098047 </i>
    <i name="e_wo_entrp">    -73.43098047 </i>
    <i name="e_0_energy">    -73.43098047 </i>
   </energy>
  </scstep>
  <scstep>
   <time name="dav">    7.25    7.25</time>
   <time name="total">    7.57    7.57</time>
   <energy>
    <i name="e_fr_energy">    -73.43126345 </i>
    <i name="e_wo_entrp">    -73.43126345 </i>
    <i name="e_0_energy">    -73.43126345 </i>
   </energy>
  </scstep>
  <scstep>
   <time name="dav">    8.77    8.77</time>
   <time name="total">    9.11    9.11</time>
   <energy>
    <i name="e_fr_energy">    -68.99284887 </i>
    <i name="e_wo_entrp">    -68.99284887 </i>
    <i name="e_0_energy">    -68.99284887 </i>
   </energy>
  </scstep>
  <scstep>
   <time name="dav">    8.76    8.76</time>
   <time name="total">    9.11    9.11</time>
   <energy>
    <i name="e_fr_energy">    -67.33343615 </i>
    <i name="e_wo_entrp">    -67.33343615 </i>
    <i name="e_0_energy">    -67.33343615 </i>
   </energy>
  </scstep>
  <scstep>
   <time name="dav">    7.25    7.25</time>
   <time name="total">    7.58    7.59</time>
   <energy>
    <i name="e_fr_energy">    -67.25036406 </i>
    <i name="e_wo_entrp">    -67.25036404 </i>
    <i name="e_0_energy">    -67.25036405 </i>
   </energy>
  </scstep>
  <scstep>
   <time name="dav">    7.05    7.05</time>
   <time name="total">    7.39    7.39</time>
   <energy>
    <i name="e_fr_energy">    -67.23088959 </i>
    <i name="e_wo_entrp">    -67.23088957 </i>
    <i name="e_0_energy">    -67.23088958 </i>
   </energy>
  </scstep>
  <scstep>
   <time name="dav">    6.33    6.33</time>
   <time name="total">    6.67    6.67</time>
   <energy>
    <i name="e_fr_energy">    -67.22192793 </i>
    <i name="e_wo_entrp">    -67.22192787 </i>
    <i name="e_0_energy">    -67.22192790 </i>
   </energy>
  </scstep>
  <scstep>
   <time name="dav">    6.42    6.42</time>
   <time name="total">    6.76    6.76</time>
   <energy>
    <i name="e_fr_energy">    -67.21961152 </i>
    <i name="e_wo_entrp">    -67.21961142 </i>
    <i name="e_0_energy">    -67.21961147 </i>
   </energy>
  </scstep>
  <scstep>
   <time name="dav">    5.58    5.58</time>
   <time name="total">    5.91    5.91</time>
   <energy>
    <i name="e_fr_energy">    -67.22026814 </i>
    <i name="e_wo_entrp">    -67.22026804 </i>
    <i name="e_0_energy">    -67.22026809 </i>
   </energy>
  </scstep>
  <scstep>
   <time name="dav">    7.36    7.36</time>
   <time name="total">    7.70    7.70</time>
   <energy>
    <i name="e_fr_energy">    -67.22327385 </i>
    <i name="e_wo_entrp">    -67.22327376 </i>
    <i name="e_0_energy">    -67.22327380 </i>
   </energy>
  </scstep>
  <scstep>
   <time name="dav">    6.40    6.40</time>
   <time name="total">    6.73    6.73</time>
   <energy>
    <i name="e_fr_energy">    -67.22484920 </i>
    <i name="e_wo_entrp">    -67.22484911 </i>
    <i name="e_0_energy">    -67.22484916 </i>
   </energy>
  </scstep>
  <scstep>
   <time name="dav">    6.21    6.21</time>
   <time name="total">    6.55    6.55</time>
   <energy>
    <i name="e_fr_energy">    -67.22560875 </i>
    <i name="e_wo_entrp">    -67.22560865 </i>
    <i name="e_0_energy">    -67.22560870 </i>
   </energy>
  </scstep>
  <scstep>
   <time name="dav">    5.74    5.74</time>
   <time name="total">    6.07    6.07</time>
   <energy>
    <i name="e_fr_energy">    -67.22583260 </i>
    <i name="e_wo_entrp">    -67.22583251 </i>
    <i name="e_0_energy">    -67.22583255 </i>
   </energy>
  </scstep>
  <scstep>
   <time name="dav">    5.31    5.31</time>
   <time name="total">    5.65    5.65</time>
   <energy>
    <i name="e_fr_energy">    -67.22590654 </i>
    <i name="e_wo_entrp">    -67.22590645 </i>
    <i name="e_0_energy">    -67.22590650 </i>
   </energy>
  </scstep>
  <scstep>
   <time name="dav">    7.14    7.14</time>
   <time name="total">    7.47    7.47</time>
   <energy>
    <i name="e_fr_energy">    -67.22591133 </i>
    <i name="e_wo_entrp">    -67.22591123 </i>
    <i name="e_0_energy">    -67.22591128 </i>
   </energy>
  </scstep>
  <scstep>
   <time name="dav">    5.22    5.22</time>
   <time name="total">    5.56    5.56</time>
   <energy>
    <i name="e_fr_energy">    -67.22591350 </i>
    <i name="e_wo_entrp">    -67.22591340 </i>
    <i name="e_0_energy">    -67.22591345 </i>
   </energy>
  </scstep>
  <scstep>
   <time name="dav">    6.36    6.36</time>
   <time name="total">    6.38    6.38</time>
   <energy>
    <i name="alphaZ">     14.61461864 </i>
    <i name="ewald">   2602.09786459 </i>
    <i name="hartreedc">  -3497.45759752 </i>
    <i name="XCdc">     96.04099318 </i>
    <i name="pawpsdc">   2899.55988797 </i>
    <i name="pawaedc">  -2902.08985632 </i>
    <i name="eentropy">     -0.00000010 </i>
    <i name="bandstr">   -305.19572373 </i>
    <i name="atom">   1025.20389953 </i>
    <i name="e_fr_energy">    -67.22591376 </i>
    <i name="e_wo_entrp">    -67.22591367 </i>
    <i name="e_0_energy">    -67.22591371 </i>
   </energy>
  </scstep>
  <structure>
   <crystal>
    <varray name="basis" >
     <v>       4.47648500       2.58450000       0.00000000 </v>
     <v>      -4.47648500       2.58450000       0.00000000 </v>
     <v>       0.00000000       0.00000000      15.00000000 </v>
    </varray>
    <i name="volume">    347.08426447 </i>
    <varray name="rec_basis" >
     <v>       0.11169478       0.19346102       0.00000000 </v>
     <v>      -0.11169478       0.19346102       0.00000000 </v>
     <v>       0.00000000       0.00000000       0.06666667 </v>
    </varray>
   </crystal>
   <varray name="positions" >
    <v>       0.33835568       0.66919338       0.25000000 </v>
    <v>       0.67168550       0.33578412       0.25000000 </v>
    <v>       0.16393418       0.32096121       0.25000000 </v>
    <v>       0.32344383       0.16194918       0.25000000 </v>
    <v>       0.16445142       0.84350783       0.25000000 </v>
    <v>       0.84555675       0.16147694       0.25000000 </v>
    <v>       0.68650730       0.84304996       0.25000000 </v>
    <v>       0.84606136       0.68407339       0.25000000 </v>
   </varray>
  </structure>
  <varray name="forces" >
   <v>      -0.00364014      -0.00804744       0.00000000 </v>
   <v>      -0.01138325       0.00494476       0.00000000 </v>
   <v>       0.16623274      -0.21599721      -0.00000000 </v>
   <v>      -0.13191366      -0.23667323      -0.00000000 </v>
   <v>      -0.26697118      -0.00574631       0.00000000 </v>
   <v>       0.25945404       0.00646134       0.00000000 </v>
   <v>       0.14447687       0.24485201       0.00000000 </v>
   <v>      -0.15625541       0.21020608       0.00000000 </v>
  </varray>
  <varray name="stress" >
   <v>      -2.00359452       0.03463507       0.00000000 </v>
   <v>       0.03463508      -1.87927680       0.00000000 </v>
   <v>       0.00000000       0.00000000      -0.87072097 </v>
  </varray>
  <energy>
   <i name="e_fr_energy">    -67.90425033 </i>
   <i name="e_wo_entrp">    -67.90425024 </i>
   <i name="e_0_energy">    -67.90425028 </i>
  </energy>
  <time name="totalsc">  147.12  147.14</time>
 </calculation>
 <calculation>
  <scstep>
   <time name="dav">    4.97    4.97</time>
   <time name="total">    5.31    5.31</time>
   <energy>
    <i name="alphaZ">     14.61461864 </i>
    <i name="ewald">   2606.47008352 </i>
    <i name="hartreedc">  -3500.53889439 </i>
    <i name="XCdc">     96.10941235 </i>
    <i name="pawpsdc">   2899.56345015 </i>
    <i name="pawaedc">  -2902.09341480 </i>
    <i name="eentropy">     -0.00000001 </i>
    <i name="bandstr">   -306.55113693 </i>
    <i name="atom">   1025.20389953 </i>
    <i name="e_fr_energy">    -67.22198194 </i>
    <i name="e_wo_entrp">    -67.22198194 </i>
    <i name="e_0_energy">    -67.22198194 </i>
   </energy>
  </scstep>
  <scstep>
   <time name="dav">    7.88    7.88</time>
   <time name="total">    8.22    8.22</time>
   <energy>
    <i name="e_fr_energy">    -67.21640904 </i>
    <i name="e_wo_entrp">    -67.21640903 </i>
    <i name="e_0_energy">    -67.21640903 </i>
   </energy>
  </scstep>
  <scstep>
   <time name="dav">    6.10    6.10</time>
   <time name="total">    6.43    6.43</time>
   <energy>
    <i name="e_fr_energy">    -67.21563533 </i>
    <i name="e_wo_entrp">    -67.21563531 </i>
    <i name="e_0_energy">    -67.21563532 </i>
   </energy>
  </scstep>
  <scstep>
   <time name="dav">    6.22    6.22</time>
   <time name="total">    6.55    6.55</time>
   <energy>
    <i name="e_fr_energy">    -67.21563149 </i>
    <i name="e_wo_entrp">    -67.21563147 </i>
    <i name="e_0_energy">    -67.21563148 </i>
   </energy>
  </scstep>
  <scstep>
   <time name="dav">    5.13    5.13</time>
   <time name="total">    5.47    5.47</time>
   <energy>
    <i name="e_fr_energy">    -67.21563760 </i>
    <i name="e_wo_entrp">    -67.21563758 </i>
    <i name="e_0_energy">    -67.21563759 </i>
   </energy>
  </scstep>
  <scstep>
   <time name="dav">    5.59    5.59</time>
   <time name="total">    5.93    5.93</time>
   <energy>
    <i name="e_fr_energy">    -67.21563854 </i>
    <i name="e_wo_entrp">    -67.21563852 </i>
    <i name="e_0_energy">    -67.21563853 </i>
   </energy>
  </scstep>
  <scstep>
   <time name="dav">    5.13    5.13</time>
   <time name="total">    5.46    5.46</time>
   <energy>
    <i name="e_fr_energy">    -67.21564049 </i>
    <i name="e_wo_entrp">    -67.21564048 </i>
    <i name="e_0_energy">    -67.21564048 </i>
   </energy>
  </scstep>
  <scstep>
   <time name="dav">    5.48    5.48</time>
   <time name="total">    5.81    5.81</time>
   <energy>
    <i name="e_fr_energy">    -67.21564172 </i>
    <i name="e_wo_entrp">    -67.21564170 </i>
    <i name="e_0_energy">    -67.21564171 </i>
   </energy>
  </scstep>
  <scstep>
   <time name="dav">    5.14    5.14</time>
   <time name="total">    5.47    5.47</time>
   <energy>
    <i name="e_fr_energy">    -67.21564334 </i>
    <i name="e_wo_entrp">    -67.21564332 </i>
    <i name="e_0_energy">    -67.21564333 </i>
   </energy>
  </scstep>
  <scstep>
   <time name="dav">    7.02    7.02</time>
   <time name="total">    7.35    7.35</time>
   <energy>
    <i name="e_fr_energy">    -67.21564436 </i>
    <i name="e_wo_entrp">    -67.21564434 </i>
    <i name="e_0_energy">    -67.21564435 </i>
   </energy>
  </scstep>
  <scstep>
   <time name="dav">    6.74    6.74</time>
   <time name="total">    6.76    6.76</time>
   <energy>
    <i name="alphaZ">     14.61461864 </i>
    <i name="ewald">   2606.47008352 </i>
    <i name="hartreedc">  -3501.87050507 </i>
    <i name="XCdc">     96.16083683 </i>
    <i name="pawpsdc">   2922.31855202 </i>
    <i name="pawaedc">  -2924.85699244 </i>
    <i name="eentropy">     -0.00000002 </i>
    <i name="bandstr">   -305.25613824 </i>
    <i name="atom">   1025.20389953 </i>
    <i name="e_fr_energy">    -67.21564523 </i>
    <i name="e_wo_entrp">    -67.21564522 </i>
    <i name="e_0_energy">    -67.21564522 </i>
   </energy>
  </scstep>
  <structure>
   <crystal>
    <varray name="basis" >
     <v>       4.47648500       2.58450000       0.00000000 </v>
     <v>      -4.47648500       2.58450000       0.00000000 </v>
     <v>       0.00000000       0.00000000      15.00000000 </v>
    </varray>
    <i name="volume">    347.08426447 </i>
    <varray name="rec_basis" >
     <v>       0.11169478       0.19346102       0.00000000 </v>
     <v>      -0.11169478       0.19346102       0.00000000 </v>
     <v>       0.00000000       0.00000000       0.06666667 </v>
    </varray>
   </crystal>
   <varray name="positions" >
    <v>       0.33826096       0.66913789       0.25000000 </v>
    <v>       0.67167031       0.33589161       0.25000000 </v>
    <v>       0.16281400       0.31804955       0.25000000 </v>
    <v>       0.32052413       0.16045110       0.25000000 </v>
    <v>       0.16295922       0.84489276       0.25000000 </v>
    <v>       0.84701511       0.16013919       0.25000000 </v>
    <v>       0.68957103       0.84455667       0.25000000 </v>
    <v>       0.84718125       0.68687723       0.25000000 </v>
   </varray>
  </structure>
  <varray name="forces" >
   <v>       0.01744923       0.02019015       0.00000000 </v>
   <v>       0.00449183      -0.01534634       0.00000000 </v>
   <v>      -0.34195734       0.45029012       0.00000000 </v>
   <v>       0.32742068       0.48439452       0.00000000 </v>
   <v>       0.54084818      -0.03919049       0.00000000 </v>
   <v>      -0.52326192       0.03878588       0.00000000 </v>
   <v>      -0.35068838      -0.50099975       0.00000000 </v>
   <v>       0.32569772      -0.43812408      -0.00000000 </v>
  </varray>
  <varray name="stress" >
   <v>       2.16917473      -0.14189386       0.00000000 </v>
   <v>      -0.14189388       1.65080988       0.00000000 </v>
   <v>       0.00000000       0.00000000      -0.86672174 </v>
  </varray>
  <energy>
   <i name="e_fr_energy">    -67.89298873 </i>
   <i name="e_wo_entrp">    -67.89298871 </i>
   <i name="e_0_energy">    -67.89298872 </i>
  </energy>
  <time name="totalsc">   76.11   76.12</time>
 </calculation>
 <calculation>
  <scstep>
   <time name="dav">    5.01    5.01</time>
   <time name="total">    5.34    5.34</time>
   <energy>
    <i name="alphaZ">     14.61461864 </i>
    <i name="ewald">   2603.47474164 </i>
    <i name="hartreedc">  -3499.74145722 </i>
    <i name="XCdc">     96.11322205 </i>
    <i name="pawpsdc">   2922.33399148 </i>
    <i name="pawaedc">  -2924.87243125 </i>
    <i name="eentropy">     -0.00000013 </i>
    <i name="bandstr">   -304.35914586 </i>
    <i name="atom">   1025.20389953 </i>
    <i name="e_fr_energy">    -67.23256111 </i>
    <i name="e_wo_entrp">    -67.23256098 </i>
    <i name="e_0_energy">    -67.23256105 </i>
   </energy>
  </scstep>
  <scstep>
   <time name="dav">    7.09    7.09</time>
   <time name="total">    7.42    7.42</time>
   <energy>
    <i name="e_fr_energy">    -67.22995345 </i>
    <i name="e_wo_entrp">    -67.22995338 </i>
    <i name="e_0_energy">    -67.22995342 </i>
   </energy>
  </scstep>
  <scstep>
   <time name="dav">    7.61    7.61</time>
   <time name="total">    7.94    7.94</time>
   <energy>
    <i name="e_fr_energy">    -67.22964915 </i>
    <i name="e_wo_entrp">    -67.22964910 </i>
    <i name="e_0_energy">    -67.22964912 </i>
   </energy>
  </scstep>
  <scstep>
   <time name="dav">    5.68    5.68</time>
   <time name="total">    6.02    6.02</time>
   <energy>
    <i name="e_fr_energy">    -67.22964592 </i>
    <i name="e_wo_entrp">    -67.22964586 </i>
    <i name="e_0_energy">    -67.22964589 </i>
   </energy>
  </scstep>
  <scstep>
   <time name="dav">    6.19    6.19</time>
   <time name="total">    6.52    6.52</time>
   <energy>
    <i name="e_fr_energy">    -67.22965109 </i>
    <i name="e_wo_entrp">    -67.22965104 </i>
    <i name="e_0_energy">    -67.22965107 </i>
   </energy>
  </scstep>
  <scstep>
   <time name="dav">    5.54    5.54</time>
   <time name="total">    5.88    5.88</time>
   <energy>
    <i name="e_fr_energy">    -67.22965211 </i>
    <i name="e_wo_entrp">    -67.22965205 </i>
    <i name="e_0_energy">    -67.22965208 </i>
   </energy>
  </scstep>
  <scstep>
   <time name="dav">    5.05    5.05</time>
   <time name="total">    5.39    5.39</time>
   <energy>
    <i name="e_fr_energy">    -67.22965380 </i>
    <i name="e_wo_entrp">    -67.22965374 </i>
    <i name="e_0_energy">    -67.22965377 </i>
   </energy>
  </scstep>
  <scstep>
   <time name="dav">    5.69    5.69</time>
   <time name="total">    5.71    5.71</time>
   <energy>
    <i name="alphaZ">     14.61461864 </i>
    <i name="ewald">   2603.47474164 </i>
    <i name="hartreedc">  -3498.88653268 </i>
    <i name="XCdc">     96.07928228 </i>
    <i name="pawpsdc">   2906.41337773 </i>
    <i name="pawaedc">  -2908.94587807 </i>
    <i name="eentropy">     -0.00000005 </i>
    <i name="bandstr">   -305.18316377 </i>
    <i name="atom">   1025.20389953 </i>
    <i name="e_fr_energy">    -67.22965475 </i>
    <i name="e_wo_entrp">    -67.22965469 </i>
    <i name="e_0_energy">    -67.22965472 </i>
   </energy>
  </scstep>
  <structure>
   <crystal>
    <varray name="basis" >
     <v>       4.47648500       2.58450000       0.00000000 </v>
     <v>      -4.47648500       2.58450000       0.00000000 </v>
     <v>       0.00000000       0.00000000      15.00000000 </v>
    </varray>
    <i name="volume">    347.08426447 </i>
    <varray name="rec_basis" >
     <v>       0.11169478       0.19346102       0.00000000 </v>
     <v>      -0.11169478       0.19346102       0.00000000 </v>
     <v>       0.00000000       0.00000000       0.06666667 </v>
    </varray>
   </crystal>
   <varray name="positions" >
    <v>       0.33832471       0.66917523       0.25000000 </v>
    <v>       0.67168053       0.33581927       0.25000000 </v>
    <v>       0.16356788       0.32000911       0.25000000 </v>
    <v>       0.32248909       0.16145931       0.25000000 </v>
    <v>       0.16396347       0.84396070       0.25000000 </v>
    <v>       0.84603363       0.16103950       0.25000000 </v>
    <v>       0.68750913       0.84354265       0.25000000 </v>
    <v>       0.84642756       0.68499024       0.25000000 </v>
   </varray>
  </structure>
  <varray name="forces" >
   <v>       0.00348005       0.00154517       0.00000000 </v>
   <v>      -0.00606027      -0.00192425      -0.00000000 </v>
   <v>       0.00233273       0.00078716       0.00000000 </v>
   <v>       0.01641804      -0.00249250      -0.00000000 </v>
   <v>      -0.00453899      -0.01607895      -0.00000000 </v>
   <v>       0.00500308       0.01647159      -0.00000000 </v>
   <v>      -0.01561655       0.00217592       0.00000000 </v>
   <v>      -0.00101810      -0.00048413      -0.00000000 </v>
  </varray>
  <varray name="stress" >
   <v>      -0.74990215      -0.02144508       0.00000000 </v>
   <v>      -0.02144509      -0.82102173       0.00000000 </v>
   <v>       0.00000000       0.00000000      -0.88306687 </v>
  </varray>
  <energy>
   <i name="e_fr_energy">    -67.90769155 </i>
   <i name="e_wo_entrp">    -67.90769149 </i>
   <i name="e_0_energy">    -67.90769152 </i>
  </energy>
  <time name="totalsc">   57.53   57.54</time>
 </calculation>
 <calculation>
  <scstep>
   <time name="dav">    6.41    6.41</time>
   <time name="total">    6.74    6.74</time>
   <energy>
    <i name="alphaZ">     14.61461864 </i>
    <i name="ewald">   2603.47383776 </i>
    <i name="hartreedc">  -3498.87496474 </i>
    <i name="XCdc">     96.07914253 </i>
    <i name="pawpsdc">   2906.45688979 </i>
    <i name="pawaedc">  -2908.98939397 </i>
    <i name="eentropy">     -0.00000005 </i>
    <i name="bandstr">   -305.19368511 </i>
    <i name="atom">   1025.20389953 </i>
    <i name="e_fr_energy">    -67.22965563 </i>
    <i name="e_wo_entrp">    -67.22965558 </i>
    <i name="e_0_energy">    -67.22965560 </i>
   </energy>
  </scstep>
  <scstep>
   <time name="dav">    8.10    8.10</time>
   <time name="total">    8.12    8.12</time>
   <energy>
    <i name="alphaZ">     14.61461864 </i>
    <i name="ewald">   2603.47383776 </i>
    <i name="hartreedc">  -3498.87270750 </i>
    <i name="XCdc">     96.07911295 </i>
    <i name="pawpsdc">   2906.45033744 </i>
    <i name="pawaedc">  -2908.98283550 </i>
    <i name="eentropy">     -0.00000005 </i>
    <i name="bandstr">   -305.19591910 </i>
    <i name="atom">   1025.20389953 </i>
    <i name="e_fr_energy">    -67.22965582 </i>
    <i name="e_wo_entrp">    -67.22965577 </i>
    <i name="e_0_energy">    -67.22965579 </i>
   </energy>
  </scstep>
  <structure>
   <crystal>
    <varray name="basis" >
     <v>       4.47648500       2.58450000       0.00000000 </v>
     <v>      -4.47648500       2.58450000       0.00000000 </v>
     <v>       0.00000000       0.00000000      15.00000000 </v>
    </varray>
    <i name="volume">    347.08426447 </i>
    <varray name="rec_basis" >
     <v>       0.11169478       0.19346102       0.00000000 </v>
     <v>      -0.11169478       0.19346102       0.00000000 </v>
     <v>       0.00000000       0.00000000       0.06666667 </v>
    </varray>
   </crystal>
   <varray name="positions" >
    <v>       0.33832473       0.66917525       0.25000000 </v>
    <v>       0.67168054       0.33581924       0.25000000 </v>
    <v>       0.16356812       0.32000972       0.25000000 </v>
    <v>       0.32248971       0.16145963       0.25000000 </v>
    <v>       0.16396379       0.84396040       0.25000000 </v>
    <v>       0.84603332       0.16103978       0.25000000 </v>
    <v>       0.68750849       0.84354233       0.25000000 </v>
    <v>       0.84642732       0.68498964       0.25000000 </v>
   </varray>
  </structure>
  <varray name="forces" >
   <v>       0.00347940       0.00153812      -0.00000000 </v>
   <v>      -0.00607357      -0.00191980      -0.00000000 </v>
   <v>       0.00250475       0.00055641      -0.00000000 </v>
   <v>       0.01626097      -0.00273523       0.00000000 </v>
   <v>      -0.00482317      -0.01607111      -0.00000000 </v>
   <v>       0.00527954       0.01646428      -0.00000000 </v>
   <v>      -0.01544713       0.00242487       0.00000000 </v>
   <v>      -0.00118080      -0.00025754      -0.00000000 </v>
  </varray>
  <varray name="stress" >
   <v>      -0.75009919      -0.02134060       0.00000000 </v>
   <v>      -0.02134062      -0.82093217       0.00000000 </v>
   <v>       0.00000000       0.00000000      -0.87522657 </v>
  </varray>
  <energy>
   <i name="e_fr_energy">    -67.90769282 </i>
   <i name="e_wo_entrp">    -67.90769277 </i>
   <i name="e_0_energy">    -67.90769280 </i>
  </energy>
  <time name="totalsc">   22.21   22.22</time>
 </calculation>
 <calculation>
  <scstep>
   <time name="dav">    5.02    5.02</time>
   <time name="total">    5.35    5.35</time>
   <energy>
    <i name="alphaZ">     14.61461864 </i>
    <i name="ewald">   2603.48205969 </i>
    <i name="hartreedc">  -3498.87503621 </i>
    <i name="XCdc">     96.07921331 </i>
    <i name="pawpsdc">   2906.44225871 </i>
    <i name="pawaedc">  -2908.97475232 </i>
    <i name="eentropy">     -0.00000006 </i>
    <i name="bandstr">   -305.20192099 </i>
    <i name="atom">   1025.20389953 </i>
    <i name="e_fr_energy">    -67.22965970 </i>
    <i name="e_wo_entrp">    -67.22965964 </i>
    <i name="e_0_energy">    -67.22965967 </i>
   </energy>
  </scstep>
  <scstep>
   <time name="dav">    5.58    5.58</time>
   <time name="total">    5.91    5.91</time>
   <energy>
    <i name="e_fr_energy">    -67.22966286 </i>
    <i name="e_wo_entrp">    -67.22966280 </i>
    <i name="e_0_energy">    -67.22966283 </i>
   </energy>
  </scstep>
  <scstep>
   <time name="dav">    5.52    5.52</time>
   <time name="total">    5.54    5.54</time>
   <energy>
    <i name="alphaZ">     14.61461864 </i>
    <i name="ewald">   2603.48205969 </i>
    <i name="hartreedc">  -3498.87441614 </i>
    <i name="XCdc">     96.07929783 </i>
    <i name="pawpsdc">   2906.45382021 </i>
    <i name="pawaedc">  -2908.98633587 </i>
    <i name="eentropy">     -0.00000006 </i>
    <i name="bandstr">   -305.20260633 </i>
    <i name="atom">   1025.20389953 </i>
    <i name="e_fr_energy">    -67.22966249 </i>
    <i name="e_wo_entrp">    -67.22966243 </i>
    <i name="e_0_energy">    -67.22966246 </i>
   </energy>
  </scstep>
  <structure>
   <crystal>
    <varray name="basis" >
     <v>       4.47648500       2.58450000       0.00000000 </v>
     <v>      -4.47648500       2.58450000       0.00000000 </v>
     <v>       0.00000000       0.00000000      15.00000000 </v>
    </varray>
    <i name="volume">    347.08426447 </i>
    <varray name="rec_basis" >
     <v>       0.11169478       0.19346102       0.00000000 </v>
     <v>      -0.11169478       0.19346102       0.00000000 </v>
     <v>       0.00000000       0.00000000       0.06666667 </v>
    </varray>
   </crystal>
   <varray name="positions" >
    <v>       0.33835319       0.66917134       0.25000000 </v>
    <v>       0.67163668       0.33583227       0.25000000 </v>
    <v>       0.16358212       0.31999688       0.25000000 </v>
    <v>       0.32253777       0.16135880       0.25000000 </v>
    <v>       0.16380860       0.84385579       0.25000000 </v>
    <v>       0.84619374       0.16114554       0.25000000 </v>
    <v>       0.68746199       0.84363687       0.25000000 </v>
    <v>       0.84642191       0.68499851       0.25000000 </v>
   </varray>
  </structure>
  <varray name="forces" >
   <v>      -0.00910596      -0.00615082       0.00000000 </v>
   <v>       0.01218242       0.00656125      -0.00000000 </v>
   <v>       0.02937242       0.01991866      -0.00000000 </v>
   <v>      -0.01475604      -0.01102616      -0.00000000 </v>
   <v>       0.01938223       0.01068215      -0.00000000 </v>
   <v>      -0.01973807      -0.01131159       0.00000000 </v>
   <v>       0.01395158       0.01153981       0.00000000 </v>
   <v>      -0.03128859      -0.02021330       0.00000000 </v>
  </varray>
  <varray name="stress" >
   <v>      -0.86947296       0.06280244       0.00000000 </v>
   <v>       0.06280244      -0.68722273       0.00000000 </v>
   <v>       0.00000000       0.00000000      -0.87263621 </v>
  </varray>
  <energy>
   <i name="e_fr_energy">    -67.90769777 </i>
   <i name="e_wo_entrp">    -67.90769772 </i>
   <i name="e_0_energy">    -67.90769774 </i>
  </energy>
  <time name="totalsc">   24.16   24.16</time>
 </calculation>
 <calculation>
  <scstep>
   <time name="dav">    4.96    4.96</time>
   <time name="total">    5.30    5.30</time>
   <energy>
    <i name="alphaZ">     14.61461864 </i>
    <i name="ewald">   2603.47833249 </i>
    <i name="hartreedc">  -3498.86994604 </i>
    <i name="XCdc">     96.07921873 </i>
    <i name="pawpsdc">   2906.47238093 </i>
    <i name="pawaedc">  -2909.00489484 </i>
    <i name="eentropy">     -0.00000005 </i>
    <i name="bandstr">   -305.20327957 </i>
    <i name="atom">   1025.20389953 </i>
    <i name="e_fr_energy">    -67.22967018 </i>
    <i name="e_wo_entrp">    -67.22967012 </i>
    <i name="e_0_energy">    -67.22967015 </i>
   </energy>
  </scstep>
  <scstep>
   <time name="dav">    5.69    5.69</time>
   <time name="total">    6.02    6.02</time>
   <energy>
    <i name="e_fr_energy">    -67.22967092 </i>
    <i name="e_wo_entrp">    -67.22967086 </i>
    <i name="e_0_energy">    -67.22967089 </i>
   </energy>
  </scstep>
  <scstep>
   <time name="dav">    5.50    5.50</time>
   <time name="total">    5.52    5.52</time>
   <energy>
    <i name="alphaZ">     14.61461864 </i>
    <i name="ewald">   2603.47833249 </i>
    <i name="hartreedc">  -3498.86715119 </i>
    <i name="XCdc">     96.07916003 </i>
    <i name="pawpsdc">   2906.47473133 </i>
    <i name="pawaedc">  -2909.00723469 </i>
    <i name="eentropy">     -0.00000005 </i>
    <i name="bandstr">   -305.20602691 </i>
    <i name="atom">   1025.20389953 </i>
    <i name="e_fr_energy">    -67.22967084 </i>
    <i name="e_wo_entrp">    -67.22967078 </i>
    <i name="e_0_energy">    -67.22967081 </i>
   </energy>
  </scstep>
  <structure>
   <crystal>
    <varray name="basis" >
     <v>       4.47648500       2.58450000       0.00000000 </v>
     <v>      -4.47648500       2.58450000       0.00000000 </v>
     <v>       0.00000000       0.00000000      15.00000000 </v>
    </varray>
    <i name="volume">    347.08426447 </i>
    <varray name="rec_basis" >
     <v>       0.11169478       0.19346102       0.00000000 </v>
     <v>      -0.11169478       0.19346102       0.00000000 </v>
     <v>       0.00000000       0.00000000       0.06666667 </v>
    </varray>
   </crystal>
   <varray name="positions" >
    <v>       0.33834035       0.66917310       0.25000000 </v>
    <v>       0.67165646       0.33582639       0.25000000 </v>
    <v>       0.16357580       0.32000267       0.25000000 </v>
    <v>       0.32251609       0.16140428       0.25000000 </v>
    <v>       0.16387860       0.84390297       0.25000000 </v>
    <v>       0.84612138       0.16109784       0.25000000 </v>
    <v>       0.68748296       0.84359423       0.25000000 </v>
    <v>       0.84642435       0.68499451       0.25000000 </v>
   </varray>
  </structure>
  <varray name="forces" >
   <v>      -0.00374956      -0.00289487       0.00000000 </v>
   <v>       0.00427362       0.00293434       0.00000000 </v>
   <v>       0.01726961       0.01115295      -0.00000000 </v>
   <v>      -0.00084727      -0.00752303      -0.00000000 </v>
   <v>       0.00850919      -0.00146239       0.00000000 </v>
   <v>      -0.00856762       0.00126680       0.00000000 </v>
   <v>       0.00075351       0.00761968      -0.00000000 </v>
   <v>      -0.01764147      -0.01109348       0.00000000 </v>
  </varray>
  <varray name="stress" >
   <v>      -0.82992010       0.03400940       0.00000000 </v>
   <v>       0.03400937      -0.73295602       0.00000000 </v>
   <v>       0.00000000       0.00000000      -0.87060207 </v>
  </varray>
  <energy>
   <i name="e_fr_energy">    -67.90770689 </i>
   <i name="e_wo_entrp">    -67.90770684 </i>
   <i name="e_0_energy">    -67.90770687 </i>
  </energy>
  <time name="totalsc">   24.19   24.19</time>
 </calculation>
 <calculation>
  <scstep>
   <time name="dav">    4.95    4.95</time>
   <time name="total">    5.28    5.28</time>
   <energy>
    <i name="alphaZ">     14.61461864 </i>
    <i name="ewald">   2603.47692354 </i>
    <i name="hartreedc">  -3498.86510264 </i>
    <i name="XCdc">     96.07913605 </i>
    <i name="pawpsdc">   2906.46927507 </i>
    <i name="pawaedc">  -2909.00177962 </i>
    <i name="eentropy">     -0.00000005 </i>
    <i name="bandstr">   -305.20665650 </i>
    <i name="atom">   1025.20389953 </i>
    <i name="e_fr_energy">    -67.22968599 </i>
    <i name="e_wo_entrp">    -67.22968593 </i>
    <i name="e_0_energy">    -67.22968596 </i>
   </energy>
  </scstep>
  <scstep>
   <time name="dav">    5.12    5.12</time>
   <time name="total">    5.45    5.45</time>
   <energy>
    <i name="e_fr_energy">    -67.22968714 </i>
    <i name="e_wo_entrp">    -67.22968708 </i>
    <i name="e_0_energy">    -67.22968711 </i>
   </energy>
  </scstep>
  <scstep>
   <time name="dav">    4.95    4.95</time>
   <time name="total">    4.97    4.97</time>
   <energy>
    <i name="alphaZ">     14.61461864 </i>
    <i name="ewald">   2603.47692354 </i>
    <i name="hartreedc">  -3498.86352754 </i>
    <i name="XCdc">     96.07911145 </i>
    <i name="pawpsdc">   2906.46290181 </i>
    <i name="pawaedc">  -2908.99540385 </i>
    <i name="eentropy">     -0.00000005 </i>
    <i name="bandstr">   -305.20821080 </i>
    <i name="atom">   1025.20389953 </i>
    <i name="e_fr_energy">    -67.22968728 </i>
    <i name="e_wo_entrp">    -67.22968723 </i>
    <i name="e_0_energy">    -67.22968726 </i>
   </energy>
  </scstep>
  <structure>
   <crystal>
    <varray name="basis" >
     <v>       4.47648500       2.58450000       0.00000000 </v>
     <v>      -4.47648500       2.58450000       0.00000000 </v>
     <v>       0.00000000       0.00000000      15.00000000 </v>
    </varray>
    <i name="volume">    347.08426447 </i>
    <varray name="rec_basis" >
     <v>       0.11169478       0.19346102       0.00000000 </v>
     <v>      -0.11169478       0.19346102       0.00000000 </v>
     <v>       0.00000000       0.00000000       0.06666667 </v>
    </varray>
   </crystal>
   <varray name="positions" >
    <v>       0.33833496       0.66916868       0.25000000 </v>
    <v>       0.67165609       0.33583401       0.25000000 </v>
    <v>       0.16365866       0.32000112       0.25000000 </v>
    <v>       0.32250893       0.16133298       0.25000000 </v>
    <v>       0.16382055       0.84383233       0.25000000 </v>
    <v>       0.84618098       0.16116841       0.25000000 </v>
    <v>       0.68749100       0.84366322       0.25000000 </v>
    <v>       0.84634483       0.68499526       0.25000000 </v>
   </varray>
  </structure>
  <varray name="forces" >
   <v>      -0.00157256      -0.00113377       0.00000000 </v>
   <v>       0.00417259       0.00150672       0.00000000 </v>
   <v>       0.00838205       0.00551827      -0.00000000 </v>
   <v>      -0.00042656      -0.00404016      -0.00000000 </v>
   <v>       0.00476766      -0.00088119       0.00000000 </v>
   <v>      -0.00513042       0.00048456       0.00000000 </v>
   <v>      -0.00037425       0.00439735      -0.00000000 </v>
   <v>      -0.00981851      -0.00585178       0.00000000 </v>
  </varray>
  <varray name="stress" >
   <v>      -0.80494189       0.01632464       0.00000000 </v>
   <v>       0.01632464      -0.76035581       0.00000000 </v>
   <v>       0.00000000       0.00000000      -0.87000213 </v>
  </varray>
  <energy>
   <i name="e_fr_energy">    -67.90772370 </i>
   <i name="e_wo_entrp">    -67.90772365 </i>
   <i name="e_0_energy">    -67.90772368 </i>
  </energy>
  <time name="totalsc">   23.01   23.01</time>
 </calculation>
 <calculation>
  <scstep>
   <time name="dav">    4.92    4.92</time>
   <time name="total">    5.26    5.26</time>
   <energy>
    <i name="alphaZ">     14.61461864 </i>
    <i name="ewald">   2603.47526341 </i>
    <i name="hartreedc">  -3498.86167794 </i>
    <i name="XCdc">     96.07908295 </i>
    <i name="pawpsdc">   2906.45978288 </i>
    <i name="pawaedc">  -2908.99228571 </i>
    <i name="eentropy">     -0.00000005 </i>
    <i name="bandstr">   -305.20837570 </i>
    <i name="atom">   1025.20389953 </i>
    <i name="e_fr_energy">    -67.22969200 </i>
    <i name="e_wo_entrp">    -67.22969195 </i>
    <i name="e_0_energy">    -67.22969197 </i>
   </energy>
  </scstep>
  <scstep>
   <time name="dav">    5.09    5.09</time>
   <time name="total">    5.42    5.42</time>
   <energy>
    <i name="e_fr_energy">    -67.22969345 </i>
    <i name="e_wo_entrp">    -67.22969339 </i>
    <i name="e_0_energy">    -67.22969342 </i>
   </energy>
  </scstep>
  <scstep>
   <time name="dav">    4.96    4.96</time>
   <time name="total">    4.97    4.97</time>
   <energy>
    <i name="alphaZ">     14.61461864 </i>
    <i name="ewald">   2603.47526341 </i>
    <i name="hartreedc">  -3498.86052205 </i>
    <i name="XCdc">     96.07905921 </i>
    <i name="pawpsdc">   2906.45512387 </i>
    <i name="pawaedc">  -2908.98762333 </i>
    <i name="eentropy">     -0.00000005 </i>
    <i name="bandstr">   -305.20951286 </i>
    <i name="atom">   1025.20389953 </i>
    <i name="e_fr_energy">    -67.22969365 </i>
    <i name="e_wo_entrp">    -67.22969359 </i>
    <i name="e_0_energy">    -67.22969362 </i>
   </energy>
  </scstep>
  <structure>
   <crystal>
    <varray name="basis" >
     <v>       4.47648500       2.58450000       0.00000000 </v>
     <v>      -4.47648500       2.58450000       0.00000000 </v>
     <v>       0.00000000       0.00000000      15.00000000 </v>
    </varray>
    <i name="volume">    347.08426447 </i>
    <varray name="rec_basis" >
     <v>       0.11169478       0.19346102       0.00000000 </v>
     <v>      -0.11169478       0.19346102       0.00000000 </v>
     <v>       0.00000000       0.00000000       0.06666667 </v>
    </varray>
   </crystal>
   <varray name="positions" >
    <v>       0.33832887       0.66916367       0.25000000 </v>
    <v>       0.67165567       0.33584263       0.25000000 </v>
    <v>       0.16375251       0.31999936       0.25000000 </v>
    <v>       0.32250081       0.16125222       0.25000000 </v>
    <v>       0.16375481       0.84375232       0.25000000 </v>
    <v>       0.84624847       0.16124834       0.25000000 </v>
    <v>       0.68750010       0.84374136       0.25000000 </v>
    <v>       0.84625477       0.68499610       0.25000000 </v>
   </varray>
  </structure>
  <varray name="forces" >
   <v>       0.00075698       0.00076946      -0.00000000 </v>
   <v>       0.00419375      -0.00001647      -0.00000000 </v>
   <v>      -0.00156199      -0.00077560      -0.00000000 </v>
   <v>      -0.00000178      -0.00019479       0.00000000 </v>
   <v>       0.00054947      -0.00022803      -0.00000000 </v>
   <v>      -0.00131594      -0.00041690      -0.00000000 </v>
   <v>      -0.00160282       0.00080394       0.00000000 </v>
   <v>      -0.00101768       0.00005839      -0.00000000 </v>
  </varray>
  <varray name="stress" >
   <v>      -0.78423894       0.00086826       0.00000000 </v>
   <v>       0.00086826      -0.78393134       0.00000000 </v>
   <v>       0.00000000       0.00000000      -0.86964664 </v>
  </varray>
  <energy>
   <i name="e_fr_energy">    -67.90773046 </i>
   <i name="e_wo_entrp">    -67.90773040 </i>
   <i name="e_0_energy">    -67.90773043 </i>
  </energy>
  <time name="totalsc">   23.01   23.02</time>
 </calculation>
 <calculation>
  <scstep>
   <time name="dav">    5.02    5.02</time>
   <time name="total">    5.35    5.35</time>
   <energy>
    <i name="alphaZ">     14.61461864 </i>
    <i name="ewald">   2603.47353368 </i>
    <i name="hartreedc">  -3498.85891124 </i>
    <i name="XCdc">     96.07903100 </i>
    <i name="pawpsdc">   2906.45222688 </i>
    <i name="pawaedc">  -2908.98472706 </i>
    <i name="eentropy">     -0.00000005 </i>
    <i name="bandstr">   -305.20936495 </i>
    <i name="atom">   1025.20389953 </i>
    <i name="e_fr_energy">    -67.22969358 </i>
    <i name="e_wo_entrp">    -67.22969353 </i>
    <i name="e_0_energy">    -67.22969356 </i>
   </energy>
  </scstep>
  <scstep>
   <time name="dav">    8.12    8.12</time>
   <time name="total">    8.14    8.14</time>
   <energy>
    <i name="alphaZ">     14.61461864 </i>
    <i name="ewald">   2603.47353368 </i>
    <i name="hartreedc">  -3498.85851285 </i>
    <i name="XCdc">     96.07902113 </i>
    <i name="pawpsdc">   2906.45032848 </i>
    <i name="pawaedc">  -2908.98283027 </i>
    <i name="eentropy">     -0.00000005 </i>
    <i name="bandstr">   -305.20975185 </i>
    <i name="atom">   1025.20389953 </i>
    <i name="e_fr_energy">    -67.22969357 </i>
    <i name="e_wo_entrp">    -67.22969352 </i>
    <i name="e_0_energy">    -67.22969354 </i>
   </energy>
  </scstep>
  <structure>
   <crystal>
    <varray name="basis" >
     <v>       4.47648500       2.58450000       0.00000000 </v>
     <v>      -4.47648500       2.58450000       0.00000000 </v>
     <v>       0.00000000       0.00000000      15.00000000 </v>
    </varray>
    <i name="volume">    347.08426447 </i>
    <varray name="rec_basis" >
     <v>       0.11169478       0.19346102       0.00000000 </v>
     <v>      -0.11169478       0.19346102       0.00000000 </v>
     <v>       0.00000000       0.00000000       0.06666667 </v>
    </varray>
   </crystal>
   <varray name="positions" >
    <v>       0.33833416       0.66916509       0.25000000 </v>
    <v>       0.67166634       0.33583189       0.25000000 </v>
    <v>       0.16374607       0.31999990       0.25000000 </v>
    <v>       0.32249985       0.16125049       0.25000000 </v>
    <v>       0.16375450       0.84374903       0.25000000 </v>
    <v>       0.84624398       0.16125073       0.25000000 </v>
    <v>       0.68749965       0.84374989       0.25000000 </v>
    <v>       0.84625145       0.68499898       0.25000000 </v>
   </varray>
  </structure>
  <varray name="forces" >
   <v>       0.00000339      -0.00003078       0.00000000 </v>
   <v>      -0.00070009      -0.00004265       0.00000000 </v>
   <v>       0.00030517       0.00031953      -0.00000000 </v>
   <v>       0.00007946       0.00001905       0.00000000 </v>
   <v>      -0.00062991      -0.00007777      -0.00000000 </v>
   <v>       0.00058059       0.00032904       0.00000000 </v>
   <v>       0.00002351      -0.00033478      -0.00000000 </v>
   <v>       0.00033787      -0.00018164       0.00000000 </v>
  </varray>
  <varray name="stress" >
   <v>      -0.78661724      -0.00118639       0.00000000 </v>
   <v>      -0.00118639      -0.78540599       0.00000000 </v>
   <v>       0.00000000       0.00000000      -0.87097270 </v>
  </varray>
  <energy>
   <i name="e_fr_energy">    -67.90773076 </i>
   <i name="e_wo_entrp">    -67.90773071 </i>
   <i name="e_0_energy">    -67.90773074 </i>
  </energy>
  <time name="totalsc">   20.40   20.41</time>
  <eigenvalues>
   <array>
    <dimension dim="1">band</dimension>
    <dimension dim="2">kpoint</dimension>
    <dimension dim="3">spin</dimension>
    <field>eigene</field>
    <field>occ</field>
    <set>
     <set comment="spin 1">
      <set comment="kpoint 1">
       <r>  -19.8848    1.0000 </r>
       <r>  -15.9832    1.0000 </r>
       <r>  -15.9830    1.0000 </r>
       <r>  -13.6418    1.0000 </r>
       <r>  -13.6418    1.0000 </r>
       <r>  -12.5733    1.0000 </r>
       <r>  -11.2501    1.0000 </r>
       <r>   -8.6887    1.0000 </r>
       <r>   -8.4566    1.0000 </r>
       <r>   -6.3044    1.0000 </r>
       <r>   -6.3042    1.0000 </r>
       <r>   -4.4807    1.0000 </r>
       <r>   -4.4807    1.0000 </r>
       <r>   -3.7920    1.0000 </r>
       <r>   -3.7918    1.0000 </r>
       <r>   -1.9639    0.0000 </r>
       <r>   -0.2278    0.0000 </r>
       <r>   -0.2278    0.0000 </r>
       <r>    0.4318    0.0000 </r>
       <r>    0.8414    0.0000 </r>
       <r>    1.8443    0.0000 </r>
       <r>    2.2685    0.0000 </r>
       <r>    4.2342    0.0000 </r>
       <r>    4.8572    0.0000 </r>
      </set>
      <set comment="kpoint 2">
       <r>  -19.8739    1.0000 </r>
       <r>  -16.0381    1.0000 </r>
       <r>  -16.0008    1.0000 </r>
       <r>  -13.6568    1.0000 </r>
       <r>  -13.6017    1.0000 </r>
       <r>  -12.5193    1.0000 </r>
       <r>  -11.1847    1.0000 </r>
       <r>   -8.6722    1.0000 </r>
       <r>   -8.4793    1.0000 </r>
       <r>   -6.3540    1.0000 </r>
       <r>   -6.3140    1.0000 </r>
       <r>   -4.5312    1.0000 </r>
       <r>   -4.4892    1.0000 </r>
       <r>   -3.8493    1.0000 </r>
       <r>   -3.8198    1.0000 </r>
       <r>   -2.0562    0.0000 </r>
       <r>   -0.2038    0.0000 </r>
       <r>   -0.0899    0.0000 </r>
       <r>    0.4780    0.0000 </r>
       <r>    0.8620    0.0000 </r>
       <r>    1.8667    0.0000 </r>
       <r>    2.2893    0.0000 </r>
       <r>    4.2547    0.0000 </r>
       <r>    4.8793    0.0000 </r>
      </set>
      <set comment="kpoint 3">
       <r>  -19.8739    1.0000 </r>
       <r>  -16.0380    1.0000 </r>
       <r>  -16.0008    1.0000 </r>
       <r>  -13.6568    1.0000 </r>
       <r>  -13.6016    1.0000 </r>
       <r>  -12.5193    1.0000 </r>
       <r>  -11.1847    1.0000 </r>
       <r>   -8.6722    1.0000 </r>
       <r>   -8.4793    1.0000 </r>
       <r>   -6.3540    1.0000 </r>
       <r>   -6.3140    1.0000 </r>
       <r>   -4.5312    1.0000 </r>
       <r>   -4.4892    1.0000 </r>
       <r>   -3.8493    1.0000 </r>
       <r>   -3.8198    1.0000 </r>
       <r>   -2.0562    0.0000 </r>
[...]
       <r>  -17.1135    1.0000 </r>
       <r>  -13.1596    1.0000 </r>
       <r>  -12.5859    1.0000 </r>
       <r>  -10.8052    1.0000 </r>
       <r>   -8.7476    1.0000 </r>
       <r>   -8.3693    1.0000 </r>
       <r>   -7.8083    1.0000 </r>
       <r>   -7.4150    1.0000 </r>
       <r>   -7.2435    1.0000 </r>
       <r>   -6.4170    1.0000 </r>
       <r>   -6.3353    1.0000 </r>
       <r>   -5.9066    1.0000 </r>
       <r>   -5.8871    1.0000 </r>
       <r>   -1.8057    0.0000 </r>
       <r>   -0.9369    0.0000 </r>
       <r>    3.0564    0.0000 </r>
       <r>    3.0710    0.0000 </r>
       <r>    3.4987    0.0000 </r>
       <r>    3.8301    0.0000 </r>
       <r>    3.8657    0.0000 </r>
       <r>    4.1030    0.0000 </r>
       <r>    4.5184    0.0000 </r>
      </set>
      <set comment="kpoint 179">
       <r>  -19.2193    1.0000 </r>
       <r>  -17.3407    1.0000 </r>
       <r>  -17.2141    1.0000 </r>
       <r>  -12.9675    1.0000 </r>
       <r>  -12.7413    1.0000 </r>
       <r>  -10.8671    1.0000 </r>
       <r>   -8.5851    1.0000 </r>
       <r>   -8.2553    1.0000 </r>
       <r>   -7.9831    1.0000 </r>
       <r>   -7.3911    1.0000 </r>
       <r>   -7.2330    1.0000 </r>
       <r>   -6.3347    1.0000 </r>
       <r>   -6.2323    1.0000 </r>
       <r>   -6.0870    1.0000 </r>
       <r>   -6.0515    1.0000 </r>
       <r>   -1.5711    0.0000 </r>
       <r>   -1.1729    0.0000 </r>
       <r>    3.0435    0.0000 </r>
       <r>    3.4180    0.0000 </r>
       <r>    3.4374    0.0000 </r>
       <r>    3.7056    0.0000 </r>
       <r>    4.0353    0.0000 </r>
       <r>    4.1252    0.0000 </r>
       <r>    4.3390    0.0000 </r>
      </set>
      <set comment="kpoint 180">
       <r>  -19.2193    1.0000 </r>
       <r>  -17.3408    1.0000 </r>
       <r>  -17.2140    1.0000 </r>
       <r>  -12.9675    1.0000 </r>
       <r>  -12.7412    1.0000 </r>
       <r>  -10.8671    1.0000 </r>
       <r>   -8.5852    1.0000 </r>
       <r>   -8.2552    1.0000 </r>
       <r>   -7.9831    1.0000 </r>
       <r>   -7.3911    1.0000 </r>
       <r>   -7.2330    1.0000 </r>
       <r>   -6.3347    1.0000 </r>
       <r>   -6.2324    1.0000 </r>
       <r>   -6.0869    1.0000 </r>
       <r>   -6.0514    1.0000 </r>
       <r>   -1.5712    0.0000 </r>
       <r>   -1.1728    0.0000 </r>
       <r>    3.0435    0.0000 </r>
       <r>    3.4180    0.0000 </r>
       <r>    3.4374    0.0000 </r>
       <r>    3.7056    0.0000 </r>
       <r>    4.0353    0.0000 </r>
       <r>    4.1252    0.0000 </r>
       <r>    4.3390    0.0000 </r>
      </set>
      <set comment="kpoint 181">
       <r>  -19.2193    1.0000 </r>
       <r>  -17.3409    1.0000 </r>
       <r>  -17.2139    1.0000 </r>
       <r>  -12.9675    1.0000 </r>
       <r>  -12.7412    1.0000 </r>
       <r>  -10.8671    1.0000 </r>
       <r>   -8.5852    1.0000 </r>
       <r>   -8.2551    1.0000 </r>
       <r>   -7.9831    1.0000 </r>
       <r>   -7.3911    1.0000 </r>
       <r>   -7.2330    1.0000 </r>
       <r>   -6.3347    1.0000 </r>
       <r>   -6.2324    1.0000 </r>
       <r>   -6.0869    1.0000 </r>
       <r>   -6.0514    1.0000 </r>
       <r>   -1.5712    0.0000 </r>
       <r>   -1.1728    0.0000 </r>
       <r>    3.0435    0.0000 </r>
       <r>    3.4180    0.0000 </r>
       <r>    3.4374    0.0000 </r>
       <r>    3.7056    0.0000 </r>
       <r>    4.0353    0.0000 </r>
       <r>    4.1252    0.0000 </r>
       <r>    4.3390    0.0000 </r>
      </set>
     </set>
    </set>
   </array>
  </eigenvalues>
  <separator name="orbital magnetization" >
   <v name="MAGDIPOLOUT">      0.00000000      0.00000000      0.00000000</v>
  </separator>
  <dos>
   <i name="efermi">     -3.47887317 </i>
   <total>
    <array>
     <dimension dim="1">gridpoints</dimension>
     <dimension dim="2">spin</dimension>
     <field>energy</field>
     <field>total</field>
     <field>integrated</field>
     <set>
      <set comment="spin 1">
       <r>   -21.1416     0.0000     0.0000 </r>
       <r>   -21.0494     0.0000     0.0000 </r>
       <r>   -20.9572     0.0000     0.0000 </r>
       <r>   -20.8651     0.0000     0.0000 </r>
       <r>   -20.7729     0.0000     0.0000 </r>
       <r>   -20.6807     0.0000     0.0000 </r>
       <r>   -20.5886     0.0000     0.0000 </r>
       <r>   -20.4964     0.0000     0.0000 </r>
       <r>   -20.4042     0.0000     0.0000 </r>
       <r>   -20.3121     0.0000     0.0000 </r>
       <r>   -20.2199     0.0000     0.0000 </r>
       <r>   -20.1277     0.0001     0.0000 </r>
       <r>   -20.0356     0.0083     0.0008 </r>
       <r>   -19.9434     0.1553     0.0151 </r>
       <r>   -19.8513     0.8224     0.0909 </r>
       <r>   -19.7591     1.6624     0.2441 </r>
       <r>   -19.6669     2.0348     0.4316 </r>
       <r>   -19.5748     2.2505     0.6391 </r>
       <r>   -19.4826     2.6027     0.8789 </r>
       <r>   -19.3904     3.3799     1.1904 </r>
       <r>   -19.2983     4.3343     1.5899 </r>
       <r>   -19.2061     3.3221     1.8961 </r>
       <r>   -19.1139     1.0235     1.9904 </r>
       <r>   -19.0218     0.1013     1.9998 </r>
       <r>   -18.9296     0.0027     2.0000 </r>
       <r>   -18.8374     0.0000     2.0000 </r>
       <r>   -18.7453     0.0000     2.0000 </r>
       <r>   -18.6531     0.0000     2.0000 </r>
       <r>   -18.5610     0.0000     2.0000 </r>
       <r>   -18.4688     0.0000     2.0000 </r>
       <r>   -18.3766     0.0000     2.0000 </r>
       <r>   -18.2845     0.0000     2.0000 </r>
       <r>   -18.1923     0.0000     2.0000 </r>
       <r>   -18.1001     0.0000     2.0000 </r>
       <r>   -18.0080     0.0000     2.0000 </r>
       <r>   -17.9158     0.0000     2.0000 </r>
       <r>   -17.8236     0.0010     2.0001 </r>
       <r>   -17.7315     0.0431     2.0041 </r>
       <r>   -17.6393     0.4893     2.0492 </r>
       <r>   -17.5471     1.7504     2.2105 </r>
       <r>   -17.4550     2.8905     2.4769 </r>
       <r>   -17.3628     3.2317     2.7747 </r>
       <r>   -17.2707     2.5967     3.0141 </r>
       <r>   -17.1785     1.9478     3.1936 </r>
       <r>   -17.0863     1.8508     3.3642 </r>
       <r>   -16.9942     1.8821     3.5376 </r>
       <r>   -16.9020     2.0024     3.7222 </r>
       <r>   -16.8098     2.0647     3.9124 </r>
       <r>   -16.7177     2.2640     4.1211 </r>
       <r>   -16.6255     2.4863     4.3503 </r>
       <r>   -16.5333     2.9737     4.6243 </r>
       <r>   -16.4412     3.5598     4.9524 </r>
       <r>   -16.3490     3.3092     5.2574 </r>
       <r>   -16.2568     2.6018     5.4972 </r>
       <r>   -16.1647     2.0825     5.6891 </r>
       <r>   -16.0725     1.7447     5.8499 </r>
       <r>   -15.9804     1.1734     5.9581 </r>
       <r>   -15.8882     0.4063     5.9955 </r>
       <r>   -15.7960     0.0472     5.9999 </r>
       <r>   -15.7039     0.0015     6.0000 </r>
       <r>   -15.6117     0.0000     6.0000 </r>
       <r>   -15.5195     0.0000     6.0000 </r>
       <r>   -15.4274     0.0000     6.0000 </r>
       <r>   -15.3352     0.0000     6.0000 </r>
       <r>   -15.2430     0.0000     6.0000 </r>
       <r>   -15.1509     0.0000     6.0000 </r>
       <r>   -15.0587     0.0000     6.0000 </r>
       <r>   -14.9665     0.0000     6.0000 </r>
       <r>   -14.8744     0.0000     6.0000 </r>
       <r>   -14.7822     0.0000     6.0000 </r>
       <r>   -14.6901     0.0000     6.0000 </r>
       <r>   -14.5979     0.0000     6.0000 </r>
       <r>   -14.5057     0.0000     6.0000 </r>
       <r>   -14.4136     0.0003     6.0000 </r>
       <r>   -14.3214     0.0164     6.0015 </r>
       <r>   -14.2292     0.2372     6.0234 </r>
       <r>   -14.1371     1.0585     6.1210 </r>
       <r>   -14.0449     1.8602     6.2924 </r>
       <r>   -13.9527     2.2580     6.5005 </r>
       <r>   -13.8606     2.6376     6.7436 </r>
       <r>   -13.7684     3.0071     7.0208 </r>
       <r>   -13.6762     3.7135     7.3630 </r>
       <r>   -13.5841     2.6820     7.6102 </r>
       <r>   -13.4919     1.6958     7.7665 </r>
       <r>   -13.3998     1.8285     7.9350 </r>
       <r>   -13.3076     1.3610     8.0604 </r>
       <r>   -13.2154     1.3523     8.1851 </r>
       <r>   -13.1233     1.4657     8.3202 </r>
       <r>   -13.0311     1.1933     8.4301 </r>
       <r>   -12.9389     1.3953     8.5587 </r>
       <r>   -12.8468     1.1911     8.6685 </r>
       <r>   -12.7546     1.4077     8.7982 </r>
       <r>   -12.6624     2.0976     8.9916 </r>
       <r>   -12.5703     1.7816     9.1558 </r>
       <r>   -12.4781     1.9190     9.3326 </r>
       <r>   -12.3859     1.9885     9.5159 </r>
       <r>   -12.2938     1.4377     9.6484 </r>
       <r>   -12.2016     1.6339     9.7990 </r>
       <r>   -12.1095     1.5791     9.9445 </r>
       <r>   -12.0173     1.2312    10.0580 </r>
       <r>   -11.9251     1.3370    10.1812 </r>
       <r>   -11.8330     1.0991    10.2825 </r>
       <r>   -11.7408     0.4926    10.3279 </r>
       <r>   -11.6486     0.3099    10.3565 </r>
       <r>   -11.5565     0.6372    10.4152 </r>
       <r>   -11.4643     0.5839    10.4690 </r>
       <r>   -11.3721     0.2984    10.4965 </r>
       <r>   -11.2800     0.3532    10.5291 </r>
       <r>   -11.1878     0.9299    10.6148 </r>
       <r>   -11.0956     1.0045    10.7074 </r>
       <r>   -11.0035     0.6977    10.7717 </r>
       <r>   -10.9113     0.6769    10.8340 </r>
       <r>   -10.8192     1.4449    10.9672 </r>
       <r>   -10.7270     1.9455    11.1465 </r>
       <r>   -10.6348     1.4301    11.2783 </r>
       <r>   -10.5427     1.3133    11.3994 </r>
       <r>   -10.4505     2.0122    11.5848 </r>
       <r>   -10.3583     2.3990    11.8059 </r>
       <r>   -10.2662     2.1137    12.0007 </r>
       <r>   -10.1740     2.1435    12.1983 </r>
       <r>   -10.0818     1.6422    12.3496 </r>
       <r>    -9.9897     1.1791    12.4583 </r>
       <r>    -9.8975     1.5831    12.6042 </r>
       <r>    -9.8053     2.7094    12.8539 </r>
       <r>    -9.7132     2.9624    13.1270 </r>
       <r>    -9.6210     1.9764    13.3091 </r>
       <r>    -9.5289     1.8454    13.4792 </r>
       <r>    -9.4367     2.5549    13.7146 </r>
       <r>    -9.3445     2.0064    13.8996 </r>
       <r>    -9.2524     1.4658    14.0347 </r>
       <r>    -9.1602     1.8745    14.2074 </r>
       <r>    -9.0680     2.3322    14.4224 </r>
       <r>    -8.9759     2.5840    14.6605 </r>
       <r>    -8.8837     2.6270    14.9026 </r>
       <r>    -8.7915     2.2301    15.1082 </r>
       <r>    -8.6994     2.6704    15.3543 </r>
       <r>    -8.6072     2.9009    15.6216 </r>
       <r>    -8.5151     2.9265    15.8914 </r>
       <r>    -8.4229     2.7809    16.1477 </r>
       <r>    -8.3307     2.2036    16.3508 </r>
       <r>    -8.2386     2.0134    16.5363 </r>
       <r>    -8.1464     2.0379    16.7241 </r>
       <r>    -8.0542     2.3948    16.9449 </r>
       <r>    -7.9621     2.8718    17.2095 </r>
       <r>    -7.8699     3.8942    17.5684 </r>
       <r>    -7.7777     4.2258    17.9579 </r>
       <r>    -7.6856     4.3250    18.3565 </r>
       <r>    -7.5934     4.4026    18.7623 </r>
       <r>    -7.5012     3.5880    19.0930 </r>
       <r>    -7.4091     2.3668    19.3111 </r>
       <r>    -7.3169     1.7513    19.4725 </r>
       <r>    -7.2248     1.9222    19.6497 </r>
       <r>    -7.1326     2.2370    19.8558 </r>
       <r>    -7.0404     1.7157    20.0140 </r>
       <r>    -6.9483     1.6549    20.1665 </r>
       <r>    -6.8561     1.7437    20.3272 </r>
       <r>    -6.7639     1.5217    20.4674 </r>
       <r>    -6.6718     2.0023    20.6520 </r>
       <r>    -6.5796     3.1898    20.9460 </r>
       <r>    -6.4874     4.2298    21.3358 </r>
       <r>    -6.3953     6.9061    21.9723 </r>
       <r>    -6.3031     8.1341    22.7220 </r>
       <r>    -6.2109     6.1771    23.2913 </r>
       <r>    -6.1188     4.3942    23.6963 </r>
       <r>    -6.0266     3.2343    23.9943 </r>
       <r>    -5.9345     2.1836    24.1956 </r>
       <r>    -5.8423     2.4396    24.4204 </r>
       <r>    -5.7501     2.5503    24.6555 </r>
       <r>    -5.6580     2.1540    24.8540 </r>
       <r>    -5.5658     2.6608    25.0992 </r>
       <r>    -5.4736     2.7619    25.3538 </r>
       <r>    -5.3815     2.5816    25.5917 </r>
       <r>    -5.2893     3.0368    25.8716 </r>
       <r>    -5.1971     3.1556    26.1624 </r>
       <r>    -5.1050     3.3410    26.4704 </r>
       <r>    -5.0128     4.1831    26.8559 </r>
       <r>    -4.9206     4.1870    27.2418 </r>
       <r>    -4.8285     4.2831    27.6365 </r>
       <r>    -4.7363     4.9294    28.0908 </r>
       <r>    -4.6442     4.6545    28.5198 </r>
       <r>    -4.5520     3.7692    28.8672 </r>
       <r>    -4.4598     3.1721    29.1596 </r>
       <r>    -4.3677     1.7765    29.3233 </r>
       <r>    -4.2755     1.2903    29.4422 </r>
       <r>    -4.1833     1.2336    29.5559 </r>
       <r>    -4.0912     1.2139    29.6678 </r>
       <r>    -3.9990     1.1182    29.7708 </r>
       <r>    -3.9068     1.1165    29.8737 </r>
       <r>    -3.8147     0.8883    29.9556 </r>
       <r>    -3.7225     0.4107    29.9935 </r>
       <r>    -3.6303     0.0678    29.9997 </r>
       <r>    -3.5382     0.0031    30.0000 </r>
       <r>    -3.4460     0.0000    30.0000 </r>
       <r>    -3.3539     0.0011    30.0001 </r>
       <r>    -3.2617     0.0335    30.0032 </r>
       <r>    -3.1695     0.2897    30.0299 </r>
       <r>    -3.0774     0.9476    30.1172 </r>
       <r>    -2.9852     1.4836    30.2540 </r>
       <r>    -2.8930     1.4564    30.3882 </r>
       <r>    -2.8009     1.9515    30.5681 </r>
       <r>    -2.7087     2.4270    30.7917 </r>
       <r>    -2.6165     2.3491    31.0082 </r>
       <r>    -2.5244     2.5693    31.2450 </r>
       <r>    -2.4322     2.0676    31.4356 </r>
       <r>    -2.3400     1.1979    31.5460 </r>
       <r>    -2.2479     1.0353    31.6414 </r>
       <r>    -2.1557     1.1387    31.7464 </r>
       <r>    -2.0636     0.8462    31.8244 </r>
       <r>    -1.9714     0.4641    31.8671 </r>
       <r>    -1.8792     0.4525    31.9088 </r>
       <r>    -1.7871     0.4350    31.9489 </r>
       <r>    -1.6949     0.1849    31.9660 </r>
       <r>    -1.6027     0.1261    31.9776 </r>
       <r>    -1.5106     0.1726    31.9935 </r>
       <r>    -1.4184     0.0651    31.9995 </r>
       <r>    -1.3262     0.0108    32.0005 </r>
       <r>    -1.2341     0.0644    32.0064 </r>
       <r>    -1.1419     0.1723    32.0223 </r>
       <r>    -1.0497     0.1263    32.0339 </r>
       <r>    -0.9576     0.1881    32.0513 </r>
       <r>    -0.8654     0.4402    32.0919 </r>
       <r>    -0.7733     0.3925    32.1280 </r>
       <r>    -0.6811     0.2893    32.1547 </r>
       <r>    -0.5889     0.5955    32.2096 </r>
       <r>    -0.4968     0.8956    32.2921 </r>
       <r>    -0.4046     0.7074    32.3573 </r>
       <r>    -0.3124     0.7130    32.4230 </r>
       <r>    -0.2203     1.9661    32.6042 </r>
       <r>    -0.1281     3.0325    32.8837 </r>
       <r>    -0.0359     2.6851    33.1312 </r>
       <r>     0.0562     2.1223    33.3268 </r>
       <r>     0.1484     2.0650    33.5171 </r>
       <r>     0.2406     1.7360    33.6771 </r>
       <r>     0.3327     1.1032    33.7788 </r>
       <r>     0.4249     1.1778    33.8873 </r>
       <r>     0.5170     1.8148    34.0546 </r>
       <r>     0.6092     1.5877    34.2009 </r>
       <r>     0.7014     1.0665    34.2992 </r>
       <r>     0.7935     1.1900    34.4089 </r>
       <r>     0.8857     1.3475    34.5331 </r>
       <r>     0.9779     1.7279    34.6923 </r>
       <r>     1.0700     1.9376    34.8709 </r>
       <r>     1.1622     1.7200    35.0294 </r>
       <r>     1.2544     2.1565    35.2282 </r>
       <r>     1.3465     2.0055    35.4130 </r>
       <r>     1.4387     1.9982    35.5972 </r>
       <r>     1.5309     2.5191    35.8294 </r>
       <r>     1.6230     2.3319    36.0443 </r>
       <r>     1.7152     2.3509    36.2609 </r>
       <r>     1.8073     2.4797    36.4895 </r>
       <r>     1.8995     2.6047    36.7295 </r>
       <r>     1.9917     2.8551    36.9927 </r>
       <r>     2.0838     3.0937    37.2778 </r>
       <r>     2.1760     3.1770    37.5706 </r>
       <r>     2.2682     3.0880    37.8552 </r>
       <r>     2.3603     3.4978    38.1776 </r>
       <r>     2.4525     4.0382    38.5498 </r>
       <r>     2.5447     3.8897    38.9083 </r>
       <r>     2.6368     3.6314    39.2430 </r>
       <r>     2.7290     4.0630    39.6174 </r>
       <r>     2.8212     4.0609    39.9917 </r>
       <r>     2.9133     3.4334    40.3081 </r>
       <r>     3.0055     3.5828    40.6383 </r>
       <r>     3.0976     4.3540    41.0396 </r>
       <r>     3.1898     3.8927    41.3984 </r>
       <r>     3.2820     3.4341    41.7149 </r>
       <r>     3.3741     3.6881    42.0548 </r>
       <r>     3.4663     3.9234    42.4164 </r>
       <r>     3.5585     4.0932    42.7936 </r>
       <r>     3.6506     3.6601    43.1310 </r>
       <r>     3.7428     3.3757    43.4421 </r>
       <r>     3.8350     4.1937    43.8286 </r>
       <r>     3.9271     4.0805    44.2047 </r>
       <r>     4.0193     3.8925    44.5634 </r>
       <r>     4.1115     3.7207    44.9064 </r>
       <r>     4.2036     3.1168    45.1936 </r>
       <r>     4.2958     3.2214    45.4905 </r>
       <r>     4.3879     3.8127    45.8419 </r>
       <r>     4.4801     3.6704    46.1802 </r>
       <r>     4.5723     3.4138    46.4948 </r>
       <r>     4.6644     2.6728    46.7412 </r>
       <r>     4.7566     2.1175    46.9363 </r>
       <r>     4.8488     2.3280    47.1509 </r>
       <r>     4.9409     2.8186    47.4106 </r>
       <r>     5.0331     2.4707    47.6383 </r>
       <r>     5.1253     1.8497    47.8088 </r>
       <r>     5.2174     1.2651    47.9254 </r>
       <r>     5.3096     0.6355    47.9840 </r>
       <r>     5.4018     0.1611    47.9988 </r>
       <r>     5.4939     0.0123    48.0000 </r>
       <r>     5.5861     0.0002    48.0000 </r>
       <r>     5.6782     0.0000    48.0000 </r>
       <r>     5.7704     0.0000    48.0000 </r>
       <r>     5.8626     0.0000    48.0000 </r>
       <r>     5.9547     0.0000    48.0000 </r>
       <r>     6.0469     0.0000    48.0000 </r>
       <r>     6.1391     0.0000    48.0000 </r>
       <r>     6.2312     0.0000    48.0000 </r>
       <r>     6.3234     0.0000    48.0000 </r>
       <r>     6.4156     0.0000    48.0000 </r>
       <r>     6.5077     0.0000    48.0000 </r>
      </set>
     </set>
    </array>
   </total>
  </dos>
 </calculation>
 <structure name="finalpos" >
  <crystal>
   <varray name="basis" >
    <v>       4.47648500       2.58450000       0.00000000 </v>
    <v>      -4.47648500       2.58450000       0.00000000 </v>
    <v>       0.00000000       0.00000000      15.00000000 </v>
   </varray>
   <i name="volume">    347.08426447 </i>
   <varray name="rec_basis" >
    <v>       0.11169478       0.19346102       0.00000000 </v>
    <v>      -0.11169478       0.19346102       0.00000000 </v>
    <v>       0.00000000       0.00000000       0.06666667 </v>
   </varray>
  </crystal>
  <varray name="positions" >
   <v>       0.33833416       0.66916509       0.25000000 </v>
   <v>       0.67166634       0.33583189       0.25000000 </v>
   <v>       0.16374607       0.31999990       0.25000000 </v>
   <v>       0.32249985       0.16125049       0.25000000 </v>
   <v>       0.16375450       0.84374903       0.25000000 </v>
   <v>       0.84624398       0.16125073       0.25000000 </v>
   <v>       0.68749965       0.84374989       0.25000000 </v>
   <v>       0.84625145       0.68499898       0.25000000 </v>
  </varray>
 </structure>
</modeling>
