       N       E                     dE             d eps       ncg     rms          rms(c)
DAV:   1     0.203790330424E+03    0.20379E+03   -0.25777E+04 14208   0.860E+02
DAV:   2    -0.116867706150E+03   -0.32066E+03   -0.31916E+03 20304   0.164E+02
DAV:   3    -0.129586718584E+03   -0.12719E+02   -0.12701E+02 27120   0.427E+01
DAV:   4    -0.129605922338E+03   -0.19204E-01   -0.19203E-01 19920   0.166E+00
DAV:   5    -0.129605983274E+03   -0.60937E-04   -0.60936E-04 26016   0.889E-02    0.246E+01
DAV:   6    -0.920784886306E+02    0.37527E+02   -0.72001E+01 25728   0.255E+01    0.140E+01
DAV:   7    -0.100555797454E+03   -0.84773E+01   -0.10158E+01 22320   0.102E+01    0.813E+00
DAV:   8    -0.110419447015E+03   -0.98636E+01   -0.86740E+00 23808   0.893E+00    0.434E+00
DAV:   9    -0.117221923811E+03   -0.68025E+01   -0.39783E+00 20160   0.616E+00    0.278E+00
DAV:  10    -0.123453667789E+03   -0.62317E+01   -0.79209E+00 24240   0.701E+00    0.160E+00
DAV:  11    -0.125276760859E+03   -0.18231E+01   -0.28586E+00 24624   0.385E+00    0.990E-01
DAV:  12    -0.125436306385E+03   -0.15955E+00   -0.22986E-01 20208   0.139E+00    0.465E-01
DAV:  13    -0.125463028616E+03   -0.26722E-01   -0.22810E-02 17328   0.552E-01    0.187E-01
DAV:  14    -0.125485176539E+03   -0.22148E-01   -0.60018E-03 20880   0.284E-01    0.839E-02
DAV:  15    -0.125492705687E+03   -0.75291E-02   -0.31695E-03 19104   0.158E-01    0.440E-02
DAV:  16    -0.125494673797E+03   -0.19681E-02   -0.62775E-04 17280   0.815E-02    0.225E-02
DAV:  17    -0.125495934264E+03   -0.12605E-02   -0.17216E-04 14928   0.520E-02    0.173E-02
DAV:  18    -0.125496661653E+03   -0.72739E-03   -0.85533E-05 16272   0.382E-02    0.125E-02
DAV:  19    -0.125497090643E+03   -0.42899E-03   -0.41157E-05 18912   0.245E-02    0.732E-03
DAV:  20    -0.125497140301E+03   -0.49657E-04   -0.21225E-05 22224   0.177E-02    0.438E-03
DAV:  21    -0.125497162366E+03   -0.22065E-04   -0.57487E-06 20352   0.950E-03    0.217E-03
DAV:  22    -0.125497184216E+03   -0.21849E-04   -0.21943E-06 22368   0.550E-03    0.136E-03
DAV:  23    -0.125497199382E+03   -0.15166E-04   -0.16820E-06 20976   0.396E-03    0.712E-04
DAV:  24    -0.125497202349E+03   -0.29671E-05   -0.31980E-07 23184   0.213E-03    0.374E-04
DAV:  25    -0.125497203286E+03   -0.93726E-06   -0.11631E-07 22464   0.116E-03
   1 F= -.12708988E+03 E0= -.12708910E+03  d E =-.127090E+03  mag=    -0.0000
       N       E                     dE             d eps       ncg     rms          rms(c)
DAV:   1    -0.125504780612E+03   -0.75783E-02   -0.27027E+00 14208   0.512E+00    0.450E-01
DAV:   2    -0.125497517677E+03    0.72629E-02   -0.54396E-02 26064   0.669E-01    0.199E-01
DAV:   3    -0.125496696949E+03    0.82073E-03   -0.46016E-03 21312   0.192E-01    0.776E-02
DAV:   4    -0.125496661759E+03    0.35190E-04   -0.52355E-04 26832   0.659E-02    0.208E-02
DAV:   5    -0.125496664478E+03   -0.27193E-05   -0.15230E-05 24768   0.126E-02    0.678E-03
DAV:   6    -0.125496664481E+03   -0.23920E-08   -0.33102E-06 22224   0.540E-03
   2 F= -.12708885E+03 E0= -.12708807E+03  d E =0.103131E-02  mag=    -0.0000
       N       E                     dE             d eps       ncg     rms          rms(c)
DAV:   1    -0.125505538198E+03   -0.88737E-02   -0.73287E-01 14208   0.266E+00    0.235E-01
DAV:   2    -0.125503525792E+03    0.20124E-02   -0.14692E-02 25776   0.347E-01    0.103E-01
DAV:   3    -0.125503310189E+03    0.21560E-03   -0.12371E-03 22848   0.100E-01    0.409E-02
DAV:   4    -0.125503301115E+03    0.90745E-05   -0.13942E-04 23664   0.338E-02    0.107E-02
DAV:   5    -0.125503301767E+03   -0.65272E-06   -0.45900E-06 23088   0.683E-03
   3 F= -.12709574E+03 E0= -.12709496E+03  d E =-.586086E-02  mag=    -0.0000
       N       E                     dE             d eps       ncg     rms          rms(c)
DAV:   1    -0.125508342991E+03   -0.50419E-02   -0.25402E-01 14208   0.181E+00    0.107E-01
DAV:   2    -0.125508377945E+03   -0.34955E-04   -0.17249E-03 27744   0.170E-01    0.621E-02
DAV:   3    -0.125508373942E+03    0.40038E-05   -0.17180E-04 22368   0.474E-02    0.167E-02
DAV:   4    -0.125508374741E+03   -0.79957E-06   -0.27849E-05 26112   0.192E-02    0.634E-03
DAV:   5    -0.125508375172E+03   -0.43134E-06   -0.10843E-06 22512   0.436E-03
   4 F= -.12710072E+03 E0= -.12709994E+03  d E =-.498063E-02  mag=    -0.0000
       N       E                     dE             d eps       ncg     rms          rms(c)
DAV:   1    -0.125513639688E+03   -0.52649E-02   -0.15218E+00 14208   0.442E+00    0.261E-01
DAV:   2    -0.125513911378E+03   -0.27169E-03   -0.10407E-02 26688   0.418E-01    0.151E-01
DAV:   3    -0.125513881679E+03    0.29699E-04   -0.10420E-03 21360   0.117E-01    0.405E-02
DAV:   4    -0.125513886335E+03   -0.46561E-05   -0.16771E-04 26496   0.471E-02    0.155E-02
DAV:   5    -0.125513888879E+03   -0.25442E-05   -0.63011E-06 22416   0.105E-02    0.660E-03
DAV:   6    -0.125513889029E+03   -0.14990E-06   -0.29966E-06 23856   0.625E-03
   5 F= -.12710599E+03 E0= -.12710520E+03  d E =-.102420E-01  mag=     0.0000
       N       E                     dE             d eps       ncg     rms          rms(c)
DAV:   1    -0.125515354536E+03   -0.14657E-02   -0.20612E-02 14304   0.533E-01    0.313E-02
DAV:   2    -0.125515357306E+03   -0.27701E-05   -0.16695E-04 26496   0.551E-02    0.178E-02
DAV:   3    -0.125515356238E+03    0.10680E-05   -0.17499E-05 21120   0.158E-02    0.512E-03
DAV:   4    -0.125515356639E+03   -0.40118E-06   -0.29350E-06 25920   0.638E-03
   6 F= -.12710743E+03 E0= -.12710665E+03  d E =-.144601E-02  mag=     0.0000
       N       E                     dE             d eps       ncg     rms          rms(c)
DAV:   1    -0.125518854570E+03   -0.34983E-02   -0.18567E-01 14208   0.160E+00    0.940E-02
DAV:   2    -0.125518876109E+03   -0.21539E-04   -0.14531E-03 25440   0.163E-01    0.532E-02
DAV:   3    -0.125518865656E+03    0.10453E-04   -0.15316E-04 20304   0.467E-02    0.152E-02
DAV:   4    -0.125518866198E+03   -0.54225E-06   -0.25113E-05 25920   0.183E-02    0.630E-03
DAV:   5    -0.125518866818E+03   -0.61928E-06   -0.88807E-07 22032   0.396E-03
   7 F= -.12711087E+03 E0= -.12711009E+03  d E =-.488530E-02  mag=     0.0000
       N       E                     dE             d eps       ncg     rms          rms(c)
DAV:   1    -0.125521906205E+03   -0.30400E-02   -0.74546E-01 14208   0.320E+00    0.187E-01
DAV:   2    -0.125521990663E+03   -0.84457E-04   -0.58761E-03 26448   0.327E-01    0.106E-01
DAV:   3    -0.125521945767E+03    0.44896E-04   -0.60743E-04 20352   0.930E-02    0.302E-02
DAV:   4    -0.125521947900E+03   -0.21337E-05   -0.99077E-05 26592   0.365E-02    0.125E-02
DAV:   5    -0.125521949612E+03   -0.17122E-05   -0.31682E-06 22080   0.753E-03    0.517E-03
DAV:   6    -0.125521949384E+03    0.22791E-06   -0.16800E-06 24816   0.491E-03
   8 F= -.12711379E+03 E0= -.12711301E+03  d E =-.779962E-02  mag=     0.0000
       N       E                     dE             d eps       ncg     rms          rms(c)
DAV:   1    -0.125523275197E+03   -0.13256E-02   -0.35009E-02 14304   0.646E-01    0.361E-02
DAV:   2    -0.125523280821E+03   -0.56240E-05   -0.20799E-04 24096   0.549E-02    0.215E-02
DAV:   3    -0.125523278788E+03    0.20335E-05   -0.25629E-05 21216   0.167E-02    0.383E-03
DAV:   4    -0.125523278903E+03   -0.11482E-06   -0.19590E-06 25056   0.555E-03
   9 F= -.12711504E+03 E0= -.12711427E+03  d E =-.125770E-02  mag=     0.0000
       N       E                     dE             d eps       ncg     rms          rms(c)
DAV:   1    -0.125526290931E+03   -0.30121E-02   -0.31537E-01 14208   0.194E+00    0.108E-01
DAV:   2    -0.125526345761E+03   -0.54831E-04   -0.18178E-03 25728   0.163E-01    0.643E-02
DAV:   3    -0.125526326927E+03    0.18834E-04   -0.22369E-04 20544   0.492E-02    0.111E-02
DAV:   4    -0.125526327393E+03   -0.46600E-06   -0.16105E-05 23952   0.159E-02    0.552E-03
DAV:   5    -0.125526326532E+03    0.86133E-06   -0.18359E-06 23664   0.530E-03
  10 F= -.12711788E+03 E0= -.12711709E+03  d E =-.409045E-02  mag=    -0.0000
       N       E                     dE             d eps       ncg     rms          rms(c)
DAV:   1    -0.125528339700E+03   -0.20123E-02   -0.12624E+00 14208   0.387E+00    0.214E-01
DAV:   2    -0.125528577495E+03   -0.23779E-03   -0.70651E-03 27600   0.322E-01    0.128E-01
DAV:   3    -0.125528497673E+03    0.79822E-04   -0.89939E-04 21072   0.980E-02    0.207E-02
DAV:   4    -0.125528498520E+03   -0.84717E-06   -0.59968E-05 25200   0.311E-02    0.109E-02
DAV:   5    -0.125528495300E+03    0.32197E-05   -0.68491E-06 23712   0.103E-02    0.402E-03
DAV:   6    -0.125528494404E+03    0.89565E-06   -0.24156E-06 23136   0.573E-03
  11 F= -.12711962E+03 E0= -.12711886E+03  d E =-.583209E-02  mag=    -0.0000
       N       E                     dE             d eps       ncg     rms          rms(c)
DAV:   1    -0.125529553317E+03   -0.10580E-02   -0.41840E-02 14208   0.725E-01    0.388E-02
DAV:   2    -0.125529561217E+03   -0.79002E-05   -0.25839E-04 26304   0.636E-02    0.233E-02
DAV:   3    -0.125529558565E+03    0.26518E-05   -0.34220E-05 18816   0.200E-02    0.436E-03
DAV:   4    -0.125529559330E+03   -0.76502E-06   -0.31284E-06 24672   0.715E-03
  12 F= -.12712061E+03 E0= -.12711984E+03  d E =-.991173E-03  mag=    -0.0000
       N       E                     dE             d eps       ncg     rms          rms(c)
DAV:   1    -0.125531622395E+03   -0.20638E-02   -0.37681E-01 14208   0.218E+00    0.117E-01
DAV:   2    -0.125531692599E+03   -0.70204E-04   -0.22143E-03 27504   0.187E-01    0.702E-02
DAV:   3    -0.125531667338E+03    0.25261E-04   -0.29408E-04 21984   0.584E-02    0.126E-02
DAV:   4    -0.125531667206E+03    0.13224E-06   -0.24864E-05 24048   0.201E-02    0.652E-03
DAV:   5    -0.125531667087E+03    0.11896E-06   -0.17188E-06 23712   0.557E-03
  13 F= -.12712249E+03 E0= -.12712171E+03  d E =-.287710E-02  mag=     0.0000
       N       E                     dE             d eps       ncg     rms          rms(c)
DAV:   1    -0.125531081822E+03    0.58538E-03   -0.15086E+00 14208   0.436E+00    0.232E-01
DAV:   2    -0.125531361476E+03   -0.27965E-03   -0.86307E-03 26592   0.371E-01    0.140E-01
DAV:   3    -0.125531256661E+03    0.10481E-03   -0.11881E-03 21600   0.117E-01    0.242E-02
DAV:   4    -0.125531255158E+03    0.15033E-05   -0.10051E-04 24384   0.403E-02    0.129E-02
DAV:   5    -0.125531253556E+03    0.16019E-05   -0.61852E-06 22944   0.108E-02    0.555E-03
DAV:   6    -0.125531253153E+03    0.40274E-06   -0.31402E-06 24432   0.705E-03
  14 F= -.12712164E+03 E0= -.12712088E+03  d E =-.201754E-02  mag=     0.0000
       N       E                     dE             d eps       ncg     rms          rms(c)
DAV:   1    -0.125532125904E+03   -0.87235E-03   -0.60577E-01 14208   0.276E+00    0.147E-01
DAV:   2    -0.125532246473E+03   -0.12057E-03   -0.34761E-03 26016   0.235E-01    0.886E-02
DAV:   3    -0.125532217788E+03    0.28686E-04   -0.47283E-04 23232   0.740E-02    0.153E-02
DAV:   4    -0.125532219980E+03   -0.21918E-05   -0.39447E-05 24672   0.251E-02    0.811E-03
DAV:   5    -0.125532221719E+03   -0.17393E-05   -0.21314E-06 22128   0.631E-03    0.336E-03
DAV:   6    -0.125532222430E+03   -0.71168E-06   -0.91706E-07 22128   0.398E-03
  15 F= -.12712289E+03 E0= -.12712211E+03  d E =-.326952E-02  mag=    -0.0000
       N       E                     dE             d eps       ncg     rms          rms(c)
DAV:   1    -0.125532499263E+03   -0.27754E-03   -0.30683E-03 21312   0.236E-01    0.143E-02
DAV:   2    -0.125532496792E+03    0.24706E-05   -0.34730E-05 23856   0.247E-02    0.720E-03
DAV:   3    -0.125532496164E+03    0.62845E-06   -0.36004E-06 22416   0.744E-03
  16 F= -.12712315E+03 E0= -.12712237E+03  d E =-.266672E-03  mag=    -0.0000
       N       E                     dE             d eps       ncg     rms          rms(c)
DAV:   1    -0.125532911303E+03   -0.41451E-03   -0.27585E-02 16800   0.709E-01    0.431E-02
DAV:   2    -0.125532895823E+03    0.15481E-04   -0.33415E-04 22128   0.776E-02    0.223E-02
DAV:   3    -0.125532889842E+03    0.59805E-05   -0.39748E-05 24048   0.239E-02    0.800E-03
DAV:   4    -0.125532889811E+03    0.31569E-07   -0.54723E-06 21744   0.859E-03
  17 F= -.12712352E+03 E0= -.12712274E+03  d E =-.636462E-03  mag=    -0.0000
       N       E                     dE             d eps       ncg     rms          rms(c)
DAV:   1    -0.125533135566E+03   -0.24572E-03   -0.47048E-03 15264   0.285E-01    0.168E-02
DAV:   2    -0.125533132627E+03    0.29389E-05   -0.49005E-05 16080   0.287E-02    0.871E-03
DAV:   3    -0.125533131743E+03    0.88457E-06   -0.52292E-06 20496   0.898E-03
  18 F= -.12712376E+03 E0= -.12712298E+03  d E =-.234884E-03  mag=     0.0000
       N       E                     dE             d eps       ncg     rms          rms(c)
DAV:   1    -0.125533328339E+03   -0.19571E-03   -0.15911E-02 15360   0.524E-01    0.314E-02
DAV:   2    -0.125533318339E+03    0.10001E-04   -0.16207E-04 18624   0.516E-02    0.160E-02
DAV:   3    -0.125533315394E+03    0.29445E-05   -0.16025E-05 22080   0.154E-02    0.594E-03
DAV:   4    -0.125533315382E+03    0.12448E-07   -0.23293E-06 22368   0.614E-03
  19 F= -.12712393E+03 E0= -.12712315E+03  d E =-.405178E-03  mag=    -0.0000
       N       E                     dE             d eps       ncg     rms          rms(c)
DAV:   1    -0.125533380266E+03   -0.64872E-04   -0.19949E-03 16320   0.187E-01    0.994E-03
DAV:   2    -0.125533379995E+03    0.27066E-06   -0.20652E-05 16848   0.197E-02    0.584E-03
DAV:   3    -0.125533379398E+03    0.59714E-06   -0.31996E-06 18336   0.766E-03
  20 F= -.12712398E+03 E0= -.12712320E+03  d E =-.506558E-04  mag=    -0.0000
       N       E                     dE             d eps       ncg     rms          rms(c)
DAV:   1    -0.125533400321E+03   -0.20326E-04   -0.10085E-03 17280   0.133E-01    0.726E-03
DAV:   2    -0.125533400289E+03    0.31639E-07   -0.10058E-05 19680   0.139E-02    0.427E-03
DAV:   3    -0.125533400015E+03    0.27456E-06   -0.16273E-06 18192   0.568E-03
  21 F= -.12712399E+03 E0= -.12712321E+03  d E =-.617226E-04  mag=     0.0000
       N       E                     dE             d eps       ncg     rms          rms(c)
DAV:   1    -0.125533475852E+03   -0.75563E-04   -0.19048E-03 14208   0.169E-01    0.827E-03
DAV:   2    -0.125533476204E+03   -0.35194E-06   -0.16074E-05 21408   0.163E-02    0.493E-03
DAV:   3    -0.125533476105E+03    0.98888E-07   -0.15751E-06 16992   0.510E-03
  22 F= -.12712404E+03 E0= -.12712326E+03  d E =-.507507E-04  mag=    -0.0000
       N       E                     dE             d eps       ncg     rms          rms(c)
DAV:   1    -0.125533573493E+03   -0.97289E-04   -0.85330E-03 14208   0.357E-01    0.176E-02
DAV:   2    -0.125533574518E+03   -0.10247E-05   -0.69355E-05 19344   0.341E-02    0.104E-02
DAV:   3    -0.125533574046E+03    0.47127E-06   -0.69047E-06 19200   0.102E-02
  23 F= -.12712409E+03 E0= -.12712330E+03  d E =-.950652E-04  mag=     0.0000
       N       E                     dE             d eps       ncg     rms          rms(c)
DAV:   1    -0.125533653052E+03   -0.78534E-04   -0.25020E-03 14688   0.201E-01    0.106E-02
DAV:   2    -0.125533653456E+03   -0.40438E-06   -0.23194E-05 14688   0.212E-02    0.641E-03
DAV:   3    -0.125533653134E+03    0.32184E-06   -0.31120E-06 17376   0.788E-03
  24 F= -.12712413E+03 E0= -.12712335E+03  d E =-.425706E-04  mag=    -0.0000
       N       E                     dE             d eps       ncg     rms          rms(c)
DAV:   1    -0.125533713777E+03   -0.60321E-04   -0.34053E-03 15072   0.235E-01    0.121E-02
DAV:   2    -0.125533714311E+03   -0.53327E-06   -0.30565E-05 19968   0.241E-02    0.726E-03
DAV:   3    -0.125533713900E+03    0.41042E-06   -0.37299E-06 16272   0.853E-03
  25 F= -.12712415E+03 E0= -.12712336E+03  d E =-.607210E-04  mag=    -0.0000
       N       E                     dE             d eps       ncg     rms          rms(c)
DAV:   1    -0.125533819815E+03   -0.10550E-03   -0.33122E-03 14208   0.218E-01    0.109E-02
DAV:   2    -0.125533820657E+03   -0.84204E-06   -0.25595E-05 19440   0.215E-02    0.672E-03
DAV:   3    -0.125533820710E+03   -0.53275E-07   -0.33796E-06 14448   0.785E-03
  26 F= -.12712420E+03 E0= -.12712342E+03  d E =-.516987E-04  mag=     0.0000
       N       E                     dE             d eps       ncg     rms          rms(c)
DAV:   1    -0.125534057625E+03   -0.23697E-03   -0.29837E-02 14208   0.654E-01    0.319E-02
DAV:   2    -0.125534064465E+03   -0.68395E-05   -0.22091E-04 25200   0.623E-02    0.196E-02
DAV:   3    -0.125534062602E+03    0.18633E-05   -0.24228E-05 17760   0.181E-02    0.392E-03
DAV:   4    -0.125534062599E+03    0.27248E-08   -0.37803E-06 17472   0.917E-03
  27 F= -.12712427E+03 E0= -.12712349E+03  d E =-.128256E-03  mag=    -0.0000
       N       E                     dE             d eps       ncg     rms          rms(c)
DAV:   1    -0.125534152377E+03   -0.89776E-04   -0.19483E-03 14208   0.168E-01    0.836E-03
DAV:   2    -0.125534152929E+03   -0.55208E-06   -0.15402E-05 23088   0.167E-02    0.529E-03
DAV:   3    -0.125534153321E+03   -0.39136E-06   -0.22221E-06 14832   0.701E-03
  28 F= -.12712432E+03 E0= -.12712354E+03  d E =-.449796E-04  mag=     0.0000
       N       E                     dE             d eps       ncg     rms          rms(c)
DAV:   1    -0.125534381721E+03   -0.22879E-03   -0.17508E-02 14208   0.503E-01    0.244E-02
DAV:   2    -0.125534386833E+03   -0.51117E-05   -0.12813E-04 23376   0.474E-02    0.152E-02
DAV:   3    -0.125534386450E+03    0.38308E-06   -0.12500E-05 15888   0.139E-02    0.295E-03
DAV:   4    -0.125534386339E+03    0.11146E-06   -0.29287E-06 14784   0.869E-03
  29 F= -.12712442E+03 E0= -.12712363E+03  d E =-.140766E-03  mag=    -0.0000
       N       E                     dE             d eps       ncg     rms          rms(c)
DAV:   1    -0.125534664235E+03   -0.27778E-03   -0.70092E-02 14208   0.101E+00    0.488E-02
DAV:   2    -0.125534683954E+03   -0.19719E-04   -0.49692E-04 26544   0.933E-02    0.304E-02
DAV:   3    -0.125534679953E+03    0.40008E-05   -0.46679E-05 18864   0.248E-02    0.558E-03
DAV:   4    -0.125534679877E+03    0.75634E-07   -0.64264E-06 19344   0.119E-02
  30 F= -.12712443E+03 E0= -.12712365E+03  d E =-.159870E-03  mag=    -0.0000
       N       E                     dE             d eps       ncg     rms          rms(c)
DAV:   1    -0.125534585024E+03    0.94929E-04   -0.11755E-02 14208   0.412E-01    0.197E-02
DAV:   2    -0.125534587617E+03   -0.25927E-05   -0.86326E-05 17808   0.393E-02    0.122E-02
DAV:   3    -0.125534588594E+03   -0.97728E-06   -0.10157E-05 16176   0.139E-02    0.254E-03
DAV:   4    -0.125534588274E+03    0.31994E-06   -0.43447E-06 14400   0.107E-02
  31 F= -.12712446E+03 E0= -.12712367E+03  d E =-.180805E-03  mag=     0.0000
       N       E                     dE             d eps       ncg     rms          rms(c)
DAV:   1    -0.125534691200E+03   -0.10261E-03   -0.32713E-03 14208   0.216E-01    0.105E-02
DAV:   2    -0.125534692182E+03   -0.98170E-06   -0.26340E-05 20208   0.213E-02    0.649E-03
DAV:   3    -0.125534692425E+03   -0.24309E-06   -0.23879E-06 18144   0.664E-03
  32 F= -.12712450E+03 E0= -.12712371E+03  d E =-.427403E-04  mag=     0.0000
       N       E                     dE             d eps       ncg     rms          rms(c)
DAV:   1    -0.125534939941E+03   -0.24776E-03   -0.29473E-02 14208   0.649E-01    0.324E-02
DAV:   2    -0.125534949231E+03   -0.92895E-05   -0.21639E-04 23760   0.611E-02    0.201E-02
DAV:   3    -0.125534948455E+03    0.77541E-06   -0.17507E-05 15600   0.158E-02    0.378E-03
DAV:   4    -0.125534948567E+03   -0.11127E-06   -0.33734E-06 14784   0.903E-03
  33 F= -.12712457E+03 E0= -.12712379E+03  d E =-.114849E-03  mag=     0.0000
       N       E                     dE             d eps       ncg     rms          rms(c)
DAV:   1    -0.125535011027E+03   -0.62572E-04   -0.30714E-03 14208   0.210E-01    0.106E-02
DAV:   2    -0.125535011963E+03   -0.93624E-06   -0.25023E-05 17856   0.212E-02    0.662E-03
DAV:   3    -0.125535012770E+03   -0.80710E-06   -0.32733E-06 15504   0.859E-03
  34 F= -.12712457E+03 E0= -.12712379E+03  d E =-.119762E-03  mag=    -0.0000
       N       E                     dE             d eps       ncg     rms          rms(c)
DAV:   1    -0.125535114814E+03   -0.10285E-03   -0.29592E-03 14208   0.210E-01    0.104E-02
DAV:   2    -0.125535115956E+03   -0.11417E-05   -0.28637E-05 17040   0.233E-02    0.649E-03
DAV:   3    -0.125535116904E+03   -0.94813E-06   -0.37597E-06 15840   0.961E-03
  35 F= -.12712462E+03 E0= -.12712384E+03  d E =-.466998E-04  mag=    -0.0000
       N       E                     dE             d eps       ncg     rms          rms(c)
DAV:   1    -0.125535362811E+03   -0.24686E-03   -0.26647E-02 14208   0.631E-01    0.310E-02
DAV:   2    -0.125535374608E+03   -0.11796E-04   -0.23762E-04 19920   0.658E-02    0.192E-02
DAV:   3    -0.125535375514E+03   -0.90640E-06   -0.20181E-05 14928   0.188E-02    0.498E-03
DAV:   4    -0.125535375513E+03    0.64938E-09   -0.58709E-06 14496   0.122E-02
  36 F= -.12712471E+03 E0= -.12712393E+03  d E =-.132832E-03  mag=     0.0000
       N       E                     dE             d eps       ncg     rms          rms(c)
DAV:   1    -0.125535606559E+03   -0.23105E-03   -0.10661E-01 14208   0.126E+00    0.616E-02
DAV:   2    -0.125535653213E+03   -0.46654E-04   -0.92467E-04 24000   0.129E-01    0.381E-02
DAV:   3    -0.125535651936E+03    0.12768E-05   -0.70249E-05 16176   0.326E-02    0.956E-03
DAV:   4    -0.125535652376E+03   -0.44022E-06   -0.14560E-05 16416   0.178E-02    0.432E-03
DAV:   5    -0.125535652627E+03   -0.25029E-06   -0.44524E-06 14880   0.109E-02
  37 F= -.12712464E+03 E0= -.12712386E+03  d E =-.632798E-04  mag=     0.0000
       N       E                     dE             d eps       ncg     rms          rms(c)
DAV:   1    -0.125535463900E+03    0.18848E-03   -0.54888E-02 14208   0.905E-01    0.441E-02
DAV:   2    -0.125535486728E+03   -0.22829E-04   -0.48556E-04 22272   0.937E-02    0.272E-02
DAV:   3    -0.125535486502E+03    0.22662E-06   -0.39088E-05 21792   0.253E-02    0.699E-03
DAV:   4    -0.125535486613E+03   -0.11168E-06   -0.10167E-05 14208   0.160E-02    0.318E-03
DAV:   5    -0.125535486318E+03    0.29480E-06   -0.43811E-06 14208   0.107E-02
  38 F= -.12712472E+03 E0= -.12712394E+03  d E =-.146041E-03  mag=     0.0000
       N       E                     dE             d eps       ncg     rms          rms(c)
DAV:   1    -0.125535579813E+03   -0.93199E-04   -0.23707E-03 14208   0.185E-01    0.889E-03
DAV:   2    -0.125535580663E+03   -0.85015E-06   -0.21618E-05 16176   0.195E-02    0.556E-03
DAV:   3    -0.125535581092E+03   -0.42894E-06   -0.25460E-06 17808   0.756E-03
  39 F= -.12712476E+03 E0= -.12712398E+03  d E =-.430070E-04  mag=     0.0000
       N       E                     dE             d eps       ncg     rms          rms(c)
DAV:   1    -0.125535833918E+03   -0.25326E-03   -0.21372E-02 14208   0.554E-01    0.267E-02
DAV:   2    -0.125535844191E+03   -0.10273E-04   -0.17750E-04 17520   0.553E-02    0.168E-02
DAV:   3    -0.125535845277E+03   -0.10861E-05   -0.13375E-05 14832   0.150E-02    0.361E-03
DAV:   4    -0.125535845343E+03   -0.65895E-07   -0.40792E-06 14208   0.101E-02
  40 F= -.12712487E+03 E0= -.12712409E+03  d E =-.152099E-03  mag=    -0.0000
       N       E                     dE             d eps       ncg     rms          rms(c)
DAV:   1    -0.125536234146E+03   -0.38887E-03   -0.85549E-02 14208   0.111E+00    0.533E-02
DAV:   2    -0.125536275474E+03   -0.41329E-04   -0.69399E-04 22656   0.109E-01    0.335E-02
DAV:   3    -0.125536276127E+03   -0.65290E-06   -0.46937E-05 15216   0.256E-02    0.681E-03
DAV:   4    -0.125536276675E+03   -0.54716E-06   -0.84219E-06 15744   0.136E-02
  41 F= -.12712499E+03 E0= -.12712421E+03  d E =-.273455E-03  mag=    -0.0000
       N       E                     dE             d eps       ncg     rms          rms(c)
DAV:   1    -0.125536416681E+03   -0.14055E-03   -0.16704E-02 14208   0.490E-01    0.237E-02
DAV:   2    -0.125536425041E+03   -0.83597E-05   -0.14212E-04 17520   0.498E-02    0.149E-02
DAV:   3    -0.125536427667E+03   -0.26265E-05   -0.12829E-05 14544   0.162E-02    0.348E-03
DAV:   4    -0.125536427145E+03    0.52230E-06   -0.71067E-06 14496   0.135E-02
  42 F= -.12712501E+03 E0= -.12712423E+03  d E =-.287178E-03  mag=    -0.0000
       N       E                     dE             d eps       ncg     rms          rms(c)
DAV:   1    -0.125536666274E+03   -0.23861E-03   -0.20273E-02 14208   0.548E-01    0.262E-02
DAV:   2    -0.125536677076E+03   -0.10802E-04   -0.17378E-04 23808   0.550E-02    0.167E-02
DAV:   3    -0.125536677943E+03   -0.86685E-06   -0.11290E-05 15360   0.139E-02    0.352E-03
DAV:   4    -0.125536678060E+03   -0.11740E-06   -0.30476E-06 14784   0.890E-03
  43 F= -.12712511E+03 E0= -.12712432E+03  d E =-.989169E-04  mag=    -0.0000
       N       E                     dE             d eps       ncg     rms          rms(c)
DAV:   1    -0.125536905862E+03   -0.22792E-03   -0.34425E-02 14208   0.713E-01    0.341E-02
DAV:   2    -0.125536922646E+03   -0.16784E-04   -0.27768E-04 23712   0.700E-02    0.215E-02
DAV:   3    -0.125536923571E+03   -0.92478E-06   -0.18589E-05 14304   0.174E-02    0.439E-03
DAV:   4    -0.125536923763E+03   -0.19171E-06   -0.44921E-06 14880   0.106E-02
  44 F= -.12712515E+03 E0= -.12712437E+03  d E =-.146734E-03  mag=    -0.0000
       N       E                     dE             d eps       ncg     rms          rms(c)
DAV:   1    -0.125537103187E+03   -0.17962E-03   -0.10951E-02 14208   0.403E-01    0.198E-02
DAV:   2    -0.125537107588E+03   -0.44011E-05   -0.93820E-05 16320   0.408E-02    0.123E-02
DAV:   3    -0.125537108650E+03   -0.10618E-05   -0.84326E-06 15264   0.129E-02    0.323E-03
DAV:   4    -0.125537108676E+03   -0.26074E-07   -0.38347E-06 14208   0.999E-03
  45 F= -.12712523E+03 E0= -.12712445E+03  d E =-.721262E-04  mag=    -0.0000
       N       E                     dE             d eps       ncg     rms          rms(c)
DAV:   1    -0.125537325414E+03   -0.21676E-03   -0.29290E-02 14208   0.658E-01    0.322E-02
DAV:   2    -0.125537338022E+03   -0.12607E-04   -0.25458E-04 25392   0.661E-02    0.201E-02
DAV:   3    -0.125537338096E+03   -0.74202E-07   -0.16306E-05 15504   0.155E-02    0.494E-03
DAV:   4    -0.125537338438E+03   -0.34189E-06   -0.35087E-06 14880   0.901E-03
  46 F= -.12712527E+03 E0= -.12712449E+03  d E =-.117380E-03  mag=    -0.0000
       N       E                     dE             d eps       ncg     rms          rms(c)
DAV:   1    -0.125537454074E+03   -0.11598E-03   -0.59887E-03 14208   0.308E-01    0.148E-02
DAV:   2    -0.125537455175E+03   -0.11007E-05   -0.52222E-05 15696   0.315E-02    0.903E-03
DAV:   3    -0.125537455443E+03   -0.26844E-06   -0.61763E-06 14448   0.112E-02
  47 F= -.12712531E+03 E0= -.12712453E+03  d E =-.399778E-04  mag=    -0.0000
       N       E                     dE             d eps       ncg     rms          rms(c)
DAV:   1    -0.125537530412E+03   -0.75237E-04   -0.41873E-03 14208   0.258E-01    0.128E-02
DAV:   2    -0.125537531096E+03   -0.68341E-06   -0.37165E-05 15600   0.269E-02    0.780E-03
DAV:   3    -0.125537531730E+03   -0.63482E-06   -0.52770E-06 15216   0.108E-02
  48 F= -.12712532E+03 E0= -.12712454E+03  d E =-.518165E-04  mag=    -0.0000
       N       E                     dE             d eps       ncg     rms          rms(c)
DAV:   1    -0.125537639609E+03   -0.10851E-03   -0.68983E-03 14400   0.332E-01    0.160E-02
DAV:   2    -0.125537639839E+03   -0.23020E-06   -0.54929E-05 15408   0.322E-02    0.971E-03
DAV:   3    -0.125537640047E+03   -0.20773E-06   -0.80059E-06 15216   0.126E-02
  49 F= -.12712536E+03 E0= -.12712457E+03  d E =-.322941E-04  mag=     0.0000
       N       E                     dE             d eps       ncg     rms          rms(c)
DAV:   1    -0.125537661115E+03   -0.21276E-04   -0.47438E-04 15072   0.877E-02    0.453E-03
DAV:   2    -0.125537660760E+03    0.35511E-06   -0.52990E-06 17088   0.113E-02
  50 F= -.12712536E+03 E0= -.12712458E+03  d E =-.331799E-04  mag=     0.0000
       N       E                     dE             d eps       ncg     rms          rms(c)
DAV:   1    -0.125537712389E+03   -0.51274E-04   -0.18651E-03 14976   0.180E-01    0.900E-03
DAV:   2    -0.125537711842E+03    0.54695E-06   -0.20449E-05 14496   0.216E-02    0.547E-03
DAV:   3    -0.125537712911E+03   -0.10690E-05   -0.52520E-06 16320   0.119E-02    0.211E-03
DAV:   4    -0.125537711940E+03    0.97154E-06   -0.38047E-06 14592   0.993E-03
  51 F= -.12712537E+03 E0= -.12712459E+03  d E =-.153279E-04  mag=    -0.0000
       N       E                     dE             d eps       ncg     rms          rms(c)
DAV:   1    -0.125537731267E+03   -0.18356E-04   -0.46869E-04 21504   0.900E-02    0.458E-03
DAV:   2    -0.125537731136E+03    0.13163E-06   -0.38191E-06 19008   0.876E-03
  52 F= -.12712537E+03 E0= -.12712459E+03  d E =-.166125E-04  mag=    -0.0000
       N       E                     dE             d eps       ncg     rms          rms(c)
DAV:   1    -0.125537773115E+03   -0.41848E-04   -0.15118E-03 14208   0.163E-01    0.810E-03
DAV:   2    -0.125537773177E+03   -0.61809E-07   -0.15685E-05 14688   0.173E-02    0.498E-03
DAV:   3    -0.125537773245E+03   -0.67589E-07   -0.18699E-06 17952   0.621E-03
  53 F= -.12712539E+03 E0= -.12712460E+03  d E =-.111998E-04  mag=    -0.0000
       N       E                     dE             d eps       ncg     rms          rms(c)
DAV:   1    -0.125537786269E+03   -0.13092E-04   -0.22883E-04 14304   0.634E-02    0.338E-03
DAV:   2    -0.125537786222E+03    0.46705E-07   -0.27421E-06 14304   0.790E-03
  54 F= -.12712539E+03 E0= -.12712460E+03  d E =-.122082E-04  mag=    -0.0000
       N       E                     dE             d eps       ncg     rms          rms(c)
DAV:   1    -0.125537808534E+03   -0.22265E-04   -0.65644E-04 18960   0.109E-01    0.552E-03
DAV:   2    -0.125537808327E+03    0.20720E-06   -0.55183E-06 14784   0.111E-02
  55 F= -.12712539E+03 E0= -.12712461E+03  d E =-.576879E-05  mag=    -0.0000
       N       E                     dE             d eps       ncg     rms          rms(c)
DAV:   1    -0.125537818765E+03   -0.10230E-04   -0.21370E-04 20208   0.625E-02    0.355E-03
DAV:   2    -0.125537818497E+03    0.26773E-06   -0.25337E-06 14304   0.832E-03
  56 F= -.12712539E+03 E0= -.12712461E+03  d E =-.643219E-05  mag=     0.0000
       N       E                     dE             d eps       ncg     rms          rms(c)
DAV:   1    -0.125537830298E+03   -0.11533E-04   -0.15488E-04 18624   0.529E-02    0.279E-03
DAV:   2    -0.125537829904E+03    0.39334E-06   -0.29851E-06 14208   0.894E-03
  57 F= -.12712540E+03 E0= -.12712461E+03  d E =-.332545E-05  mag=    -0.0000
       N       E                     dE             d eps       ncg     rms          rms(c)
DAV:   1    -0.125537861096E+03   -0.30798E-04   -0.13951E-03 14256   0.157E-01    0.735E-03
DAV:   2    -0.125537860937E+03    0.15885E-06   -0.13310E-05 14208   0.170E-02    0.464E-03
DAV:   3    -0.125537861551E+03   -0.61362E-06   -0.34714E-06 17760   0.918E-03
  58 F= -.12712540E+03 E0= -.12712462E+03  d E =-.107295E-04  mag=     0.0000
       N       E                     dE             d eps       ncg     rms          rms(c)
DAV:   1    -0.125537909403E+03   -0.48466E-04   -0.56030E-03 14208   0.314E-01    0.137E-02
DAV:   2    -0.125537910241E+03   -0.83760E-06   -0.48335E-05 18048   0.300E-02    0.871E-03
DAV:   3    -0.125537910250E+03   -0.97152E-08   -0.57101E-06 16368   0.105E-02
  59 F= -.12712540E+03 E0= -.12712462E+03  d E =-.109934E-04  mag=     0.0000
       N       E                     dE             d eps       ncg     rms          rms(c)
DAV:   1    -0.125537887828E+03    0.22412E-04   -0.14038E-03 14208   0.157E-01    0.647E-03
DAV:   2    -0.125537887637E+03    0.19161E-06   -0.13854E-05 14208   0.170E-02    0.403E-03
DAV:   3    -0.125537887842E+03   -0.20496E-06   -0.29003E-06 18912   0.834E-03
  60 F= -.12712541E+03 E0= -.12712462E+03  d E =-.128013E-04  mag=     0.0000
       N       E                     dE             d eps       ncg     rms          rms(c)
DAV:   1    -0.125537898615E+03   -0.10978E-04   -0.17466E-04 14208   0.569E-02    0.274E-03
DAV:   2    -0.125537898509E+03    0.10639E-06   -0.29542E-06 17808   0.900E-03
  61 F= -.12712541E+03 E0= -.12712463E+03  d E =-.364839E-05  mag=     0.0000
       N       E                     dE             d eps       ncg     rms          rms(c)
DAV:   1    -0.125537907594E+03   -0.89790E-05   -0.20105E-04 14208   0.605E-02    0.367E-03
DAV:   2    -0.125537907490E+03    0.10411E-06   -0.29065E-06 14208   0.875E-03
  62 F= -.12712541E+03 E0= -.12712463E+03  d E =-.502284E-05  mag=     0.0000
       N       E                     dE             d eps       ncg     rms          rms(c)
DAV:   1    -0.125537918384E+03   -0.10790E-04   -0.15187E-04 15072   0.526E-02    0.286E-03
DAV:   2    -0.125537918253E+03    0.13066E-06   -0.24432E-06 14208   0.800E-03
  63 F= -.12712541E+03 E0= -.12712463E+03  d E =-.368274E-05  mag=     0.0000
       N       E                     dE             d eps       ncg     rms          rms(c)
DAV:   1    -0.125537946096E+03   -0.27712E-04   -0.13622E-03 14208   0.156E-01    0.779E-03
DAV:   2    -0.125537945825E+03    0.27170E-06   -0.14113E-05 14208   0.169E-02    0.486E-03
DAV:   3    -0.125537945902E+03   -0.77450E-07   -0.26574E-06 14400   0.787E-03
  64 F= -.12712542E+03 E0= -.12712464E+03  d E =-.100931E-04  mag=    -0.0000
       N       E                     dE             d eps       ncg     rms          rms(c)
DAV:   1    -0.125537960853E+03   -0.15028E-04   -0.38765E-04 14208   0.845E-02    0.414E-03
DAV:   2    -0.125537960700E+03    0.15309E-06   -0.49195E-06 14640   0.112E-02
  65 F= -.12712543E+03 E0= -.12712464E+03  d E =-.533698E-05  mag=    -0.0000
       N       E                     dE             d eps       ncg     rms          rms(c)
DAV:   1    -0.125537976347E+03   -0.15494E-04   -0.71820E-04 14208   0.115E-01    0.606E-03
DAV:   2    -0.125537976103E+03    0.24359E-06   -0.80325E-06 14208   0.139E-02
  66 F= -.12712543E+03 E0= -.12712465E+03  d E =-.772945E-05  mag=    -0.0000
       N       E                     dE             d eps       ncg     rms          rms(c)
DAV:   1    -0.125537987804E+03   -0.11457E-04   -0.25783E-04 14304   0.691E-02    0.382E-03
DAV:   2    -0.125537987499E+03    0.30479E-06   -0.39688E-06 14208   0.106E-02
  67 F= -.12712543E+03 E0= -.12712465E+03  d E =-.336928E-05  mag=    -0.0000
       N       E                     dE             d eps       ncg     rms          rms(c)
DAV:   1    -0.125538016614E+03   -0.28810E-04   -0.23402E-03 14208   0.206E-01    0.964E-03
DAV:   2    -0.125538016240E+03    0.37412E-06   -0.20292E-05 14208   0.214E-02    0.609E-03
DAV:   3    -0.125538016971E+03   -0.73089E-06   -0.51593E-06 14496   0.114E-02
  68 F= -.12712544E+03 E0= -.12712465E+03  d E =-.883711E-05  mag=     0.0000
       N       E                     dE             d eps       ncg     rms          rms(c)
DAV:   1    -0.125538029872E+03   -0.13632E-04   -0.34448E-04 14544   0.810E-02    0.363E-03
DAV:   2    -0.125538029692E+03    0.17961E-06   -0.43400E-06 16032   0.110E-02
  69 F= -.12712544E+03 E0= -.12712466E+03  d E =-.378390E-05  mag=     0.0000
       N       E                     dE             d eps       ncg     rms          rms(c)
DAV:   1    -0.125538065172E+03   -0.35300E-04   -0.30670E-03 14208   0.238E-01    0.106E-02
DAV:   2    -0.125538065844E+03   -0.67227E-06   -0.25839E-05 14208   0.237E-02    0.706E-03
DAV:   3    -0.125538066239E+03   -0.39489E-06   -0.41960E-06 14400   0.108E-02
  70 F= -.12712545E+03 E0= -.12712467E+03  d E =-.134706E-04  mag=    -0.0000
       N       E                     dE             d eps       ncg     rms          rms(c)
DAV:   1    -0.125538078227E+03   -0.12383E-04   -0.57287E-04 14208   0.104E-01    0.450E-03
DAV:   2    -0.125538078223E+03    0.41309E-08   -0.60132E-06 15312   0.125E-02
  71 F= -.12712545E+03 E0= -.12712467E+03  d E =-.138547E-04  mag=    -0.0000
       N       E                     dE             d eps       ncg     rms          rms(c)
DAV:   1    -0.125538094192E+03   -0.15965E-04   -0.42620E-04 14640   0.890E-02    0.459E-03
DAV:   2    -0.125538094014E+03    0.17832E-06   -0.51096E-06 14208   0.117E-02
  72 F= -.12712546E+03 E0= -.12712467E+03  d E =-.606088E-05  mag=    -0.0000
       N       E                     dE             d eps       ncg     rms          rms(c)
DAV:   1    -0.125538135492E+03   -0.41299E-04   -0.38265E-03 14208   0.265E-01    0.119E-02
DAV:   2    -0.125538136097E+03   -0.60555E-06   -0.32065E-05 14208   0.262E-02    0.793E-03
DAV:   3    -0.125538136771E+03   -0.67425E-06   -0.52125E-06 14736   0.119E-02
  73 F= -.12712547E+03 E0= -.12712469E+03  d E =-.196276E-04  mag=     0.0000
       N       E                     dE             d eps       ncg     rms          rms(c)
DAV:   1    -0.125538191190E+03   -0.55093E-04   -0.15333E-02 14208   0.530E-01    0.222E-02
DAV:   2    -0.125538195549E+03   -0.43594E-05   -0.12097E-04 14976   0.482E-02    0.149E-02
DAV:   3    -0.125538195120E+03    0.42913E-06   -0.10258E-05 14544   0.157E-02    0.439E-03
DAV:   4    -0.125538195027E+03    0.92447E-07   -0.57560E-06 14208   0.124E-02
  74 F= -.12712547E+03 E0= -.12712469E+03  d E =-.195392E-04  mag=     0.0000
       N       E                     dE             d eps       ncg     rms          rms(c)
DAV:   1    -0.125538168017E+03    0.27103E-04   -0.41412E-03 17328   0.275E-01    0.116E-02
DAV:   2    -0.125538168243E+03   -0.22655E-06   -0.26349E-05 14208   0.223E-02    0.741E-03
DAV:   3    -0.125538168059E+03    0.18414E-06   -0.33925E-06 14976   0.884E-03
  75 F= -.12712547E+03 E0= -.12712469E+03  d E =-.228599E-04  mag=     0.0000
       N       E                     dE             d eps       ncg     rms          rms(c)
DAV:   1    -0.125538197170E+03   -0.28926E-04   -0.19094E-03 14208   0.188E-01    0.736E-03
DAV:   2    -0.125538197672E+03   -0.50215E-06   -0.15415E-05 15888   0.179E-02    0.495E-03
DAV:   3    -0.125538197604E+03    0.67656E-07   -0.18208E-06 14736   0.694E-03
  76 F= -.12712548E+03 E0= -.12712470E+03  d E =-.968196E-05  mag=    -0.0000
       N       E                     dE             d eps       ncg     rms          rms(c)
DAV:   1    -0.125538240454E+03   -0.42782E-04   -0.64616E-03 14208   0.345E-01    0.142E-02
DAV:   2    -0.125538242634E+03   -0.21798E-05   -0.48830E-05 15456   0.306E-02    0.955E-03
DAV:   3    -0.125538242186E+03    0.44775E-06   -0.40281E-06 14736   0.943E-03
  77 F= -.12712549E+03 E0= -.12712471E+03  d E =-.175568E-04  mag=     0.0000
       N       E                     dE             d eps       ncg     rms          rms(c)
DAV:   1    -0.125538275036E+03   -0.32402E-04   -0.23914E-03 14208   0.210E-01    0.879E-03
DAV:   2    -0.125538275690E+03   -0.65354E-06   -0.17753E-05 14544   0.189E-02    0.589E-03
DAV:   3    -0.125538275613E+03    0.76845E-07   -0.19925E-06 14448   0.698E-03
  78 F= -.12712550E+03 E0= -.12712472E+03  d E =-.121613E-04  mag=    -0.0000
       N       E                     dE             d eps       ncg     rms          rms(c)
DAV:   1    -0.125538358866E+03   -0.83176E-04   -0.21555E-02 14208   0.629E-01    0.257E-02
DAV:   2    -0.125538364604E+03   -0.57379E-05   -0.15367E-04 16656   0.535E-02    0.172E-02
DAV:   3    -0.125538362391E+03    0.22134E-05   -0.11981E-05 14880   0.144E-02    0.436E-03
DAV:   4    -0.125538362408E+03   -0.17227E-07   -0.24213E-06 14208   0.762E-03
  79 F= -.12712553E+03 E0= -.12712474E+03  d E =-.351537E-04  mag=     0.0000
       N       E                     dE             d eps       ncg     rms          rms(c)
DAV:   1    -0.125538463495E+03   -0.10110E-03   -0.86325E-02 14208   0.126E+00    0.514E-02
DAV:   2    -0.125538485960E+03   -0.22465E-04   -0.60958E-04 19584   0.106E-01    0.344E-02
DAV:   3    -0.125538475715E+03    0.10245E-04   -0.44609E-05 14304   0.257E-02    0.801E-03
DAV:   4    -0.125538475890E+03   -0.17515E-06   -0.58922E-06 14304   0.104E-02
  80 F= -.12712551E+03 E0= -.12712473E+03  d E =-.210515E-04  mag=     0.0000
       N       E                     dE             d eps       ncg     rms          rms(c)
DAV:   1    -0.125538399614E+03    0.76101E-04   -0.43049E-02 14208   0.888E-01    0.359E-02
DAV:   2    -0.125538409585E+03   -0.99713E-05   -0.30552E-04 19632   0.750E-02    0.240E-02
DAV:   3    -0.125538404085E+03    0.54997E-05   -0.23249E-05 20496   0.187E-02    0.587E-03
DAV:   4    -0.125538404165E+03   -0.79442E-07   -0.32900E-06 14208   0.835E-03
  81 F= -.12712553E+03 E0= -.12712475E+03  d E =-.394826E-04  mag=     0.0000
       N       E                     dE             d eps       ncg     rms          rms(c)
DAV:   1    -0.125538437841E+03   -0.33756E-04   -0.25427E-03 18720   0.216E-01    0.858E-03
DAV:   2    -0.125538437942E+03   -0.10093E-06   -0.12171E-05 16656   0.150E-02    0.544E-03
DAV:   3    -0.125538437726E+03    0.21561E-06   -0.17165E-06 15408   0.602E-03
  82 F= -.12712554E+03 E0= -.12712476E+03  d E =-.119323E-04  mag=     0.0000
       N       E                     dE             d eps       ncg     rms          rms(c)
DAV:   1    -0.125538522188E+03   -0.84246E-04   -0.22878E-02 14208   0.649E-01    0.259E-02
DAV:   2    -0.125538530208E+03   -0.80197E-05   -0.15881E-04 15840   0.538E-02    0.177E-02
DAV:   3    -0.125538528201E+03    0.20065E-05   -0.10108E-05 14208   0.130E-02    0.450E-03
DAV:   4    -0.125538528274E+03   -0.73102E-07   -0.13555E-06 14208   0.528E-03
  83 F= -.12712557E+03 E0= -.12712479E+03  d E =-.377218E-04  mag=     0.0000
       N       E                     dE             d eps       ncg     rms          rms(c)
DAV:   1    -0.125538642851E+03   -0.11465E-03   -0.91559E-02 14208   0.130E+00    0.519E-02
DAV:   2    -0.125538673370E+03   -0.30519E-04   -0.61974E-04 16224   0.107E-01    0.353E-02
DAV:   3    -0.125538664566E+03    0.88040E-05   -0.40328E-05 15648   0.253E-02    0.850E-03
DAV:   4    -0.125538664768E+03   -0.20192E-06   -0.46127E-06 16224   0.899E-03
  84 F= -.12712558E+03 E0= -.12712479E+03  d E =-.443099E-04  mag=    -0.0000
       N       E                     dE             d eps       ncg     rms          rms(c)
DAV:   1    -0.125538608676E+03    0.55890E-04   -0.17539E-02 14208   0.568E-01    0.224E-02
DAV:   2    -0.125538614142E+03   -0.54658E-05   -0.12252E-04 19920   0.470E-02    0.154E-02
DAV:   3    -0.125538612258E+03    0.18843E-05   -0.78656E-06 16656   0.115E-02    0.372E-03
DAV:   4    -0.125538612312E+03   -0.54367E-07   -0.14221E-06 14208   0.579E-03
  85 F= -.12712558E+03 E0= -.12712480E+03  d E =-.488449E-04  mag=    -0.0000
       N       E                     dE             d eps       ncg     rms          rms(c)
DAV:   1    -0.125538652229E+03   -0.39971E-04   -0.36209E-03 14208   0.258E-01    0.998E-03
DAV:   2    -0.125538653461E+03   -0.12319E-05   -0.25306E-05 15936   0.213E-02    0.691E-03
DAV:   3    -0.125538653175E+03    0.28611E-06   -0.15211E-06 15024   0.552E-03
  86 F= -.12712559E+03 E0= -.12712481E+03  d E =-.152210E-04  mag=    -0.0000
       N       E                     dE             d eps       ncg     rms          rms(c)
DAV:   1    -0.125538761040E+03   -0.10758E-03   -0.32617E-02 14208   0.774E-01    0.307E-02
DAV:   2    -0.125538773120E+03   -0.12080E-04   -0.21974E-04 14208   0.628E-02    0.212E-02
DAV:   3    -0.125538770593E+03    0.25272E-05   -0.12302E-05 14208   0.146E-02    0.538E-03
DAV:   4    -0.125538770699E+03   -0.10635E-06   -0.16129E-06 14208   0.582E-03
  87 F= -.12712564E+03 E0= -.12712485E+03  d E =-.557870E-04  mag=     0.0000
       N       E                     dE             d eps       ncg     rms          rms(c)
DAV:   1    -0.125538945041E+03   -0.17445E-03   -0.13065E-01 14208   0.155E+00    0.615E-02
DAV:   2    -0.125538993080E+03   -0.48039E-04   -0.87405E-04 14208   0.125E-01    0.424E-02
DAV:   3    -0.125538981977E+03    0.11102E-04   -0.49242E-05 14496   0.287E-02    0.105E-02
DAV:   4    -0.125538982287E+03   -0.30983E-06   -0.57071E-06 16416   0.102E-02
  88 F= -.12712569E+03 E0= -.12712491E+03  d E =-.113581E-03  mag=     0.0000
       N       E                     dE             d eps       ncg     rms          rms(c)
DAV:   1    -0.125539165948E+03   -0.18397E-03   -0.52258E-01 14208   0.310E+00    0.123E-01
DAV:   2    -0.125539360048E+03   -0.19410E-03   -0.34922E-03 15552   0.250E-01    0.849E-02
DAV:   3    -0.125539312246E+03    0.47802E-04   -0.19523E-04 16032   0.561E-02    0.204E-02
DAV:   4    -0.125539313079E+03   -0.83364E-06   -0.21639E-05 19392   0.192E-02    0.589E-03
DAV:   5    -0.125539312883E+03    0.19659E-06   -0.34564E-06 14208   0.862E-03
  89 F= -.12712572E+03 E0= -.12712493E+03  d E =-.136737E-03  mag=     0.0000
       N       E                     dE             d eps       ncg     rms          rms(c)
DAV:   1    -0.125539191733E+03    0.12135E-03   -0.65650E-02 14208   0.110E+00    0.433E-02
DAV:   2    -0.125539215896E+03   -0.24162E-04   -0.45034E-04 19488   0.896E-02    0.302E-02
DAV:   3    -0.125539209890E+03    0.60057E-05   -0.25423E-05 20016   0.207E-02    0.714E-03
DAV:   4    -0.125539209900E+03   -0.10158E-07   -0.43395E-06 14208   0.101E-02
  90 F= -.12712572E+03 E0= -.12712494E+03  d E =-.142778E-03  mag=    -0.0000
       N       E                     dE             d eps       ncg     rms          rms(c)
DAV:   1    -0.125539276880E+03   -0.66990E-04   -0.10813E-02 14208   0.446E-01    0.173E-02
DAV:   2    -0.125539280515E+03   -0.36347E-05   -0.75005E-05 15552   0.369E-02    0.120E-02
DAV:   3    -0.125539279633E+03    0.88154E-06   -0.46951E-06 14880   0.976E-03
  91 F= -.12712575E+03 E0= -.12712497E+03  d E =-.255423E-04  mag=    -0.0000
       N       E                     dE             d eps       ncg     rms          rms(c)
DAV:   1    -0.125539449770E+03   -0.16925E-03   -0.97455E-02 14208   0.134E+00    0.531E-02
DAV:   2    -0.125539485979E+03   -0.36209E-04   -0.65228E-04 14208   0.108E-01    0.366E-02
DAV:   3    -0.125539477878E+03    0.81011E-05   -0.37463E-05 14208   0.255E-02    0.918E-03
DAV:   4    -0.125539478077E+03   -0.19911E-06   -0.49808E-06 14208   0.102E-02
  92 F= -.12712581E+03 E0= -.12712503E+03  d E =-.913613E-04  mag=    -0.0000
       N       E                     dE             d eps       ncg     rms          rms(c)
DAV:   1    -0.125539715909E+03   -0.23803E-03   -0.39035E-01 14208   0.268E+00    0.106E-01
DAV:   2    -0.125539860592E+03   -0.14468E-03   -0.26046E-03 15648   0.217E-01    0.733E-02
DAV:   3    -0.125539824493E+03    0.36099E-04   -0.14847E-04 14400   0.492E-02    0.174E-02
DAV:   4    -0.125539825099E+03   -0.60665E-06   -0.17887E-05 17376   0.180E-02    0.529E-03
DAV:   5    -0.125539824955E+03    0.14456E-06   -0.33213E-06 14208   0.882E-03
  93 F= -.12712590E+03 E0= -.12712511E+03  d E =-.173023E-03  mag=     0.0000
       N       E                     dE             d eps       ncg     rms          rms(c)
DAV:   1    -0.125539893586E+03   -0.68487E-04   -0.15604E+00 14208   0.536E+00    0.212E-01
DAV:   2    -0.125540470631E+03   -0.57705E-03   -0.10409E-02 18528   0.432E-01    0.147E-01
DAV:   3    -0.125540315952E+03    0.15468E-03   -0.58874E-04 19440   0.943E-02    0.331E-02
DAV:   4    -0.125540317100E+03   -0.11485E-05   -0.62870E-05 24336   0.309E-02    0.977E-03
DAV:   5    -0.125540316518E+03    0.58198E-06   -0.59676E-06 15456   0.105E-02
  94 F= -.12712586E+03 E0= -.12712507E+03  d E =-.134173E-03  mag=     0.0000
       N       E                     dE             d eps       ncg     rms          rms(c)
DAV:   1    -0.125539850965E+03    0.46614E-03   -0.65723E-01 14208   0.348E+00    0.137E-01
DAV:   2    -0.125540095083E+03   -0.24412E-03   -0.44389E-03 21216   0.281E-01    0.956E-02
DAV:   3    -0.125540028964E+03    0.66119E-04   -0.25344E-04 21792   0.617E-02    0.208E-02
DAV:   4    -0.125540028736E+03    0.22785E-06   -0.30763E-05 14304   0.242E-02    0.638E-03
DAV:   5    -0.125540028560E+03    0.17632E-06   -0.63298E-06 14208   0.124E-02
  95 F= -.12712591E+03 E0= -.12712513E+03  d E =-.190611E-03  mag=     0.0000
       N       E                     dE             d eps       ncg     rms          rms(c)
DAV:   1    -0.125540236127E+03   -0.20739E-03   -0.13842E-01 14208   0.160E+00    0.627E-02
DAV:   2    -0.125540281979E+03   -0.45852E-04   -0.92421E-04 14352   0.130E-01    0.430E-02
DAV:   3    -0.125540268795E+03    0.13183E-04   -0.59703E-05 15264   0.323E-02    0.109E-02
DAV:   4    -0.125540268804E+03   -0.87221E-08   -0.95296E-06 14208   0.148E-02
  96 F= -.12712600E+03 E0= -.12712521E+03  d E =-.827929E-04  mag=     0.0000
       N       E                     dE             d eps       ncg     rms          rms(c)
DAV:   1    -0.125540601489E+03   -0.33269E-03   -0.12172E+00 14208   0.473E+00    0.188E-01
DAV:   2    -0.125541024067E+03   -0.42258E-03   -0.80703E-03 19776   0.381E-01    0.129E-01
DAV:   3    -0.125540894003E+03    0.13006E-03   -0.48766E-04 16896   0.845E-02    0.271E-02
DAV:   4    -0.125540894256E+03   -0.25298E-06   -0.58246E-05 17280   0.312E-02    0.902E-03
DAV:   5    -0.125540894019E+03    0.23651E-06   -0.87301E-06 14496   0.140E-02
  97 F= -.12712615E+03 E0= -.12712537E+03  d E =-.241708E-03  mag=    -0.0000
       N       E                     dE             d eps       ncg     rms          rms(c)
DAV:   1    -0.125540612168E+03    0.28209E-03   -0.48666E+00 14208   0.946E+00    0.375E-01
DAV:   2    -0.125542274740E+03   -0.16626E-02   -0.32042E-02 19440   0.761E-01    0.258E-01
DAV:   3    -0.125541747502E+03    0.52724E-03   -0.19529E-03 18576   0.168E-01    0.556E-02
DAV:   4    -0.125541748054E+03   -0.55266E-06   -0.21328E-04 22032   0.570E-02    0.178E-02
DAV:   5    -0.125541746610E+03    0.14444E-05   -0.22235E-05 15696   0.212E-02    0.765E-03
DAV:   6    -0.125541749183E+03   -0.25732E-05   -0.13482E-05 14208   0.183E-02    0.299E-03
DAV:   7    -0.125541743892E+03    0.52912E-05   -0.50182E-06 20784   0.110E-02    0.870E-04
DAV:   8    -0.125541743944E+03   -0.51606E-07   -0.19268E-07 22656   0.202E-03
  98 F= -.12712607E+03 E0= -.12712530E+03  d E =-.160888E-03  mag=    -0.0000
       N       E                     dE             d eps       ncg     rms          rms(c)
DAV:   1    -0.125540785851E+03    0.95804E-03   -0.20476E+00 14208   0.613E+00    0.243E-01
DAV:   2    -0.125541485813E+03   -0.69996E-03   -0.13525E-02 23568   0.489E-01    0.168E-01
DAV:   3    -0.125541254203E+03    0.23161E-03   -0.81266E-04 21312   0.105E-01    0.334E-02
DAV:   4    -0.125541253325E+03    0.87787E-06   -0.89379E-05 18672   0.344E-02    0.113E-02
DAV:   5    -0.125541253187E+03    0.13872E-06   -0.65530E-06 25008   0.964E-03
  99 F= -.12712619E+03 E0= -.12712541E+03  d E =-.273423E-03  mag=     0.0000
       N       E                     dE             d eps       ncg     rms          rms(c)
DAV:   1    -0.125541473054E+03   -0.21973E-03   -0.15974E-01 14208   0.171E+00    0.677E-02
DAV:   2    -0.125541526213E+03   -0.53159E-04   -0.10631E-03 25392   0.137E-01    0.469E-02
DAV:   3    -0.125541508749E+03    0.17464E-04   -0.64159E-05 18192   0.295E-02    0.935E-03
DAV:   4    -0.125541508739E+03    0.96097E-08   -0.75902E-06 20016   0.104E-02
 100 F= -.12712628E+03 E0= -.12712550E+03  d E =-.895456E-04  mag=    -0.0000
       N       E                     dE             d eps       ncg     rms          rms(c)
DAV:   1    -0.125541821681E+03   -0.31293E-03   -0.14389E+00 14208   0.514E+00    0.204E-01
DAV:   2    -0.125542312621E+03   -0.49094E-03   -0.94426E-03 19440   0.412E-01    0.141E-01
DAV:   3    -0.125542156974E+03    0.15565E-03   -0.57326E-04 18528   0.905E-02    0.293E-02
DAV:   4    -0.125542157909E+03   -0.93537E-06   -0.60994E-05 26352   0.291E-02    0.963E-03
DAV:   5    -0.125542157342E+03    0.56668E-06   -0.39272E-06 22464   0.771E-03
 101 F= -.12712643E+03 E0= -.12712565E+03  d E =-.240653E-03  mag=    -0.0000
       N       E                     dE             d eps       ncg     rms          rms(c)
DAV:   1    -0.125542302953E+03   -0.14504E-03   -0.18528E-01 14208   0.185E+00    0.729E-02
DAV:   2    -0.125542366182E+03   -0.63229E-04   -0.12221E-03 16464   0.149E-01    0.501E-02
DAV:   3    -0.125542348054E+03    0.18129E-04   -0.74249E-05 17328   0.342E-02    0.116E-02
DAV:   4    -0.125542348338E+03   -0.28384E-06   -0.83323E-06 19344   0.122E-02
 102 F= -.12712644E+03 E0= -.12712566E+03  d E =-.253385E-03  mag=    -0.0000
       N       E                     dE             d eps       ncg     rms          rms(c)
DAV:   1    -0.125542524084E+03   -0.17603E-03   -0.11111E-01 14208   0.143E+00    0.569E-02
DAV:   2    -0.125542565180E+03   -0.41095E-04   -0.73820E-04 18528   0.115E-01    0.395E-02
DAV:   3    -0.125542555612E+03    0.95673E-05   -0.40094E-05 14400   0.258E-02    0.907E-03
DAV:   4    -0.125542555733E+03   -0.12090E-06   -0.59845E-06 14208   0.114E-02
 103 F= -.12712652E+03 E0= -.12712574E+03  d E =-.776714E-04  mag=    -0.0000
       N       E                     dE             d eps       ncg     rms          rms(c)
DAV:   1    -0.125542810135E+03   -0.25452E-03   -0.99887E-01 14208   0.429E+00    0.170E-01
DAV:   2    -0.125543167303E+03   -0.35717E-03   -0.65148E-03 15888   0.341E-01    0.117E-01
DAV:   3    -0.125543072736E+03    0.94567E-04   -0.35586E-04 16944   0.748E-02    0.282E-02
DAV:   4    -0.125543073851E+03   -0.11154E-05   -0.37781E-05 25104   0.245E-02    0.785E-03
DAV:   5    -0.125543073427E+03    0.42418E-06   -0.45557E-06 14784   0.927E-03
 104 F= -.12712665E+03 E0= -.12712586E+03  d E =-.206568E-03  mag=    -0.0000
       N       E                     dE             d eps       ncg     rms          rms(c)
DAV:   1    -0.125543187192E+03   -0.11334E-03   -0.13099E-01 14208   0.155E+00    0.613E-02
DAV:   2    -0.125543234175E+03   -0.46983E-04   -0.86430E-04 15936   0.125E-01    0.424E-02
DAV:   3    -0.125543223363E+03    0.10811E-04   -0.48373E-05 15360   0.293E-02    0.105E-02
DAV:   4    -0.125543223424E+03   -0.60310E-07   -0.78391E-06 14208   0.137E-02
 105 F= -.12712666E+03 E0= -.12712587E+03  d E =-.215842E-03  mag=     0.0000
       N       E                     dE             d eps       ncg     rms          rms(c)
DAV:   1    -0.125543429551E+03   -0.20619E-03   -0.26064E-01 14208   0.219E+00    0.870E-02
DAV:   2    -0.125543524595E+03   -0.95044E-04   -0.17192E-03 17568   0.176E-01    0.601E-02
DAV:   3    -0.125543500621E+03    0.23974E-04   -0.95411E-05 14352   0.395E-02    0.142E-02
DAV:   4    -0.125543500962E+03   -0.34087E-06   -0.12262E-05 14208   0.156E-02    0.422E-03
DAV:   5    -0.125543500898E+03    0.63957E-07   -0.28045E-06 14304   0.828E-03
 106 F= -.12712675E+03 E0= -.12712596E+03  d E =-.910343E-04  mag=    -0.0000
       N       E                     dE             d eps       ncg     rms          rms(c)
DAV:   1    -0.125543600886E+03   -0.99924E-04   -0.76093E-02 14208   0.118E+00    0.469E-02
DAV:   2    -0.125543629040E+03   -0.28154E-04   -0.51072E-04 20448   0.952E-02    0.326E-02
DAV:   3    -0.125543622072E+03    0.69679E-05   -0.27158E-05 15744   0.207E-02    0.732E-03
DAV:   4    -0.125543622195E+03   -0.12295E-06   -0.36683E-06 14592   0.850E-03
 107 F= -.12712677E+03 E0= -.12712599E+03  d E =-.111726E-03  mag=    -0.0000
       N       E                     dE             d eps       ncg     rms          rms(c)
DAV:   1    -0.125543659149E+03   -0.37077E-04   -0.10688E-02 14208   0.444E-01    0.178E-02
DAV:   2    -0.125543663258E+03   -0.41095E-05   -0.71948E-05 18624   0.361E-02    0.124E-02
DAV:   3    -0.125543662663E+03    0.59542E-06   -0.42645E-06 16800   0.901E-03
 108 F= -.12712677E+03 E0= -.12712599E+03  d E =-.114453E-03  mag=     0.0000
       N       E                     dE             d eps       ncg     rms          rms(c)
DAV:   1    -0.125543781890E+03   -0.11863E-03   -0.54362E-02 14208   0.100E+00    0.399E-02
DAV:   2    -0.125543799686E+03   -0.17796E-04   -0.36696E-04 23328   0.812E-02    0.275E-02
DAV:   3    -0.125543794249E+03    0.54365E-05   -0.23375E-05 14880   0.187E-02    0.637E-03
DAV:   4    -0.125543794251E+03   -0.14925E-08   -0.35564E-06 14208   0.831E-03
 109 F= -.12712683E+03 E0= -.12712605E+03  d E =-.606137E-04  mag=     0.0000
       N       E                     dE             d eps       ncg     rms          rms(c)
DAV:   1    -0.125543962384E+03   -0.16813E-03   -0.31626E-01 14208   0.241E+00    0.963E-02
DAV:   2    -0.125544062524E+03   -0.10014E-03   -0.21039E-03 18768   0.195E-01    0.658E-02
DAV:   3    -0.125544028930E+03    0.33594E-04   -0.13716E-04 17136   0.447E-02    0.154E-02
DAV:   4    -0.125544029064E+03   -0.13488E-06   -0.16144E-05 21072   0.152E-02    0.495E-03
DAV:   5    -0.125544029030E+03    0.34209E-07   -0.13738E-06 15216   0.493E-03
 110 F= -.12712689E+03 E0= -.12712611E+03  d E =-.124109E-03  mag=    -0.0000
       N       E                     dE             d eps       ncg     rms          rms(c)
DAV:   1    -0.125544142693E+03   -0.11363E-03   -0.10583E-01 14208   0.140E+00    0.556E-02
DAV:   2    -0.125544177924E+03   -0.35231E-04   -0.70973E-04 24000   0.113E-01    0.384E-02
DAV:   3    -0.125544166816E+03    0.11108E-04   -0.43605E-05 14832   0.254E-02    0.842E-03
DAV:   4    -0.125544166861E+03   -0.44675E-07   -0.60027E-06 14208   0.103E-02
 111 F= -.12712696E+03 E0= -.12712617E+03  d E =-.627403E-04  mag=    -0.0000
       N       E                     dE             d eps       ncg     rms          rms(c)
DAV:   1    -0.125544209346E+03   -0.42530E-04   -0.30991E-02 14208   0.755E-01    0.304E-02
DAV:   2    -0.125544220192E+03   -0.10845E-04   -0.20946E-04 19536   0.617E-02    0.210E-02
DAV:   3    -0.125544217483E+03    0.27086E-05   -0.13311E-05 15168   0.147E-02    0.504E-03
DAV:   4    -0.125544217521E+03   -0.38150E-07   -0.20164E-06 14304   0.649E-03
 112 F= -.12712697E+03 E0= -.12712618E+03  d E =-.726222E-04  mag=    -0.0000
       N       E                     dE             d eps       ncg     rms          rms(c)
DAV:   1    -0.125544285004E+03   -0.67521E-04   -0.66023E-02 14208   0.110E+00    0.441E-02
DAV:   2    -0.125544308113E+03   -0.23109E-04   -0.44066E-04 24000   0.881E-02    0.307E-02
DAV:   3    -0.125544301898E+03    0.62153E-05   -0.23215E-05 14688   0.186E-02    0.676E-03
DAV:   4    -0.125544302005E+03   -0.10698E-06   -0.30517E-06 14208   0.732E-03
 113 F= -.12712702E+03 E0= -.12712624E+03  d E =-.527348E-04  mag=    -0.0000
       N       E                     dE             d eps       ncg     rms          rms(c)
DAV:   1    -0.125544331699E+03   -0.29801E-04   -0.47675E-02 14208   0.936E-01    0.376E-02
DAV:   2    -0.125544348343E+03   -0.16644E-04   -0.31709E-04 23952   0.748E-02    0.261E-02
DAV:   3    -0.125544344012E+03    0.43311E-05   -0.16916E-05 14928   0.161E-02    0.578E-03
DAV:   4    -0.125544344104E+03   -0.92123E-07   -0.22618E-06 14208   0.649E-03
 114 F= -.12712703E+03 E0= -.12712625E+03  d E =-.677849E-04  mag=    -0.0000
       N       E                     dE             d eps       ncg     rms          rms(c)
DAV:   1    -0.125544374957E+03   -0.30945E-04   -0.68530E-02 14208   0.112E+00    0.454E-02
DAV:   2    -0.125544398447E+03   -0.23490E-04   -0.47304E-04 20256   0.920E-02    0.313E-02
DAV:   3    -0.125544392097E+03    0.63493E-05   -0.26879E-05 16800   0.206E-02    0.811E-03
DAV:   4    -0.125544392159E+03   -0.61280E-07   -0.33965E-06 14208   0.766E-03
 115 F= -.12712708E+03 E0= -.12712629E+03  d E =-.416413E-04  mag=    -0.0000
       N       E                     dE             d eps       ncg     rms          rms(c)
DAV:   1    -0.125544393680E+03   -0.15825E-05   -0.18233E-03 14400   0.183E-01    0.757E-03
DAV:   2    -0.125544394421E+03   -0.74132E-06   -0.13100E-05 14448   0.157E-02    0.520E-03
DAV:   3    -0.125544394302E+03    0.11884E-06   -0.93048E-07 18000   0.461E-03
 116 F= -.12712708E+03 E0= -.12712630E+03  d E =-.427366E-04  mag=     0.0000
       N       E                     dE             d eps       ncg     rms          rms(c)
DAV:   1    -0.125544403831E+03   -0.94100E-05   -0.22777E-02 14208   0.646E-01    0.260E-02
DAV:   2    -0.125544410227E+03   -0.63958E-05   -0.15175E-04 16224   0.525E-02    0.176E-02
DAV:   3    -0.125544407864E+03    0.23629E-05   -0.10522E-05 17040   0.130E-02    0.448E-03
DAV:   4    -0.125544407930E+03   -0.65999E-07   -0.13551E-06 14208   0.524E-03
 117 F= -.12712711E+03 E0= -.12712633E+03  d E =-.303896E-04  mag=     0.0000
       N       E                     dE             d eps       ncg     rms          rms(c)
DAV:   1    -0.125544395160E+03    0.12704E-04   -0.36535E-02 14208   0.818E-01    0.330E-02
DAV:   2    -0.125544405518E+03   -0.10358E-04   -0.24261E-04 16416   0.664E-02    0.223E-02
DAV:   3    -0.125544401691E+03    0.38273E-05   -0.16802E-05 14736   0.163E-02    0.557E-03
DAV:   4    -0.125544401780E+03   -0.88991E-07   -0.21646E-06 14208   0.650E-03
 118 F= -.12712712E+03 E0= -.12712634E+03  d E =-.454587E-04  mag=     0.0000
       N       E                     dE             d eps       ncg     rms          rms(c)
DAV:   1    -0.125544405416E+03   -0.37249E-05   -0.54674E-03 14208   0.317E-01    0.127E-02
DAV:   2    -0.125544407184E+03   -0.17680E-05   -0.36901E-05 14208   0.262E-02    0.872E-03
DAV:   3    -0.125544406688E+03    0.49551E-06   -0.28035E-06 14208   0.749E-03
 119 F= -.12712714E+03 E0= -.12712636E+03  d E =-.182567E-04  mag=    -0.0000
       N       E                     dE             d eps       ncg     rms          rms(c)
DAV:   1    -0.125544400944E+03    0.62396E-05   -0.49083E-02 14208   0.949E-01    0.379E-02
DAV:   2    -0.125544415603E+03   -0.14659E-04   -0.32313E-04 14448   0.767E-02    0.258E-02
DAV:   3    -0.125544410698E+03    0.49054E-05   -0.22315E-05 16272   0.191E-02    0.663E-03
DAV:   4    -0.125544410814E+03   -0.11630E-06   -0.29243E-06 14256   0.777E-03
 120 F= -.12712719E+03 E0= -.12712640E+03  d E =-.623677E-04  mag=    -0.0000
       N       E                     dE             d eps       ncg     rms          rms(c)
DAV:   1    -0.125544333089E+03    0.77609E-04   -0.19654E-01 14208   0.190E+00    0.758E-02
DAV:   2    -0.125544390501E+03   -0.57412E-04   -0.12848E-03 15792   0.153E-01    0.516E-02
DAV:   3    -0.125544369618E+03    0.20883E-04   -0.88712E-05 17328   0.370E-02    0.127E-02
DAV:   4    -0.125544369785E+03   -0.16690E-06   -0.10078E-05 14208   0.134E-02    0.409E-03
DAV:   5    -0.125544369766E+03    0.19222E-07   -0.19106E-06 14208   0.669E-03
 121 F= -.12712722E+03 E0= -.12712644E+03  d E =-.101313E-03  mag=    -0.0000
       N       E                     dE             d eps       ncg     rms          rms(c)
DAV:   1    -0.125544361331E+03    0.84545E-05   -0.22669E-02 14208   0.646E-01    0.254E-02
DAV:   2    -0.125544369043E+03   -0.77125E-05   -0.14800E-04 14208   0.519E-02    0.176E-02
DAV:   3    -0.125544367177E+03    0.18662E-05   -0.96508E-06 16032   0.139E-02    0.458E-03
DAV:   4    -0.125544367240E+03   -0.63211E-07   -0.24463E-06 14208   0.802E-03
 122 F= -.12712726E+03 E0= -.12712648E+03  d E =-.367677E-04  mag=     0.0000
       N       E                     dE             d eps       ncg     rms          rms(c)
DAV:   1    -0.125544293502E+03    0.73675E-04   -0.20404E-01 14208   0.194E+00    0.765E-02
DAV:   2    -0.125544361056E+03   -0.67555E-04   -0.13065E-03 14784   0.153E-01    0.527E-02
DAV:   3    -0.125544341620E+03    0.19436E-04   -0.79133E-05 17424   0.357E-02    0.130E-02
DAV:   4    -0.125544341883E+03   -0.26291E-06   -0.88736E-06 14304   0.131E-02
 123 F= -.12712735E+03 E0= -.12712657E+03  d E =-.129192E-03  mag=     0.0000
       N       E                     dE             d eps       ncg     rms          rms(c)
DAV:   1    -0.125544022056E+03    0.31956E-03   -0.81638E-01 14208   0.387E+00    0.153E-01
DAV:   2    -0.125544295723E+03   -0.27367E-03   -0.52398E-03 18864   0.305E-01    0.106E-01
DAV:   3    -0.125544211553E+03    0.84170E-04   -0.30774E-04 19200   0.674E-02    0.233E-02
DAV:   4    -0.125544211655E+03   -0.10158E-06   -0.34307E-05 16128   0.241E-02    0.718E-03
DAV:   5    -0.125544211475E+03    0.18005E-06   -0.50344E-06 15456   0.105E-02
 124 F= -.12712746E+03 E0= -.12712668E+03  d E =-.234154E-03  mag=     0.0000
       N       E                     dE             d eps       ncg     rms          rms(c)
DAV:   1    -0.125542901839E+03    0.13098E-02   -0.32635E+00 14208   0.774E+00    0.306E-01
DAV:   2    -0.125543985501E+03   -0.10837E-02   -0.20883E-02 19824   0.609E-01    0.212E-01
DAV:   3    -0.125543634482E+03    0.35102E-03   -0.12179E-03 19536   0.132E-01    0.461E-02
DAV:   4    -0.125543634319E+03    0.16306E-06   -0.13224E-04 23520   0.450E-02    0.141E-02
DAV:   5    -0.125543633215E+03    0.11035E-05   -0.12187E-05 17328   0.157E-02    0.604E-03
DAV:   6    -0.125543634050E+03   -0.83432E-06   -0.72028E-06 19968   0.135E-02
 125 F= -.12712735E+03 E0= -.12712658E+03  d E =-.126460E-03  mag=    -0.0000
       N       E                     dE             d eps       ncg     rms          rms(c)
DAV:   1    -0.125543688022E+03   -0.54807E-04   -0.18745E+00 14208   0.587E+00    0.232E-01
DAV:   2    -0.125544313343E+03   -0.62532E-03   -0.12089E-02 21648   0.461E-01    0.161E-01
DAV:   3    -0.125544110330E+03    0.20301E-03   -0.70543E-04 17952   0.997E-02    0.339E-02
DAV:   4    -0.125544110787E+03   -0.45750E-06   -0.75679E-05 20208   0.331E-02    0.107E-02
DAV:   5    -0.125544110347E+03    0.44084E-06   -0.61088E-06 16416   0.102E-02
 126 F= -.12712747E+03 E0= -.12712669E+03  d E =-.246944E-03  mag=     0.0000
       N       E                     dE             d eps       ncg     rms          rms(c)
DAV:   1    -0.125544100565E+03    0.10222E-04   -0.18143E-02 14208   0.577E-01    0.227E-02
DAV:   2    -0.125544106357E+03   -0.57920E-05   -0.11941E-04 14304   0.469E-02    0.157E-02
DAV:   3    -0.125544104891E+03    0.14665E-05   -0.87271E-06 14976   0.139E-02    0.422E-03
DAV:   4    -0.125544104842E+03    0.48156E-07   -0.33997E-06 14256   0.952E-03
 127 F= -.12712750E+03 E0= -.12712672E+03  d E =-.315663E-04  mag=     0.0000
       N       E                     dE             d eps       ncg     rms          rms(c)
DAV:   1    -0.125544038671E+03    0.66219E-04   -0.16361E-01 14208   0.173E+00    0.685E-02
DAV:   2    -0.125544094179E+03   -0.55507E-04   -0.10460E-03 14448   0.137E-01    0.473E-02
DAV:   3    -0.125544078939E+03    0.15240E-04   -0.62113E-05 17472   0.321E-02    0.117E-02
DAV:   4    -0.125544079166E+03   -0.22739E-06   -0.73906E-06 14304   0.124E-02
 128 F= -.12712759E+03 E0= -.12712681E+03  d E =-.117190E-03  mag=     0.0000
