 running   96 mpi-ranks, with    1 threads/rank, on    2 nodes
 distrk:  each k-point on   96 cores,    1 groups
 distr:  one band on    1 cores,   96 groups
 vasp.6.4.2 20Jul23 (build Aug 23 2023 19:13:21) complex                        
  
 POSCAR found type information on POSCAR B C 
 POSCAR found :  2 types and      15 ions
 Reading from existing POTCAR
 scaLAPACK will be used
 Reading from existing POTCAR
 LDA part: xc-table for Pade appr. of Perdew
 POSCAR found type information on POSCAR B C 
 POSCAR found :  2 types and      15 ions
 found WAVECAR, reading the header
 POSCAR, INCAR and KPOINTS ok, starting setup
 FFT: planning ... GRIDC
 FFT: planning ... GRID_SOFT
 FFT: planning ... GRID
 reading WAVECAR
 the WAVECAR file was read successfully
 initial charge from wavefunction
 entering main loop
       N       E                     dE             d eps       ncg     rms          ort
 gam= 0.000 g(H,U,f)=  0.416E-06 0.136E-06 0.658E-26 ort(H,U,f) = 0.000E+00 0.000E+00 0.000E+00
SDA:   1    -0.143424992829E+03   -0.14342E+03   -0.22057E-06  5856   0.551E-06 0.000E+00
 gam= 0.382 g(H,U,f)=  0.155E-06 0.974E-07 0.199E-24 ort(H,U,f) = 0.245E-06 0.115E-06-0.332E-25
DMP:   2    -0.143424993012E+03   -0.18253E-06   -0.15594E-06  5856   0.253E-06 0.360E-06
 final diagonalization
   1 F= -.14342499E+03 E0= -.14342499E+03  d E =-.253505E-10
 writing wavefunctions
