   8   8   1  16
  0.3953030E+02  0.4934000E-09  0.4934000E-09  0.1500000E-08  0.5000000E-15
  1.000000000000000E-004
  CAR 
 BS                                      
     13.38552995    -23.43060324  301     -2.25317623      1.00000000
    -23.431  0.0000E+00  0.0000E+00
    -23.308  0.0000E+00  0.0000E+00
    -23.185  0.0000E+00  0.0000E+00
    -23.062  0.0000E+00  0.0000E+00
    -22.940  0.0000E+00  0.0000E+00
    -22.817  0.0000E+00  0.0000E+00
    -22.694  0.0000E+00  0.0000E+00
    -22.572  0.0000E+00  0.0000E+00
    -22.449  0.0000E+00  0.0000E+00
    -22.326  0.3204E-15  0.3932E-16
    -22.203  0.1164E-09  0.1428E-10
    -22.081  0.2275E-05  0.2791E-06
    -21.958  0.2582E-02  0.3171E-03
    -21.835  0.1980E+00  0.2462E-01
    -21.713  0.1419E+01  0.1988E+00
    -21.590  0.1731E+01  0.4113E+00
    -21.467  0.1126E+01  0.5495E+00
    -21.344  0.8711E+00  0.6564E+00
    -21.222  0.7430E+00  0.7475E+00
    -21.099  0.6601E+00  0.8286E+00
    -20.976  0.6006E+00  0.9023E+00
    -20.853  0.5551E+00  0.9704E+00
    -20.731  0.5188E+00  0.1034E+01
    -20.608  0.4890E+00  0.1094E+01
    -20.485  0.4709E+00  0.1152E+01
    -20.363  0.8961E+00  0.1262E+01
    -20.240  0.3252E+01  0.1661E+01
    -20.117  0.3580E+01  0.2100E+01
    -19.994  0.2460E+01  0.2402E+01
    -19.872  0.2007E+01  0.2648E+01
    -19.749  0.1648E+01  0.2851E+01
    -19.626  0.1213E+01  0.3000E+01
    -19.504  0.1073E+01  0.3131E+01
    -19.381  0.1017E+01  0.3256E+01
    -19.258  0.9716E+00  0.3375E+01
    -19.135  0.9333E+00  0.3490E+01
    -19.013  0.9003E+00  0.3600E+01
    -18.890  0.8714E+00  0.3707E+01
    -18.767  0.8458E+00  0.3811E+01
    -18.645  0.8230E+00  0.3912E+01
    -18.522  0.8025E+00  0.4010E+01
    -18.399  0.7840E+00  0.4107E+01
    -18.276  0.7673E+00  0.4201E+01
    -18.154  0.7522E+00  0.4293E+01
    -18.031  0.7386E+00  0.4384E+01
    -17.908  0.7264E+00  0.4473E+01
    -17.785  0.7155E+00  0.4561E+01
    -17.663  0.7118E+00  0.4648E+01
    -17.540  0.1024E+01  0.4774E+01
    -17.417  0.2503E+01  0.5081E+01
    -17.295  0.2585E+01  0.5398E+01
    -17.172  0.1939E+01  0.5636E+01
    -17.049  0.1700E+01  0.5845E+01
    -16.926  0.1599E+01  0.6041E+01
    -16.804  0.1578E+01  0.6235E+01
    -16.681  0.1696E+01  0.6443E+01
    -16.558  0.2361E+01  0.6732E+01
    -16.436  0.2475E+01  0.7036E+01
    -16.313  0.1151E+01  0.7177E+01
    -16.190  0.7410E+00  0.7268E+01
    -16.067  0.6427E+00  0.7347E+01
    -15.945  0.5891E+00  0.7419E+01
    -15.822  0.5540E+00  0.7487E+01
    -15.699  0.5306E+00  0.7552E+01
    -15.576  0.6530E+00  0.7633E+01
    -15.454  0.2068E+01  0.7886E+01
    -15.331  0.3068E+01  0.8263E+01
    -15.208  0.2296E+01  0.8545E+01
    -15.086  0.1946E+01  0.8783E+01
    -14.963  0.1827E+01  0.9008E+01
    -14.840  0.1860E+01  0.9236E+01
    -14.717  0.1947E+01  0.9475E+01
    -14.595  0.1971E+01  0.9717E+01
    -14.472  0.1399E+01  0.9888E+01
    -14.349  0.1085E+01  0.1002E+02
    -14.227  0.1049E+01  0.1015E+02
    -14.104  0.1030E+01  0.1028E+02
    -13.981  0.1014E+01  0.1040E+02
    -13.858  0.1000E+01  0.1052E+02
    -13.736  0.9894E+00  0.1065E+02
    -13.613  0.9811E+00  0.1077E+02
    -13.490  0.9760E+00  0.1089E+02
    -13.368  0.9749E+00  0.1101E+02
    -13.245  0.9799E+00  0.1113E+02
    -13.122  0.9954E+00  0.1125E+02
    -12.999  0.1036E+01  0.1137E+02
    -12.877  0.1259E+01  0.1153E+02
    -12.754  0.2099E+01  0.1179E+02
    -12.631  0.1897E+01  0.1202E+02
    -12.508  0.1300E+01  0.1218E+02
    -12.386  0.1152E+01  0.1232E+02
    -12.263  0.1088E+01  0.1245E+02
    -12.140  0.1047E+01  0.1258E+02
    -12.018  0.1019E+01  0.1271E+02
    -11.895  0.9970E+00  0.1283E+02
    -11.772  0.9802E+00  0.1295E+02
    -11.649  0.9667E+00  0.1307E+02
    -11.527  0.9559E+00  0.1319E+02
    -11.404  0.9480E+00  0.1330E+02
    -11.281  0.1008E+01  0.1343E+02
    -11.159  0.1489E+01  0.1361E+02
    -11.036  0.1660E+01  0.1381E+02
    -10.913  0.1426E+01  0.1399E+02
    -10.790  0.1345E+01  0.1415E+02
    -10.668  0.1316E+01  0.1431E+02
    -10.545  0.1306E+01  0.1447E+02
    -10.422  0.1308E+01  0.1463E+02
    -10.300  0.1323E+01  0.1480E+02
    -10.177  0.1355E+01  0.1496E+02
    -10.054  0.1502E+01  0.1515E+02
     -9.931  0.2126E+01  0.1541E+02
     -9.809  0.4050E+01  0.1591E+02
     -9.686  0.7024E+01  0.1677E+02
     -9.563  0.5586E+01  0.1745E+02
     -9.440  0.2123E+01  0.1771E+02
     -9.318  0.1700E+01  0.1792E+02
     -9.195  0.1664E+01  0.1813E+02
     -9.072  0.1687E+01  0.1833E+02
     -8.950  0.2414E+01  0.1863E+02
     -8.827  0.5106E+01  0.1926E+02
     -8.704  0.6679E+01  0.2008E+02
     -8.581  0.6148E+01  0.2083E+02
     -8.459  0.2929E+01  0.2119E+02
     -8.336  0.2043E+01  0.2144E+02
     -8.213  0.2218E+01  0.2171E+02
     -8.091  0.4266E+01  0.2224E+02
     -7.968  0.4749E+01  0.2282E+02
     -7.845  0.3692E+01  0.2327E+02
     -7.722  0.3280E+01  0.2368E+02
     -7.600  0.3142E+01  0.2406E+02
     -7.477  0.2993E+01  0.2443E+02
     -7.354  0.3182E+01  0.2482E+02
     -7.232  0.3104E+01  0.2520E+02
     -7.109  0.1835E+01  0.2542E+02
     -6.986  0.1510E+01  0.2561E+02
     -6.863  0.1482E+01  0.2579E+02
     -6.741  0.1467E+01  0.2597E+02
     -6.618  0.1457E+01  0.2615E+02
     -6.495  0.1454E+01  0.2633E+02
     -6.372  0.1457E+01  0.2651E+02
     -6.250  0.1467E+01  0.2669E+02
     -6.127  0.1486E+01  0.2687E+02
     -6.004  0.1516E+01  0.2706E+02
     -5.882  0.1561E+01  0.2725E+02
     -5.759  0.1628E+01  0.2745E+02
     -5.636  0.1734E+01  0.2766E+02
     -5.513  0.1922E+01  0.2790E+02
     -5.391  0.2395E+01  0.2819E+02
     -5.268  0.2974E+01  0.2856E+02
     -5.145  0.1671E+01  0.2876E+02
     -5.023  0.1628E+01  0.2896E+02
     -4.900  0.3652E+01  0.2941E+02
     -4.777  0.3681E+01  0.2986E+02
     -4.654  0.4223E+01  0.3038E+02
     -4.532  0.3776E+01  0.3084E+02
     -4.409  0.1256E+01  0.3100E+02
     -4.286  0.6663E+00  0.3108E+02
     -4.163  0.5767E+00  0.3115E+02
     -4.041  0.5303E+00  0.3121E+02
     -3.918  0.4996E+00  0.3127E+02
     -3.795  0.4774E+00  0.3133E+02
     -3.673  0.4608E+00  0.3139E+02
     -3.550  0.4480E+00  0.3145E+02
     -3.427  0.4379E+00  0.3150E+02
     -3.304  0.4301E+00  0.3155E+02
     -3.182  0.4240E+00  0.3160E+02
     -3.059  0.4194E+00  0.3166E+02
     -2.936  0.4164E+00  0.3171E+02
     -2.814  0.4146E+00  0.3176E+02
     -2.691  0.4141E+00  0.3181E+02
     -2.568  0.4148E+00  0.3186E+02
     -2.445  0.4174E+00  0.3191E+02
     -2.323  0.4438E+00  0.3196E+02
     -2.200  0.5144E+00  0.3203E+02
     -2.077  0.4567E+00  0.3208E+02
     -1.955  0.4254E+00  0.3214E+02
     -1.832  0.4260E+00  0.3219E+02
     -1.709  0.4295E+00  0.3224E+02
     -1.586  0.4353E+00  0.3229E+02
     -1.464  0.4445E+00  0.3235E+02
     -1.341  0.4580E+00  0.3240E+02
     -1.218  0.4778E+00  0.3246E+02
     -1.095  0.5077E+00  0.3253E+02
     -0.973  0.5553E+00  0.3259E+02
     -0.850  0.6407E+00  0.3267E+02
     -0.727  0.8819E+00  0.3278E+02
     -0.605  0.2214E+01  0.3305E+02
     -0.482  0.3718E+01  0.3351E+02
     -0.359  0.2422E+01  0.3381E+02
     -0.236  0.1729E+01  0.3402E+02
     -0.114  0.1522E+01  0.3421E+02
      0.009  0.1427E+01  0.3438E+02
      0.132  0.1391E+01  0.3455E+02
      0.254  0.1408E+01  0.3472E+02
      0.377  0.1519E+01  0.3491E+02
      0.500  0.1908E+01  0.3514E+02
      0.623  0.1830E+01  0.3537E+02
      0.745  0.7819E+00  0.3546E+02
      0.868  0.5712E+00  0.3554E+02
      0.991  0.1134E+01  0.3567E+02
      1.113  0.2121E+01  0.3593E+02
      1.236  0.1709E+01  0.3614E+02
      1.359  0.1346E+01  0.3631E+02
      1.482  0.1195E+01  0.3646E+02
      1.604  0.1104E+01  0.3659E+02
      1.727  0.1047E+01  0.3672E+02
      1.850  0.1267E+01  0.3688E+02
      1.973  0.2348E+01  0.3716E+02
      2.095  0.2320E+01  0.3745E+02
      2.218  0.1817E+01  0.3767E+02
      2.341  0.1660E+01  0.3788E+02
      2.463  0.2282E+01  0.3816E+02
      2.586  0.3000E+01  0.3852E+02
      2.709  0.2444E+01  0.3882E+02
      2.832  0.2106E+01  0.3908E+02
      2.954  0.2476E+01  0.3939E+02
      3.077  0.4457E+01  0.3993E+02
      3.200  0.4289E+01  0.4046E+02
      3.322  0.3355E+01  0.4087E+02
      3.445  0.2963E+01  0.4123E+02
      3.568  0.2748E+01  0.4157E+02
      3.691  0.2607E+01  0.4189E+02
      3.813  0.2518E+01  0.4220E+02
      3.936  0.4151E+01  0.4271E+02
      4.059  0.5003E+01  0.4332E+02
      4.181  0.4245E+01  0.4384E+02
      4.304  0.4208E+01  0.4436E+02
      4.427  0.5024E+01  0.4498E+02
      4.550  0.6968E+01  0.4583E+02
      4.672  0.7028E+01  0.4670E+02
      4.795  0.5860E+01  0.4741E+02
      4.918  0.6066E+01  0.4816E+02
      5.041  0.6859E+01  0.4900E+02
      5.163  0.8609E+01  0.5006E+02
      5.286  0.8090E+01  0.5105E+02
      5.409  0.5785E+01  0.5176E+02
      5.531  0.5314E+01  0.5241E+02
      5.654  0.4963E+01  0.5302E+02
      5.777  0.5552E+01  0.5370E+02
      5.900  0.5695E+01  0.5440E+02
      6.022  0.5876E+01  0.5512E+02
      6.145  0.8022E+01  0.5611E+02
      6.268  0.7417E+01  0.5702E+02
      6.390  0.7701E+01  0.5796E+02
      6.513  0.7363E+01  0.5887E+02
      6.636  0.5998E+01  0.5960E+02
      6.759  0.5640E+01  0.6029E+02
      6.881  0.5460E+01  0.6096E+02
      7.004  0.6379E+01  0.6175E+02
      7.127  0.7587E+01  0.6268E+02
      7.250  0.8433E+01  0.6371E+02
      7.372  0.6998E+01  0.6457E+02
      7.495  0.6708E+01  0.6540E+02
      7.618  0.6824E+01  0.6623E+02
      7.740  0.7263E+01  0.6712E+02
      7.863  0.6421E+01  0.6791E+02
      7.986  0.5918E+01  0.6864E+02
      8.109  0.5598E+01  0.6933E+02
      8.231  0.5979E+01  0.7006E+02
      8.354  0.7557E+01  0.7099E+02
      8.477  0.8584E+01  0.7204E+02
      8.599  0.8133E+01  0.7304E+02
      8.722  0.7169E+01  0.7392E+02
      8.845  0.6942E+01  0.7477E+02
      8.968  0.7161E+01  0.7565E+02
      9.090  0.7675E+01  0.7659E+02
      9.213  0.7729E+01  0.7754E+02
      9.336  0.8345E+01  0.7856E+02
      9.458  0.8849E+01  0.7965E+02
      9.581  0.8191E+01  0.8065E+02
      9.704  0.9070E+01  0.8177E+02
      9.827  0.9318E+01  0.8291E+02
      9.949  0.7982E+01  0.8389E+02
     10.072  0.8604E+01  0.8495E+02
     10.195  0.1047E+02  0.8623E+02
     10.318  0.1190E+02  0.8769E+02
     10.440  0.1062E+02  0.8899E+02
     10.563  0.1019E+02  0.9024E+02
     10.686  0.1088E+02  0.9158E+02
     10.808  0.9626E+01  0.9276E+02
     10.931  0.6233E+01  0.9353E+02
     11.054  0.5027E+01  0.9414E+02
     11.177  0.5508E+01  0.9482E+02
     11.299  0.4849E+01  0.9541E+02
     11.422  0.2631E+01  0.9574E+02
     11.545  0.1095E+01  0.9587E+02
     11.667  0.6994E+00  0.9596E+02
     11.790  0.3194E+00  0.9600E+02
     11.913  0.3151E-01  0.9600E+02
     12.036  0.3452E-03  0.9600E+02
     12.158  0.2839E-06  0.9600E+02
     12.281  0.1434E-10  0.9600E+02
     12.404  0.3769E-16  0.9600E+02
     12.526  0.0000E+00  0.9600E+02
     12.649  0.0000E+00  0.9600E+02
     12.772  0.0000E+00  0.9600E+02
     12.895  0.0000E+00  0.9600E+02
     13.017  0.0000E+00  0.9600E+02
     13.140  0.0000E+00  0.9600E+02
     13.263  0.0000E+00  0.9600E+02
     13.386  0.0000E+00  0.9600E+02
     13.38552995    -23.43060324  301     -2.25317623      1.00000000
    -23.431  0.0000E+00  0.0000E+00  0.0000E+00  0.0000E+00  0.0000E+00  0.0000E+00  0.0000E+00  0.0000E+00  0.0000E+00
    -23.308  0.0000E+00  0.0000E+00  0.0000E+00  0.0000E+00  0.0000E+00  0.0000E+00  0.0000E+00  0.0000E+00  0.0000E+00
    -23.185  0.0000E+00  0.0000E+00  0.0000E+00  0.0000E+00  0.0000E+00  0.0000E+00  0.0000E+00  0.0000E+00  0.0000E+00
    -23.062  0.0000E+00  0.0000E+00  0.0000E+00  0.0000E+00  0.0000E+00  0.0000E+00  0.0000E+00  0.0000E+00  0.0000E+00
    -22.940  0.0000E+00  0.0000E+00  0.0000E+00  0.0000E+00  0.0000E+00  0.0000E+00  0.0000E+00  0.0000E+00  0.0000E+00
    -22.817  0.0000E+00  0.0000E+00  0.0000E+00  0.0000E+00  0.0000E+00  0.0000E+00  0.0000E+00  0.0000E+00  0.0000E+00
    -22.694  0.0000E+00  0.0000E+00  0.0000E+00  0.0000E+00  0.0000E+00  0.0000E+00  0.0000E+00  0.0000E+00  0.0000E+00
    -22.572  0.0000E+00  0.0000E+00  0.0000E+00  0.0000E+00  0.0000E+00  0.0000E+00  0.0000E+00  0.0000E+00  0.0000E+00
    -22.449  0.0000E+00  0.0000E+00  0.0000E+00  0.0000E+00  0.0000E+00  0.0000E+00  0.0000E+00  0.0000E+00  0.0000E+00
    -22.326  0.2580E-16  0.4957E-20  0.1687E-29  0.7835E-21  0.0000E+00  0.0000E+00  0.0000E+00  0.0000E+00  0.0000E+00
    -22.203  0.9374E-11  0.2552E-14  0.6115E-24  0.3947E-15  0.0000E+00  0.0000E+00  0.0000E+00  0.0000E+00  0.0000E+00
    -22.081  0.1832E-06  0.6681E-10  0.1232E-19  0.1033E-10  0.0000E+00  0.0000E+00  0.0000E+00  0.0000E+00  0.0000E+00
    -21.958  0.2078E-03  0.1109E-06  0.1403E-16  0.1715E-07  0.0000E+00  0.0000E+00  0.0000E+00  0.0000E+00  0.0000E+00
    -21.835  0.1594E-01  0.1430E-04  0.1025E-14  0.2211E-05  0.0000E+00  0.0000E+00  0.0000E+00  0.0000E+00  0.0000E+00
    -21.713  0.1141E+00  0.2128E-03  0.6249E-14  0.3290E-04  0.0000E+00  0.0000E+00  0.0000E+00  0.0000E+00  0.0000E+00
    -21.590  0.1388E+00  0.6964E-03  0.4587E-14  0.1077E-03  0.0000E+00  0.0000E+00  0.0000E+00  0.0000E+00  0.0000E+00
    -21.467  0.8975E-01  0.1090E-02  0.1089E-14  0.1686E-03  0.0000E+00  0.0000E+00  0.0000E+00  0.0000E+00  0.0000E+00
    -21.344  0.6898E-01  0.1365E-02  0.1781E-14  0.2112E-03  0.0000E+00  0.0000E+00  0.0000E+00  0.0000E+00  0.0000E+00
    -21.222  0.5846E-01  0.1590E-02  0.2298E-14  0.2461E-03  0.0000E+00  0.0000E+00  0.0000E+00  0.0000E+00  0.0000E+00
    -21.099  0.5162E-01  0.1786E-02  0.7636E-15  0.2764E-03  0.0000E+00  0.0000E+00  0.0000E+00  0.0000E+00  0.0000E+00
    -20.976  0.4667E-01  0.1961E-02  0.3736E-15  0.3037E-03  0.0000E+00  0.0000E+00  0.0000E+00  0.0000E+00  0.0000E+00
    -20.853  0.4287E-01  0.2122E-02  0.1362E-15  0.3286E-03  0.0000E+00  0.0000E+00  0.0000E+00  0.0000E+00  0.0000E+00
    -20.731  0.3982E-01  0.2271E-02  0.9741E-16  0.3518E-03  0.0000E+00  0.0000E+00  0.0000E+00  0.0000E+00  0.0000E+00
    -20.608  0.3730E-01  0.2410E-02  0.1153E-15  0.3736E-03  0.0000E+00  0.0000E+00  0.0000E+00  0.0000E+00  0.0000E+00
    -20.485  0.3569E-01  0.2582E-02  0.1365E-15  0.4076E-03  0.0000E+00  0.0000E+00  0.0000E+00  0.0000E+00  0.0000E+00
    -20.363  0.6725E-01  0.5278E-02  0.1568E-15  0.1304E-02  0.0000E+00  0.0000E+00  0.0000E+00  0.0000E+00  0.0000E+00
    -20.240  0.2430E+00  0.1913E-01  0.4268E-15  0.6186E-02  0.0000E+00  0.0000E+00  0.0000E+00  0.0000E+00  0.0000E+00
    -20.117  0.2666E+00  0.2146E-01  0.4865E-15  0.7644E-02  0.0000E+00  0.0000E+00  0.0000E+00  0.0000E+00  0.0000E+00
    -19.994  0.1820E+00  0.1541E-01  0.6638E-15  0.6186E-02  0.0000E+00  0.0000E+00  0.0000E+00  0.0000E+00  0.0000E+00
    -19.872  0.1475E+00  0.1278E-01  0.1139E-14  0.6167E-02  0.0000E+00  0.0000E+00  0.0000E+00  0.0000E+00  0.0000E+00
    -19.749  0.1204E+00  0.8889E-02  0.1315E-14  0.7632E-02  0.0000E+00  0.0000E+00  0.0000E+00  0.0000E+00  0.0000E+00
    -19.626  0.8809E-01  0.5043E-02  0.7301E-15  0.7885E-02  0.0000E+00  0.0000E+00  0.0000E+00  0.0000E+00  0.0000E+00
    -19.504  0.7739E-01  0.4638E-02  0.2955E-15  0.7494E-02  0.0000E+00  0.0000E+00  0.0000E+00  0.0000E+00  0.0000E+00
    -19.381  0.7290E-01  0.4865E-02  0.2335E-15  0.7254E-02  0.0000E+00  0.0000E+00  0.0000E+00  0.0000E+00  0.0000E+00
    -19.258  0.6924E-01  0.5087E-02  0.1355E-15  0.7078E-02  0.0000E+00  0.0000E+00  0.0000E+00  0.0000E+00  0.0000E+00
    -19.135  0.6611E-01  0.5297E-02  0.1607E-15  0.6945E-02  0.0000E+00  0.0000E+00  0.0000E+00  0.0000E+00  0.0000E+00
    -19.013  0.6339E-01  0.5497E-02  0.1654E-15  0.6844E-02  0.0000E+00  0.0000E+00  0.0000E+00  0.0000E+00  0.0000E+00
    -18.890  0.6100E-01  0.5687E-02  0.1202E-15  0.6766E-02  0.0000E+00  0.0000E+00  0.0000E+00  0.0000E+00  0.0000E+00
    -18.767  0.5887E-01  0.5869E-02  0.2129E-15  0.6706E-02  0.0000E+00  0.0000E+00  0.0000E+00  0.0000E+00  0.0000E+00
    -18.645  0.5696E-01  0.6043E-02  0.2494E-15  0.6659E-02  0.0000E+00  0.0000E+00  0.0000E+00  0.0000E+00  0.0000E+00
    -18.522  0.5524E-01  0.6210E-02  0.1904E-15  0.6624E-02  0.0000E+00  0.0000E+00  0.0000E+00  0.0000E+00  0.0000E+00
    -18.399  0.5368E-01  0.6372E-02  0.1798E-15  0.6598E-02  0.0000E+00  0.0000E+00  0.0000E+00  0.0000E+00  0.0000E+00
    -18.276  0.5227E-01  0.6527E-02  0.2482E-15  0.6579E-02  0.0000E+00  0.0000E+00  0.0000E+00  0.0000E+00  0.0000E+00
    -18.154  0.5099E-01  0.6676E-02  0.1445E-15  0.6565E-02  0.0000E+00  0.0000E+00  0.0000E+00  0.0000E+00  0.0000E+00
    -18.031  0.4984E-01  0.6821E-02  0.4033E-16  0.6557E-02  0.0000E+00  0.0000E+00  0.0000E+00  0.0000E+00  0.0000E+00
    -17.908  0.4881E-01  0.6961E-02  0.3693E-16  0.6552E-02  0.0000E+00  0.0000E+00  0.0000E+00  0.0000E+00  0.0000E+00
    -17.785  0.4789E-01  0.7096E-02  0.4693E-16  0.6550E-02  0.0000E+00  0.0000E+00  0.0000E+00  0.0000E+00  0.0000E+00
    -17.663  0.4747E-01  0.7260E-02  0.5384E-16  0.6642E-02  0.0000E+00  0.0000E+00  0.0000E+00  0.0000E+00  0.0000E+00
    -17.540  0.6774E-01  0.9166E-02  0.5980E-16  0.1168E-01  0.0000E+00  0.0000E+00  0.0000E+00  0.0000E+00  0.0000E+00
    -17.417  0.1643E+00  0.1762E-01  0.1186E-15  0.3496E-01  0.0000E+00  0.0000E+00  0.0000E+00  0.0000E+00  0.0000E+00
    -17.295  0.1698E+00  0.1852E-01  0.1271E-15  0.3611E-01  0.0000E+00  0.0000E+00  0.0000E+00  0.0000E+00  0.0000E+00
    -17.172  0.1279E+00  0.1532E-01  0.1273E-15  0.2576E-01  0.0000E+00  0.0000E+00  0.0000E+00  0.0000E+00  0.0000E+00
    -17.049  0.1127E+00  0.1427E-01  0.1946E-15  0.2171E-01  0.0000E+00  0.0000E+00  0.0000E+00  0.0000E+00  0.0000E+00
    -16.926  0.1069E+00  0.1394E-01  0.1760E-15  0.1966E-01  0.0000E+00  0.0000E+00  0.0000E+00  0.0000E+00  0.0000E+00
    -16.804  0.1069E+00  0.1404E-01  0.1739E-15  0.1850E-01  0.0000E+00  0.0000E+00  0.0000E+00  0.0000E+00  0.0000E+00
    -16.681  0.1174E+00  0.1502E-01  0.2876E-15  0.1846E-01  0.0000E+00  0.0000E+00  0.0000E+00  0.0000E+00  0.0000E+00
    -16.558  0.1697E+00  0.1843E-01  0.7252E-15  0.2408E-01  0.0000E+00  0.0000E+00  0.0000E+00  0.0000E+00  0.0000E+00
    -16.436  0.1811E+00  0.1377E-01  0.7049E-15  0.2882E-01  0.0000E+00  0.0000E+00  0.0000E+00  0.0000E+00  0.0000E+00
    -16.313  0.8265E-01  0.3948E-02  0.1612E-15  0.1741E-01  0.0000E+00  0.0000E+00  0.0000E+00  0.0000E+00  0.0000E+00
    -16.190  0.5173E-01  0.2914E-02  0.6892E-16  0.1233E-01  0.0000E+00  0.0000E+00  0.0000E+00  0.0000E+00  0.0000E+00
    -16.067  0.4412E-01  0.3212E-02  0.8281E-16  0.1082E-01  0.0000E+00  0.0000E+00  0.0000E+00  0.0000E+00  0.0000E+00
    -15.945  0.3990E-01  0.3493E-02  0.7398E-16  0.9993E-02  0.0000E+00  0.0000E+00  0.0000E+00  0.0000E+00  0.0000E+00
    -15.822  0.3708E-01  0.3762E-02  0.4061E-16  0.9450E-02  0.0000E+00  0.0000E+00  0.0000E+00  0.0000E+00  0.0000E+00
    -15.699  0.3511E-01  0.4049E-02  0.3439E-16  0.9098E-02  0.0000E+00  0.0000E+00  0.0000E+00  0.0000E+00  0.0000E+00
    -15.576  0.3849E-01  0.6750E-02  0.4025E-16  0.1320E-01  0.0000E+00  0.0000E+00  0.0000E+00  0.0000E+00  0.0000E+00
    -15.454  0.8728E-01  0.3131E-01  0.1146E-15  0.5811E-01  0.0000E+00  0.0000E+00  0.0000E+00  0.0000E+00  0.0000E+00
    -15.331  0.1234E+00  0.4801E-01  0.1567E-15  0.8953E-01  0.0000E+00  0.0000E+00  0.0000E+00  0.0000E+00  0.0000E+00
    -15.208  0.9838E-01  0.3554E-01  0.8579E-16  0.6361E-01  0.0000E+00  0.0000E+00  0.0000E+00  0.0000E+00  0.0000E+00
    -15.086  0.8735E-01  0.3048E-01  0.8480E-16  0.5122E-01  0.0000E+00  0.0000E+00  0.0000E+00  0.0000E+00  0.0000E+00
    -14.963  0.8458E-01  0.2916E-01  0.9793E-16  0.4625E-01  0.0000E+00  0.0000E+00  0.0000E+00  0.0000E+00  0.0000E+00
    -14.840  0.8919E-01  0.3005E-01  0.1099E-15  0.4511E-01  0.0000E+00  0.0000E+00  0.0000E+00  0.0000E+00  0.0000E+00
    -14.717  0.9556E-01  0.3033E-01  0.1095E-15  0.4740E-01  0.0000E+00  0.0000E+00  0.0000E+00  0.0000E+00  0.0000E+00
    -14.595  0.9786E-01  0.2902E-01  0.9826E-16  0.4943E-01  0.0000E+00  0.0000E+00  0.0000E+00  0.0000E+00  0.0000E+00
    -14.472  0.6837E-01  0.2633E-01  0.6694E-16  0.3041E-01  0.0000E+00  0.0000E+00  0.0000E+00  0.0000E+00  0.0000E+00
    -14.349  0.5170E-01  0.2499E-01  0.4879E-16  0.2032E-01  0.0000E+00  0.0000E+00  0.0000E+00  0.0000E+00  0.0000E+00
    -14.227  0.4960E-01  0.2475E-01  0.4490E-16  0.1968E-01  0.0000E+00  0.0000E+00  0.0000E+00  0.0000E+00  0.0000E+00
    -14.104  0.4835E-01  0.2462E-01  0.3975E-16  0.1958E-01  0.0000E+00  0.0000E+00  0.0000E+00  0.0000E+00  0.0000E+00
    -13.981  0.4723E-01  0.2456E-01  0.3739E-16  0.1954E-01  0.0000E+00  0.0000E+00  0.0000E+00  0.0000E+00  0.0000E+00
    -13.858  0.4623E-01  0.2454E-01  0.3521E-16  0.1955E-01  0.0000E+00  0.0000E+00  0.0000E+00  0.0000E+00  0.0000E+00
    -13.736  0.4536E-01  0.2456E-01  0.3465E-16  0.1962E-01  0.0000E+00  0.0000E+00  0.0000E+00  0.0000E+00  0.0000E+00
    -13.613  0.4463E-01  0.2463E-01  0.3256E-16  0.1976E-01  0.0000E+00  0.0000E+00  0.0000E+00  0.0000E+00  0.0000E+00
    -13.490  0.4408E-01  0.2475E-01  0.3099E-16  0.1997E-01  0.0000E+00  0.0000E+00  0.0000E+00  0.0000E+00  0.0000E+00
    -13.368  0.4374E-01  0.2493E-01  0.3116E-16  0.2029E-01  0.0000E+00  0.0000E+00  0.0000E+00  0.0000E+00  0.0000E+00
    -13.245  0.4371E-01  0.2520E-01  0.3525E-16  0.2077E-01  0.0000E+00  0.0000E+00  0.0000E+00  0.0000E+00  0.0000E+00
    -13.122  0.4424E-01  0.2564E-01  0.4248E-16  0.2153E-01  0.0000E+00  0.0000E+00  0.0000E+00  0.0000E+00  0.0000E+00
    -12.999  0.4597E-01  0.2652E-01  0.4285E-16  0.2300E-01  0.0000E+00  0.0000E+00  0.0000E+00  0.0000E+00  0.0000E+00
    -12.877  0.5244E-01  0.3276E-01  0.4593E-16  0.3042E-01  0.0000E+00  0.0000E+00  0.0000E+00  0.0000E+00  0.0000E+00
    -12.754  0.6179E-01  0.6449E-01  0.5648E-16  0.5989E-01  0.0000E+00  0.0000E+00  0.0000E+00  0.0000E+00  0.0000E+00
    -12.631  0.3958E-01  0.6976E-01  0.3865E-16  0.5450E-01  0.0000E+00  0.0000E+00  0.0000E+00  0.0000E+00  0.0000E+00
    -12.508  0.2629E-01  0.5262E-01  0.2552E-16  0.3353E-01  0.0000E+00  0.0000E+00  0.0000E+00  0.0000E+00  0.0000E+00
    -12.386  0.2553E-01  0.4714E-01  0.2716E-16  0.2797E-01  0.0000E+00  0.0000E+00  0.0000E+00  0.0000E+00  0.0000E+00
    -12.263  0.2528E-01  0.4478E-01  0.2620E-16  0.2567E-01  0.0000E+00  0.0000E+00  0.0000E+00  0.0000E+00  0.0000E+00
    -12.140  0.2497E-01  0.4340E-01  0.2674E-16  0.2434E-01  0.0000E+00  0.0000E+00  0.0000E+00  0.0000E+00  0.0000E+00
    -12.018  0.2462E-01  0.4251E-01  0.2272E-16  0.2348E-01  0.0000E+00  0.0000E+00  0.0000E+00  0.0000E+00  0.0000E+00
    -11.895  0.2425E-01  0.4191E-01  0.2342E-16  0.2291E-01  0.0000E+00  0.0000E+00  0.0000E+00  0.0000E+00  0.0000E+00
    -11.772  0.2387E-01  0.4150E-01  0.2345E-16  0.2254E-01  0.0000E+00  0.0000E+00  0.0000E+00  0.0000E+00  0.0000E+00
    -11.649  0.2350E-01  0.4123E-01  0.2253E-16  0.2230E-01  0.0000E+00  0.0000E+00  0.0000E+00  0.0000E+00  0.0000E+00
    -11.527  0.2312E-01  0.4107E-01  0.2360E-16  0.2216E-01  0.0000E+00  0.0000E+00  0.0000E+00  0.0000E+00  0.0000E+00
    -11.404  0.2276E-01  0.4102E-01  0.2528E-16  0.2214E-01  0.0000E+00  0.0000E+00  0.0000E+00  0.0000E+00  0.0000E+00
    -11.281  0.2283E-01  0.4438E-01  0.2781E-16  0.2412E-01  0.0000E+00  0.0000E+00  0.0000E+00  0.0000E+00  0.0000E+00
    -11.159  0.2569E-01  0.6909E-01  0.2961E-16  0.3847E-01  0.0000E+00  0.0000E+00  0.0000E+00  0.0000E+00  0.0000E+00
    -11.036  0.2695E-01  0.7778E-01  0.3300E-16  0.4387E-01  0.0000E+00  0.0000E+00  0.0000E+00  0.0000E+00  0.0000E+00
    -10.913  0.2559E-01  0.6589E-01  0.3113E-16  0.3749E-01  0.0000E+00  0.0000E+00  0.0000E+00  0.0000E+00  0.0000E+00
    -10.790  0.2501E-01  0.6185E-01  0.2875E-16  0.3562E-01  0.0000E+00  0.0000E+00  0.0000E+00  0.0000E+00  0.0000E+00
    -10.668  0.2471E-01  0.6042E-01  0.2794E-16  0.3533E-01  0.0000E+00  0.0000E+00  0.0000E+00  0.0000E+00  0.0000E+00
    -10.545  0.2453E-01  0.5985E-01  0.3005E-16  0.3570E-01  0.0000E+00  0.0000E+00  0.0000E+00  0.0000E+00  0.0000E+00
    -10.422  0.2449E-01  0.5973E-01  0.6751E-16  0.3659E-01  0.0000E+00  0.0000E+00  0.0000E+00  0.0000E+00  0.0000E+00
    -10.300  0.2464E-01  0.5992E-01  0.1139E-10  0.3811E-01  0.0000E+00  0.0000E+00  0.0000E+00  0.0000E+00  0.0000E+00
    -10.177  0.2518E-01  0.6042E-01  0.1869E-06  0.4060E-01  0.0000E+00  0.0000E+00  0.0000E+00  0.0000E+00  0.0000E+00
    -10.054  0.2894E-01  0.6542E-01  0.1792E-03  0.4617E-01  0.0000E+00  0.0000E+00  0.0000E+00  0.0000E+00  0.0000E+00
     -9.931  0.4026E-01  0.8694E-01  0.1177E-01  0.5321E-01  0.0000E+00  0.0000E+00  0.0000E+00  0.0000E+00  0.0000E+00
     -9.809  0.5958E-01  0.1323E+00  0.7415E-01  0.6212E-01  0.0000E+00  0.0000E+00  0.0000E+00  0.0000E+00  0.0000E+00
     -9.686  0.1283E+00  0.2829E+00  0.8371E-01  0.1086E+00  0.0000E+00  0.0000E+00  0.0000E+00  0.0000E+00  0.0000E+00
     -9.563  0.1016E+00  0.2433E+00  0.5463E-01  0.8836E-01  0.0000E+00  0.0000E+00  0.0000E+00  0.0000E+00  0.0000E+00
     -9.440  0.1815E-01  0.7727E-01  0.4281E-01  0.3004E-01  0.0000E+00  0.0000E+00  0.0000E+00  0.0000E+00  0.0000E+00
     -9.318  0.9180E-02  0.6235E-01  0.3675E-01  0.2488E-01  0.0000E+00  0.0000E+00  0.0000E+00  0.0000E+00  0.0000E+00
     -9.195  0.8673E-02  0.6576E-01  0.3282E-01  0.2602E-01  0.0000E+00  0.0000E+00  0.0000E+00  0.0000E+00  0.0000E+00
     -9.072  0.8281E-02  0.7115E-01  0.3000E-01  0.2874E-01  0.0000E+00  0.0000E+00  0.0000E+00  0.0000E+00  0.0000E+00
     -8.950  0.1080E-01  0.9767E-01  0.2784E-01  0.7270E-01  0.0000E+00  0.0000E+00  0.0000E+00  0.0000E+00  0.0000E+00
     -8.827  0.2009E-01  0.1842E+00  0.2613E-01  0.2361E+00  0.0000E+00  0.0000E+00  0.0000E+00  0.0000E+00  0.0000E+00
     -8.704  0.1682E-01  0.2506E+00  0.2474E-01  0.3320E+00  0.0000E+00  0.0000E+00  0.0000E+00  0.0000E+00  0.0000E+00
     -8.581  0.1006E-01  0.2236E+00  0.2357E-01  0.3202E+00  0.0000E+00  0.0000E+00  0.0000E+00  0.0000E+00  0.0000E+00
     -8.459  0.7400E-02  0.8592E-01  0.2258E-01  0.1489E+00  0.0000E+00  0.0000E+00  0.0000E+00  0.0000E+00  0.0000E+00
     -8.336  0.6755E-02  0.5230E-01  0.2198E-01  0.9850E-01  0.0000E+00  0.0000E+00  0.0000E+00  0.0000E+00  0.0000E+00
     -8.213  0.6437E-02  0.4699E-01  0.4045E-01  0.8958E-01  0.0000E+00  0.0000E+00  0.0000E+00  0.0000E+00  0.0000E+00
     -8.091  0.6167E-02  0.4447E-01  0.1584E+00  0.8597E-01  0.0000E+00  0.0000E+00  0.0000E+00  0.0000E+00  0.0000E+00
     -7.968  0.5907E-02  0.4328E-01  0.1872E+00  0.8493E-01  0.0000E+00  0.0000E+00  0.0000E+00  0.0000E+00  0.0000E+00
     -7.845  0.5634E-02  0.4306E-01  0.1286E+00  0.8593E-01  0.0000E+00  0.0000E+00  0.0000E+00  0.0000E+00  0.0000E+00
     -7.722  0.5336E-02  0.4374E-01  0.1041E+00  0.8906E-01  0.0000E+00  0.0000E+00  0.0000E+00  0.0000E+00  0.0000E+00
     -7.600  0.5004E-02  0.4559E-01  0.9247E-01  0.9537E-01  0.0000E+00  0.0000E+00  0.0000E+00  0.0000E+00  0.0000E+00
     -7.477  0.4618E-02  0.4999E-01  0.7449E-01  0.1091E+00  0.0000E+00  0.0000E+00  0.0000E+00  0.0000E+00  0.0000E+00
     -7.354  0.4115E-02  0.6238E-01  0.5742E-01  0.1467E+00  0.0000E+00  0.0000E+00  0.0000E+00  0.0000E+00  0.0000E+00
     -7.232  0.3475E-02  0.6246E-01  0.5341E-01  0.1474E+00  0.0000E+00  0.0000E+00  0.0000E+00  0.0000E+00  0.0000E+00
     -7.109  0.3076E-02  0.3228E-01  0.5141E-01  0.5655E-01  0.0000E+00  0.0000E+00  0.0000E+00  0.0000E+00  0.0000E+00
     -6.986  0.2911E-02  0.2534E-01  0.4978E-01  0.3478E-01  0.0000E+00  0.0000E+00  0.0000E+00  0.0000E+00  0.0000E+00
     -6.863  0.2770E-02  0.2566E-01  0.4843E-01  0.3459E-01  0.0000E+00  0.0000E+00  0.0000E+00  0.0000E+00  0.0000E+00
     -6.741  0.2630E-02  0.2623E-01  0.4732E-01  0.3499E-01  0.0000E+00  0.0000E+00  0.0000E+00  0.0000E+00  0.0000E+00
     -6.618  0.2489E-02  0.2691E-01  0.4637E-01  0.3557E-01  0.0000E+00  0.0000E+00  0.0000E+00  0.0000E+00  0.0000E+00
     -6.495  0.2346E-02  0.2774E-01  0.4558E-01  0.3635E-01  0.0000E+00  0.0000E+00  0.0000E+00  0.0000E+00  0.0000E+00
     -6.372  0.2200E-02  0.2873E-01  0.4494E-01  0.3738E-01  0.0000E+00  0.0000E+00  0.0000E+00  0.0000E+00  0.0000E+00
     -6.250  0.2050E-02  0.2995E-01  0.4444E-01  0.3871E-01  0.0000E+00  0.0000E+00  0.0000E+00  0.0000E+00  0.0000E+00
     -6.127  0.1897E-02  0.3143E-01  0.4407E-01  0.4040E-01  0.0000E+00  0.0000E+00  0.0000E+00  0.0000E+00  0.0000E+00
     -6.004  0.1741E-02  0.3334E-01  0.4382E-01  0.4262E-01  0.0000E+00  0.0000E+00  0.0000E+00  0.0000E+00  0.0000E+00
     -5.882  0.1578E-02  0.3583E-01  0.4371E-01  0.4561E-01  0.0000E+00  0.0000E+00  0.0000E+00  0.0000E+00  0.0000E+00
     -5.759  0.1403E-02  0.3920E-01  0.4375E-01  0.4975E-01  0.0000E+00  0.0000E+00  0.0000E+00  0.0000E+00  0.0000E+00
     -5.636  0.1214E-02  0.4422E-01  0.4397E-01  0.5597E-01  0.0000E+00  0.0000E+00  0.0000E+00  0.0000E+00  0.0000E+00
     -5.513  0.9993E-03  0.5283E-01  0.4441E-01  0.6678E-01  0.0000E+00  0.0000E+00  0.0000E+00  0.0000E+00  0.0000E+00
     -5.391  0.7321E-03  0.7434E-01  0.4511E-01  0.9364E-01  0.0000E+00  0.0000E+00  0.0000E+00  0.0000E+00  0.0000E+00
     -5.268  0.3555E-03  0.1009E+00  0.4619E-01  0.1261E+00  0.0000E+00  0.0000E+00  0.0000E+00  0.0000E+00  0.0000E+00
     -5.145  0.5710E-04  0.3953E-01  0.4927E-01  0.4907E-01  0.0000E+00  0.0000E+00  0.0000E+00  0.0000E+00  0.0000E+00
     -5.023  0.1438E-05  0.1881E-02  0.9684E-01  0.2325E-02  0.0000E+00  0.0000E+00  0.0000E+00  0.0000E+00  0.0000E+00
     -4.900  0.3353E-08  0.6943E-05  0.2231E+00  0.8555E-05  0.0000E+00  0.0000E+00  0.0000E+00  0.0000E+00  0.0000E+00
     -4.777  0.5417E-12  0.1583E-08  0.2275E+00  0.1947E-08  0.0000E+00  0.0000E+00  0.0000E+00  0.0000E+00  0.0000E+00
     -4.654  0.8962E-15  0.2366E-13  0.2658E+00  0.2800E-13  0.0000E+00  0.0000E+00  0.0000E+00  0.0000E+00  0.0000E+00
     -4.532  0.1210E-14  0.4156E-14  0.2396E+00  0.3820E-14  0.0000E+00  0.0000E+00  0.0000E+00  0.0000E+00  0.0000E+00
     -4.409  0.3252E-15  0.8507E-15  0.7960E-01  0.6657E-15  0.0000E+00  0.0000E+00  0.0000E+00  0.0000E+00  0.0000E+00
     -4.286  0.4316E-16  0.9029E-16  0.4211E-01  0.5132E-16  0.0000E+00  0.0000E+00  0.0000E+00  0.0000E+00  0.0000E+00