 vasp.6.3.2 27Jun22 (build Dec 22 2022 13:13:19) complex                        
  
 executed on             LinuxIFC date 2023.09.01  22:11:47
 running   48 mpi-ranks, with    1 threads/rank
 distrk:  each k-point on   48 cores,    1 groups
 distr:  one band on NCORE=   1 cores,   48 groups


--------------------------------------------------------------------------------------------------------


 INCAR:
   SYSTEM = BS
   ISTART = 0
   ICHARG = 11
   PREC = Accurate
   LORBIT = 11
   ENCUT = 450
   ALGO = Normal
   NELM = 64
   EDIFF = 1E-6
   EDIFFG = -1E-3
   SIGMA = 0.1
   ISMEAR = 0
   GGA = PE
   IVDW = 12
   ISYM = 0

 POTCAR:    PAW_PBE C 08Apr2002                   
 POTCAR:    PAW_PBE C 08Apr2002                   
   SHA256 =  253f7b50bb8d59471dbedb8285d89021f4a42ed1a2c5d38a03a736e69125dd95 C/POTCAR              
   COPYR  = (c) Copyright 08Apr2002 Georg Kresse                                                    
   COPYR  = This file is part of the software VASP. Any use, copying, and all other rights are regul
   COPYR  = If you do not have a valid VASP license, you may not use, copy or distribute this file. 
   VRHFIN =C: s2p2                                                                                  
   LEXCH  = PE                                                                                      
   EATOM  =   147.1560 eV,   10.8157 Ry                                                             
                                                                                                    
   TITEL  = PAW_PBE C 08Apr2002                                                                     
   LULTRA =        F    use ultrasoft PP ?                                                          
   IUNSCR =        1    unscreen: 0-lin 1-nonlin 2-no                                               
   RPACOR =    1.200    partial core radius                                                         
   POMASS =   12.011; ZVAL   =    4.000    mass and valenz                                          
   RCORE  =    1.500    outmost cutoff radius                                                       
   RWIGS  =    1.630; RWIGS  =    0.863    wigner-seitz radius (au A)                               
   ENMAX  =  400.000; ENMIN  =  300.000 eV                                                          
   ICORE  =        2    local potential                                                             
   LCOR   =        T    correct aug charges                                                         
   LPAW   =        T    paw PP                                                                      
   EAUG   =  644.873                                                                                
   DEXC   =    0.000                                                                                
   RMAX   =    1.529    core radius for proj-oper                                                   
   RAUG   =    1.300    factor for augmentation sphere                                              
   RDEP   =    1.501    radius for radial grids                                                     
   RDEPT  =    1.300    core radius for aug-charge                                                  
                                                                                                    
   Atomic configuration                                                                             
    4 entries                                                                                       
     n  l   j            E        occ.                                                              
     1  0  0.50      -273.3789   2.0000                                                             
     2  0  0.50       -13.7508   2.0000                                                             
     2  1  0.50        -5.2854   2.0000                                                             
     3  2  1.50        -5.4423   0.0000                                                             
   Description                                                                                      
     l       E           TYP  RCUT    TYP  RCUT                                                     
     0    -13.7508458     23  1.200                                                                 
     0     -8.2022199     23  1.200                                                                 
     1     -5.2854383     23  1.500                                                                 
     1     34.0145650     23  1.500                                                                 
     2     -5.4423304      7  1.500                                                                 
  local pseudopotential read in
  partial core-charges read in
  partial kinetic energy density read in
  atomic valenz-charges read in
  non local Contribution for L=           0  read in
    real space projection operators read in
  non local Contribution for L=           0  read in
    real space projection operators read in
  non local Contribution for L=           1  read in
    real space projection operators read in
  non local Contribution for L=           1  read in
    real space projection operators read in
    PAW grid and wavefunctions read in
 
   number of l-projection  operators is LMAX  =           4
   number of lm-projection operators is LMMAX =           8
 
  PAW_PBE C 08Apr2002                   :
 energy of atom  1       EATOM= -147.1560
 kinetic energy error for atom=    0.0116 (will be added to EATOM!!)
 
 
 POSCAR: Graphene with lattice parameter 2.467
  positions in direct lattice
  velocities in cartesian coordinates
 exchange correlation table for  LEXCH =        8
   RHO(1)=    0.500       N(1)  =     2000
   RHO(2)=  100.500       N(2)  =     4000

 VTST: version 4.2, (08/11/21)

 CHAIN: initializing optimizer
 
 OPT: Using VASP Dynamics algorithm
 CHAIN: Read ICHAIN            0
 
 POSCAR: Graphene with lattice parameter 2.467
  positions in direct lattice
  velocities in cartesian coordinates
 


--------------------------------------------------------------------------------------------------------


 ion  position               nearest neighbor table
   1  0.167  0.333  0.100-   6 1.42   4 1.42   2 1.42
   2  0.333  0.167  0.100-   5 1.42   3 1.42   1 1.42
   3  0.167  0.833  0.100-   8 1.42   2 1.42   4 1.42
   4  0.333  0.667  0.100-   7 1.42   1 1.42   3 1.42
   5  0.667  0.333  0.100-   2 1.42   8 1.42   6 1.42
   6  0.833  0.167  0.100-   1 1.42   7 1.42   5 1.42
   7  0.667  0.833  0.100-   4 1.42   6 1.42   8 1.42
   8  0.833  0.667  0.100-   3 1.42   5 1.42   7 1.42
 

IMPORTANT INFORMATION: All symmetrisations will be switched off!
NOSYMM: (Re-)initialisation of all symmetry stuff for point group C_1.


----------------------------------------------------------------------------------------

                                     Primitive cell                                     

  volume of cell :     316.2424

  direct lattice vectors                    reciprocal lattice vectors
     4.272969000  2.467000000  0.000000000     0.117014657  0.202675314  0.000000000
    -4.272969000  2.467000000  0.000000000    -0.117014657  0.202675314  0.000000000
     0.000000000  0.000000000 15.000000000     0.000000000  0.000000000  0.066666667

  length of vectors
     4.933999704  4.933999704 15.000000000     0.234029299  0.234029299  0.066666667

  position of ions in fractional coordinates (direct lattice)
     0.166666000  0.333333000  0.100000000
     0.333333000  0.166666000  0.100000000
     0.166666000  0.833333000  0.100000000
     0.333333000  0.666666000  0.100000000
     0.666666000  0.333333000  0.100000000
     0.833333000  0.166666000  0.100000000
     0.666666000  0.833333000  0.100000000
     0.833333000  0.666666000  0.100000000

  ion indices of the primitive-cell ions
   primitive index   ion index
                 1           1
                 2           2
                 3           3
                 4           4
                 5           5
                 6           6
                 7           7
                 8           8

----------------------------------------------------------------------------------------

 
 
 KPOINTS: K-points                                

Interpolating k-points between supplied coordinates.

 Line segments in fractional coordinates (reciprocal lattice):
    0.333000  0.333000  0.000000  ...  0.000000  0.000000  0.000000
    0.000000  0.000000  0.000000  ...  0.000000  0.500000  0.000000
    0.000000  0.500000  0.000000  ...  0.333000  0.333000  0.000000

 Generated    64 points on each line segment, for a total of    192 k-points:

 Following reciprocal coordinates:
            Coordinates               Weight
  0.333000  0.333000  0.000000      0.005208
  0.327714  0.327714  0.000000      0.005208
  0.322429  0.322429  0.000000      0.005208
  0.317143  0.317143  0.000000      0.005208
  0.311857  0.311857  0.000000      0.005208
  0.306571  0.306571  0.000000      0.005208
  0.301286  0.301286  0.000000      0.005208
  0.296000  0.296000  0.000000      0.005208
  0.290714  0.290714  0.000000      0.005208
  0.285429  0.285429  0.000000      0.005208
  0.280143  0.280143  0.000000      0.005208
  0.274857  0.274857  0.000000      0.005208
  0.269571  0.269571  0.000000      0.005208
  0.264286  0.264286  0.000000      0.005208
  0.259000  0.259000  0.000000      0.005208
  0.253714  0.253714  0.000000      0.005208
  0.248429  0.248429  0.000000      0.005208
  0.243143  0.243143  0.000000      0.005208
  0.237857  0.237857  0.000000      0.005208
  0.232571  0.232571  0.000000      0.005208
  0.227286  0.227286  0.000000      0.005208
  0.222000  0.222000  0.000000      0.005208
  0.216714  0.216714  0.000000      0.005208
  0.211429  0.211429  0.000000      0.005208
  0.206143  0.206143  0.000000      0.005208
  0.200857  0.200857  0.000000      0.005208
  0.195571  0.195571  0.000000      0.005208
  0.190286  0.190286  0.000000      0.005208
  0.185000  0.185000  0.000000      0.005208
  0.179714  0.179714  0.000000      0.005208
  0.174429  0.174429  0.000000      0.005208
  0.169143  0.169143  0.000000      0.005208
  0.163857  0.163857  0.000000      0.005208
  0.158571  0.158571  0.000000      0.005208
  0.153286  0.153286  0.000000      0.005208
  0.148000  0.148000  0.000000      0.005208
  0.142714  0.142714  0.000000      0.005208
  0.137429  0.137429  0.000000      0.005208
  0.132143  0.132143  0.000000      0.005208
  0.126857  0.126857  0.000000      0.005208
  0.121571  0.121571  0.000000      0.005208
  0.116286  0.116286  0.000000      0.005208
  0.111000  0.111000  0.000000      0.005208
  0.105714  0.105714  0.000000      0.005208
  0.100429  0.100429  0.000000      0.005208
  0.095143  0.095143  0.000000      0.005208
  0.089857  0.089857  0.000000      0.005208
  0.084571  0.084571  0.000000      0.005208
  0.079286  0.079286  0.000000      0.005208
  0.074000  0.074000  0.000000      0.005208
  0.068714  0.068714  0.000000      0.005208
  0.063429  0.063429  0.000000      0.005208
  0.058143  0.058143  0.000000      0.005208
  0.052857  0.052857  0.000000      0.005208
  0.047571  0.047571  0.000000      0.005208
  0.042286  0.042286  0.000000      0.005208
  0.037000  0.037000  0.000000      0.005208
  0.031714  0.031714  0.000000      0.005208
  0.026429  0.026429  0.000000      0.005208
  0.021143  0.021143  0.000000      0.005208
  0.015857  0.015857  0.000000      0.005208
  0.010571  0.010571  0.000000      0.005208
  0.005286  0.005286  0.000000      0.005208
  0.000000  0.000000  0.000000      0.005208
  0.000000  0.000000  0.000000      0.005208
  0.000000  0.007937  0.000000      0.005208
  0.000000  0.015873  0.000000      0.005208
  0.000000  0.023810  0.000000      0.005208
  0.000000  0.031746  0.000000      0.005208
  0.000000  0.039683  0.000000      0.005208
  0.000000  0.047619  0.000000      0.005208
  0.000000  0.055556  0.000000      0.005208
  0.000000  0.063492  0.000000      0.005208
  0.000000  0.071429  0.000000      0.005208
  0.000000  0.079365  0.000000      0.005208
  0.000000  0.087302  0.000000      0.005208
  0.000000  0.095238  0.000000      0.005208
  0.000000  0.103175  0.000000      0.005208
  0.000000  0.111111  0.000000      0.005208
  0.000000  0.119048  0.000000      0.005208
  0.000000  0.126984  0.000000      0.005208
  0.000000  0.134921  0.000000      0.005208
  0.000000  0.142857  0.000000      0.005208
  0.000000  0.150794  0.000000      0.005208
  0.000000  0.158730  0.000000      0.005208
  0.000000  0.166667  0.000000      0.005208
  0.000000  0.174603  0.000000      0.005208
  0.000000  0.182540  0.000000      0.005208
  0.000000  0.190476  0.000000      0.005208
  0.000000  0.198413  0.000000      0.005208
  0.000000  0.206349  0.000000      0.005208
  0.000000  0.214286  0.000000      0.005208
  0.000000  0.222222  0.000000      0.005208
  0.000000  0.230159  0.000000      0.005208
  0.000000  0.238095  0.000000      0.005208
  0.000000  0.246032  0.000000      0.005208
  0.000000  0.253968  0.000000      0.005208
  0.000000  0.261905  0.000000      0.005208
  0.000000  0.269841  0.000000      0.005208
  0.000000  0.277778  0.000000      0.005208
  0.000000  0.285714  0.000000      0.005208
  0.000000  0.293651  0.000000      0.005208
  0.000000  0.301587  0.000000      0.005208
  0.000000  0.309524  0.000000      0.005208
  0.000000  0.317460  0.000000      0.005208
  0.000000  0.325397  0.000000      0.005208
  0.000000  0.333333  0.000000      0.005208
  0.000000  0.341270  0.000000      0.005208
  0.000000  0.349206  0.000000      0.005208
  0.000000  0.357143  0.000000      0.005208
  0.000000  0.365079  0.000000      0.005208
  0.000000  0.373016  0.000000      0.005208
  0.000000  0.380952  0.000000      0.005208
  0.000000  0.388889  0.000000      0.005208
  0.000000  0.396825  0.000000      0.005208
  0.000000  0.404762  0.000000      0.005208
  0.000000  0.412698  0.000000      0.005208
  0.000000  0.420635  0.000000      0.005208
  0.000000  0.428571  0.000000      0.005208
  0.000000  0.436508  0.000000      0.005208
  0.000000  0.444444  0.000000      0.005208
  0.000000  0.452381  0.000000      0.005208
  0.000000  0.460317  0.000000      0.005208
  0.000000  0.468254  0.000000      0.005208
  0.000000  0.476190  0.000000      0.005208
  0.000000  0.484127  0.000000      0.005208
  0.000000  0.492063  0.000000      0.005208
  0.000000  0.500000  0.000000      0.005208
  0.000000  0.500000  0.000000      0.005208
  0.005286  0.497349  0.000000      0.005208
  0.010571  0.494698  0.000000      0.005208
  0.015857  0.492048  0.000000      0.005208
  0.021143  0.489397  0.000000      0.005208
  0.026429  0.486746  0.000000      0.005208
  0.031714  0.484095  0.000000      0.005208
  0.037000  0.481444  0.000000      0.005208
  0.042286  0.478794  0.000000      0.005208
  0.047571  0.476143  0.000000      0.005208
  0.052857  0.473492  0.000000      0.005208
  0.058143  0.470841  0.000000      0.005208
  0.063429  0.468190  0.000000      0.005208
  0.068714  0.465540  0.000000      0.005208
  0.074000  0.462889  0.000000      0.005208
  0.079286  0.460238  0.000000      0.005208
  0.084571  0.457587  0.000000      0.005208
  0.089857  0.454937  0.000000      0.005208
  0.095143  0.452286  0.000000      0.005208
  0.100429  0.449635  0.000000      0.005208
  0.105714  0.446984  0.000000      0.005208
  0.111000  0.444333  0.000000      0.005208
  0.116286  0.441683  0.000000      0.005208
  0.121571  0.439032  0.000000      0.005208
  0.126857  0.436381  0.000000      0.005208
  0.132143  0.433730  0.000000      0.005208
  0.137429  0.431079  0.000000      0.005208
  0.142714  0.428429  0.000000      0.005208
  0.148000  0.425778  0.000000      0.005208
  0.153286  0.423127  0.000000      0.005208
  0.158571  0.420476  0.000000      0.005208
  0.163857  0.417825  0.000000      0.005208
  0.169143  0.415175  0.000000      0.005208
  0.174429  0.412524  0.000000      0.005208
  0.179714  0.409873  0.000000      0.005208
  0.185000  0.407222  0.000000      0.005208
  0.190286  0.404571  0.000000      0.005208
  0.195571  0.401921  0.000000      0.005208
  0.200857  0.399270  0.000000      0.005208
  0.206143  0.396619  0.000000      0.005208
  0.211429  0.393968  0.000000      0.005208
  0.216714  0.391317  0.000000      0.005208
  0.222000  0.388667  0.000000      0.005208
  0.227286  0.386016  0.000000      0.005208
  0.232571  0.383365  0.000000      0.005208
  0.237857  0.380714  0.000000      0.005208
  0.243143  0.378063  0.000000      0.005208
  0.248429  0.375413  0.000000      0.005208
  0.253714  0.372762  0.000000      0.005208
  0.259000  0.370111  0.000000      0.005208
  0.264286  0.367460  0.000000      0.005208
  0.269571  0.364810  0.000000      0.005208
  0.274857  0.362159  0.000000      0.005208
  0.280143  0.359508  0.000000      0.005208
  0.285429  0.356857  0.000000      0.005208
  0.290714  0.354206  0.000000      0.005208
  0.296000  0.351556  0.000000      0.005208
  0.301286  0.348905  0.000000      0.005208
  0.306571  0.346254  0.000000      0.005208
  0.311857  0.343603  0.000000      0.005208
  0.317143  0.340952  0.000000      0.005208
  0.322429  0.338302  0.000000      0.005208
  0.327714  0.335651  0.000000      0.005208
  0.333000  0.333000  0.000000      0.005208

 Following cartesian coordinates:
            Coordinates               Weight
 -0.000000  0.134982  0.000000      0.005208
  0.000000  0.132839  0.000000      0.005208
  0.000000  0.130697  0.000000      0.005208
 -0.000000  0.128554  0.000000      0.005208
 -0.000000  0.126411  0.000000      0.005208
  0.000000  0.124269  0.000000      0.005208
 -0.000000  0.122126  0.000000      0.005208
 -0.000000  0.119984  0.000000      0.005208
  0.000000  0.117841  0.000000      0.005208
  0.000000  0.115699  0.000000      0.005208
 -0.000000  0.113556  0.000000      0.005208
  0.000000  0.111414  0.000000      0.005208
  0.000000  0.109271  0.000000      0.005208
  0.000000  0.107128  0.000000      0.005208
 -0.000000  0.104986  0.000000      0.005208
  0.000000  0.102843  0.000000      0.005208
 -0.000000  0.100701  0.000000      0.005208
  0.000000  0.098558  0.000000      0.005208
  0.000000  0.096416  0.000000      0.005208
 -0.000000  0.094273  0.000000      0.005208
  0.000000  0.092130  0.000000      0.005208
 -0.000000  0.089988  0.000000      0.005208
  0.000000  0.087845  0.000000      0.005208
 -0.000000  0.085703  0.000000      0.005208
 -0.000000  0.083560  0.000000      0.005208
  0.000000  0.081418  0.000000      0.005208
 -0.000000  0.079275  0.000000      0.005208
  0.000000  0.077132  0.000000      0.005208
 -0.000000  0.074990  0.000000      0.005208
  0.000000  0.072847  0.000000      0.005208
 -0.000000  0.070705  0.000000      0.005208
 -0.000000  0.068562  0.000000      0.005208
  0.000000  0.066420  0.000000      0.005208
 -0.000000  0.064277  0.000000      0.005208
  0.000000  0.062134  0.000000      0.005208
 -0.000000  0.059992  0.000000      0.005208
  0.000000  0.057849  0.000000      0.005208
  0.000000  0.055707  0.000000      0.005208
  0.000000  0.053564  0.000000      0.005208
  0.000000  0.051422  0.000000      0.005208
  0.000000  0.049279  0.000000      0.005208
 -0.000000  0.047136  0.000000      0.005208
 -0.000000  0.044994  0.000000      0.005208
 -0.000000  0.042851  0.000000      0.005208
  0.000000  0.040709  0.000000      0.005208
  0.000000  0.038566  0.000000      0.005208
  0.000000  0.036424  0.000000      0.005208
 -0.000000  0.034281  0.000000      0.005208
 -0.000000  0.032139  0.000000      0.005208
 -0.000000  0.029996  0.000000      0.005208
 -0.000000  0.027853  0.000000      0.005208
  0.000000  0.025711  0.000000      0.005208
 -0.000000  0.023568  0.000000      0.005208
 -0.000000  0.021426  0.000000      0.005208
  0.000000  0.019283  0.000000      0.005208
 -0.000000  0.017141  0.000000      0.005208
 -0.000000  0.014998  0.000000      0.005208
  0.000000  0.012855  0.000000      0.005208
 -0.000000  0.010713  0.000000      0.005208
  0.000000  0.008570  0.000000      0.005208
  0.000000  0.006428  0.000000      0.005208
  0.000000  0.004285  0.000000      0.005208
  0.000000  0.002143  0.000000      0.005208
  0.000000  0.000000  0.000000      0.005208
  0.000000  0.000000  0.000000      0.005208
 -0.000929  0.001609  0.000000      0.005208
 -0.001857  0.003217  0.000000      0.005208
 -0.002786  0.004826  0.000000      0.005208
 -0.003715  0.006434  0.000000      0.005208
 -0.004643  0.008043  0.000000      0.005208
 -0.005572  0.009651  0.000000      0.005208
 -0.006501  0.011260  0.000000      0.005208
 -0.007430  0.012868  0.000000      0.005208
 -0.008358  0.014477  0.000000      0.005208
 -0.009287  0.016085  0.000000      0.005208
 -0.010216  0.017694  0.000000      0.005208
 -0.011144  0.019302  0.000000      0.005208
 -0.012073  0.020911  0.000000      0.005208
 -0.013002  0.022519  0.000000      0.005208
 -0.013930  0.024128  0.000000      0.005208
 -0.014859  0.025737  0.000000      0.005208
 -0.015788  0.027345  0.000000      0.005208
 -0.016716  0.028954  0.000000      0.005208
 -0.017645  0.030562  0.000000      0.005208
 -0.018574  0.032171  0.000000      0.005208
 -0.019502  0.033779  0.000000      0.005208
 -0.020431  0.035388  0.000000      0.005208
 -0.021360  0.036996  0.000000      0.005208
 -0.022289  0.038605  0.000000      0.005208
 -0.023217  0.040213  0.000000      0.005208
 -0.024146  0.041822  0.000000      0.005208
 -0.025075  0.043430  0.000000      0.005208
 -0.026003  0.045039  0.000000      0.005208
 -0.026932  0.046647  0.000000      0.005208
 -0.027861  0.048256  0.000000      0.005208
 -0.028789  0.049865  0.000000      0.005208
 -0.029718  0.051473  0.000000      0.005208
 -0.030647  0.053082  0.000000      0.005208
 -0.031575  0.054690  0.000000      0.005208
 -0.032504  0.056299  0.000000      0.005208
 -0.033433  0.057907  0.000000      0.005208
 -0.034361  0.059516  0.000000      0.005208
 -0.035290  0.061124  0.000000      0.005208
 -0.036219  0.062733  0.000000      0.005208
 -0.037148  0.064341  0.000000      0.005208
 -0.038076  0.065950  0.000000      0.005208
 -0.039005  0.067558  0.000000      0.005208
 -0.039934  0.069167  0.000000      0.005208
 -0.040862  0.070776  0.000000      0.005208
 -0.041791  0.072384  0.000000      0.005208
 -0.042720  0.073993  0.000000      0.005208
 -0.043648  0.075601  0.000000      0.005208
 -0.044577  0.077210  0.000000      0.005208
 -0.045506  0.078818  0.000000      0.005208
 -0.046434  0.080427  0.000000      0.005208
 -0.047363  0.082035  0.000000      0.005208
 -0.048292  0.083644  0.000000      0.005208
 -0.049220  0.085252  0.000000      0.005208
 -0.050149  0.086861  0.000000      0.005208
 -0.051078  0.088469  0.000000      0.005208
 -0.052007  0.090078  0.000000      0.005208
 -0.052935  0.091686  0.000000      0.005208
 -0.053864  0.093295  0.000000      0.005208
 -0.054793  0.094904  0.000000      0.005208
 -0.055721  0.096512  0.000000      0.005208
 -0.056650  0.098121  0.000000      0.005208
 -0.057579  0.099729  0.000000      0.005208
 -0.058507  0.101338  0.000000      0.005208
 -0.058507  0.101338  0.000000      0.005208
 -0.057579  0.101872  0.000000      0.005208
 -0.056650  0.102406  0.000000      0.005208
 -0.055721  0.102940  0.000000      0.005208
 -0.054793  0.103474  0.000000      0.005208
 -0.053864  0.104008  0.000000      0.005208
 -0.052935  0.104542  0.000000      0.005208
 -0.052007  0.105076  0.000000      0.005208
 -0.051078  0.105610  0.000000      0.005208
 -0.050149  0.106144  0.000000      0.005208
 -0.049220  0.106678  0.000000      0.005208
 -0.048292  0.107212  0.000000      0.005208
 -0.047363  0.107746  0.000000      0.005208
 -0.046434  0.108280  0.000000      0.005208
 -0.045506  0.108814  0.000000      0.005208
 -0.044577  0.109348  0.000000      0.005208
 -0.043648  0.109882  0.000000      0.005208
 -0.042720  0.110416  0.000000      0.005208
 -0.041791  0.110950  0.000000      0.005208
 -0.040862  0.111484  0.000000      0.005208
 -0.039934  0.112018  0.000000      0.005208
 -0.039005  0.112552  0.000000      0.005208
 -0.038076  0.113086  0.000000      0.005208
 -0.037148  0.113620  0.000000      0.005208
 -0.036219  0.114154  0.000000      0.005208
 -0.035290  0.114688  0.000000      0.005208
 -0.034361  0.115223  0.000000      0.005208
 -0.033433  0.115757  0.000000      0.005208
 -0.032504  0.116291  0.000000      0.005208
 -0.031575  0.116825  0.000000      0.005208
 -0.030647  0.117359  0.000000      0.005208
 -0.029718  0.117893  0.000000      0.005208
 -0.028789  0.118427  0.000000      0.005208
 -0.027861  0.118961  0.000000      0.005208
 -0.026932  0.119495  0.000000      0.005208
 -0.026003  0.120029  0.000000      0.005208
 -0.025075  0.120563  0.000000      0.005208
 -0.024146  0.121097  0.000000      0.005208
 -0.023217  0.121631  0.000000      0.005208
 -0.022289  0.122165  0.000000      0.005208
 -0.021360  0.122699  0.000000      0.005208
 -0.020431  0.123233  0.000000      0.005208
 -0.019502  0.123767  0.000000      0.005208
 -0.018574  0.124301  0.000000      0.005208
 -0.017645  0.124835  0.000000      0.005208
 -0.016716  0.125369  0.000000      0.005208
 -0.015788  0.125903  0.000000      0.005208
 -0.014859  0.126437  0.000000      0.005208
 -0.013930  0.126971  0.000000      0.005208
 -0.013002  0.127505  0.000000      0.005208
 -0.012073  0.128039  0.000000      0.005208
 -0.011144  0.128573  0.000000      0.005208
 -0.010216  0.129107  0.000000      0.005208
 -0.009287  0.129641  0.000000      0.005208
 -0.008358  0.130175  0.000000      0.005208
 -0.007430  0.130709  0.000000      0.005208
 -0.006501  0.131244  0.000000      0.005208
 -0.005572  0.131778  0.000000      0.005208
 -0.004643  0.132312  0.000000      0.005208
 -0.003715  0.132846  0.000000      0.005208
 -0.002786  0.133380  0.000000      0.005208
 -0.001857  0.133914  0.000000      0.005208
 -0.000929  0.134448  0.000000      0.005208
 -0.000000  0.134982  0.000000      0.005208
 


--------------------------------------------------------------------------------------------------------




 Dimension of arrays:
   k-points           NKPTS =    192   k-points in BZ     NKDIM =    192   number of bands    NBANDS=     48
   number of dos      NEDOS =    301   number of ions     NIONS =      8
   non local maximal  LDIM  =      4   non local SUM 2l+1 LMDIM =      8
   total plane-waves  NPLWV = 139968
   max r-space proj   IRMAX =      1   max aug-charges    IRDMAX=   5422
   dimension x,y,z NGX =    36 NGY =   36 NGZ =  108
   dimension x,y,z NGXF=    72 NGYF=   72 NGZF=  216
   support grid    NGXF=    72 NGYF=   72 NGZF=  216
   ions per type =               8
   NGX,Y,Z   is equivalent  to a cutoff of  12.13, 12.13, 11.97 a.u.
   NGXF,Y,Z  is equivalent  to a cutoff of  24.26, 24.26, 23.94 a.u.

 SYSTEM =  BS                                      
 POSCAR =  Graphene with lattice parameter 2.467   

 Startparameter for this run:
   NWRITE =      2    write-flag & timer
   PREC   = accura    normal or accurate (medium, high low for compatibility)
   ISTART =      0    job   : 0-new  1-cont  2-samecut
   ICHARG =     11    charge: 1-file 2-atom 10-const
   ISPIN  =      1    spin polarized calculation?
   LNONCOLLINEAR =      F non collinear calculations
   LSORBIT =      F    spin-orbit coupling
   INIWAV =      1    electr: 0-lowe 1-rand  2-diag
   LASPH  =      F    aspherical Exc in radial PAW
 Electronic Relaxation 1
   ENCUT  =  450.0 eV  33.07 Ry    5.75 a.u.   8.53  8.53 25.95*2*pi/ulx,y,z
   ENINI  =  450.0     initial cutoff
   ENAUG  =  644.9 eV  augmentation charge cutoff
   NELM   =     64;   NELMIN=  2; NELMDL= -5     # of ELM steps 
   EDIFF  = 0.1E-05   stopping-criterion for ELM
   LREAL  =      F    real-space projection
   NLSPLINE    = F    spline interpolate recip. space projectors
   LCOMPAT=      F    compatible to vasp.4.4
   GGA_COMPAT  = T    GGA compatible to vasp.4.4-vasp.4.6
   LMAXPAW     = -100 max onsite density
   LMAXMIX     =    2 max onsite mixed and CHGCAR
   VOSKOWN=      0    Vosko Wilk Nusair interpolation
   ROPT   =    0.00000
 Ionic relaxation
   EDIFFG = -.1E-02   stopping-criterion for IOM
   NSW    =      0    number of steps for IOM
   NBLOCK =      1;   KBLOCK =      1    inner block; outer block 
   IBRION =     -1    ionic relax: 0-MD 1-quasi-New 2-CG
   NFREE  =      0    steps in history (QN), initial steepest desc. (CG)
   ISIF   =      2    stress and relaxation
   IWAVPR =     10    prediction:  0-non 1-charg 2-wave 3-comb
   ISYM   =      0    0-nonsym 1-usesym 2-fastsym
   LCORR  =      T    Harris-Foulkes like correction to forces

   POTIM  = 0.5000    time-step for ionic-motion
   TEIN   =    0.0    initial temperature
   TEBEG  =    0.0;   TEEND  =   0.0 temperature during run
   SMASS  =  -3.00    Nose mass-parameter (am)
   estimated Nose-frequenzy (Omega)   =  0.10E-29 period in steps = 0.13E+47 mass=  -0.556E-27a.u.
   SCALEE = 1.0000    scale energy and forces
   NPACO  =    256;   APACO  = 10.0  distance and # of slots for P.C.
   PSTRESS=    0.0 pullay stress

  Mass of Ions in am
   POMASS =  12.01
  Ionic Valenz
   ZVAL   =   4.00
  Atomic Wigner-Seitz radii
   RWIGS  =  -1.00
  virtual crystal weights 
   VCA    =   1.00
   NELECT =      32.0000    total number of electrons
   NUPDOWN=      -1.0000    fix difference up-down

 DOS related values:
   EMIN   =  10.00;   EMAX   =-10.00  energy-range for DOS
   EFERMI =   0.00
   ISMEAR =     0;   SIGMA  =   0.10  broadening in eV -4-tet -1-fermi 0-gaus

 Electronic relaxation 2 (details)
   IALGO  =     38    algorithm
   LDIAG  =      T    sub-space diagonalisation (order eigenvalues)
   LSUBROT=      F    optimize rotation matrix (better conditioning)
   TURBO    =      0    0=normal 1=particle mesh
   IRESTART =      0    0=no restart 2=restart with 2 vectors
   NREBOOT  =      0    no. of reboots
   NMIN     =      0    reboot dimension
   EREF     =   0.00    reference energy to select bands
   IMIX   =      4    mixing-type and parameters
     AMIX     =   0.40;   BMIX     =  1.00
     AMIX_MAG =   1.60;   BMIX_MAG =  1.00
     AMIN     =   0.10
     WC   =   100.;   INIMIX=   1;  MIXPRE=   1;  MAXMIX= -45

 Intra band minimization:
   WEIMIN = 0.0000     energy-eigenvalue tresh-hold
   EBREAK =  0.52E-08  absolut break condition
   DEPER  =   0.30     relativ break condition  

   TIME   =   0.40     timestep for ELM

  volume/ion in A,a.u.               =      39.53       266.76
  Fermi-wavevector in a.u.,A,eV,Ry     =   0.762872  1.441618  7.918224  0.581973
  Thomas-Fermi vector in A             =   1.862429
 
 Write flags
   LWAVE        =      T    write WAVECAR
   LDOWNSAMPLE  =      F    k-point downsampling of WAVECAR
   LCHARG       =      T    write CHGCAR
   LVTOT        =      F    write LOCPOT, total local potential
   LVHAR        =      F    write LOCPOT, Hartree potential only
   LELF         =      F    write electronic localiz. function (ELF)
   LORBIT       =     11    0 simple, 1 ext, 2 COOP (PROOUT), +10 PAW based schemes


 Dipole corrections
   LMONO  =      F    monopole corrections only (constant potential shift)
   LDIPOL =      F    correct potential (dipole corrections)
   IDIPOL =      0    1-x, 2-y, 3-z, 4-all directions 
   EPSILON=  1.0000000 bulk dielectric constant

 Exchange correlation treatment:
   GGA     =    PE    GGA type
   LEXCH   =     8    internal setting for exchange type
   LIBXC   =     F    Libxc                    
   VOSKOWN =     0    Vosko Wilk Nusair interpolation
   LHFCALC =     F    Hartree Fock is set to
   LHFONE  =     F    Hartree Fock one center treatment
   AEXX    =    0.0000 exact exchange contribution

 Linear response parameters
   LEPSILON=     F    determine dielectric tensor
   LRPA    =     F    only Hartree local field effects (RPA)
   LNABLA  =     F    use nabla operator in PAW spheres
   LVEL    =     F    velocity operator in full k-point grid
   CSHIFT  =0.1000    complex shift for real part using Kramers Kronig
   OMEGAMAX=  -1.0    maximum frequency
   DEG_THRESHOLD= 0.2000000E-02 threshold for treating states as degnerate
   RTIME   =   -0.100 relaxation time in fs
  (WPLASMAI=    0.000 imaginary part of plasma frequency in eV, 0.658/RTIME)
   DFIELD  = 0.0000000 0.0000000 0.0000000 field for delta impulse in time
 
  Optional k-point grid parameters
   LKPOINTS_OPT  =     F    use optional k-point grid
   KPOINTS_OPT_MODE=     1    mode for optional k-point grid
 
 Orbital magnetization related:
   ORBITALMAG=     F  switch on orbital magnetization
   LCHIMAG   =     F  perturbation theory with respect to B field
   DQ        =  0.001000  dq finite difference perturbation B field
   LLRAUG    =     F  two centre corrections for induced B field



--------------------------------------------------------------------------------------------------------


 Static calculation
 charge density and potential remain constant during run
 non-spin polarized calculation
 Variant of blocked Davidson
 Davidson routine will perform the subspace rotation
 perform sub-space diagonalisation
    after iterative eigenvector-optimisation
 no mixing
 using additional bands           32
 reciprocal scheme for non local part
 use partial core corrections
 calculate Harris-corrections to forces 
   (improved forces if not selfconsistent)
 use gradient corrections 
 WARNING: stress and forces are not correct
  (second derivative of E(xc) not defined)
 use of overlap-Matrix (Vanderbilt PP)
 Gauss-broadening in eV      SIGMA  =   0.10


--------------------------------------------------------------------------------------------------------


  energy-cutoff  :      450.00
  volume of cell :      316.24
      direct lattice vectors                 reciprocal lattice vectors
     4.272969000  2.467000000  0.000000000     0.117014657  0.202675314  0.000000000
    -4.272969000  2.467000000  0.000000000    -0.117014657  0.202675314  0.000000000
     0.000000000  0.000000000 15.000000000     0.000000000  0.000000000  0.066666667

  length of vectors
     4.933999704  4.933999704 15.000000000     0.234029299  0.234029299  0.066666667


 
 k-points in units of 2pi/SCALE and weight: K-points                                
  -0.00000000  0.13498176  0.00000000       0.005
   0.00000000  0.13283919  0.00000000       0.005
   0.00000000  0.13069662  0.00000000       0.005
  -0.00000000  0.12855406  0.00000000       0.005
  -0.00000000  0.12641149  0.00000000       0.005
   0.00000000  0.12426892  0.00000000       0.005
  -0.00000000  0.12212635  0.00000000       0.005
  -0.00000000  0.11998379  0.00000000       0.005
   0.00000000  0.11784122  0.00000000       0.005
   0.00000000  0.11569865  0.00000000       0.005
  -0.00000000  0.11355608  0.00000000       0.005
   0.00000000  0.11141352  0.00000000       0.005
   0.00000000  0.10927095  0.00000000       0.005
   0.00000000  0.10712838  0.00000000       0.005
  -0.00000000  0.10498581  0.00000000       0.005
   0.00000000  0.10284325  0.00000000       0.005
  -0.00000000  0.10070068  0.00000000       0.005
   0.00000000  0.09855811  0.00000000       0.005
   0.00000000  0.09641554  0.00000000       0.005
  -0.00000000  0.09427297  0.00000000       0.005
   0.00000000  0.09213041  0.00000000       0.005
  -0.00000000  0.08998784  0.00000000       0.005
   0.00000000  0.08784527  0.00000000       0.005
  -0.00000000  0.08570270  0.00000000       0.005
  -0.00000000  0.08356014  0.00000000       0.005
   0.00000000  0.08141757  0.00000000       0.005
  -0.00000000  0.07927500  0.00000000       0.005
   0.00000000  0.07713243  0.00000000       0.005
  -0.00000000  0.07498987  0.00000000       0.005
   0.00000000  0.07284730  0.00000000       0.005
  -0.00000000  0.07070473  0.00000000       0.005
  -0.00000000  0.06856216  0.00000000       0.005
   0.00000000  0.06641960  0.00000000       0.005
  -0.00000000  0.06427703  0.00000000       0.005
   0.00000000  0.06213446  0.00000000       0.005
  -0.00000000  0.05999189  0.00000000       0.005
   0.00000000  0.05784933  0.00000000       0.005
   0.00000000  0.05570676  0.00000000       0.005
   0.00000000  0.05356419  0.00000000       0.005
   0.00000000  0.05142162  0.00000000       0.005
   0.00000000  0.04927905  0.00000000       0.005
  -0.00000000  0.04713649  0.00000000       0.005
  -0.00000000  0.04499392  0.00000000       0.005
  -0.00000000  0.04285135  0.00000000       0.005
   0.00000000  0.04070878  0.00000000       0.005
   0.00000000  0.03856622  0.00000000       0.005
   0.00000000  0.03642365  0.00000000       0.005
  -0.00000000  0.03428108  0.00000000       0.005
  -0.00000000  0.03213851  0.00000000       0.005
  -0.00000000  0.02999595  0.00000000       0.005
  -0.00000000  0.02785338  0.00000000       0.005
   0.00000000  0.02571081  0.00000000       0.005
  -0.00000000  0.02356824  0.00000000       0.005
  -0.00000000  0.02142568  0.00000000       0.005
   0.00000000  0.01928311  0.00000000       0.005
  -0.00000000  0.01714054  0.00000000       0.005
  -0.00000000  0.01499797  0.00000000       0.005
   0.00000000  0.01285541  0.00000000       0.005
  -0.00000000  0.01071284  0.00000000       0.005
   0.00000000  0.00857027  0.00000000       0.005
   0.00000000  0.00642770  0.00000000       0.005
   0.00000000  0.00428514  0.00000000       0.005
   0.00000000  0.00214257  0.00000000       0.005
   0.00000000  0.00000000  0.00000000       0.005
   0.00000000  0.00000000  0.00000000       0.005
  -0.00092869  0.00160853  0.00000000       0.005
  -0.00185738  0.00321707  0.00000000       0.005
  -0.00278606  0.00482560  0.00000000       0.005
  -0.00371475  0.00643414  0.00000000       0.005
  -0.00464344  0.00804267  0.00000000       0.005
  -0.00557213  0.00965121  0.00000000       0.005
  -0.00650081  0.01125974  0.00000000       0.005
  -0.00742950  0.01286827  0.00000000       0.005
  -0.00835819  0.01447681  0.00000000       0.005
  -0.00928688  0.01608534  0.00000000       0.005
  -0.01021557  0.01769388  0.00000000       0.005
  -0.01114425  0.01930241  0.00000000       0.005
  -0.01207294  0.02091095  0.00000000       0.005
  -0.01300163  0.02251948  0.00000000       0.005
  -0.01393032  0.02412801  0.00000000       0.005
  -0.01485900  0.02573655  0.00000000       0.005
  -0.01578769  0.02734508  0.00000000       0.005
  -0.01671638  0.02895362  0.00000000       0.005
  -0.01764507  0.03056215  0.00000000       0.005
  -0.01857376  0.03217068  0.00000000       0.005
  -0.01950244  0.03377922  0.00000000       0.005
  -0.02043113  0.03538775  0.00000000       0.005
  -0.02135982  0.03699629  0.00000000       0.005
  -0.02228851  0.03860482  0.00000000       0.005
  -0.02321719  0.04021336  0.00000000       0.005
  -0.02414588  0.04182189  0.00000000       0.005
  -0.02507457  0.04343042  0.00000000       0.005
  -0.02600326  0.04503896  0.00000000       0.005
  -0.02693194  0.04664749  0.00000000       0.005
  -0.02786063  0.04825603  0.00000000       0.005
  -0.02878932  0.04986456  0.00000000       0.005
  -0.02971801  0.05147310  0.00000000       0.005
  -0.03064670  0.05308163  0.00000000       0.005
  -0.03157538  0.05469016  0.00000000       0.005
  -0.03250407  0.05629870  0.00000000       0.005
  -0.03343276  0.05790723  0.00000000       0.005
  -0.03436145  0.05951577  0.00000000       0.005
  -0.03529013  0.06112430  0.00000000       0.005
  -0.03621882  0.06273284  0.00000000       0.005
  -0.03714751  0.06434137  0.00000000       0.005
  -0.03807620  0.06594990  0.00000000       0.005
  -0.03900489  0.06755844  0.00000000       0.005
  -0.03993357  0.06916697  0.00000000       0.005
  -0.04086226  0.07077551  0.00000000       0.005
  -0.04179095  0.07238404  0.00000000       0.005
  -0.04271964  0.07399258  0.00000000       0.005
  -0.04364832  0.07560111  0.00000000       0.005
  -0.04457701  0.07720964  0.00000000       0.005
  -0.04550570  0.07881818  0.00000000       0.005
  -0.04643439  0.08042671  0.00000000       0.005
  -0.04736308  0.08203525  0.00000000       0.005
  -0.04829176  0.08364378  0.00000000       0.005
  -0.04922045  0.08525231  0.00000000       0.005
  -0.05014914  0.08686085  0.00000000       0.005
  -0.05107783  0.08846938  0.00000000       0.005
  -0.05200651  0.09007792  0.00000000       0.005
  -0.05293520  0.09168645  0.00000000       0.005
  -0.05386389  0.09329499  0.00000000       0.005
  -0.05479258  0.09490352  0.00000000       0.005
  -0.05572127  0.09651205  0.00000000       0.005
  -0.05664995  0.09812059  0.00000000       0.005
  -0.05757864  0.09972912  0.00000000       0.005
  -0.05850733  0.10133766  0.00000000       0.005
  -0.05850733  0.10133766  0.00000000       0.005
  -0.05757864  0.10187169  0.00000000       0.005
  -0.05664995  0.10240572  0.00000000       0.005
  -0.05572127  0.10293976  0.00000000       0.005
  -0.05479258  0.10347379  0.00000000       0.005
  -0.05386389  0.10400782  0.00000000       0.005
  -0.05293520  0.10454186  0.00000000       0.005
  -0.05200651  0.10507589  0.00000000       0.005
  -0.05107783  0.10560992  0.00000000       0.005
  -0.05014914  0.10614396  0.00000000       0.005
  -0.04922045  0.10667799  0.00000000       0.005
  -0.04829176  0.10721202  0.00000000       0.005
  -0.04736308  0.10774606  0.00000000       0.005
  -0.04643439  0.10828009  0.00000000       0.005
  -0.04550570  0.10881412  0.00000000       0.005
  -0.04457701  0.10934816  0.00000000       0.005
  -0.04364832  0.10988219  0.00000000       0.005
  -0.04271964  0.11041622  0.00000000       0.005
  -0.04179095  0.11095026  0.00000000       0.005
  -0.04086226  0.11148429  0.00000000       0.005
  -0.03993357  0.11201832  0.00000000       0.005
  -0.03900489  0.11255236  0.00000000       0.005
  -0.03807620  0.11308639  0.00000000       0.005
  -0.03714751  0.11362042  0.00000000       0.005
  -0.03621882  0.11415446  0.00000000       0.005
  -0.03529013  0.11468849  0.00000000       0.005
  -0.03436145  0.11522252  0.00000000       0.005
  -0.03343276  0.11575656  0.00000000       0.005
  -0.03250407  0.11629059  0.00000000       0.005
  -0.03157538  0.11682462  0.00000000       0.005
  -0.03064670  0.11735866  0.00000000       0.005
  -0.02971801  0.11789269  0.00000000       0.005
  -0.02878932  0.11842672  0.00000000       0.005
  -0.02786063  0.11896076  0.00000000       0.005
  -0.02693194  0.11949479  0.00000000       0.005
  -0.02600326  0.12002882  0.00000000       0.005
  -0.02507457  0.12056286  0.00000000       0.005
  -0.02414588  0.12109689  0.00000000       0.005
  -0.02321719  0.12163093  0.00000000       0.005
  -0.02228851  0.12216496  0.00000000       0.005
  -0.02135982  0.12269899  0.00000000       0.005
  -0.02043113  0.12323303  0.00000000       0.005
  -0.01950244  0.12376706  0.00000000       0.005
  -0.01857376  0.12430109  0.00000000       0.005
  -0.01764507  0.12483513  0.00000000       0.005
  -0.01671638  0.12536916  0.00000000       0.005
  -0.01578769  0.12590319  0.00000000       0.005
  -0.01485900  0.12643723  0.00000000       0.005
  -0.01393032  0.12697126  0.00000000       0.005
  -0.01300163  0.12750529  0.00000000       0.005
  -0.01207294  0.12803933  0.00000000       0.005
  -0.01114425  0.12857336  0.00000000       0.005
  -0.01021557  0.12910739  0.00000000       0.005
  -0.00928688  0.12964143  0.00000000       0.005
  -0.00835819  0.13017546  0.00000000       0.005
  -0.00742950  0.13070949  0.00000000       0.005
  -0.00650081  0.13124353  0.00000000       0.005
  -0.00557213  0.13177756  0.00000000       0.005
  -0.00464344  0.13231159  0.00000000       0.005
  -0.00371475  0.13284563  0.00000000       0.005
  -0.00278606  0.13337966  0.00000000       0.005
  -0.00185738  0.13391369  0.00000000       0.005
  -0.00092869  0.13444773  0.00000000       0.005
  -0.00000000  0.13498176  0.00000000       0.005
 
 k-points in reciprocal lattice and weights: K-points                                
   0.33300000  0.33300000  0.00000000       0.005
   0.32771429  0.32771429  0.00000000       0.005
   0.32242857  0.32242857  0.00000000       0.005
   0.31714286  0.31714286  0.00000000       0.005
   0.31185714  0.31185714  0.00000000       0.005
   0.30657143  0.30657143  0.00000000       0.005
   0.30128571  0.30128571  0.00000000       0.005
   0.29600000  0.29600000  0.00000000       0.005
   0.29071429  0.29071429  0.00000000       0.005
   0.28542857  0.28542857  0.00000000       0.005
   0.28014286  0.28014286  0.00000000       0.005
   0.27485714  0.27485714  0.00000000       0.005
   0.26957143  0.26957143  0.00000000       0.005
   0.26428571  0.26428571  0.00000000       0.005
   0.25900000  0.25900000  0.00000000       0.005
   0.25371429  0.25371429  0.00000000       0.005
   0.24842857  0.24842857  0.00000000       0.005
   0.24314286  0.24314286  0.00000000       0.005
   0.23785714  0.23785714  0.00000000       0.005
   0.23257143  0.23257143  0.00000000       0.005
   0.22728571  0.22728571  0.00000000       0.005
   0.22200000  0.22200000  0.00000000       0.005
   0.21671429  0.21671429  0.00000000       0.005
   0.21142857  0.21142857  0.00000000       0.005
   0.20614286  0.20614286  0.00000000       0.005
   0.20085714  0.20085714  0.00000000       0.005
   0.19557143  0.19557143  0.00000000       0.005
   0.19028571  0.19028571  0.00000000       0.005
   0.18500000  0.18500000  0.00000000       0.005
   0.17971429  0.17971429  0.00000000       0.005
   0.17442857  0.17442857  0.00000000       0.005
   0.16914286  0.16914286  0.00000000       0.005
   0.16385714  0.16385714  0.00000000       0.005
   0.15857143  0.15857143  0.00000000       0.005
   0.15328571  0.15328571  0.00000000       0.005
   0.14800000  0.14800000  0.00000000       0.005
   0.14271429  0.14271429  0.00000000       0.005
   0.13742857  0.13742857  0.00000000       0.005
   0.13214286  0.13214286  0.00000000       0.005
   0.12685714  0.12685714  0.00000000       0.005
   0.12157143  0.12157143  0.00000000       0.005
   0.11628571  0.11628571  0.00000000       0.005
   0.11100000  0.11100000  0.00000000       0.005
   0.10571429  0.10571429  0.00000000       0.005
   0.10042857  0.10042857  0.00000000       0.005
   0.09514286  0.09514286  0.00000000       0.005
   0.08985714  0.08985714  0.00000000       0.005
   0.08457143  0.08457143  0.00000000       0.005
   0.07928571  0.07928571  0.00000000       0.005
   0.07400000  0.07400000  0.00000000       0.005
   0.06871429  0.06871429  0.00000000       0.005
   0.06342857  0.06342857  0.00000000       0.005
   0.05814286  0.05814286  0.00000000       0.005
   0.05285714  0.05285714  0.00000000       0.005
   0.04757143  0.04757143  0.00000000       0.005
   0.04228571  0.04228571  0.00000000       0.005
   0.03700000  0.03700000  0.00000000       0.005
   0.03171429  0.03171429  0.00000000       0.005
   0.02642857  0.02642857  0.00000000       0.005
   0.02114286  0.02114286  0.00000000       0.005
   0.01585714  0.01585714  0.00000000       0.005
   0.01057143  0.01057143  0.00000000       0.005
   0.00528571  0.00528571  0.00000000       0.005
   0.00000000  0.00000000  0.00000000       0.005
   0.00000000  0.00000000  0.00000000       0.005
   0.00000000  0.00793651  0.00000000       0.005
   0.00000000  0.01587302  0.00000000       0.005
   0.00000000  0.02380952  0.00000000       0.005
   0.00000000  0.03174603  0.00000000       0.005
   0.00000000  0.03968254  0.00000000       0.005
   0.00000000  0.04761905  0.00000000       0.005
   0.00000000  0.05555556  0.00000000       0.005
   0.00000000  0.06349206  0.00000000       0.005
   0.00000000  0.07142857  0.00000000       0.005
   0.00000000  0.07936508  0.00000000       0.005
   0.00000000  0.08730159  0.00000000       0.005
   0.00000000  0.09523810  0.00000000       0.005
   0.00000000  0.10317460  0.00000000       0.005
   0.00000000  0.11111111  0.00000000       0.005
   0.00000000  0.11904762  0.00000000       0.005
   0.00000000  0.12698413  0.00000000       0.005
   0.00000000  0.13492063  0.00000000       0.005
   0.00000000  0.14285714  0.00000000       0.005
   0.00000000  0.15079365  0.00000000       0.005
   0.00000000  0.15873016  0.00000000       0.005
   0.00000000  0.16666667  0.00000000       0.005
   0.00000000  0.17460317  0.00000000       0.005
   0.00000000  0.18253968  0.00000000       0.005
   0.00000000  0.19047619  0.00000000       0.005
   0.00000000  0.19841270  0.00000000       0.005
   0.00000000  0.20634921  0.00000000       0.005
   0.00000000  0.21428571  0.00000000       0.005
   0.00000000  0.22222222  0.00000000       0.005
   0.00000000  0.23015873  0.00000000       0.005
   0.00000000  0.23809524  0.00000000       0.005
   0.00000000  0.24603175  0.00000000       0.005
   0.00000000  0.25396825  0.00000000       0.005
   0.00000000  0.26190476  0.00000000       0.005
   0.00000000  0.26984127  0.00000000       0.005
   0.00000000  0.27777778  0.00000000       0.005
   0.00000000  0.28571429  0.00000000       0.005
   0.00000000  0.29365079  0.00000000       0.005
   0.00000000  0.30158730  0.00000000       0.005
   0.00000000  0.30952381  0.00000000       0.005
   0.00000000  0.31746032  0.00000000       0.005
   0.00000000  0.32539683  0.00000000       0.005
   0.00000000  0.33333333  0.00000000       0.005
   0.00000000  0.34126984  0.00000000       0.005
   0.00000000  0.34920635  0.00000000       0.005
   0.00000000  0.35714286  0.00000000       0.005
   0.00000000  0.36507937  0.00000000       0.005
   0.00000000  0.37301587  0.00000000       0.005
   0.00000000  0.38095238  0.00000000       0.005
   0.00000000  0.38888889  0.00000000       0.005
   0.00000000  0.39682540  0.00000000       0.005
   0.00000000  0.40476190  0.00000000       0.005
   0.00000000  0.41269841  0.00000000       0.005
   0.00000000  0.42063492  0.00000000       0.005
   0.00000000  0.42857143  0.00000000       0.005
   0.00000000  0.43650794  0.00000000       0.005
   0.00000000  0.44444444  0.00000000       0.005
   0.00000000  0.45238095  0.00000000       0.005
   0.00000000  0.46031746  0.00000000       0.005
   0.00000000  0.46825397  0.00000000       0.005
   0.00000000  0.47619048  0.00000000       0.005
   0.00000000  0.48412698  0.00000000       0.005
   0.00000000  0.49206349  0.00000000       0.005
   0.00000000  0.50000000  0.00000000       0.005
   0.00000000  0.50000000  0.00000000       0.005
   0.00528571  0.49734921  0.00000000       0.005
   0.01057143  0.49469841  0.00000000       0.005
   0.01585714  0.49204762  0.00000000       0.005
   0.02114286  0.48939683  0.00000000       0.005
   0.02642857  0.48674603  0.00000000       0.005
   0.03171429  0.48409524  0.00000000       0.005
   0.03700000  0.48144444  0.00000000       0.005
   0.04228571  0.47879365  0.00000000       0.005
   0.04757143  0.47614286  0.00000000       0.005
   0.05285714  0.47349206  0.00000000       0.005
   0.05814286  0.47084127  0.00000000       0.005
   0.06342857  0.46819048  0.00000000       0.005
   0.06871429  0.46553968  0.00000000       0.005
   0.07400000  0.46288889  0.00000000       0.005
   0.07928571  0.46023810  0.00000000       0.005
   0.08457143  0.45758730  0.00000000       0.005
   0.08985714  0.45493651  0.00000000       0.005
   0.09514286  0.45228571  0.00000000       0.005
   0.10042857  0.44963492  0.00000000       0.005
   0.10571429  0.44698413  0.00000000       0.005
   0.11100000  0.44433333  0.00000000       0.005
   0.11628571  0.44168254  0.00000000       0.005
   0.12157143  0.43903175  0.00000000       0.005
   0.12685714  0.43638095  0.00000000       0.005
   0.13214286  0.43373016  0.00000000       0.005
   0.13742857  0.43107937  0.00000000       0.005
   0.14271429  0.42842857  0.00000000       0.005
   0.14800000  0.42577778  0.00000000       0.005
   0.15328571  0.42312698  0.00000000       0.005
   0.15857143  0.42047619  0.00000000       0.005
   0.16385714  0.41782540  0.00000000       0.005
   0.16914286  0.41517460  0.00000000       0.005
   0.17442857  0.41252381  0.00000000       0.005
   0.17971429  0.40987302  0.00000000       0.005
   0.18500000  0.40722222  0.00000000       0.005
   0.19028571  0.40457143  0.00000000       0.005
   0.19557143  0.40192063  0.00000000       0.005
   0.20085714  0.39926984  0.00000000       0.005
   0.20614286  0.39661905  0.00000000       0.005
   0.21142857  0.39396825  0.00000000       0.005
   0.21671429  0.39131746  0.00000000       0.005
   0.22200000  0.38866667  0.00000000       0.005
   0.22728571  0.38601587  0.00000000       0.005
   0.23257143  0.38336508  0.00000000       0.005
   0.23785714  0.38071429  0.00000000       0.005
   0.24314286  0.37806349  0.00000000       0.005
   0.24842857  0.37541270  0.00000000       0.005
   0.25371429  0.37276190  0.00000000       0.005
   0.25900000  0.37011111  0.00000000       0.005
   0.26428571  0.36746032  0.00000000       0.005
   0.26957143  0.36480952  0.00000000       0.005
   0.27485714  0.36215873  0.00000000       0.005
   0.28014286  0.35950794  0.00000000       0.005
   0.28542857  0.35685714  0.00000000       0.005
   0.29071429  0.35420635  0.00000000       0.005
   0.29600000  0.35155556  0.00000000       0.005
   0.30128571  0.34890476  0.00000000       0.005
   0.30657143  0.34625397  0.00000000       0.005
   0.31185714  0.34360317  0.00000000       0.005
   0.31714286  0.34095238  0.00000000       0.005
   0.32242857  0.33830159  0.00000000       0.005
   0.32771429  0.33565079  0.00000000       0.005
   0.33300000  0.33300000  0.00000000       0.005
 
 position of ions in fractional coordinates (direct lattice) 
   0.16666600  0.33333300  0.10000000
   0.33333300  0.16666600  0.10000000
   0.16666600  0.83333300  0.10000000
   0.33333300  0.66666600  0.10000000
   0.66666600  0.33333300  0.10000000
   0.83333300  0.16666600  0.10000000
   0.66666600  0.83333300  0.10000000
   0.83333300  0.66666600  0.10000000
 
 position of ions in cartesian coordinates  (Angst):
  -0.71216292  1.23349753  1.50000000
   0.71216292  1.23349753  1.50000000
  -2.84864742  2.46699753  1.50000000
  -1.42432158  2.46699753  1.50000000
   1.42432158  2.46699753  1.50000000
   2.84864742  2.46699753  1.50000000
  -0.71216292  3.70049753  1.50000000
   0.71216292  3.70049753  1.50000000
 


--------------------------------------------------------------------------------------------------------


 k-point   1 :   0.3330 0.3330 0.0000  plane waves:    6844
 k-point   2 :   0.3277 0.3277 0.0000  plane waves:    6848
 k-point   3 :   0.3224 0.3224 0.0000  plane waves:    6840
 k-point   4 :   0.3171 0.3171 0.0000  plane waves:    6838
 k-point   5 :   0.3119 0.3119 0.0000  plane waves:    6830
 k-point   6 :   0.3066 0.3066 0.0000  plane waves:    6832
 k-point   7 :   0.3013 0.3013 0.0000  plane waves:    6832
 k-point   8 :   0.2960 0.2960 0.0000  plane waves:    6832
 k-point   9 :   0.2907 0.2907 0.0000  plane waves:    6832
 k-point  10 :   0.2854 0.2854 0.0000  plane waves:    6828
 k-point  11 :   0.2801 0.2801 0.0000  plane waves:    6822
 k-point  12 :   0.2749 0.2749 0.0000  plane waves:    6834
 k-point  13 :   0.2696 0.2696 0.0000  plane waves:    6842
 k-point  14 :   0.2643 0.2643 0.0000  plane waves:    6851
 k-point  15 :   0.2590 0.2590 0.0000  plane waves:    6851
 k-point  16 :   0.2537 0.2537 0.0000  plane waves:    6843
 k-point  17 :   0.2484 0.2484 0.0000  plane waves:    6851
 k-point  18 :   0.2431 0.2431 0.0000  plane waves:    6851
 k-point  19 :   0.2379 0.2379 0.0000  plane waves:    6855
 k-point  20 :   0.2326 0.2326 0.0000  plane waves:    6855
 k-point  21 :   0.2273 0.2273 0.0000  plane waves:    6857
 k-point  22 :   0.2220 0.2220 0.0000  plane waves:    6867
 k-point  23 :   0.2167 0.2167 0.0000  plane waves:    6865
 k-point  24 :   0.2114 0.2114 0.0000  plane waves:    6871
 k-point  25 :   0.2061 0.2061 0.0000  plane waves:    6871
 k-point  26 :   0.2009 0.2009 0.0000  plane waves:    6871
 k-point  27 :   0.1956 0.1956 0.0000  plane waves:    6875
 k-point  28 :   0.1903 0.1903 0.0000  plane waves:    6875
 k-point  29 :   0.1850 0.1850 0.0000  plane waves:    6877
 k-point  30 :   0.1797 0.1797 0.0000  plane waves:    6885
 k-point  31 :   0.1744 0.1744 0.0000  plane waves:    6881
 k-point  32 :   0.1691 0.1691 0.0000  plane waves:    6889
 k-point  33 :   0.1639 0.1639 0.0000  plane waves:    6889
 k-point  34 :   0.1586 0.1586 0.0000  plane waves:    6893
 k-point  35 :   0.1533 0.1533 0.0000  plane waves:    6889
 k-point  36 :   0.1480 0.1480 0.0000  plane waves:    6871
 k-point  37 :   0.1427 0.1427 0.0000  plane waves:    6875
 k-point  38 :   0.1374 0.1374 0.0000  plane waves:    6895
 k-point  39 :   0.1321 0.1321 0.0000  plane waves:    6893
 k-point  40 :   0.1269 0.1269 0.0000  plane waves:    6873
 k-point  41 :   0.1216 0.1216 0.0000  plane waves:    6881
 k-point  42 :   0.1163 0.1163 0.0000  plane waves:    6869
 k-point  43 :   0.1110 0.1110 0.0000  plane waves:    6867
 k-point  44 :   0.1057 0.1057 0.0000  plane waves:    6867
 k-point  45 :   0.1004 0.1004 0.0000  plane waves:    6863
 k-point  46 :   0.0951 0.0951 0.0000  plane waves:    6865
 k-point  47 :   0.0899 0.0899 0.0000  plane waves:    6879
 k-point  48 :   0.0846 0.0846 0.0000  plane waves:    6887
 k-point  49 :   0.0793 0.0793 0.0000  plane waves:    6891
 k-point  50 :   0.0740 0.0740 0.0000  plane waves:    6899
 k-point  51 :   0.0687 0.0687 0.0000  plane waves:    6901
 k-point  52 :   0.0634 0.0634 0.0000  plane waves:    6901
 k-point  53 :   0.0581 0.0581 0.0000  plane waves:    6901
 k-point  54 :   0.0529 0.0529 0.0000  plane waves:    6901
 k-point  55 :   0.0476 0.0476 0.0000  plane waves:    6889
 k-point  56 :   0.0423 0.0423 0.0000  plane waves:    6889
 k-point  57 :   0.0370 0.0370 0.0000  plane waves:    6885
 k-point  58 :   0.0317 0.0317 0.0000  plane waves:    6889
 k-point  59 :   0.0264 0.0264 0.0000  plane waves:    6889
 k-point  60 :   0.0211 0.0211 0.0000  plane waves:    6895
 k-point  61 :   0.0159 0.0159 0.0000  plane waves:    6895
 k-point  62 :   0.0106 0.0106 0.0000  plane waves:    6883
 k-point  63 :   0.0053 0.0053 0.0000  plane waves:    6887
 k-point  64 :   0.0000 0.0000 0.0000  plane waves:    6885
 k-point  65 :   0.0000 0.0000 0.0000  plane waves:    6885
 k-point  66 :   0.0000 0.0079 0.0000  plane waves:    6889
 k-point  67 :   0.0000 0.0159 0.0000  plane waves:    6889
 k-point  68 :   0.0000 0.0238 0.0000  plane waves:    6907
 k-point  69 :   0.0000 0.0317 0.0000  plane waves:    6907
 k-point  70 :   0.0000 0.0397 0.0000  plane waves:    6893
 k-point  71 :   0.0000 0.0476 0.0000  plane waves:    6881
 k-point  72 :   0.0000 0.0556 0.0000  plane waves:    6889
 k-point  73 :   0.0000 0.0635 0.0000  plane waves:    6881
 k-point  74 :   0.0000 0.0714 0.0000  plane waves:    6883
 k-point  75 :   0.0000 0.0794 0.0000  plane waves:    6891
 k-point  76 :   0.0000 0.0873 0.0000  plane waves:    6897
 k-point  77 :   0.0000 0.0952 0.0000  plane waves:    6893
 k-point  78 :   0.0000 0.1032 0.0000  plane waves:    6901
 k-point  79 :   0.0000 0.1111 0.0000  plane waves:    6901
 k-point  80 :   0.0000 0.1190 0.0000  plane waves:    6895
 k-point  81 :   0.0000 0.1270 0.0000  plane waves:    6895
 k-point  82 :   0.0000 0.1349 0.0000  plane waves:    6883
 k-point  83 :   0.0000 0.1429 0.0000  plane waves:    6887
 k-point  84 :   0.0000 0.1508 0.0000  plane waves:    6875
 k-point  85 :   0.0000 0.1587 0.0000  plane waves:    6863
 k-point  86 :   0.0000 0.1667 0.0000  plane waves:    6869
 k-point  87 :   0.0000 0.1746 0.0000  plane waves:    6865
 k-point  88 :   0.0000 0.1825 0.0000  plane waves:    6869
 k-point  89 :   0.0000 0.1905 0.0000  plane waves:    6865
 k-point  90 :   0.0000 0.1984 0.0000  plane waves:    6871
 k-point  91 :   0.0000 0.2063 0.0000  plane waves:    6871
 k-point  92 :   0.0000 0.2143 0.0000  plane waves:    6867
 k-point  93 :   0.0000 0.2222 0.0000  plane waves:    6859
 k-point  94 :   0.0000 0.2302 0.0000  plane waves:    6849
 k-point  95 :   0.0000 0.2381 0.0000  plane waves:    6853
 k-point  96 :   0.0000 0.2460 0.0000  plane waves:    6849
 k-point  97 :   0.0000 0.2540 0.0000  plane waves:    6851
 k-point  98 :   0.0000 0.2619 0.0000  plane waves:    6849
 k-point  99 :   0.0000 0.2698 0.0000  plane waves:    6849
 k-point 100 :   0.0000 0.2778 0.0000  plane waves:    6859
 k-point 101 :   0.0000 0.2857 0.0000  plane waves:    6863
 k-point 102 :   0.0000 0.2937 0.0000  plane waves:    6869
 k-point 103 :   0.0000 0.3016 0.0000  plane waves:    6873
 k-point 104 :   0.0000 0.3095 0.0000  plane waves:    6869
 k-point 105 :   0.0000 0.3175 0.0000  plane waves:    6873
 k-point 106 :   0.0000 0.3254 0.0000  plane waves:    6855
 k-point 107 :   0.0000 0.3333 0.0000  plane waves:    6863
 k-point 108 :   0.0000 0.3413 0.0000  plane waves:    6859
 k-point 109 :   0.0000 0.3492 0.0000  plane waves:    6855
 k-point 110 :   0.0000 0.3571 0.0000  plane waves:    6855
 k-point 111 :   0.0000 0.3651 0.0000  plane waves:    6863
 k-point 112 :   0.0000 0.3730 0.0000  plane waves:    6853
 k-point 113 :   0.0000 0.3810 0.0000  plane waves:    6837
 k-point 114 :   0.0000 0.3889 0.0000  plane waves:    6839
 k-point 115 :   0.0000 0.3968 0.0000  plane waves:    6836
 k-point 116 :   0.0000 0.4048 0.0000  plane waves:    6844
 k-point 117 :   0.0000 0.4127 0.0000  plane waves:    6848
 k-point 118 :   0.0000 0.4206 0.0000  plane waves:    6834
 k-point 119 :   0.0000 0.4286 0.0000  plane waves:    6816
 k-point 120 :   0.0000 0.4365 0.0000  plane waves:    6824
 k-point 121 :   0.0000 0.4444 0.0000  plane waves:    6828
 k-point 122 :   0.0000 0.4524 0.0000  plane waves:    6834
 k-point 123 :   0.0000 0.4603 0.0000  plane waves:    6830
 k-point 124 :   0.0000 0.4683 0.0000  plane waves:    6822
 k-point 125 :   0.0000 0.4762 0.0000  plane waves:    6820
 k-point 126 :   0.0000 0.4841 0.0000  plane waves:    6812
 k-point 127 :   0.0000 0.4921 0.0000  plane waves:    6822
 k-point 128 :   0.0000 0.5000 0.0000  plane waves:    6826
 k-point 129 :   0.0000 0.5000 0.0000  plane waves:    6826
 k-point 130 :   0.0053 0.4973 0.0000  plane waves:    6822
 k-point 131 :   0.0106 0.4947 0.0000  plane waves:    6818
 k-point 132 :   0.0159 0.4920 0.0000  plane waves:    6816
 k-point 133 :   0.0211 0.4894 0.0000  plane waves:    6822
 k-point 134 :   0.0264 0.4867 0.0000  plane waves:    6818
 k-point 135 :   0.0317 0.4841 0.0000  plane waves:    6820
 k-point 136 :   0.0370 0.4814 0.0000  plane waves:    6814
 k-point 137 :   0.0423 0.4788 0.0000  plane waves:    6810
 k-point 138 :   0.0476 0.4761 0.0000  plane waves:    6810
 k-point 139 :   0.0529 0.4735 0.0000  plane waves:    6806
 k-point 140 :   0.0581 0.4708 0.0000  plane waves:    6802
 k-point 141 :   0.0634 0.4682 0.0000  plane waves:    6812
 k-point 142 :   0.0687 0.4655 0.0000  plane waves:    6812
 k-point 143 :   0.0740 0.4629 0.0000  plane waves:    6808
 k-point 144 :   0.0793 0.4602 0.0000  plane waves:    6812
 k-point 145 :   0.0846 0.4576 0.0000  plane waves:    6816
 k-point 146 :   0.0899 0.4549 0.0000  plane waves:    6812
 k-point 147 :   0.0951 0.4523 0.0000  plane waves:    6820
 k-point 148 :   0.1004 0.4496 0.0000  plane waves:    6814
 k-point 149 :   0.1057 0.4470 0.0000  plane waves:    6820
 k-point 150 :   0.1110 0.4443 0.0000  plane waves:    6820
 k-point 151 :   0.1163 0.4417 0.0000  plane waves:    6820
 k-point 152 :   0.1216 0.4390 0.0000  plane waves:    6814
 k-point 153 :   0.1269 0.4364 0.0000  plane waves:    6820
 k-point 154 :   0.1321 0.4337 0.0000  plane waves:    6824
 k-point 155 :   0.1374 0.4311 0.0000  plane waves:    6832
 k-point 156 :   0.1427 0.4284 0.0000  plane waves:    6832
 k-point 157 :   0.1480 0.4258 0.0000  plane waves:    6832
 k-point 158 :   0.1533 0.4231 0.0000  plane waves:    6834
 k-point 159 :   0.1586 0.4205 0.0000  plane waves:    6840
 k-point 160 :   0.1639 0.4178 0.0000  plane waves:    6840
 k-point 161 :   0.1691 0.4152 0.0000  plane waves:    6836
 k-point 162 :   0.1744 0.4125 0.0000  plane waves:    6836
 k-point 163 :   0.1797 0.4099 0.0000  plane waves:    6826
 k-point 164 :   0.1850 0.4072 0.0000  plane waves:    6826
 k-point 165 :   0.1903 0.4046 0.0000  plane waves:    6826
 k-point 166 :   0.1956 0.4019 0.0000  plane waves:    6824
 k-point 167 :   0.2009 0.3993 0.0000  plane waves:    6824
 k-point 168 :   0.2061 0.3966 0.0000  plane waves:    6820
 k-point 169 :   0.2114 0.3940 0.0000  plane waves:    6808
 k-point 170 :   0.2167 0.3913 0.0000  plane waves:    6808
 k-point 171 :   0.2220 0.3887 0.0000  plane waves:    6812
 k-point 172 :   0.2273 0.3860 0.0000  plane waves:    6812
 k-point 173 :   0.2326 0.3834 0.0000  plane waves:    6816
 k-point 174 :   0.2379 0.3807 0.0000  plane waves:    6820
 k-point 175 :   0.2431 0.3781 0.0000  plane waves:    6816
 k-point 176 :   0.2484 0.3754 0.0000  plane waves:    6818
 k-point 177 :   0.2537 0.3728 0.0000  plane waves:    6814
 k-point 178 :   0.2590 0.3701 0.0000  plane waves:    6810
 k-point 179 :   0.2643 0.3675 0.0000  plane waves:    6812
 k-point 180 :   0.2696 0.3648 0.0000  plane waves:    6812
 k-point 181 :   0.2749 0.3622 0.0000  plane waves:    6816
 k-point 182 :   0.2801 0.3595 0.0000  plane waves:    6822
 k-point 183 :   0.2854 0.3569 0.0000  plane waves:    6824
 k-point 184 :   0.2907 0.3542 0.0000  plane waves:    6826
 k-point 185 :   0.2960 0.3516 0.0000  plane waves:    6828
 k-point 186 :   0.3013 0.3489 0.0000  plane waves:    6830
 k-point 187 :   0.3066 0.3463 0.0000  plane waves:    6834
 k-point 188 :   0.3119 0.3436 0.0000  plane waves:    6840
 k-point 189 :   0.3171 0.3410 0.0000  plane waves:    6836
 k-point 190 :   0.3224 0.3383 0.0000  plane waves:    6840
 k-point 191 :   0.3277 0.3357 0.0000  plane waves:    6844
 k-point 192 :   0.3330 0.3330 0.0000  plane waves:    6844

 maximum and minimum number of plane-waves per node :      6907     6802

 maximum number of plane-waves:      6907
 maximum index in each direction: 
   IXMAX=    8   IYMAX=    8   IZMAX=   25
   IXMIN=   -8   IYMIN=   -9   IZMIN=  -25


 serial   3D FFT for wavefunctions
 parallel 3D FFT for charge:
    minimum data exchange during FFTs selected (reduces bandwidth)


 total amount of memory used by VASP MPI-rank0   146052. kBytes
=======================================================================

   base      :      30000. kBytes
   nonl-proj :      85819. kBytes
   fftplans  :       1560. kBytes
   grid      :       7121. kBytes
   one-center:         24. kBytes
   wavefun   :      21528. kBytes
 
     INWAV:  cpu time      0.0000: real time      0.0000
 initial charge density was supplied:
 number of electron      31.9999991 magnetization 
 keeping initial charge density in first step


--------------------------------------------------------------------------------------------------------


 Maximum index for augmentation-charges          324 (set IRDMAX)


--------------------------------------------------------------------------------------------------------


 First call to EWALD:  gamma=   0.260
 Maximum number of real-space cells 4x 4x 2
 Maximum number of reciprocal cells 2x 2x 5

    FEWALD:  cpu time      0.0016: real time      0.0016


--------------------------------------- Iteration      1(   1)  ---------------------------------------


    POTLOK:  cpu time      0.0212: real time      0.0228
    SETDIJ:  cpu time      0.0020: real time      0.0020
     EDDAV:  cpu time      6.6156: real time      6.6765
       DOS:  cpu time      0.0023: real time      0.0041
    --------------------------------------------
      LOOP:  cpu time      6.6412: real time      6.7054

 eigenvalue-minimisations  : 18432
 total energy-change (2. order) : 0.9633685E+02  (-0.1277686E+04)
 number of electron      31.9999991 magnetization 
 augmentation part       31.9999991 magnetization 

 Free energy of the ion-electron system (eV)
  ---------------------------------------------------
  alpha Z        PSCENC =        16.62455519
  Ewald energy   TEWEN  =      3342.98366661
  -Hartree energ DENC   =     -4350.94926563
  -exchange      EXHF   =         0.00000000
  -V(xc)+E(xc)   XCENC  =       110.14462626
  PAW double counting   =      3380.45301020    -3385.91001030
  entropy T*S    EENTRO =        -0.01317321
  eigenvalues    EBANDS =      -194.15158625
  atomic energy  EATOM  =      1177.15502788
  Solvation  Ediel_sol  =         0.00000000
  ---------------------------------------------------
  free energy    TOTEN  =        96.33685074 eV

  energy without entropy =       96.35002396  energy(sigma->0) =       96.34343735


--------------------------------------------------------------------------------------------------------




--------------------------------------- Iteration      1(   2)  ---------------------------------------


     EDDAV:  cpu time      9.3911: real time      9.4816
       DOS:  cpu time      0.0014: real time      0.0014
    --------------------------------------------
      LOOP:  cpu time      9.3924: real time      9.4829

 eigenvalue-minimisations  : 25488
 total energy-change (2. order) :-0.1642853E+03  (-0.1630500E+03)
 number of electron      31.9999991 magnetization 
 augmentation part       31.9999991 magnetization 

 Free energy of the ion-electron system (eV)
  ---------------------------------------------------
  alpha Z        PSCENC =        16.62455519
  Ewald energy   TEWEN  =      3342.98366661
  -Hartree energ DENC   =     -4350.94926563
  -exchange      EXHF   =         0.00000000
  -V(xc)+E(xc)   XCENC  =       110.14462626
  PAW double counting   =      3380.45301020    -3385.91001030
  entropy T*S    EENTRO =        -0.00154169
  eigenvalues    EBANDS =      -358.44850311
  atomic energy  EATOM  =      1177.15502788
  Solvation  Ediel_sol  =         0.00000000
  ---------------------------------------------------
  free energy    TOTEN  =       -67.94843460 eV

  energy without entropy =      -67.94689291  energy(sigma->0) =      -67.94766376


--------------------------------------------------------------------------------------------------------




--------------------------------------- Iteration      1(   3)  ---------------------------------------


     EDDAV:  cpu time     11.3525: real time     11.4360
       DOS:  cpu time      0.0015: real time      0.0015
    --------------------------------------------
      LOOP:  cpu time     11.3539: real time     11.4375

 eigenvalue-minimisations  : 29136
 total energy-change (2. order) :-0.5250452E+01  (-0.5246727E+01)
 number of electron      31.9999991 magnetization 
 augmentation part       31.9999991 magnetization 

 Free energy of the ion-electron system (eV)
  ---------------------------------------------------
  alpha Z        PSCENC =        16.62455519
  Ewald energy   TEWEN  =      3342.98366661
  -Hartree energ DENC   =     -4350.94926563
  -exchange      EXHF   =         0.00000000
  -V(xc)+E(xc)   XCENC  =       110.14462626
  PAW double counting   =      3380.45301020    -3385.91001030
  entropy T*S    EENTRO =        -0.00263272
  eigenvalues    EBANDS =      -363.69786431
  atomic energy  EATOM  =      1177.15502788
  Solvation  Ediel_sol  =         0.00000000
  ---------------------------------------------------
  free energy    TOTEN  =       -73.19888682 eV

  energy without entropy =      -73.19625410  energy(sigma->0) =      -73.19757046


--------------------------------------------------------------------------------------------------------




--------------------------------------- Iteration      1(   4)  ---------------------------------------


     EDDAV:  cpu time      9.8166: real time      9.9030
       DOS:  cpu time      0.0013: real time      0.0013
    --------------------------------------------
      LOOP:  cpu time      9.8179: real time      9.9043

 eigenvalue-minimisations  : 25632
 total energy-change (2. order) :-0.1199612E-01  (-0.1199611E-01)
 number of electron      31.9999991 magnetization 
 augmentation part       31.9999991 magnetization 

 Free energy of the ion-electron system (eV)
  ---------------------------------------------------
  alpha Z        PSCENC =        16.62455519
  Ewald energy   TEWEN  =      3342.98366661
  -Hartree energ DENC   =     -4350.94926563
  -exchange      EXHF   =         0.00000000
  -V(xc)+E(xc)   XCENC  =       110.14462626
  PAW double counting   =      3380.45301020    -3385.91001030
  entropy T*S    EENTRO =        -0.00263413
  eigenvalues    EBANDS =      -363.70985901
  atomic energy  EATOM  =      1177.15502788
  Solvation  Ediel_sol  =         0.00000000
  ---------------------------------------------------
  free energy    TOTEN  =       -73.21088294 eV

  energy without entropy =      -73.20824881  energy(sigma->0) =      -73.20956587


--------------------------------------------------------------------------------------------------------




--------------------------------------- Iteration      1(   5)  ---------------------------------------


     EDDAV:  cpu time     10.3263: real time     10.3975
       DOS:  cpu time      0.0013: real time      0.0013
    --------------------------------------------
      LOOP:  cpu time     10.3276: real time     10.3988

 eigenvalue-minimisations  : 27072
 total energy-change (2. order) :-0.7791818E-05  (-0.7791777E-05)
 number of electron      31.9999991 magnetization 
 augmentation part       31.9999991 magnetization 

 Free energy of the ion-electron system (eV)
  ---------------------------------------------------
  alpha Z        PSCENC =        16.62455519
  Ewald energy   TEWEN  =      3342.98366661
  -Hartree energ DENC   =     -4350.94926563
  -exchange      EXHF   =         0.00000000
  -V(xc)+E(xc)   XCENC  =       110.14462626
  PAW double counting   =      3380.45301020    -3385.91001030
  entropy T*S    EENTRO =        -0.00263413
  eigenvalues    EBANDS =      -363.70986680
  atomic energy  EATOM  =      1177.15502788
  Solvation  Ediel_sol  =         0.00000000
  ---------------------------------------------------
  free energy    TOTEN  =       -73.21089073 eV

  energy without entropy =      -73.20825660  energy(sigma->0) =      -73.20957366


--------------------------------------------------------------------------------------------------------




--------------------------------------- Iteration      1(   6)  ---------------------------------------


     EDDAV:  cpu time      9.7301: real time      9.8054
       DOS:  cpu time      0.0012: real time      0.0012
    --------------------------------------------
      LOOP:  cpu time      9.7313: real time      9.8067

 eigenvalue-minimisations  : 25680
 total energy-change (2. order) :-0.1502394E-07  (-0.1512839E-07)
 number of electron      31.9999991 magnetization 
 augmentation part       31.9999991 magnetization 

 Free energy of the ion-electron system (eV)
  ---------------------------------------------------
  alpha Z        PSCENC =        16.62455519
  Ewald energy   TEWEN  =      3342.98366661
  -Hartree energ DENC   =     -4350.94926563
  -exchange      EXHF   =         0.00000000
  -V(xc)+E(xc)   XCENC  =       110.14462626
  PAW double counting   =      3380.45301020    -3385.91001030
  entropy T*S    EENTRO =        -0.00263413
  eigenvalues    EBANDS =      -363.70986681
  atomic energy  EATOM  =      1177.15502788
  Solvation  Ediel_sol  =         0.00000000
  ---------------------------------------------------
  free energy    TOTEN  =       -73.21089074 eV

  energy without entropy =      -73.20825661  energy(sigma->0) =      -73.20957368


--------------------------------------------------------------------------------------------------------




 average (electrostatic) potential at core
  the test charge radii are     0.6991
  (the norm of the test charge is              1.0000)
       1 -57.6941       2 -57.6941       3 -57.6941       4 -57.6941       5 -57.6941
       6 -57.6941       7 -57.6941       8 -57.6941
 
 
 
 E-fermi :  -2.2532     XC(G=0):  -2.8681     alpha+bet : -2.5354

 Fermi energy:        -2.2531762276

 k-point     1 :       0.3330    0.3330    0.0000
  band No.  band energies     occupation 
      1     -19.8150      2.00000
      2     -19.8093      2.00000
      3     -19.8093      2.00000
      4     -14.8432      2.00000
      5     -14.8364      2.00000
      6     -12.7896      2.00000
      7     -10.0131      2.00000
      8     -10.0131      2.00000
      9     -10.0041      2.00000
     10      -8.6582      2.00000
     11      -8.6582      2.00000
     12      -8.6502      2.00000
     13      -7.5804      2.00000
     14      -7.5738      2.00000
     15      -7.5738      2.00000
     16      -2.2577      1.05089
     17      -2.2485      0.94740
     18       3.6718      0.00000
     19       3.6798      0.00000
     20       3.6798      0.00000
     21       4.1114      0.00000
     22       4.1114      0.00000
     23       4.1225      0.00000
     24       4.5772      0.00000
     25       4.5851      0.00000
     26       4.5851      0.00000
     27       5.1763      0.00000
     28       5.1845      0.00000
     29       5.1845      0.00000
     30       6.9588      0.00000
     31       6.9665      0.00000
     32       6.9665      0.00000
     33       7.6131      0.00000
     34       7.6196      0.00000
     35       7.6196      0.00000
     36       7.9353      0.00000
     37       7.9422      0.00000
     38       7.9422      0.00000
     39       8.3637      0.00000
     40       9.2632      0.00000
     41       9.2670      0.00000
     42       9.2670      0.00000
     43      10.6276      0.00000
     44      10.6308      0.00000
     45      10.6952      0.00000
     46      10.7017      0.00000
     47      10.7017      0.00000
     48      11.2353      0.00000

 k-point     2 :       0.3277    0.3277    0.0000
  band No.  band energies     occupation 
      1     -19.8754      2.00000
      2     -19.7783      2.00000
      3     -19.7783      2.00000
      4     -14.8957      2.00000
      5     -14.7866      2.00000
      6     -12.7858      2.00000
      7     -10.0639      2.00000
      8     -10.0639      2.00000
      9      -9.9080      2.00000
     10      -8.6974      2.00000
     11      -8.6974      2.00000
     12      -8.5674      2.00000
     13      -7.6499      2.00000
     14      -7.5382      2.00000
     15      -7.5382      2.00000
     16      -2.3306      1.72668
     17      -2.1759      0.27445
     18       3.5881      0.00000
     19       3.7227      0.00000
     20       3.7227      0.00000
     21       4.0511      0.00000
     22       4.0511      0.00000
     23       4.2405      0.00000
     24       4.4941      0.00000
     25       4.6280      0.00000
     26       4.6280      0.00000
     27       5.0908      0.00000
     28       5.2284      0.00000
     29       5.2284      0.00000
     30       6.8773      0.00000
     31       7.0084      0.00000
     32       7.0084      0.00000
     33       7.5426      0.00000
     34       7.6498      0.00000
     35       7.6498      0.00000
     36       7.8629      0.00000
     37       7.9747      0.00000
     38       7.9747      0.00000
     39       8.3650      0.00000
     40       9.2243      0.00000
     41       9.2976      0.00000
     42       9.2976      0.00000
     43      10.6005      0.00000
     44      10.6265      0.00000
     45      10.6484      0.00000
     46      10.7367      0.00000
     47      10.7367      0.00000
     48      11.2328      0.00000

 k-point     3 :       0.3224    0.3224    0.0000
  band No.  band energies     occupation 
      1     -19.9348      2.00000
      2     -19.7464      2.00000
[...]
     13      -7.6643      2.00000
     14      -7.6582      2.00000
     15      -7.3959      2.00000
     16      -2.4436      1.99292
     17      -2.0637      0.00738
     18       3.5708      0.00000
     19       3.5782      0.00000
     20       3.8161      0.00000
     21       3.8950      0.00000
     22       4.2504      0.00000
     23       4.2609      0.00000
     24       4.4791      0.00000
     25       4.4864      0.00000
     26       4.7986      0.00000
     27       5.0731      0.00000
     28       5.0807      0.00000
     29       5.4045      0.00000
     30       6.8609      0.00000
     31       6.8680      0.00000
     32       7.1753      0.00000
     33       7.5029      0.00000
     34       7.5076      0.00000
     35       7.7959      0.00000
     36       7.8221      0.00000
     37       7.8274      0.00000
     38       8.1324      0.00000
     39       8.3705      0.00000
     40       9.2728      0.00000
     41       9.2790      0.00000
     42       9.3625      0.00000
     43      10.5142      0.00000
     44      10.6132      0.00000
     45      10.6193      0.00000
     46      10.6874      0.00000
     47      10.8722      0.00000
     48      11.2284      0.00000

 k-point   188 :       0.3119    0.3436    0.0000
  band No.  band energies     occupation 
      1     -19.8737      2.00000
      2     -19.8683      2.00000
      3     -19.6857      2.00000
      4     -14.9583      2.00000
      5     -14.7304      2.00000
      6     -12.7764      2.00000
      7     -10.2042      2.00000
      8      -9.9273      2.00000
      9      -9.9182      2.00000
     10      -8.8243      2.00000
     11      -8.5670      2.00000
     12      -8.5600      2.00000
     13      -7.6481      2.00000
     14      -7.6419      2.00000
     15      -7.4319      2.00000
     16      -2.4053      1.96852
     17      -2.1016      0.03212
     18       3.5903      0.00000
     19       3.5978      0.00000
     20       3.8513      0.00000
     21       3.8750      0.00000
     22       4.2242      0.00000
     23       4.2349      0.00000
     24       4.4975      0.00000
     25       4.5050      0.00000
     26       4.7553      0.00000
     27       5.0931      0.00000
     28       5.1007      0.00000
     29       5.3598      0.00000
     30       6.8798      0.00000
     31       6.8871      0.00000
     32       7.1330      0.00000
     33       7.5283      0.00000
     34       7.5334      0.00000
     35       7.7605      0.00000
     36       7.8476      0.00000
     37       7.8531      0.00000
     38       8.0933      0.00000
     39       8.3681      0.00000
     40       9.2623      0.00000
     41       9.2681      0.00000
     42       9.3433      0.00000
     43      10.5447      0.00000
     44      10.6290      0.00000
     45      10.6352      0.00000
     46      10.6771      0.00000
     47      10.8383      0.00000
     48      11.2304      0.00000

 k-point   189 :       0.3171    0.3410    0.0000
  band No.  band energies     occupation 
      1     -19.8594      2.00000
      2     -19.8539      2.00000
      3     -19.7169      2.00000
      4     -14.9273      2.00000
      5     -14.7576      2.00000
      6     -12.7820      2.00000
      7     -10.1565      2.00000
      8      -9.9469      2.00000
      9      -9.9379      2.00000
     10      -8.7827      2.00000
     11      -8.5911      2.00000
     12      -8.5839      2.00000
     13      -7.6316      2.00000
     14      -7.6252      2.00000
     15      -7.4677      2.00000
     16      -2.3673      1.89349
     17      -2.1393      0.10729
     18       3.6102      0.00000
     19       3.6178      0.00000
     20       3.8079      0.00000
     21       3.9344      0.00000
     22       4.1971      0.00000
     23       4.2079      0.00000
     24       4.5167      0.00000
     25       4.5242      0.00000
     26       4.7123      0.00000
     27       5.1134      0.00000
     28       5.1212      0.00000
     29       5.3155      0.00000
     30       6.8990      0.00000
     31       6.9064      0.00000
     32       7.0910      0.00000
     33       7.5521      0.00000
     34       7.5576      0.00000
     35       7.7253      0.00000
     36       7.8720      0.00000
     37       7.8778      0.00000
     38       8.0547      0.00000
     39       8.3662      0.00000
     40       9.2559      0.00000
     41       9.2613      0.00000
     42       9.3245      0.00000
     43      10.5715      0.00000
     44      10.6452      0.00000
     45      10.6515      0.00000
     46      10.6663      0.00000
     47      10.8043      0.00000
     48      11.2323      0.00000

 k-point   190 :       0.3224    0.3383    0.0000
  band No.  band energies     occupation 
      1     -19.8449      2.00000
      2     -19.8393      2.00000
      3     -19.7480      2.00000
      4     -14.8974      2.00000
      5     -14.7846      2.00000
      6     -12.7861      2.00000
      7     -10.1088      2.00000
      8      -9.9678      2.00000
      9      -9.9587      2.00000
     10      -8.7412      2.00000
     11      -8.6144      2.00000
     12      -8.6070      2.00000
     13      -7.6148      2.00000
     14      -7.6084      2.00000
     15      -7.5033      2.00000
     16      -2.3297      1.72087
     17      -2.1767      0.27922
     18       3.6304      0.00000
     19       3.6381      0.00000
     20       3.7649      0.00000
     21       3.9934      0.00000
     22       4.1692      0.00000
     23       4.1801      0.00000
     24       4.5364      0.00000
     25       4.5441      0.00000
     26       4.6696      0.00000
     27       5.1340      0.00000
     28       5.1419      0.00000
     29       5.2715      0.00000
     30       6.9186      0.00000
     31       6.9261      0.00000
     32       7.0492      0.00000
     33       7.5741      0.00000
     34       7.5800      0.00000
     35       7.6900      0.00000
     36       7.8948      0.00000
     37       7.9009      0.00000
     38       8.0167      0.00000
     39       8.3649      0.00000
     40       9.2538      0.00000
     41       9.2586      0.00000
     42       9.3054      0.00000
     43      10.5943      0.00000
     44      10.6549      0.00000
     45      10.6616      0.00000
     46      10.6679      0.00000
     47      10.7702      0.00000
     48      11.2338      0.00000

 k-point   191 :       0.3277    0.3357    0.0000
  band No.  band energies     occupation 
      1     -19.8301      2.00000
      2     -19.8244      2.00000
      3     -19.7787      2.00000
      4     -14.8689      2.00000
      5     -14.8114      2.00000
      6     -12.7887      2.00000
      7     -10.0610      2.00000
      8      -9.9898      2.00000
      9      -9.9808      2.00000
     10      -8.6997      2.00000
     11      -8.6368      2.00000
     12      -8.6291      2.00000
     13      -7.5977      2.00000
     14      -7.5912      2.00000
     15      -7.5387      2.00000
     16      -2.2925      1.42220
     17      -2.2137      0.57689
     18       3.6509      0.00000
     19       3.6588      0.00000
     20       3.7221      0.00000
     21       4.0524      0.00000
     22       4.1406      0.00000
     23       4.1516      0.00000
     24       4.5566      0.00000
     25       4.5644      0.00000
     26       4.6272      0.00000
     27       5.1550      0.00000
     28       5.1630      0.00000
     29       5.2278      0.00000
     30       6.9385      0.00000
     31       6.9462      0.00000
     32       7.0077      0.00000
     33       7.5945      0.00000
     34       7.6007      0.00000
     35       7.6548      0.00000
     36       7.9159      0.00000
     37       7.9224      0.00000
     38       7.9791      0.00000
     39       8.3640      0.00000
     40       9.2562      0.00000
     41       9.2606      0.00000
     42       9.2862      0.00000
     43      10.6133      0.00000
     44      10.6426      0.00000
     45      10.6783      0.00000
     46      10.6847      0.00000
     47      10.7360      0.00000
     48      11.2348      0.00000

 k-point   192 :       0.3330    0.3330    0.0000
  band No.  band energies     occupation 
      1     -19.8150      2.00000
      2     -19.8093      2.00000
      3     -19.8093      2.00000
      4     -14.8432      2.00000
      5     -14.8364      2.00000
      6     -12.7896      2.00000
      7     -10.0131      2.00000
      8     -10.0131      2.00000
      9     -10.0041      2.00000
     10      -8.6582      2.00000
     11      -8.6582      2.00000
     12      -8.6502      2.00000
     13      -7.5804      2.00000
     14      -7.5738      2.00000
     15      -7.5738      2.00000
     16      -2.2577      1.05089
     17      -2.2485      0.94740
     18       3.6718      0.00000
     19       3.6798      0.00000
     20       3.6798      0.00000
     21       4.1114      0.00000
     22       4.1114      0.00000
     23       4.1225      0.00000
     24       4.5772      0.00000
     25       4.5851      0.00000
     26       4.5851      0.00000
     27       5.1763      0.00000
     28       5.1845      0.00000
     29       5.1845      0.00000
     30       6.9588      0.00000
     31       6.9665      0.00000
     32       6.9665      0.00000
     33       7.6131      0.00000
     34       7.6196      0.00000
     35       7.6196      0.00000
     36       7.9353      0.00000
     37       7.9422      0.00000
     38       7.9422      0.00000
     39       8.3637      0.00000
     40       9.2632      0.00000
     41       9.2670      0.00000
     42       9.2670      0.00000
     43      10.6276      0.00000
     44      10.6308      0.00000
     45      10.6952      0.00000
     46      10.7017      0.00000
     47      10.7017      0.00000
     48      11.2353      0.00000


--------------------------------------------------------------------------------------------------------


 soft charge-density along one line, spin component           1
         0         1         2         3         4         5         6         7         8         9
 total charge-density along one line
 
 pseudopotential strength for first ion, spin component:           1
 10.188  13.548  -0.000  -0.000  -0.000   0.000   0.000   0.000
 13.548  18.015  -0.000  -0.000  -0.000   0.000   0.000   0.000
 -0.000  -0.000  -4.321  -0.000   0.000   8.453   0.000  -0.000
 -0.000  -0.000  -0.000  -4.314   0.000   0.000   8.443  -0.000
 -0.000  -0.000   0.000   0.000  -4.321  -0.000  -0.000   8.453
  0.000   0.000   8.453   0.000  -0.000 -18.668  -0.000   0.000
  0.000   0.000   0.000   8.443  -0.000  -0.000 -18.660   0.000
  0.000   0.000  -0.000  -0.000   8.453   0.000   0.000 -18.668
 total augmentation occupancy for first ion, spin component:           1
  2.000   0.000   0.000   0.000   0.000   0.000   0.000   0.000
  0.000   0.000   0.000   0.000   0.000   0.000   0.000   0.000
  0.000   0.000   0.667   0.000   0.000   0.000   0.000   0.000
  0.000   0.000   0.000   0.667   0.000   0.000   0.000   0.000
  0.000   0.000   0.000   0.000   0.667   0.000   0.000   0.000
  0.000   0.000   0.000   0.000   0.000   0.000   0.000   0.000
  0.000   0.000   0.000   0.000   0.000   0.000   0.000   0.000
  0.000   0.000   0.000   0.000   0.000   0.000   0.000   0.000


------------------------ aborting loop because EDIFF is reached ----------------------------------------





 total charge

# of ion       s       p       d       tot
------------------------------------------
    1        0.862   1.791   0.000   2.654
    2        0.862   1.791   0.000   2.654
    3        0.862   1.791   0.000   2.654
    4        0.862   1.791   0.000   2.654
    5        0.862   1.791   0.000   2.654
    6        0.862   1.791   0.000   2.654
    7        0.862   1.791   0.000   2.654
    8        0.862   1.791   0.000   2.654
--------------------------------------------------
tot          6.899  14.329   0.000  21.228
 
    CHARGE:  cpu time      0.3226: real time      0.3331
    FORLOC:  cpu time      0.0009: real time      0.0009
    FORNL :  cpu time      0.6483: real time      0.6509
    STRESS:  cpu time      4.5853: real time      4.5985
    FORCOR:  cpu time      0.0127: real time      0.0127
    FORHAR:  cpu time      0.0036: real time      0.0036
    OFIELD:  cpu time      0.0000: real time      0.0000

 ---------------------------------------------------------------------------------------------

         DFTD3 V3.0 Rev 1        
 IVDW         = 12
 DF pbe       
 parameters
 VDW_S6       =    1.0000
 VDW_S8       =    0.7875
 VDW_A1       =    0.4289
 VDW_A2       =    4.4407
 k1-k3        =   16.0000    1.3333   -4.0000
 VDW_RADIUS   =   50.2022 A
 VDW_CNRADIUS =   21.1671 A
 Edisp (eV)   -0.70967

 E6    (eV) :    -0.4879
 E8    (eV) :    -0.2218
 % E8        : 31.25
    FORVDW:  cpu time      0.0165: real time      0.0165

  FORCE on cell =-STRESS in cart. coord.  units (eV):
  Direction    XX          YY          ZZ          XY          YZ          ZX
  --------------------------------------------------------------------------------------
  Alpha Z    16.62456    16.62456    16.62456
  Ewald    4418.03594  4418.04090 -5493.09451     0.00000     0.00000     0.00000
  Hartree  4305.69538  4308.02623 -4261.24117    -0.97027     0.00000     0.00000
  E(xc)    -118.81730  -118.79446  -123.26056    -0.01336    -0.00000    -0.00000
  Local   -9070.00401 -9072.15763  9340.62838     0.23102    -0.00000    -0.00000
  n-local   -29.17850   -29.06117   -26.68708    -0.12766     0.00000     0.00000
  augment    -3.12629    -3.15360    -2.89361     0.01577    -0.00000     0.00000
  Kinetic   489.79004   473.31193   550.30052     8.49265     0.00000    -0.00000
  Fock        0.00000     0.00000     0.00000     0.00000     0.00000     0.00000
  vdW        -0.17902    -0.17902    -0.00583    -0.00000    -0.00000    -0.00000
  -------------------------------------------------------------------------------------
  Total       8.84081    -7.34227     0.37069     7.62815    -0.00000    -0.00000
  in kB      44.79017   -37.19812     1.87802    38.64646    -0.00000    -0.00000
  external pressure =        3.16 kB  Pullay stress =        0.00 kB


 VOLUME and BASIS-vectors are now :
 -----------------------------------------------------------------------------
  energy-cutoff  :      450.00
  volume of cell :      316.24
      direct lattice vectors                 reciprocal lattice vectors
     4.272969000  2.467000000  0.000000000     0.117014657  0.202675314  0.000000000
    -4.272969000  2.467000000  0.000000000    -0.117014657  0.202675314  0.000000000
     0.000000000  0.000000000 15.000000000     0.000000000  0.000000000  0.066666667

  length of vectors
     4.933999704  4.933999704 15.000000000     0.234029299  0.234029299  0.066666667


 FORCES acting on ions
    electron-ion (+dipol)            ewald-force                    non-local-force                 convergence-correction
 -----------------------------------------------------------------------------------------------
   -.176E+01 0.152E+01 0.144E-05   0.488E-03 0.163E-13 0.715E-15   0.215E+00 -.364E+00 -.171E-04   0.432E+00 -.364E+00 -.465E-06
   0.176E+01 -.152E+01 0.138E-05   -.488E-03 0.301E-13 0.537E-15   -.215E+00 0.364E+00 -.171E-04   -.432E+00 0.364E+00 -.455E-06
   -.176E+01 0.152E+01 0.140E-05   0.488E-03 -.284E-13 0.358E-15   0.215E+00 -.364E+00 -.170E-04   0.432E+00 -.364E+00 -.457E-06
   0.176E+01 -.152E+01 0.159E-05   -.488E-03 -.130E-13 0.179E-15   -.215E+00 0.364E+00 -.172E-04   -.432E+00 0.364E+00 -.472E-06
   -.176E+01 0.152E+01 0.160E-05   0.488E-03 0.142E-13 -.216E-18   0.215E+00 -.364E+00 -.173E-04   0.432E+00 -.364E+00 -.519E-06
   0.176E+01 -.152E+01 0.155E-05   -.488E-03 0.287E-13 -.179E-15   -.215E+00 0.364E+00 -.171E-04   -.432E+00 0.364E+00 -.513E-06
   -.176E+01 0.152E+01 0.171E-05   0.488E-03 -.276E-13 -.357E-15   0.215E+00 -.364E+00 -.171E-04   0.432E+00 -.364E+00 -.542E-06
   0.176E+01 -.152E+01 0.167E-05   -.488E-03 -.140E-13 -.536E-15   -.215E+00 0.364E+00 -.172E-04   -.432E+00 0.364E+00 -.512E-06
 -----------------------------------------------------------------------------------------------
   0.121E-04 -.968E-03 0.123E-04   -.761E-14 0.625E-14 0.716E-15   -.125E-04 0.141E-03 -.137E-03   -.459E-05 0.711E-03 -.393E-05
 
 
 POSITION                                       TOTAL-FORCE (eV/Angst)
 -----------------------------------------------------------------------------------
     -0.71216      1.23350      1.50000        -1.110364      0.792690     -0.000000
      0.71216      1.23350      1.50000         1.110364     -0.792690     -0.000000
     -2.84865      2.46700      1.50000        -1.110365      0.792690      0.000000
     -1.42432      2.46700      1.50000         1.110365     -0.792690      0.000000
      1.42432      2.46700      1.50000        -1.110365      0.792690     -0.000000
      2.84865      2.46700      1.50000         1.110365     -0.792690      0.000000
     -0.71216      3.70050      1.50000        -1.110364      0.792690      0.000000
      0.71216      3.70050      1.50000         1.110365     -0.792690      0.000000
 -----------------------------------------------------------------------------------
    total drift:                               -0.000005     -0.000116     -0.000129


--------------------------------------------------------------------------------------------------------



  FREE ENERGIE OF THE ION-ELECTRON SYSTEM (eV)
  ---------------------------------------------------
  free  energy   TOTEN  =       -73.92056475 eV

  energy  without entropy=      -73.91793062  energy(sigma->0) =      -73.91924768
 


--------------------------------------------------------------------------------------------------------


    POTLOK:  cpu time      0.0182: real time      0.0183


--------------------------------------------------------------------------------------------------------


 stress matrix after NEB project (eV)
      8.84081      7.62815     -0.00000
      7.62815     -7.34227     -0.00000
     -0.00000     -0.00000      0.37069
  FORCES: max atom, RMS     1.364282    1.364282
  FORCE total and by dimension    3.858773    1.110365
  Stress total and by dimension   15.766539    8.840814
 writing wavefunctions
     LOOP+:  cpu time     65.2061: real time     66.4434
    4ORBIT:  cpu time      0.0000: real time      0.0000



 total charge

# of ion       s       p       d       tot
------------------------------------------
    1        0.862   1.791   0.000   2.654
    2        0.862   1.791   0.000   2.654
    3        0.862   1.791   0.000   2.654
    4        0.862   1.791   0.000   2.654
    5        0.862   1.791   0.000   2.654
    6        0.862   1.791   0.000   2.654
    7        0.862   1.791   0.000   2.654
    8        0.862   1.791   0.000   2.654
--------------------------------------------------
tot          6.899  14.329   0.000  21.228
 

 total amount of memory used by VASP MPI-rank0   146052. kBytes
=======================================================================

   base      :      30000. kBytes
   nonl-proj :      85819. kBytes
   fftplans  :       1560. kBytes
   grid      :       7121. kBytes
   one-center:         24. kBytes
   wavefun   :      21528. kBytes
 
  
  
 General timing and accounting informations for this job:
 ========================================================
  
                  Total CPU time used (sec):       73.853
                            User time (sec):       70.272
                          System time (sec):        3.581
                         Elapsed time (sec):       77.266
  
                   Maximum memory used (kb):      673784.
                   Average memory used (kb):          N/A
  
                          Minor page faults:       217426
                          Major page faults:         3659
                 Voluntary context switches:         7986
