PROCAR lm decomposed
# of k-points:  192         # of bands:   24         # of ions:    8

 k-point     1 :    0.33300000 0.33300000 0.00000000     weight = 0.00520833

band     1 # energy  -19.81503831 # occ.  2.00000000
 
ion      s     py     pz     px    dxy    dyz    dz2    dxz  x2-y2    tot
    1  0.073  0.010  0.000  0.000  0.000  0.000  0.000  0.000  0.000  0.083
    2  0.073  0.010  0.000  0.000  0.000  0.000  0.000  0.000  0.000  0.083
    3  0.073  0.010  0.000  0.000  0.000  0.000  0.000  0.000  0.000  0.083
    4  0.073  0.010  0.000  0.000  0.000  0.000  0.000  0.000  0.000  0.083
    5  0.073  0.010  0.000  0.000  0.000  0.000  0.000  0.000  0.000  0.083
    6  0.073  0.010  0.000  0.000  0.000  0.000  0.000  0.000  0.000  0.083
    7  0.073  0.010  0.000  0.000  0.000  0.000  0.000  0.000  0.000  0.083
    8  0.073  0.010  0.000  0.000  0.000  0.000  0.000  0.000  0.000  0.083
tot    0.584  0.080  0.000  0.000  0.000  0.000  0.000  0.000  0.000  0.665
 
band     2 # energy  -19.80928103 # occ.  2.00000000
 
ion      s     py     pz     px    dxy    dyz    dz2    dxz  x2-y2    tot
    1  0.016  0.000  0.000  0.013  0.000  0.000  0.000  0.000  0.000  0.029
    2  0.137  0.005  0.000  0.001  0.000  0.000  0.000  0.000  0.000  0.143
    3  0.130  0.005  0.000  0.002  0.000  0.000  0.000  0.000  0.000  0.137
    4  0.009  0.000  0.000  0.014  0.000  0.000  0.000  0.000  0.000  0.023
    5  0.130  0.005  0.000  0.002  0.000  0.000  0.000  0.000  0.000  0.137
    6  0.009  0.000  0.000  0.014  0.000  0.000  0.000  0.000  0.000  0.023
    7  0.016  0.000  0.000  0.013  0.000  0.000  0.000  0.000  0.000  0.029
    8  0.137  0.005  0.000  0.001  0.000  0.000  0.000  0.000  0.000  0.143
tot    0.584  0.020  0.000  0.061  0.000  0.000  0.000  0.000  0.000  0.665
 
band     3 # energy  -19.80928103 # occ.  2.00000000
 
ion      s     py     pz     px    dxy    dyz    dz2    dxz  x2-y2    tot
    1  0.130  0.005  0.000  0.002  0.000  0.000  0.000  0.000  0.000  0.137
    2  0.009  0.000  0.000  0.014  0.000  0.000  0.000  0.000  0.000  0.023
    3  0.016  0.000  0.000  0.013  0.000  0.000  0.000  0.000  0.000  0.029
    4  0.137  0.005  0.000  0.001  0.000  0.000  0.000  0.000  0.000  0.143
    5  0.016  0.000  0.000  0.013  0.000  0.000  0.000  0.000  0.000  0.029
    6  0.137  0.005  0.000  0.001  0.000  0.000  0.000  0.000  0.000  0.143
    7  0.130  0.005  0.000  0.002  0.000  0.000  0.000  0.000  0.000  0.137
    8  0.009  0.000  0.000  0.014  0.000  0.000  0.000  0.000  0.000  0.023
tot    0.584  0.020  0.000  0.061  0.000  0.000  0.000  0.000  0.000  0.665
 
band     4 # energy  -14.84316770 # occ.  2.00000000
 
ion      s     py     pz     px    dxy    dyz    dz2    dxz  x2-y2    tot
    1  0.062  0.015  0.000  0.015  0.000  0.000  0.000  0.000  0.000  0.093
    2  0.062  0.015  0.000  0.015  0.000  0.000  0.000  0.000  0.000  0.093
    3  0.062  0.015  0.000  0.015  0.000  0.000  0.000  0.000  0.000  0.093
    4  0.062  0.015  0.000  0.015  0.000  0.000  0.000  0.000  0.000  0.093
    5  0.062  0.015  0.000  0.015  0.000  0.000  0.000  0.000  0.000  0.093
    6  0.062  0.015  0.000  0.015  0.000  0.000  0.000  0.000  0.000  0.093
    7  0.062  0.015  0.000  0.015  0.000  0.000  0.000  0.000  0.000  0.093
    8  0.062  0.015  0.000  0.015  0.000  0.000  0.000  0.000  0.000  0.093
tot    0.499  0.121  0.000  0.121  0.000  0.000  0.000  0.000  0.000  0.741
 
band     5 # energy  -14.83642795 # occ.  2.00000000
 
ion      s     py     pz     px    dxy    dyz    dz2    dxz  x2-y2    tot
    1  0.062  0.015  0.000  0.015  0.000  0.000  0.000  0.000  0.000  0.093
    2  0.062  0.015  0.000  0.015  0.000  0.000  0.000  0.000  0.000  0.093
    3  0.062  0.015  0.000  0.015  0.000  0.000  0.000  0.000  0.000  0.093
    4  0.062  0.015  0.000  0.015  0.000  0.000  0.000  0.000  0.000  0.093
    5  0.062  0.015  0.000  0.015  0.000  0.000  0.000  0.000  0.000  0.093
    6  0.062  0.015  0.000  0.015  0.000  0.000  0.000  0.000  0.000  0.093
    7  0.062  0.015  0.000  0.015  0.000  0.000  0.000  0.000  0.000  0.093
    8  0.062  0.015  0.000  0.015  0.000  0.000  0.000  0.000  0.000  0.093
tot    0.498  0.120  0.000  0.122  0.000  0.000  0.000  0.000  0.000  0.741
 
band     6 # energy  -12.78963883 # occ.  2.00000000
 
ion      s     py     pz     px    dxy    dyz    dz2    dxz  x2-y2    tot
    1  0.000  0.040  0.000  0.040  0.000  0.000  0.000  0.000  0.000  0.080
    2  0.000  0.040  0.000  0.040  0.000  0.000  0.000  0.000  0.000  0.080
    3  0.000  0.040  0.000  0.040  0.000  0.000  0.000  0.000  0.000  0.080
    4  0.000  0.040  0.000  0.040  0.000  0.000  0.000  0.000  0.000  0.080
    5  0.000  0.040  0.000  0.040  0.000  0.000  0.000  0.000  0.000  0.080
    6  0.000  0.040  0.000  0.040  0.000  0.000  0.000  0.000  0.000  0.080
    7  0.000  0.040  0.000  0.040  0.000  0.000  0.000  0.000  0.000  0.080
    8  0.000  0.040  0.000  0.040  0.000  0.000  0.000  0.000  0.000  0.080
tot    0.000  0.322  0.000  0.320  0.000  0.000  0.000  0.000  0.000  0.641
 
band     7 # energy  -10.01309208 # occ.  2.00000000
 
ion      s     py     pz     px    dxy    dyz    dz2    dxz  x2-y2    tot
    1  0.042  0.031  0.000  0.035  0.000  0.000  0.000  0.000  0.000  0.108
    2  0.017  0.016  0.000  0.056  0.000  0.000  0.000  0.000  0.000  0.089
    3  0.019  0.014  0.000  0.053  0.000  0.000  0.000  0.000  0.000  0.086
    4  0.044  0.029  0.000  0.031  0.000  0.000  0.000  0.000  0.000  0.104
    5  0.019  0.014  0.000  0.053  0.000  0.000  0.000  0.000  0.000  0.086
    6  0.044  0.029  0.000  0.031  0.000  0.000  0.000  0.000  0.000  0.104
    7  0.042  0.031  0.000  0.035  0.000  0.000  0.000  0.000  0.000  0.108
    8  0.017  0.016  0.000  0.056  0.000  0.000  0.000  0.000  0.000  0.089
tot    0.243  0.179  0.000  0.351  0.000  0.000  0.000  0.000  0.000  0.773
 
band     8 # energy  -10.01309208 # occ.  2.00000000
 
ion      s     py     pz     px    dxy    dyz    dz2    dxz  x2-y2    tot
    1  0.019  0.014  0.000  0.053  0.000  0.000  0.000  0.000  0.000  0.086
    2  0.044  0.029  0.000  0.031  0.000  0.000  0.000  0.000  0.000  0.104
    3  0.042  0.031  0.000  0.035  0.000  0.000  0.000  0.000  0.000  0.108
    4  0.017  0.016  0.000  0.056  0.000  0.000  0.000  0.000  0.000  0.089
    5  0.042  0.031  0.000  0.035  0.000  0.000  0.000  0.000  0.000  0.108
    6  0.017  0.016  0.000  0.056  0.000  0.000  0.000  0.000  0.000  0.089
    7  0.019  0.014  0.000  0.053  0.000  0.000  0.000  0.000  0.000  0.086
    8  0.044  0.029  0.000  0.031  0.000  0.000  0.000  0.000  0.000  0.104
tot    0.243  0.179  0.000  0.351  0.000  0.000  0.000  0.000  0.000  0.773
 
band     9 # energy  -10.00407448 # occ.  2.00000000
 
ion      s     py     pz     px    dxy    dyz    dz2    dxz  x2-y2    tot
    1  0.030  0.055  0.000  0.011  0.000  0.000  0.000  0.000  0.000  0.097
    2  0.030  0.055  0.000  0.011  0.000  0.000  0.000  0.000  0.000  0.097
    3  0.030  0.055  0.000  0.011  0.000  0.000  0.000  0.000  0.000  0.097
    4  0.030  0.055  0.000  0.011  0.000  0.000  0.000  0.000  0.000  0.097
    5  0.030  0.055  0.000  0.011  0.000  0.000  0.000  0.000  0.000  0.097
    6  0.030  0.055  0.000  0.011  0.000  0.000  0.000  0.000  0.000  0.097
    7  0.030  0.055  0.000  0.011  0.000  0.000  0.000  0.000  0.000  0.097
    8  0.030  0.055  0.000  0.011  0.000  0.000  0.000  0.000  0.000  0.097
tot    0.242  0.440  0.000  0.091  0.000  0.000  0.000  0.000  0.000  0.773
 
band    10 # energy   -8.65815512 # occ.  2.00000000
 
ion      s     py     pz     px    dxy    dyz    dz2    dxz  x2-y2    tot
    1  0.003  0.076  0.000  0.047  0.000  0.000  0.000  0.000  0.000  0.125
    2  0.005  0.042  0.000  0.042  0.000  0.000  0.000  0.000  0.000  0.089
    3  0.003  0.043  0.000  0.014  0.000  0.000  0.000  0.000  0.000  0.060
    4  0.002  0.076  0.000  0.019  0.000  0.000  0.000  0.000  0.000  0.097
    5  0.003  0.043  0.000  0.014  0.000  0.000  0.000  0.000  0.000  0.060
    6  0.002  0.076  0.000  0.019  0.000  0.000  0.000  0.000  0.000  0.097
    7  0.003  0.076  0.000  0.047  0.000  0.000  0.000  0.000  0.000  0.125
    8  0.005  0.042  0.000  0.042  0.000  0.000  0.000  0.000  0.000  0.089
tot    0.026  0.475  0.000  0.242  0.000  0.000  0.000  0.000  0.000  0.743
 
band    11 # energy   -8.65815512 # occ.  2.00000000
 
ion      s     py     pz     px    dxy    dyz    dz2    dxz  x2-y2    tot
    1  0.003  0.043  0.000  0.014  0.000  0.000  0.000  0.000  0.000  0.060
    2  0.002  0.076  0.000  0.019  0.000  0.000  0.000  0.000  0.000  0.097
    3  0.003  0.076  0.000  0.047  0.000  0.000  0.000  0.000  0.000  0.125
    4  0.005  0.042  0.000  0.042  0.000  0.000  0.000  0.000  0.000  0.089
    5  0.003  0.076  0.000  0.047  0.000  0.000  0.000  0.000  0.000  0.125
    6  0.005  0.042  0.000  0.042  0.000  0.000  0.000  0.000  0.000  0.089
    7  0.003  0.043  0.000  0.014  0.000  0.000  0.000  0.000  0.000  0.060
    8  0.002  0.076  0.000  0.019  0.000  0.000  0.000  0.000  0.000  0.097
tot    0.026  0.475  0.000  0.242  0.000  0.000  0.000  0.000  0.000  0.743
 
band    12 # energy   -8.65024462 # occ.  2.00000000
 
ion      s     py     pz     px    dxy    dyz    dz2    dxz  x2-y2    tot
    1  0.003  0.015  0.000  0.074  0.000  0.000  0.000  0.000  0.000  0.093
    2  0.003  0.015  0.000  0.074  0.000  0.000  0.000  0.000  0.000  0.093
    3  0.003  0.015  0.000  0.074  0.000  0.000  0.000  0.000  0.000  0.093
    4  0.003  0.015  0.000  0.074  0.000  0.000  0.000  0.000  0.000  0.093
    5  0.003  0.015  0.000  0.074  0.000  0.000  0.000  0.000  0.000  0.093
    6  0.003  0.015  0.000  0.074  0.000  0.000  0.000  0.000  0.000  0.093
    7  0.003  0.015  0.000  0.074  0.000  0.000  0.000  0.000  0.000  0.093
    8  0.003  0.015  0.000  0.074  0.000  0.000  0.000  0.000  0.000  0.093
tot    0.026  0.123  0.000  0.595  0.000  0.000  0.000  0.000  0.000  0.743
 
band    13 # energy   -7.58044465 # occ.  2.00000000
 
ion      s     py     pz     px    dxy    dyz    dz2    dxz  x2-y2    tot
    1  0.000  0.000  0.056  0.000  0.000  0.000  0.000  0.000  0.000  0.056
    2  0.000  0.000  0.056  0.000  0.000  0.000  0.000  0.000  0.000  0.056
    3  0.000  0.000  0.056  0.000  0.000  0.000  0.000  0.000  0.000  0.056
    4  0.000  0.000  0.056  0.000  0.000  0.000  0.000  0.000  0.000  0.056
    5  0.000  0.000  0.056  0.000  0.000  0.000  0.000  0.000  0.000  0.056
    6  0.000  0.000  0.056  0.000  0.000  0.000  0.000  0.000  0.000  0.056
    7  0.000  0.000  0.056  0.000  0.000  0.000  0.000  0.000  0.000  0.056
    8  0.000  0.000  0.056  0.000  0.000  0.000  0.000  0.000  0.000  0.056
tot    0.000  0.000  0.450  0.000  0.000  0.000  0.000  0.000  0.000  0.450
 
band    14 # energy   -7.57382801 # occ.  2.00000000
 
ion      s     py     pz     px    dxy    dyz    dz2    dxz  x2-y2    tot
    1  0.000  0.000  0.096  0.000  0.000  0.000  0.000  0.000  0.000  0.096
    2  0.000  0.000  0.065  0.000  0.000  0.000  0.000  0.000  0.000  0.065
    3  0.000  0.000  0.016  0.000  0.000  0.000  0.000  0.000  0.000  0.016
    4  0.000  0.000  0.047  0.000  0.000  0.000  0.000  0.000  0.000  0.047
    5  0.000  0.000  0.016  0.000  0.000  0.000  0.000  0.000  0.000  0.016
    6  0.000  0.000  0.047  0.000  0.000  0.000  0.000  0.000  0.000  0.047
    7  0.000  0.000  0.096  0.000  0.000  0.000  0.000  0.000  0.000  0.096
    8  0.000  0.000  0.065  0.000  0.000  0.000  0.000  0.000  0.000  0.065
tot    0.000  0.000  0.450  0.000  0.000  0.000  0.000  0.000  0.000  0.450
 
band    15 # energy   -7.57382801 # occ.  2.00000000
 
ion      s     py     pz     px    dxy    dyz    dz2    dxz  x2-y2    tot
    1  0.000  0.000  0.016  0.000  0.000  0.000  0.000  0.000  0.000  0.016
    2  0.000  0.000  0.047  0.000  0.000  0.000  0.000  0.000  0.000  0.047
    3  0.000  0.000  0.096  0.000  0.000  0.000  0.000  0.000  0.000  0.096
    4  0.000  0.000  0.065  0.000  0.000  0.000  0.000  0.000  0.000  0.065
    5  0.000  0.000  0.096  0.000  0.000  0.000  0.000  0.000  0.000  0.096
    6  0.000  0.000  0.065  0.000  0.000  0.000  0.000  0.000  0.000  0.065
    7  0.000  0.000  0.016  0.000  0.000  0.000  0.000  0.000  0.000  0.016
    8  0.000  0.000  0.047  0.000  0.000  0.000  0.000  0.000  0.000  0.047
tot    0.000  0.000  0.450  0.000  0.000  0.000  0.000  0.000  0.000  0.450
 
band    16 # energy   -2.25768964 # occ.  1.05089384
 
ion      s     py     pz     px    dxy    dyz    dz2    dxz  x2-y2    tot
    1  0.000  0.000  0.066  0.000  0.000  0.000  0.000  0.000  0.000  0.066
    2  0.000  0.000  0.066  0.000  0.000  0.000  0.000  0.000  0.000  0.066
    3  0.000  0.000  0.066  0.000  0.000  0.000  0.000  0.000  0.000  0.066
    4  0.000  0.000  0.066  0.000  0.000  0.000  0.000  0.000  0.000  0.066
    5  0.000  0.000  0.066  0.000  0.000  0.000  0.000  0.000  0.000  0.066
    6  0.000  0.000  0.066  0.000  0.000  0.000  0.000  0.000  0.000  0.066
    7  0.000  0.000  0.066  0.000  0.000  0.000  0.000  0.000  0.000  0.066
    8  0.000  0.000  0.066  0.000  0.000  0.000  0.000  0.000  0.000  0.066
tot    0.000  0.000  0.524  0.000  0.000  0.000  0.000  0.000  0.000  0.524
 
band    17 # energy   -2.24851128 # occ.  0.94739981
 
ion      s     py     pz     px    dxy    dyz    dz2    dxz  x2-y2    tot
    1  0.000  0.000  0.066  0.000  0.000  0.000  0.000  0.000  0.000  0.066
    2  0.000  0.000  0.066  0.000  0.000  0.000  0.000  0.000  0.000  0.066
    3  0.000  0.000  0.066  0.000  0.000  0.000  0.000  0.000  0.000  0.066
    4  0.000  0.000  0.066  0.000  0.000  0.000  0.000  0.000  0.000  0.066
    5  0.000  0.000  0.066  0.000  0.000  0.000  0.000  0.000  0.000  0.066
    6  0.000  0.000  0.066  0.000  0.000  0.000  0.000  0.000  0.000  0.066
    7  0.000  0.000  0.066  0.000  0.000  0.000  0.000  0.000  0.000  0.066
    8  0.000  0.000  0.066  0.000  0.000  0.000  0.000  0.000  0.000  0.066
tot    0.000  0.000  0.524  0.000  0.000  0.000  0.000  0.000  0.000  0.524
 
band    18 # energy    3.67176523 # occ.  0.00000000
 
ion      s     py     pz     px    dxy    dyz    dz2    dxz  x2-y2    tot
    1  0.002  0.001  0.000  0.000  0.000  0.000  0.000  0.000  0.000  0.003
    2  0.002  0.001  0.000  0.000  0.000  0.000  0.000  0.000  0.000  0.003
    3  0.002  0.001  0.000  0.000  0.000  0.000  0.000  0.000  0.000  0.003
    4  0.002  0.001  0.000  0.000  0.000  0.000  0.000  0.000  0.000  0.003
    5  0.002  0.001  0.000  0.000  0.000  0.000  0.000  0.000  0.000  0.003
    6  0.002  0.001  0.000  0.000  0.000  0.000  0.000  0.000  0.000  0.003
    7  0.002  0.001  0.000  0.000  0.000  0.000  0.000  0.000  0.000  0.003
    8  0.002  0.001  0.000  0.000  0.000  0.000  0.000  0.000  0.000  0.003
tot    0.014  0.008  0.000  0.001  0.000  0.000  0.000  0.000  0.000  0.022
 
band    19 # energy    3.67975052 # occ.  0.00000000
 
ion      s     py     pz     px    dxy    dyz    dz2    dxz  x2-y2    tot
    1  0.002  0.000  0.000  0.001  0.000  0.000  0.000  0.000  0.000  0.002
    2  0.003  0.000  0.000  0.000  0.000  0.000  0.000  0.000  0.000  0.004
    3  0.002  0.001  0.000  0.001  0.000  0.000  0.000  0.000  0.000  0.003
    4  0.000  0.000  0.000  0.001  0.000  0.000  0.000  0.000  0.000  0.002
    5  0.002  0.001  0.000  0.001  0.000  0.000  0.000  0.000  0.000  0.003
    6  0.000  0.000  0.000  0.001  0.000  0.000  0.000  0.000  0.000  0.002
    7  0.002  0.000  0.000  0.001  0.000  0.000  0.000  0.000  0.000  0.002
    8  0.003  0.000  0.000  0.000  0.000  0.000  0.000  0.000  0.000  0.004
tot    0.014  0.002  0.000  0.006  0.000  0.000  0.000  0.000  0.000  0.022
 
band    20 # energy    3.67975094 # occ.  0.00000000
 
ion      s     py     pz     px    dxy    dyz    dz2    dxz  x2-y2    tot
    1  0.002  0.001  0.000  0.001  0.000  0.000  0.000  0.000  0.000  0.003
    2  0.000  0.000  0.000  0.001  0.000  0.000  0.000  0.000  0.000  0.002
    3  0.002  0.000  0.000  0.001  0.000  0.000  0.000  0.000  0.000  0.002
    4  0.003  0.000  0.000  0.000  0.000  0.000  0.000  0.000  0.000  0.004
    5  0.002  0.000  0.000  0.001  0.000  0.000  0.000  0.000  0.000  0.002
    6  0.003  0.000  0.000  0.000  0.000  0.000  0.000  0.000  0.000  0.004
    7  0.002  0.001  0.000  0.001  0.000  0.000  0.000  0.000  0.000  0.003
    8  0.000  0.000  0.000  0.001  0.000  0.000  0.000  0.000  0.000  0.002
tot    0.014  0.002  0.000  0.006  0.000  0.000  0.000  0.000  0.000  0.022
 
band    21 # energy    4.11180956 # occ.  0.00000000
 
ion      s     py     pz     px    dxy    dyz    dz2    dxz  x2-y2    tot
    1  0.000  0.000  0.092  0.000  0.000  0.000  0.000  0.000  0.000  0.092
    2  0.000  0.000  0.055  0.000  0.000  0.000  0.000  0.000  0.000  0.055
    3  0.000  0.000  0.061  0.000  0.000  0.000  0.000  0.000  0.000  0.061
    4  0.000  0.000  0.098  0.000  0.000  0.000  0.000  0.000  0.000  0.098
    5  0.000  0.000  0.057  0.000  0.000  0.000  0.000  0.000  0.000  0.057
    6  0.000  0.000  0.091  0.000  0.000  0.000  0.000  0.000  0.000  0.091
    7  0.000  0.000  0.095  0.000  0.000  0.000  0.000  0.000  0.000  0.095
    8  0.000  0.000  0.060  0.000  0.000  0.000  0.000  0.000  0.000  0.060
tot    0.000  0.000  0.609  0.000  0.000  0.000  0.000  0.000  0.000  0.609
 
band    22 # energy    4.11379150 # occ.  0.00000000
 
ion      s     py     pz     px    dxy    dyz    dz2    dxz  x2-y2    tot
    1  0.000  0.000  0.050  0.000  0.000  0.000  0.000  0.000  0.000  0.050
    2  0.000  0.000  0.071  0.000  0.000  0.000  0.000  0.000  0.000  0.071
    3  0.000  0.000  0.085  0.000  0.000  0.000  0.000  0.000  0.000  0.085
    4  0.000  0.000  0.041  0.000  0.000  0.000  0.000  0.000  0.000  0.041
    5  0.000  0.000  0.101  0.000  0.000  0.000  0.000  0.000  0.000  0.101
    6  0.000  0.000  0.077  0.000  0.000  0.000  0.000  0.000  0.000  0.077
    7  0.000  0.000  0.068  0.000  0.000  0.000  0.000  0.000  0.000  0.068
    8  0.000  0.000  0.117  0.000  0.000  0.000  0.000  0.000  0.000  0.117
tot    0.000  0.000  0.609  0.000  0.000  0.000  0.000  0.000  0.000  0.609
 
band    23 # energy    4.12359282 # occ.  0.00000000
 
ion      s     py     pz     px    dxy    dyz    dz2    dxz  x2-y2    tot
    1  0.000  0.000  0.087  0.000  0.000  0.000  0.000  0.000  0.000  0.087
    2  0.000  0.000  0.102  0.000  0.000  0.000  0.000  0.000  0.000  0.102
    3  0.000  0.000  0.082  0.000  0.000  0.000  0.000  0.000  0.000  0.082
    4  0.000  0.000  0.090  0.000  0.000  0.000  0.000  0.000  0.000  0.090
    5  0.000  0.000  0.071  0.000  0.000  0.000  0.000  0.000  0.000  0.071
    6  0.000  0.000  0.060  0.000  0.000  0.000  0.000  0.000  0.000  0.060
    7  0.000  0.000  0.065  0.000  0.000  0.000  0.000  0.000  0.000  0.065
    8  0.000  0.000  0.051  0.000  0.000  0.000  0.000  0.000  0.000  0.051
tot    0.000  0.000  0.609  0.000  0.000  0.000  0.000  0.000  0.000  0.609
 
band    24 # energy    4.57866623 # occ.  0.00000000
 
ion      s     py     pz     px    dxy    dyz    dz2    dxz  x2-y2    tot
    1  0.000  0.000  0.002  0.000  0.000  0.000  0.000  0.000  0.000  0.002
    2  0.000  0.000  0.001  0.000  0.000  0.000  0.000  0.000  0.000  0.001
    3  0.000  0.000  0.007  0.000  0.000  0.000  0.000  0.000  0.000  0.007
    4  0.000  0.000  0.006  0.000  0.000  0.000  0.000  0.000  0.000  0.006
    5  0.000  0.000  0.001  0.000  0.000  0.000  0.000  0.000  0.000  0.001
    6  0.000  0.000  0.002  0.000  0.000  0.000  0.000  0.000  0.000  0.002
    7  0.000  0.000  0.006  0.000  0.000  0.000  0.000  0.000  0.000  0.006
    8  0.000  0.000  0.007  0.000  0.000  0.000  0.000  0.000  0.000  0.007
tot    0.000  0.000  0.032  0.000  0.000  0.000  0.000  0.000  0.000  0.032
 

 k-point     2 :    0.32771429 0.32771429 0.00000000     weight = 0.00520833

band     1 # energy  -19.87538262 # occ.  2.00000000
 
ion      s     py     pz     px    dxy    dyz    dz2    dxz  x2-y2    tot
    1  0.073  0.010  0.000  0.000  0.000  0.000  0.000  0.000  0.000  0.083
    2  0.073  0.010  0.000  0.000  0.000  0.000  0.000  0.000  0.000  0.083
    3  0.073  0.010  0.000  0.000  0.000  0.000  0.000  0.000  0.000  0.083
    4  0.073  0.010  0.000  0.000  0.000  0.000  0.000  0.000  0.000  0.083
    5  0.073  0.010  0.000  0.000  0.000  0.000  0.000  0.000  0.000  0.083
    6  0.073  0.010  0.000  0.000  0.000  0.000  0.000  0.000  0.000  0.083
    7  0.073  0.010  0.000  0.000  0.000  0.000  0.000  0.000  0.000  0.083
    8  0.073  0.010  0.000  0.000  0.000  0.000  0.000  0.000  0.000  0.083
tot    0.586  0.078  0.000  0.000  0.000  0.000  0.000  0.000  0.000  0.664
 
band     2 # energy  -19.77831823 # occ.  2.00000000
 
ion      s     py     pz     px    dxy    dyz    dz2    dxz  x2-y2    tot
    1  0.065  0.002  0.000  0.008  0.000  0.000  0.000  0.000  0.000  0.076
    2  0.103  0.004  0.000  0.004  0.000  0.000  0.000  0.000  0.000  0.111
    3  0.080  0.003  0.000  0.007  0.000  0.000  0.000  0.000  0.000  0.090
    4  0.043  0.002  0.000  0.011  0.000  0.000  0.000  0.000  0.000  0.055
    5  0.080  0.003  0.000  0.007  0.000  0.000  0.000  0.000  0.000  0.090
    6  0.043  0.002  0.000  0.011  0.000  0.000  0.000  0.000  0.000  0.055
    7  0.065  0.002  0.000  0.008  0.000  0.000  0.000  0.000  0.000  0.076
    8  0.103  0.004  0.000  0.004  0.000  0.000  0.000  0.000  0.000  0.111
tot    0.583  0.022  0.000  0.060  0.000  0.000  0.000  0.000  0.000  0.665
 
band     3 # energy  -19.77831823 # occ.  2.00000000
 
ion      s     py     pz     px    dxy    dyz    dz2    dxz  x2-y2    tot
    1  0.080  0.003  0.000  0.007  0.000  0.000  0.000  0.000  0.000  0.090
    2  0.043  0.002  0.000  0.011  0.000  0.000  0.000  0.000  0.000  0.055
    3  0.065  0.002  0.000  0.008  0.000  0.000  0.000  0.000  0.000  0.076
    4  0.103  0.004  0.000  0.004  0.000  0.000  0.000  0.000  0.000  0.111
    5  0.065  0.002  0.000  0.008  0.000  0.000  0.000  0.000  0.000  0.076
    6  0.103  0.004  0.000  0.004  0.000  0.000  0.000  0.000  0.000  0.111
    7  0.080  0.003  0.000  0.007  0.000  0.000  0.000  0.000  0.000  0.090
    8  0.043  0.002  0.000  0.011  0.000  0.000  0.000  0.000  0.000  0.055
tot    0.583  0.022  0.000  0.060  0.000  0.000  0.000  0.000  0.000  0.665
 
band     4 # energy  -14.89571222 # occ.  2.00000000
 
ion      s     py     pz     px    dxy    dyz    dz2    dxz  x2-y2    tot
    1  0.063  0.015  0.000  0.015  0.000  0.000  0.000  0.000  0.000  0.093
    2  0.063  0.015  0.000  0.015  0.000  0.000  0.000  0.000  0.000  0.093
    3  0.063  0.015  0.000  0.015  0.000  0.000  0.000  0.000  0.000  0.093
    4  0.063  0.015  0.000  0.015  0.000  0.000  0.000  0.000  0.000  0.093
    5  0.063  0.015  0.000  0.015  0.000  0.000  0.000  0.000  0.000  0.093
    6  0.063  0.015  0.000  0.015  0.000  0.000  0.000  0.000  0.000  0.093
    7  0.063  0.015  0.000  0.015  0.000  0.000  0.000  0.000  0.000  0.093
    8  0.063  0.015  0.000  0.015  0.000  0.000  0.000  0.000  0.000  0.093
tot    0.502  0.117  0.000  0.121  0.000  0.000  0.000  0.000  0.000  0.740
 
band     5 # energy  -14.78662791 # occ.  2.00000000
 
ion      s     py     pz     px    dxy    dyz    dz2    dxz  x2-y2    tot
    1  0.062  0.014  0.000  0.017  0.000  0.000  0.000  0.000  0.000  0.093
    2  0.062  0.014  0.000  0.017  0.000  0.000  0.000  0.000  0.000  0.093
    3  0.062  0.014  0.000  0.017  0.000  0.000  0.000  0.000  0.000  0.093
    4  0.062  0.014  0.000  0.017  0.000  0.000  0.000  0.000  0.000  0.093
    5  0.062  0.014  0.000  0.017  0.000  0.000  0.000  0.000  0.000  0.093
    6  0.062  0.014  0.000  0.017  0.000  0.000  0.000  0.000  0.000  0.093
    7  0.062  0.014  0.000  0.017  0.000  0.000  0.000  0.000  0.000  0.093
    8  0.062  0.014  0.000  0.017  0.000  0.000  0.000  0.000  0.000  0.093
tot    0.495  0.109  0.000  0.138  0.000  0.000  0.000  0.000  0.000  0.741
 
band     6 # energy  -12.78577201 # occ.  2.00000000
 
ion      s     py     pz     px    dxy    dyz    dz2    dxz  x2-y2    tot
    1  0.000  0.042  0.000  0.038  0.000  0.000  0.000  0.000  0.000  0.080
    2  0.000  0.042  0.000  0.038  0.000  0.000  0.000  0.000  0.000  0.080
    3  0.000  0.042  0.000  0.038  0.000  0.000  0.000  0.000  0.000  0.080
    4  0.000  0.042  0.000  0.038  0.000  0.000  0.000  0.000  0.000  0.080
    5  0.000  0.042  0.000  0.038  0.000  0.000  0.000  0.000  0.000  0.080
    6  0.000  0.042  0.000  0.038  0.000  0.000  0.000  0.000  0.000  0.080
    7  0.000  0.042  0.000  0.038  0.000  0.000  0.000  0.000  0.000  0.080
    8  0.000  0.042  0.000  0.038  0.000  0.000  0.000  0.000  0.000  0.080
tot    0.001  0.338  0.000  0.303  0.000  0.000  0.000  0.000  0.000  0.642
 
band     7 # energy  -10.06385152 # occ.  2.00000000
 
ion      s     py     pz     px    dxy    dyz    dz2    dxz  x2-y2    tot
    1  0.054  0.020  0.000  0.005  0.000  0.000  0.000  0.000  0.000  0.078
    2  0.029  0.004  0.000  0.025  0.000  0.000  0.000  0.000  0.000  0.058
    3  0.008  0.030  0.000  0.077  0.000  0.000  0.000  0.000  0.000  0.115
    4  0.032  0.046  0.000  0.057  0.000  0.000  0.000  0.000  0.000  0.135
    5  0.008  0.030  0.000  0.077  0.000  0.000  0.000  0.000  0.000  0.115
    6  0.032  0.046  0.000  0.057  0.000  0.000  0.000  0.000  0.000  0.135
    7  0.054  0.020  0.000  0.005  0.000  0.000  0.000  0.000  0.000  0.078
    8  0.029  0.004  0.000  0.025  0.000  0.000  0.000  0.000  0.000  0.058
tot    0.245  0.199  0.000  0.329  0.000  0.000  0.000  0.000  0.000  0.773
 
band     8 # energy  -10.06385152 # occ.  2.00000000
 
ion      s     py     pz     px    dxy    dyz    dz2    dxz  x2-y2    tot
    1  0.008  0.030  0.000  0.077  0.000  0.000  0.000  0.000  0.000  0.115
    2  0.032  0.046  0.000  0.057  0.000  0.000  0.000  0.000  0.000  0.135
    3  0.054  0.020  0.000  0.005  0.000  0.000  0.000  0.000  0.000  0.078
    4  0.029  0.004  0.000  0.025  0.000  0.000  0.000  0.000  0.000  0.058
    5  0.054  0.020  0.000  0.005  0.000  0.000  0.000  0.000  0.000  0.078
    6  0.029  0.004  0.000  0.025  0.000  0.000  0.000  0.000  0.000  0.058
    7  0.008  0.030  0.000  0.077  0.000  0.000  0.000  0.000  0.000  0.115
    8  0.032  0.046  0.000  0.057  0.000  0.000  0.000  0.000  0.000  0.135
tot    0.245  0.199  0.000  0.329  0.000  0.000  0.000  0.000  0.000  0.773
 
band     9 # energy   -9.90795814 # occ.  2.00000000
 
ion      s     py     pz     px    dxy    dyz    dz2    dxz  x2-y2    tot
    1  0.030  0.056  0.000  0.011  0.000  0.000  0.000  0.000  0.000  0.097
    2  0.030  0.056  0.000  0.011  0.000  0.000  0.000  0.000  0.000  0.097
    3  0.030  0.056  0.000  0.011  0.000  0.000  0.000  0.000  0.000  0.097
    4  0.030  0.056  0.000  0.011  0.000  0.000  0.000  0.000  0.000  0.097
    5  0.030  0.056  0.000  0.011  0.000  0.000  0.000  0.000  0.000  0.097
    6  0.030  0.056  0.000  0.011  0.000  0.000  0.000  0.000  0.000  0.097
    7  0.030  0.056  0.000  0.011  0.000  0.000  0.000  0.000  0.000  0.097
    8  0.030  0.056  0.000  0.011  0.000  0.000  0.000  0.000  0.000  0.097
tot    0.237  0.446  0.000  0.090  0.000  0.000  0.000  0.000  0.000  0.774
 
band    10 # energy   -8.69743339 # occ.  2.00000000
 
ion      s     py     pz     px    dxy    dyz    dz2    dxz  x2-y2    tot
    1  0.005  0.031  0.000  0.052  0.000  0.000  0.000  0.000  0.000  0.089
    2  0.003  0.078  0.000  0.059  0.000  0.000  0.000  0.000  0.000  0.141
    3  0.001  0.082  0.000  0.014  0.000  0.000  0.000  0.000  0.000  0.097
    4  0.004  0.034  0.000  0.007  0.000  0.000  0.000  0.000  0.000  0.045
    5  0.001  0.082  0.000  0.014  0.000  0.000  0.000  0.000  0.000  0.097
    6  0.004  0.034  0.000  0.007  0.000  0.000  0.000  0.000  0.000  0.045
    7  0.005  0.031  0.000  0.052  0.000  0.000  0.000  0.000  0.000  0.089
    8  0.003  0.078  0.000  0.059  0.000  0.000  0.000  0.000  0.000  0.141
tot    0.026  0.450  0.000  0.266  0.000  0.000  0.000  0.000  0.000  0.742
 
band    11 # energy   -8.69743339 # occ.  2.00000000
 
ion      s     py     pz     px    dxy    dyz    dz2    dxz  x2-y2    tot
    1  0.001  0.082  0.000  0.014  0.000  0.000  0.000  0.000  0.000  0.097
    2  0.004  0.034  0.000  0.007  0.000  0.000  0.000  0.000  0.000  0.045
    3  0.005  0.031  0.000  0.052  0.000  0.000  0.000  0.000  0.000  0.089
    4  0.003  0.078  0.000  0.059  0.000  0.000  0.000  0.000  0.000  0.141
    5  0.005  0.031  0.000  0.052  0.000  0.000  0.000  0.000  0.000  0.089
    6  0.003  0.078  0.000  0.059  0.000  0.000  0.000  0.000  0.000  0.141
    7  0.001  0.082  0.000  0.014  0.000  0.000  0.000  0.000  0.000  0.097
    8  0.004  0.034  0.000  0.007  0.000  0.000  0.000  0.000  0.000  0.045
tot    0.026  0.450  0.000  0.266  0.000  0.000  0.000  0.000  0.000  0.742
 
band    12 # energy   -8.56741123 # occ.  2.00000000
 
ion      s     py     pz     px    dxy    dyz    dz2    dxz  x2-y2    tot
    1  0.003  0.015  0.000  0.075  0.000  0.000  0.000  0.000  0.000  0.093
    2  0.003  0.015  0.000  0.075  0.000  0.000  0.000  0.000  0.000  0.093
    3  0.003  0.015  0.000  0.075  0.000  0.000  0.000  0.000  0.000  0.093
    4  0.003  0.015  0.000  0.075  0.000  0.000  0.000  0.000  0.000  0.093
    5  0.003  0.015  0.000  0.075  0.000  0.000  0.000  0.000  0.000  0.093
    6  0.003  0.015  0.000  0.075  0.000  0.000  0.000  0.000  0.000  0.093
    7  0.003  0.015  0.000  0.075  0.000  0.000  0.000  0.000  0.000  0.093
    8  0.003  0.015  0.000  0.075  0.000  0.000  0.000  0.000  0.000  0.093
tot    0.025  0.122  0.000  0.599  0.000  0.000  0.000  0.000  0.000  0.745
 
band    13 # energy   -7.64991739 # occ.  2.00000000
 
ion      s     py     pz     px    dxy    dyz    dz2    dxz  x2-y2    tot
    1  0.000  0.000  0.056  0.000  0.000  0.000  0.000  0.000  0.000  0.056
    2  0.000  0.000  0.056  0.000  0.000  0.000  0.000  0.000  0.000  0.056
    3  0.000  0.000  0.056  0.000  0.000  0.000  0.000  0.000  0.000  0.056