   8   8   0   4
  0.4338553E+02  0.5169000E-09  0.5169000E-09  0.1500000E-08  0.5000000E-15
  1.000000000000000E-004
  CAR 
 SC                                      
     12.57612071    -21.43060498  301     -3.47719411      1.00000000
    -21.431  0.0000E+00  0.0000E+00
    -21.317  0.0000E+00  0.0000E+00
    -21.204  0.0000E+00  0.0000E+00
    -21.091  0.0000E+00  0.0000E+00
    -20.977  0.0000E+00  0.0000E+00
    -20.864  0.0000E+00  0.0000E+00
    -20.750  0.0000E+00  0.0000E+00
    -20.637  0.0000E+00  0.0000E+00
    -20.524  0.0000E+00  0.0000E+00
    -20.410  0.7980E-14  0.9046E-15
    -20.297  0.5220E-09  0.5918E-10
    -20.184  0.2957E-05  0.3353E-06
    -20.070  0.1573E-02  0.1786E-03
    -19.957  0.9189E-01  0.1060E-01
    -19.844  0.7996E+00  0.1012E+00
    -19.730  0.1760E+01  0.3007E+00
    -19.617  0.2124E+01  0.5415E+00
    -19.504  0.2459E+01  0.8203E+00
    -19.390  0.3276E+01  0.1192E+01
    -19.277  0.4301E+01  0.1679E+01
    -19.163  0.2479E+01  0.1960E+01
    -19.050  0.3426E+00  0.1999E+01
    -18.937  0.7785E-02  0.2000E+01
    -18.823  0.2120E-04  0.2000E+01
    -18.710  0.5667E-08  0.2000E+01
    -18.597  0.1341E-12  0.2000E+01
    -18.483  0.0000E+00  0.2000E+01
    -18.370  0.0000E+00  0.2000E+01
    -18.257  0.0000E+00  0.2000E+01
    -18.143  0.9313E-14  0.2000E+01
    -18.030  0.6357E-09  0.2000E+01
    -17.917  0.3756E-05  0.2000E+01
    -17.803  0.2081E-02  0.2000E+01
    -17.690  0.1266E+00  0.2015E+01
    -17.577  0.1150E+01  0.2145E+01
    -17.463  0.2700E+01  0.2451E+01
    -17.350  0.3201E+01  0.2814E+01
    -17.236  0.2389E+01  0.3085E+01
    -17.123  0.1862E+01  0.3296E+01
    -17.010  0.1878E+01  0.3509E+01
    -16.896  0.1975E+01  0.3733E+01
    -16.783  0.2114E+01  0.3972E+01
    -16.670  0.2333E+01  0.4237E+01
    -16.556  0.2772E+01  0.4551E+01
    -16.443  0.3482E+01  0.4946E+01
    -16.330  0.3248E+01  0.5314E+01
    -16.216  0.2402E+01  0.5586E+01
    -16.103  0.1897E+01  0.5801E+01
    -15.990  0.1320E+01  0.5951E+01
    -15.876  0.4076E+00  0.5997E+01
    -15.763  0.2682E-01  0.6000E+01
    -15.649  0.2366E-03  0.6000E+01
    -15.536  0.2169E-06  0.6000E+01
    -15.423  0.1825E-10  0.6000E+01
    -15.309  0.1182E-15  0.6000E+01
    -15.196  0.0000E+00  0.6000E+01
    -15.083  0.0000E+00  0.6000E+01
    -14.969  0.0000E+00  0.6000E+01
    -14.856  0.0000E+00  0.6000E+01
    -14.743  0.3386E-15  0.6000E+01
    -14.629  0.3876E-10  0.6000E+01
    -14.516  0.4022E-06  0.6000E+01
    -14.403  0.3902E-03  0.6000E+01
    -14.289  0.4017E-01  0.6005E+01
    -14.176  0.5587E+00  0.6068E+01
    -14.062  0.1671E+01  0.6257E+01
    -13.949  0.2225E+01  0.6510E+01
    -13.836  0.2651E+01  0.6810E+01
    -13.722  0.3418E+01  0.7197E+01
    -13.609  0.3081E+01  0.7547E+01
    -13.496  0.2006E+01  0.7774E+01
    -13.382  0.1561E+01  0.7951E+01
    -13.269  0.1450E+01  0.8116E+01
    -13.156  0.1381E+01  0.8272E+01
    -13.042  0.1314E+01  0.8421E+01
    -12.929  0.1274E+01  0.8565E+01
    -12.816  0.1294E+01  0.8712E+01
    -12.702  0.1677E+01  0.8902E+01
    -12.589  0.1958E+01  0.9124E+01
    -12.476  0.1946E+01  0.9345E+01
    -12.362  0.1757E+01  0.9544E+01
    -12.249  0.1619E+01  0.9727E+01
    -12.135  0.1512E+01  0.9899E+01
    -12.022  0.1420E+01  0.1006E+02
    -11.909  0.1242E+01  0.1020E+02
    -11.795  0.8874E+00  0.1030E+02
    -11.682  0.4467E+00  0.1035E+02
    -11.569  0.5061E+00  0.1041E+02
    -11.455  0.4173E+00  0.1046E+02
    -11.342  0.5136E+00  0.1051E+02
    -11.229  0.6184E+00  0.1058E+02
    -11.115  0.7024E+00  0.1066E+02
    -11.002  0.9914E+00  0.1078E+02
    -10.889  0.9021E+00  0.1088E+02
    -10.775  0.1467E+01  0.1105E+02
    -10.662  0.1587E+01  0.1123E+02
    -10.548  0.1603E+01  0.1141E+02
    -10.435  0.2020E+01  0.1164E+02
    -10.322  0.1992E+01  0.1186E+02
    -10.208  0.2394E+01  0.1213E+02
    -10.095  0.1730E+01  0.1233E+02
     -9.982  0.1304E+01  0.1248E+02
     -9.868  0.1782E+01  0.1268E+02
     -9.755  0.2710E+01  0.1299E+02
     -9.642  0.2579E+01  0.1328E+02
     -9.528  0.2048E+01  0.1351E+02
     -9.415  0.2096E+01  0.1375E+02
     -9.302  0.1720E+01  0.1394E+02
     -9.188  0.2006E+01  0.1417E+02
     -9.075  0.2149E+01  0.1441E+02
     -8.961  0.2346E+01  0.1468E+02
     -8.848  0.2713E+01  0.1499E+02
     -8.735  0.2402E+01  0.1526E+02
     -8.621  0.2794E+01  0.1558E+02
     -8.508  0.2990E+01  0.1592E+02
     -8.395  0.2590E+01  0.1621E+02
     -8.281  0.2165E+01  0.1645E+02
     -8.168  0.1973E+01  0.1668E+02
     -8.055  0.2316E+01  0.1694E+02
     -7.941  0.3078E+01  0.1729E+02
     -7.828  0.3940E+01  0.1774E+02
     -7.715  0.4418E+01  0.1824E+02
     -7.601  0.4318E+01  0.1873E+02
     -7.488  0.3561E+01  0.1913E+02
     -7.374  0.2160E+01  0.1938E+02
     -7.261  0.1763E+01  0.1958E+02
     -7.148  0.2157E+01  0.1982E+02
     -7.034  0.1848E+01  0.2003E+02
     -6.921  0.1615E+01  0.2021E+02
     -6.808  0.1639E+01  0.2040E+02
     -6.694  0.1848E+01  0.2061E+02
     -6.581  0.2829E+01  0.2093E+02
     -6.468  0.4670E+01  0.2146E+02
     -6.354  0.7534E+01  0.2231E+02
     -6.241  0.7211E+01  0.2313E+02
     -6.128  0.4740E+01  0.2367E+02
     -6.014  0.3089E+01  0.2402E+02
     -5.901  0.2369E+01  0.2429E+02
     -5.788  0.2336E+01  0.2455E+02
     -5.674  0.2463E+01  0.2483E+02
     -5.561  0.2487E+01  0.2511E+02
     -5.447  0.2710E+01  0.2542E+02
     -5.334  0.2784E+01  0.2573E+02
     -5.221  0.3092E+01  0.2608E+02
     -5.107  0.3413E+01  0.2647E+02
     -4.994  0.4009E+01  0.2693E+02
     -4.881  0.4312E+01  0.2741E+02
     -4.767  0.4603E+01  0.2794E+02
     -4.654  0.4709E+01  0.2847E+02
     -4.541  0.3957E+01  0.2892E+02
     -4.427  0.2704E+01  0.2922E+02
     -4.314  0.1497E+01  0.2939E+02
     -4.201  0.1247E+01  0.2954E+02
     -4.087  0.1192E+01  0.2967E+02
     -3.974  0.1141E+01  0.2980E+02
     -3.860  0.1047E+01  0.2992E+02
     -3.747  0.6072E+00  0.2999E+02
     -3.634  0.1040E+00  0.3000E+02
     -3.520  0.2924E-02  0.3000E+02
     -3.407  0.5563E-04  0.3000E+02
     -3.294  0.8623E-02  0.3000E+02
     -3.180  0.2102E+00  0.3002E+02
     -3.067  0.9347E+00  0.3013E+02
     -2.954  0.1478E+01  0.3030E+02
     -2.840  0.1690E+01  0.3049E+02
     -2.727  0.2156E+01  0.3073E+02
     -2.614  0.2587E+01  0.3103E+02
     -2.500  0.2441E+01  0.3130E+02
     -2.387  0.1572E+01  0.3148E+02
     -2.273  0.1300E+01  0.3163E+02
     -2.160  0.9295E+00  0.3174E+02
     -2.047  0.8297E+00  0.3183E+02
     -1.933  0.5410E+00  0.3189E+02
     -1.820  0.3862E+00  0.3193E+02
     -1.707  0.2430E+00  0.3196E+02
     -1.593  0.1885E+00  0.3198E+02
     -1.480  0.9907E-01  0.3199E+02
     -1.367  0.5144E-01  0.3200E+02
     -1.253  0.5019E-01  0.3201E+02
     -1.140  0.1122E+00  0.3202E+02
     -1.027  0.1909E+00  0.3204E+02
     -0.913  0.2609E+00  0.3207E+02
     -0.800  0.3715E+00  0.3211E+02
     -0.687  0.4177E+00  0.3216E+02
     -0.573  0.6174E+00  0.3223E+02
     -0.460  0.6248E+00  0.3230E+02
     -0.346  0.1001E+01  0.3241E+02
     -0.233  0.1364E+01  0.3257E+02
     -0.120  0.2861E+01  0.3289E+02
     -0.006  0.2788E+01  0.3321E+02
      0.107  0.2069E+01  0.3344E+02
      0.220  0.1625E+01  0.3363E+02
      0.334  0.1355E+01  0.3378E+02
      0.447  0.1449E+01  0.3395E+02
      0.560  0.1464E+01  0.3411E+02
      0.674  0.1436E+01  0.3427E+02
      0.787  0.1171E+01  0.3441E+02
      0.900  0.1331E+01  0.3456E+02
      1.014  0.1784E+01  0.3476E+02
      1.127  0.1904E+01  0.3498E+02
      1.241  0.1944E+01  0.3520E+02
      1.354  0.2030E+01  0.3543E+02
      1.467  0.2210E+01  0.3568E+02
      1.581  0.2350E+01  0.3594E+02
      1.694  0.2416E+01  0.3622E+02
      1.807  0.2368E+01  0.3649E+02
      1.921  0.2724E+01  0.3679E+02
      2.034  0.2998E+01  0.3713E+02
      2.147  0.3000E+01  0.3747E+02
      2.261  0.3304E+01  0.3785E+02
      2.374  0.3696E+01  0.3827E+02
      2.487  0.3896E+01  0.3871E+02
      2.601  0.3895E+01  0.3915E+02
      2.714  0.3806E+01  0.3958E+02
      2.828  0.3859E+01  0.4002E+02
      2.941  0.3854E+01  0.4046E+02
      3.054  0.3753E+01  0.4088E+02
      3.168  0.3872E+01  0.4132E+02
      3.281  0.3729E+01  0.4174E+02
      3.394  0.3886E+01  0.4218E+02
      3.508  0.3691E+01  0.4260E+02
      3.621  0.3871E+01  0.4304E+02
      3.734  0.3755E+01  0.4347E+02
      3.848  0.3820E+01  0.4390E+02
      3.961  0.4061E+01  0.4436E+02
      4.074  0.3973E+01  0.4481E+02
      4.188  0.3170E+01  0.4517E+02
      4.301  0.3533E+01  0.4557E+02
      4.415  0.4262E+01  0.4605E+02
      4.528  0.5016E+01  0.4662E+02
      4.641  0.4801E+01  0.4717E+02
      4.755  0.4731E+01  0.4770E+02
      4.868  0.5324E+01  0.4831E+02
      4.981  0.5768E+01  0.4896E+02
      5.095  0.6057E+01  0.4965E+02
      5.208  0.6523E+01  0.5039E+02
      5.321  0.7107E+01  0.5119E+02
      5.435  0.7636E+01  0.5206E+02
      5.548  0.7998E+01  0.5296E+02
      5.661  0.7097E+01  0.5377E+02
      5.775  0.6058E+01  0.5445E+02
      5.888  0.7198E+01  0.5527E+02
      6.001  0.8175E+01  0.5620E+02
      6.115  0.7390E+01  0.5704E+02
      6.228  0.6684E+01  0.5779E+02
      6.342  0.7137E+01  0.5860E+02
      6.455  0.7865E+01  0.5949E+02
      6.568  0.6716E+01  0.6025E+02
      6.682  0.7229E+01  0.6107E+02
      6.795  0.8877E+01  0.6208E+02
      6.908  0.1035E+02  0.6325E+02
      7.022  0.9406E+01  0.6432E+02
      7.135  0.8574E+01  0.6529E+02
      7.248  0.8215E+01  0.6622E+02
      7.362  0.7667E+01  0.6709E+02
      7.475  0.8184E+01  0.6802E+02
      7.588  0.8627E+01  0.6900E+02
      7.702  0.8393E+01  0.6995E+02
      7.815  0.7888E+01  0.7084E+02
      7.929  0.9291E+01  0.7190E+02
      8.042  0.9048E+01  0.7292E+02
      8.155  0.9088E+01  0.7395E+02
      8.269  0.8876E+01  0.7496E+02
      8.382  0.7754E+01  0.7584E+02
      8.495  0.7995E+01  0.7674E+02
      8.609  0.7681E+01  0.7761E+02
      8.722  0.7746E+01  0.7849E+02
      8.835  0.7466E+01  0.7934E+02
      8.949  0.7705E+01  0.8021E+02
      9.062  0.7265E+01  0.8104E+02
      9.175  0.7413E+01  0.8188E+02
      9.289  0.8643E+01  0.8286E+02
      9.402  0.9688E+01  0.8395E+02
      9.516  0.9782E+01  0.8506E+02
      9.629  0.1105E+02  0.8632E+02
      9.742  0.1101E+02  0.8756E+02
      9.856  0.8976E+01  0.8858E+02
      9.969  0.8072E+01  0.8950E+02
     10.082  0.7585E+01  0.9036E+02
     10.196  0.7064E+01  0.9116E+02
     10.309  0.6275E+01  0.9187E+02
     10.422  0.6465E+01  0.9260E+02
     10.536  0.6569E+01  0.9335E+02
     10.649  0.7596E+01  0.9421E+02
     10.762  0.7141E+01  0.9502E+02
     10.876  0.5224E+01  0.9561E+02
     10.989  0.2548E+01  0.9590E+02
     11.102  0.8071E+00  0.9599E+02
     11.216  0.9788E-01  0.9600E+02
     11.329  0.2015E-02  0.9600E+02
     11.443  0.4531E-05  0.9600E+02
     11.556  0.9434E-09  0.9600E+02
     11.669  0.1689E-13  0.9600E+02
     11.783  0.0000E+00  0.9600E+02
     11.896  0.0000E+00  0.9600E+02
     12.009  0.0000E+00  0.9600E+02
     12.123  0.0000E+00  0.9600E+02
     12.236  0.0000E+00  0.9600E+02
     12.349  0.0000E+00  0.9600E+02
     12.463  0.0000E+00  0.9600E+02
     12.576  0.0000E+00  0.9600E+02
