Lattice                                 
           1
     4.201089    2.425500    0.000000
    -4.201089    2.425500    0.000000
     0.000000    0.000000   15.000000
   B    C 
     4    11
Direct configuration=     1
   0.00415361  0.00267210  0.12034134
   0.35695335  0.00285503  0.09748893
   0.00423858  0.35550699  0.09749256
   0.65142295  0.65006557  0.09747688
   0.32808646  0.32671938  0.10030508
   0.68027775  0.00278085  0.10027562
   0.00416530  0.67883808  0.10026559
   0.99999933  0.49999967  0.33373333
   0.16666633  0.33333267  0.33373333
   0.99999933  0.99999967  0.33373333
   0.16666633  0.83333267  0.33373333
   0.49999933  0.49999967  0.33373333
   0.66666633  0.33333267  0.33373333
   0.49999933  0.99999967  0.33373333
   0.66666633  0.83333267  0.33373333
Direct configuration=     2
   0.00418014  0.00275139  0.11919669
   0.35581263  0.00303486  0.09784102
   0.00395807  0.35414064  0.09784309
   0.65278258  0.65116363  0.09783246
   0.32461261  0.32289984  0.10029678
   0.68405867  0.00310750  0.10027539
   0.00388355  0.68233397  0.10026812
   0.00012685  0.49997461  0.33374257
   0.16687054  0.33394264  0.33380253
   0.99999927  0.99999372  0.33363348
   0.16706471  0.83312712  0.33380542
   0.50004055  0.50016477  0.33374545
   0.66666629  0.33333787  0.33368536
   0.49984938  0.99987119  0.33374210
   0.66605482  0.83292357  0.33380220
Direct configuration=     3
   0.00416608  0.00270938  0.11980316
   0.35641702  0.00293958  0.09765447
   0.00410669  0.35486458  0.09765737
   0.65206220  0.65058184  0.09764406
   0.32645317  0.32492356  0.10030118
   0.68205541  0.00293443  0.10027551
   0.00403283  0.68048173  0.10026678
   0.00005929  0.49998788  0.33373768
   0.16676234  0.33361946  0.33376587
   0.99999930  0.99999687  0.33368638
   0.16685364  0.83323603  0.33376723
   0.50001871  0.50007729  0.33373903
   0.66666631  0.33333511  0.33371078
   0.49992883  0.99993926  0.33373745
   0.66637882  0.83314032  0.33376571
Direct configuration=     4
   0.00417992  0.00276488  0.11886493
   0.35686136  0.00305766  0.09796597
   0.00390703  0.35516507  0.09796732
   0.65177625  0.65010753  0.09795890
   0.32656523  0.32481663  0.10026290
   0.68214164  0.00312888  0.10024502
   0.00385163  0.68038780  0.10023840
  -0.00007945  0.50001117  0.33375797
   0.16662127  0.33315086  0.33381049
   0.99999996  0.00000277  0.33363103
   0.16653867  0.83338450  0.33381399
   0.49998425  0.49990727  0.33376145
   0.66666941  0.33333224  0.33366701
   0.50008830  0.00007973  0.33375732
   0.66685517  0.83347033  0.33380998
Direct configuration=     5
   0.00419983  0.00284471  0.11751530
   0.35750053  0.00322752  0.09841406
   0.00361983  0.35559732  0.09841319
   0.65136491  0.64942525  0.09841180
   0.32672643  0.32466282  0.10020783
   0.68226569  0.00340860  0.10020115
   0.00359097  0.68025267  0.10019758
  -0.00027901  0.50004467  0.33378716
   0.16641834  0.33247680  0.33387467
   0.00000090  0.00001125  0.33355139
   0.16608561  0.83359807  0.33388126
   0.49993469  0.49966270  0.33379369
   0.66667387  0.33332811  0.33360405
   0.50031770  0.00028180  0.33378590
   0.66754040  0.83394503  0.33387366
Direct configuration=     6
   0.00420216  0.00285485  0.11726656
   0.35760981  0.00324718  0.09848632
   0.00358476  0.35568300  0.09848510
   0.65128388  0.64931013  0.09848480
   0.32679382  0.32469629  0.10020779
   0.68222850  0.00343648  0.10020299
   0.00356243  0.68018918  0.10019988
  -0.00024552  0.50004115  0.33379303
   0.16643636  0.33255731  0.33388294
   0.00000222  0.00001072  0.33354416
   0.16614535  0.83357892  0.33388992
   0.49994189  0.49970102  0.33379994
   0.66667335  0.33332894  0.33359572
   0.50028285  0.00024950  0.33379166
   0.66745878  0.83388267  0.33388186
Direct configuration=     7
   0.00420915  0.00288526  0.11652033
   0.35793767  0.00330615  0.09870310
   0.00347957  0.35594005  0.09870085
   0.65104080  0.64896476  0.09870379
   0.32699597  0.32479668  0.10020767
   0.68211695  0.00352011  0.10020853
   0.00347684  0.67999872  0.10020681
  -0.00014502  0.50003057  0.33381063
   0.16649044  0.33279884  0.33390776
   0.00000620  0.00000911  0.33352247
   0.16632460  0.83352148  0.33391592
   0.49996350  0.49981598  0.33381868
   0.66667176  0.33333144  0.33357073
   0.50017830  0.00015261  0.33380896
   0.66721394  0.83369560  0.33390644
Direct configuration=     8
   0.00422313  0.00294607  0.11502787
   0.35859337  0.00342408  0.09913666
   0.00326918  0.35645414  0.09913235
   0.65055464  0.64827403  0.09914177
   0.32740029  0.32499746  0.10020744
   0.68189385  0.00368738  0.10021960
   0.00330564  0.67961779  0.10022066
   0.00005596  0.50000941  0.33384584
   0.16659859  0.33328189  0.33395740
   0.00001416  0.00000590  0.33347908
   0.16668309  0.83340659  0.33396792
   0.50000671  0.50004588  0.33385617
   0.66666860  0.33333644  0.33352075
   0.49996921 -0.00004118  0.33384356
   0.66672424  0.83332144  0.33395561
Direct configuration=     9
   0.00425108  0.00306771  0.11204295
   0.35990479  0.00365996  0.10000378
   0.00284841  0.35748232  0.09999535
   0.64958231  0.64689257  0.10001772
   0.32820892  0.32539902  0.10020697
   0.68144764  0.00402190  0.10024174
   0.00296325  0.67885592  0.10024836
   0.00045792  0.49996709  0.33391625
   0.16681490  0.33424801  0.33405667
   0.00003008 -0.00000051  0.33339229
   0.16740006  0.83317680  0.33407192
   0.50009314  0.50050570  0.33393116
   0.66666228  0.33334645  0.33342079
   0.49955103 -0.00042874  0.33391276
   0.66574486  0.83257314  0.33405395
Direct configuration=    10
   0.00423345  0.00299100  0.11392546
   0.35907772  0.00351120  0.09945691
   0.00311378  0.35683387  0.09945108
   0.65019553  0.64776382  0.09946528
   0.32769894  0.32514576  0.10020726
   0.68172905  0.00381093  0.10022778
   0.00317918  0.67933641  0.10023089
   0.00020441  0.49999378  0.33387185
   0.16667848  0.33363871  0.33399406
   0.00002004  0.00000353  0.33344703
   0.16694789  0.83332172  0.33400633
   0.50003863  0.50021571  0.33388387
   0.66666627  0.33334014  0.33348383
   0.49981477 -0.00018431  0.33386912
   0.66636253  0.83304507  0.33399193
Direct configuration=    11
   0.00423087  0.00298281  0.11337226
   0.35907528  0.00348143  0.09954311
   0.00315320  0.35687024  0.09953715
   0.65016625  0.64776592  0.09955185
   0.32772468  0.32524819  0.10028170
   0.68162943  0.00372828  0.10030461
   0.00324143  0.67931200  0.10030808
   0.00013513  0.50000491  0.33388332
   0.16673056  0.33363809  0.33399051
   0.00001240  0.00000291  0.33347967
   0.16691049  0.83327966  0.33400243
   0.50002023  0.50013933  0.33389489
   0.66667321  0.33334109  0.33349425
   0.49988405 -0.00012128  0.33388047
   0.66637346  0.83309376  0.33398835
Direct configuration=    12
   0.00422314  0.00295825  0.11171267
   0.35906796  0.00339210  0.09980172
   0.00327145  0.35697933  0.09979535
   0.65007840  0.64777222  0.09981156
   0.32780192  0.32555548  0.10050501
   0.68133057  0.00348034  0.10053511
   0.00342817  0.67923876  0.10053965
  -0.00007274  0.50003830  0.33391776
   0.16688681  0.33363623  0.33397984
  -0.00001050  0.00000104  0.33357762
   0.16679829  0.83315348  0.33399073
   0.49996502  0.49991021  0.33392796
   0.66669404  0.33334394  0.33352551
   0.50009189  0.00006781  0.33391454
   0.66640625  0.83323983  0.33397762
Direct configuration=    13
   0.00420767  0.00290913  0.10839349
   0.35905332  0.00321346  0.10031894
   0.00350797  0.35719753  0.10031177
   0.64990270  0.64778482  0.10033098
   0.32795639  0.32617005  0.10095163
   0.68073284  0.00298447  0.10099612
   0.00380166  0.67909228  0.10100279
  -0.00048846  0.50010509  0.33398664
   0.16719931  0.33363253  0.33395852
  -0.00005632 -0.00000271  0.33377352
   0.16657390  0.83290111  0.33396732
   0.49985460  0.49945196  0.33399408
   0.66673569  0.33334964  0.33358802
   0.50050758  0.00044600  0.33398268
   0.66647184  0.83353197  0.33395617
Direct configuration=    14
   0.00420590  0.00289423  0.10739238
   0.35902681  0.00313731  0.10045448
   0.00363315  0.35725593  0.10044790
   0.64982243  0.64782456  0.10046587
   0.32789608  0.32625660  0.10110365
   0.68064361  0.00285709  0.10114946
   0.00392188  0.67911807  0.10115604
  -0.00014477  0.50000081  0.33398884
   0.16680218  0.33345216  0.33396091
   0.00001070  0.00000969  0.33384090
   0.16668517  0.83323303  0.33396833
   0.50002732  0.49986368  0.33399462
   0.66668519  0.33334392  0.33364570
   0.50016243  0.00016875  0.33398481
   0.66658259  0.83335151  0.33395878
Direct configuration=    15
   0.00420477  0.00288462  0.10674713
   0.35900972  0.00308823  0.10054184
   0.00371384  0.35729356  0.10053564
   0.64977069  0.64785018  0.10055281
   0.32785721  0.32631239  0.10120163
   0.68058610  0.00277498  0.10124830
   0.00399937  0.67913469  0.10125482
   0.00007675  0.49993360  0.33399026
   0.16654621  0.33333590  0.33396245
   0.00005390  0.00001768  0.33388433
   0.16675689  0.83344697  0.33396897
   0.50013864  0.50012905  0.33399496
   0.66665265  0.33334023  0.33368288
   0.49993998 -0.00000994  0.33398619
   0.66665397  0.83323520  0.33396046
Direct configuration=    16
   0.00420331  0.00287567  0.10648939
   0.35904168  0.00306457  0.10057927
   0.00376704  0.35734248  0.10057396
   0.64968602  0.64783171  0.10058885
   0.32779287  0.32624209  0.10123388
   0.68065229  0.00281211  0.10127762
   0.00399413  0.67916733  0.10128337
   0.00011532  0.49998867  0.33397442
   0.16661483  0.33336566  0.33397699
   0.00002583  0.00001233  0.33389812
   0.16676838  0.83341171  0.33398279
   0.50005064  0.50013183  0.33397831
   0.66668300  0.33334607  0.33372976
   0.49990535 -0.00008017  0.33397061
   0.66665997  0.83325526  0.33397529
Direct configuration=    17
   0.00420097  0.00286129  0.10607488
   0.35909309  0.00302652  0.10063948
   0.00385260  0.35742116  0.10063560
   0.64954985  0.64780201  0.10064681
   0.32768940  0.32612903  0.10128577
   0.68075873  0.00287182  0.10132478
   0.00398571  0.67921982  0.10132929
   0.00017735  0.50007724  0.33394895
   0.16672519  0.33341352  0.33400039
  -0.00001931  0.00000374  0.33392031
   0.16678686  0.83335501  0.33400503
   0.49990911  0.50013629  0.33395153
   0.66673182  0.33335546  0.33380517
   0.49984966 -0.00019311  0.33394556
   0.66666963  0.83328753  0.33399912
Direct configuration=    18
   0.00418589  0.00282018  0.10575081
   0.35917903  0.00300238  0.10069932
   0.00391118  0.35752649  0.10069703
   0.64939755  0.64773548  0.10070383
   0.32767769  0.32606033  0.10130716
   0.68083612  0.00297148  0.10133919
   0.00393604  0.67921117  0.10134210
   0.00006517  0.50005225  0.33393250
   0.16674547  0.33342881  0.33402128
   0.00001577  0.00001113  0.33393956
   0.16671916  0.83329395  0.33402496
   0.49997833  0.50002370  0.33393402
   0.66669395  0.33334898  0.33387079
   0.50000639 -0.00003662  0.33392962
   0.66661293  0.83331763  0.33402050
Direct configuration=    19
   0.00418016  0.00280455  0.10562760
   0.35921170  0.00299320  0.10072207
   0.00393345  0.35756653  0.10072039
   0.64933964  0.64771018  0.10072551
   0.32767323  0.32603422  0.10131529
   0.68086555  0.00300938  0.10134467
   0.00391716  0.67920788  0.10134697
   0.00002251  0.50004274  0.33392625
   0.16675318  0.33343463  0.33402922
   0.00002910  0.00001394  0.33394688
   0.16669343  0.83327073  0.33403254
   0.50000464  0.49998089  0.33392736
   0.66667955  0.33334651  0.33389573
   0.50006598  0.00002287  0.33392356
   0.66659137  0.83332907  0.33402863
Direct configuration=    20
   0.00415959  0.00275556  0.10544308
   0.35926681  0.00299560  0.10076943
   0.00393870  0.35762605  0.10076883
   0.64927107  0.64766356  0.10077066
   0.32775435  0.32605931  0.10130694
   0.68085900  0.00307667  0.10132990
   0.00386569  0.67914575  0.10133084
  -0.00001037  0.49996555  0.33393760
   0.16667713  0.33340599  0.33403310
   0.00003389  0.00001543  0.33396457
   0.16673927  0.83334611  0.33403625
   0.50008687  0.50002381  0.33393853
   0.66667645  0.33334572  0.33391473
   0.50002685  0.00005924  0.33393536
   0.66661536  0.83328298  0.33403284
Direct configuration=    21
   0.00414578  0.00272267  0.10531925
   0.35930379  0.00299721  0.10080122
   0.00394223  0.35766600  0.10080133
   0.64922506  0.64763227  0.10080097
   0.32780878  0.32607615  0.10130134
   0.68085461  0.00312183  0.10131999
   0.00383115  0.67910406  0.10132002
  -0.00003244  0.49991375  0.33394521
   0.16662609  0.33338677  0.33403570
   0.00003711  0.00001643  0.33397645
   0.16677004  0.83339669  0.33403874
   0.50014205  0.50005262  0.33394602
   0.66667437  0.33334519  0.33392748
   0.50000059  0.00008365  0.33394328
   0.66663145  0.83325204  0.33403566
Direct configuration=    22
   0.00413096  0.00268754  0.10513556
   0.35932473  0.00301909  0.10085145
   0.00392586  0.35767129  0.10085259
   0.64921642  0.64761761  0.10084891
   0.32786973  0.32609399  0.10128388
   0.68084825  0.00316999  0.10129512
   0.00378867  0.67905657  0.10129360
   0.00002901  0.49996387  0.33397191
   0.16665829  0.33339059  0.33403603
   0.00001872  0.00001284  0.33399492
   0.16677658  0.83338812  0.33403928
   0.50007038  0.50007779  0.33397298
   0.66669586  0.33334942  0.33392971
   0.49995428  0.00000121  0.33397041
   0.66665295  0.83326741  0.33403631
Direct configuration=    23
   0.00411754  0.00265571  0.10496913
   0.35934370  0.00303892  0.10089696
   0.00391103  0.35767608  0.10089904
   0.64920860  0.64760432  0.10089235
   0.32792494  0.32611016  0.10126806
   0.68084249  0.00321363  0.10127259
   0.00375017  0.67901356  0.10126967
   0.00008467  0.50000928  0.33399609
   0.16668745  0.33339405  0.33403634
   0.00000206  0.00000957  0.33401165
   0.16678250  0.83338036  0.33403977
   0.50000544  0.50010059  0.33399740
   0.66671532  0.33335324  0.33393173
   0.49991232 -0.00007347  0.33399500
   0.66667243  0.83328134  0.33403690
Direct configuration=    24
   0.00412537  0.00267294  0.10479968
   0.35931528  0.00307485  0.10093263
   0.00388445  0.35760733  0.10093535
   0.64926806  0.64763455  0.10092633
   0.32788050  0.32607320  0.10125617
   0.68086656  0.00321057  0.10125428
   0.00375142  0.67903458  0.10125006
   0.00008403  0.50004893  0.33402355
   0.16671636  0.33340675  0.33404484
   0.00003131  0.00001565  0.33401922
   0.16671212  0.83331691  0.33404872
   0.50000126  0.50003891  0.33402558
   0.66668587  0.33334938  0.33392806
   0.50001010 -0.00003579  0.33402269
   0.66662797  0.83331858  0.33404551
Direct configuration=    25
   0.00412777  0.00267823  0.10474766
   0.35930656  0.00308588  0.10094358
   0.00387630  0.35758623  0.10094649
   0.64928631  0.64764383  0.10093676
   0.32786686  0.32606186  0.10125253
   0.68087395  0.00320963  0.10124866
   0.00375180  0.67904103  0.10124404
   0.00008383  0.50006110  0.33403198
   0.16672523  0.33341065  0.33404745
   0.00004029  0.00001751  0.33402154
   0.16669052  0.83329743  0.33405146
   0.49999997  0.50001998  0.33403423
   0.66667683  0.33334819  0.33392693
   0.50004012 -0.00002422  0.33403119
   0.66661433  0.83333001  0.33404815
Direct configuration=    26
   0.00414542  0.00272025  0.10459448
   0.35927548  0.00311521  0.10095970
   0.00384834  0.35751875  0.10096277
   0.64934986  0.64766841  0.10095208
   0.32780301  0.32604260  0.10125095
   0.68087311  0.00316119  0.10124254
   0.00378703  0.67907561  0.10123704
   0.00001731  0.49999727  0.33405153
   0.16670042  0.33341215  0.33406785
   0.00003335  0.00001730  0.33401840
   0.16673515  0.83333438  0.33407238
   0.50005539  0.50002337  0.33405461
   0.66668582  0.33334979  0.33392905
   0.50002840  0.00003297  0.33405078
   0.66662258  0.83329809  0.33406851
Direct configuration=    27
   0.00415447  0.00274178  0.10451599
   0.35925955  0.00313024  0.10096796
   0.00383401  0.35748418  0.10097111
   0.64938242  0.64768101  0.10095993
   0.32777029  0.32603273  0.10125014
   0.68087269  0.00313636  0.10123941
   0.00380508  0.67909333  0.10123346
  -0.00001678  0.49996456  0.33406155
   0.16668770  0.33341292  0.33407830
   0.00002980  0.00001720  0.33401678
   0.16675802  0.83335331  0.33408309
   0.50008379  0.50002510  0.33406505
   0.66669043  0.33335061  0.33393014
   0.50002240  0.00006228  0.33406081
   0.66662681  0.83328173  0.33407895
Direct configuration=    28
   0.00416442  0.00277037  0.10434729
   0.35926256  0.00313800  0.10097111
   0.00380664  0.35747950  0.10097398
   0.64940340  0.64766186  0.10096306
   0.32777376  0.32608948  0.10125606
   0.68080801  0.00306238  0.10124216
   0.00385070  0.67909219  0.10123566
   0.00002334  0.49997665  0.33407722
   0.16668469  0.33340780  0.33410912
   0.00001792  0.00001479  0.33401268
   0.16678206  0.83337446  0.33411430
   0.50005855  0.50006409  0.33408142
   0.66670547  0.33335313  0.33394267
   0.49996966  0.00000804  0.33407632
   0.66664949  0.83327458  0.33410961
Direct configuration=    29
   0.00417577  0.00280297  0.10415495
   0.35926600  0.00314685  0.10097471
   0.00377542  0.35747417  0.10097726
   0.64942733  0.64764004  0.10096662
   0.32777771  0.32615419  0.10126281
   0.68073427  0.00297803  0.10124530
   0.00390272  0.67909090  0.10123818
   0.00006909  0.49999043  0.33409507
   0.16668126  0.33340196  0.33414426
   0.00000437  0.00001204  0.33400801
   0.16680948  0.83339857  0.33414988
   0.50002977  0.50010855  0.33410008
   0.66672261  0.33335600  0.33395696
   0.49990952 -0.00005380  0.33409400
   0.66667534  0.83326644  0.33414457
Direct configuration=    30
   0.00417480  0.00280754  0.10401080
   0.35928316  0.00313505  0.10097396
   0.00376197  0.35750637  0.10097611
   0.64941622  0.64760997  0.10096627
   0.32780289  0.32620100  0.10126690
   0.68068858  0.00293610  0.10124798
   0.00392321  0.67908573  0.10124068
   0.00009070  0.50002519  0.33410977
   0.16669148  0.33339893  0.33416771
   0.00002701  0.00001677  0.33401533
   0.16675578  0.83336310  0.33417337
   0.50002227  0.50007934  0.33411503
   0.66670124  0.33335358  0.33397243
   0.49996613 -0.00004710  0.33410849
   0.66665522  0.83329577  0.33416785
Direct configuration=    31
   0.00417397  0.00281138  0.10388977
   0.35929757  0.00312513  0.10097333
   0.00375067  0.35753340  0.10097514
   0.64940690  0.64758473  0.10096597
   0.32782403  0.32624032  0.10127033
   0.68065022  0.00290090  0.10125023
   0.00394042  0.67908139  0.10124278
   0.00010885  0.50005437  0.33412212
   0.16670007  0.33339638  0.33418740
   0.00004602  0.00002073  0.33402147
   0.16671069  0.83333332  0.33419309
   0.50001596  0.50005481  0.33412758
   0.66668329  0.33335155  0.33398541
   0.50001367 -0.00004148  0.33412065
   0.66663833  0.83332041  0.33418740
Direct configuration=    32
   0.00416819  0.00280391  0.10377398
   0.35931048  0.00310140  0.10097320
   0.00375619  0.35757000  0.10097461
   0.64938033  0.64756740  0.10096652
   0.32782836  0.32622680  0.10126783
   0.68066481  0.00291123  0.10124821
   0.00392785  0.67909179  0.10124090
   0.00005654  0.50002812  0.33413808
   0.16670880  0.33340481  0.33419927
   0.00004182  0.00002137  0.33404447
   0.16672159  0.83333203  0.33420461
   0.50003723  0.50003134  0.33414333
   0.66668894  0.33335315  0.33400211
   0.50003259  0.00000647  0.33413643
   0.66663693  0.83331750  0.33419911
Direct configuration=    33
   0.00415817  0.00279094  0.10357313
   0.35933288  0.00306022  0.10097296
   0.00376577  0.35763351  0.10097369
   0.64933424  0.64753735  0.10096748
   0.32783587  0.32620336  0.10126351
   0.68069013  0.00292916  0.10124469
   0.00390604  0.67910984  0.10123765
  -0.00003419  0.49998258  0.33416579
   0.16672396  0.33341943  0.33421985
   0.00003452  0.00002247  0.33408436
   0.16674050  0.83332980  0.33422460
   0.50007412  0.49999062  0.33417064
   0.66669874  0.33335593  0.33403109
   0.50006541  0.00008965  0.33416380
   0.66663450  0.83331247  0.33421941
Direct configuration=    34
   0.00415581  0.00278908  0.10346758
   0.35933658  0.00304013  0.10097528
   0.00377968  0.35765318  0.10097571
   0.64930949  0.64753325  0.10097052
   0.32782712  0.32616687  0.10125532
   0.68072337  0.00296072  0.10123778
   0.00388356  0.67911646  0.10123103
  -0.00001706  0.49997909  0.33418188
   0.16671648  0.33342082  0.33422873
   0.00003056  0.00002159  0.33411230
   0.16676031  0.83334545  0.33423304
   0.50007343  0.50001613  0.33418635
   0.66670520  0.33335699  0.33404924
   0.50003576  0.00006779  0.33417974
   0.66664039  0.83329980  0.33422818
Direct configuration=    35
   0.00414934  0.00278399  0.10317865
   0.35934672  0.00298514  0.10098165
   0.00381774  0.35770702  0.10098122
   0.64924174  0.64752203  0.10097883
   0.32780315  0.32606699  0.10123288
   0.68081434  0.00304711  0.10121885
   0.00382200  0.67913457  0.10121290
   0.00002984  0.49996951  0.33422593
   0.16669601  0.33342462  0.33425305
   0.00001970  0.00001917  0.33418878
   0.16681453  0.83338828  0.33425614
   0.50007155  0.50008597  0.33422934
   0.66672291  0.33335988  0.33409890
   0.49995459  0.00000794  0.33422336
   0.66665651  0.83326510  0.33425217
Direct configuration=    36
   0.00415083  0.00278773  0.10303783
   0.35933882  0.00297516  0.10098957
   0.00383918  0.35770255  0.10098890
   0.64922072  0.64753148  0.10098757
   0.32780682  0.32604414  0.10121198
   0.68083152  0.00308994  0.10120062
   0.00379607  0.67910899  0.10119523
   0.00008847  0.50001978  0.33424584
   0.16669727  0.33340776  0.33426968
   0.00004084  0.00002298  0.33422440
   0.16676002  0.83336456  0.33427229
   0.50004777  0.50008031  0.33424871
   0.66670396  0.33335787  0.33412818
   0.49998542 -0.00002436  0.33424313
   0.66665293  0.83329844  0.33426874
Direct configuration=    37
   0.00415180  0.00279015  0.10294710
   0.35933374  0.00296873  0.10099468
   0.00385299  0.35769966  0.10099384
   0.64920718  0.64753757  0.10099320
   0.32780919  0.32602942  0.10119852
   0.68084259  0.00311754  0.10118887
   0.00377936  0.67909250  0.10118385
   0.00012625  0.50005216  0.33425866
   0.16669808  0.33339690  0.33428040
   0.00005447  0.00002543  0.33424734
   0.16672490  0.83334928  0.33428269
   0.50003245  0.50007666  0.33426119
   0.66669176  0.33335657  0.33414704
   0.50000528 -0.00004517  0.33425587
   0.66665063  0.83331992  0.33427941
Direct configuration=    38
   0.00415086  0.00278452  0.10282115
   0.35931615  0.00297899  0.10100516
   0.00386578  0.35767233  0.10100432
   0.64921015  0.64755837  0.10100417
   0.32783484  0.32605487  0.10117161
   0.68081702  0.00313241  0.10116505
   0.00377094  0.67904716  0.10116065
   0.00008719  0.50004555  0.33427441
   0.16671558  0.33339619  0.33430292
   0.00004895  0.00002618  0.33427144
   0.16672115  0.83334126  0.33430508
   0.50003292  0.50004785  0.33427663
   0.66669967  0.33335896  0.33417645
   0.50002796 -0.00001147  0.33427165
   0.66666148  0.83333417  0.33430199
Direct configuration=    39
   0.00414957  0.00277671  0.10264597
   0.35929168  0.00299326  0.10101974
   0.00388357  0.35763430  0.10101888
   0.64921428  0.64758730  0.10101943
   0.32787052  0.32609026  0.10113418
   0.68078146  0.00315308  0.10113191
   0.00375923  0.67898410  0.10112838
   0.00003287  0.50003636  0.33429633
   0.16673993  0.33339520  0.33433424
   0.00004129  0.00002723  0.33430495
   0.16671592  0.83333009  0.33433621
   0.50003358  0.50000777  0.33429811
   0.66671068  0.33336230  0.33421735
   0.50005952  0.00003539  0.33429359
   0.66667656  0.83335399  0.33433340
Direct configuration=    40
   0.00413670  0.00274315  0.10248888
   0.35927223  0.00301921  0.10102924
   0.00388014  0.35760145  0.10102860
   0.64924413  0.64761488  0.10102912
   0.32788070  0.32612923  0.10109971
   0.68074934  0.00312729  0.10110133
   0.00377200  0.67897442  0.10109858
   0.00003575  0.49999076  0.33431918
   0.16670924  0.33342035  0.33436782
   0.00003876  0.00002643  0.33432582
   0.16678449  0.83337192  0.33437014
   0.50007611  0.50006287  0.33432093
   0.66671829  0.33336322  0.33424952
   0.50000332  0.00002870  0.33431662
   0.66665948  0.83329345  0.33436718
Direct configuration=    41
   0.00413525  0.00273938  0.10247121
   0.35927004  0.00302213  0.10103031
   0.00387975  0.35759776  0.10102969
   0.64924748  0.64761799  0.10103021
   0.32788185  0.32613361  0.10109583
   0.68074573  0.00312439  0.10109789
   0.00377343  0.67897333  0.10109523
   0.00003607  0.49998563  0.33432175
   0.16670578  0.33342318  0.33437160
   0.00003848  0.00002634  0.33432817
   0.16679220  0.83337663  0.33437396
   0.50008089  0.50006907  0.33432350
   0.66671915  0.33336332  0.33425314
   0.49999700  0.00002795  0.33431921
   0.66665756  0.83328664  0.33437098
Direct configuration=    42
   0.00412201  0.00270853  0.10235900
   0.35927512  0.00304697  0.10102946
   0.00386018  0.35759028  0.10102916
   0.64927079  0.64761940  0.10102904
   0.32785214  0.32614353  0.10107511
   0.68074024  0.00307679  0.10107949
   0.00380110  0.67901569  0.10107730
   0.00008771  0.50001242  0.33434468
   0.16669858  0.33342131  0.33439696
   0.00005153  0.00002812  0.33433823
   0.16677792  0.83337292  0.33440000
   0.50007098  0.50008721  0.33434674
   0.66670884  0.33336209  0.33426853
   0.49999491 -0.00000787  0.33434238
   0.66664860  0.83328996  0.33439657
Direct configuration=    43
   0.00411467  0.00269140  0.10229672
   0.35927794  0.00306076  0.10102899
   0.00384932  0.35758613  0.10102887
   0.64928373  0.64762018  0.10102840
   0.32783565  0.32614903  0.10106360
   0.68073719  0.00305036  0.10106928
   0.00381646  0.67903921  0.10106735
   0.00011637  0.50002729  0.33435740
   0.16669458  0.33342027  0.33441103
   0.00005878  0.00002911  0.33434382
   0.16676999  0.83337086  0.33441446
   0.50006548  0.50009728  0.33435965
   0.66670312  0.33336141  0.33427708
   0.49999376 -0.00002775  0.33435524
   0.66664363  0.83329180  0.33441078
Direct configuration=    44
   0.00411323  0.00269045  0.10217568
   0.35931503  0.00308716  0.10101909
   0.00382187  0.35759831  0.10101944
   0.64927367  0.64758146  0.10101778
   0.32779317  0.32614744  0.10104775
   0.68073369  0.00300718  0.10105504
   0.00385026  0.67907643  0.10105342
   0.00007235  0.50004320  0.33438873
   0.16673179  0.33340154  0.33443643
   0.00004619  0.00002961  0.33435576
   0.16674223  0.83335099  0.33444077
   0.50003562  0.50004497  0.33439154
   0.66671849  0.33336562  0.33428786
   0.50003127  0.00000343  0.33438691
   0.66668182  0.83333955  0.33443647
Direct configuration=    45
   0.00411296  0.00269026  0.10215284
   0.35932203  0.00309214  0.10101722
   0.00381669  0.35760061  0.10101766
   0.64927177  0.64757415  0.10101578
   0.32778515  0.32614714  0.10104476
   0.68073303  0.00299903  0.10105235
   0.00385663  0.67908346  0.10105080
   0.00006405  0.50004621  0.33439464
   0.16673881  0.33339801  0.33444122
   0.00004381  0.00002970  0.33435801
   0.16673699  0.83334724  0.33444574
   0.50002999  0.50003510  0.33439756
   0.66672139  0.33336641  0.33428989
   0.50003835  0.00000931  0.33439288
   0.66668902  0.83334857  0.33444132
Direct configuration=    46
   0.00412355  0.00272022  0.10203012
   0.35936923  0.00310688  0.10100016
   0.00379301  0.35762246  0.10100109
   0.64923385  0.64751471  0.10099777
   0.32776132  0.32614429  0.10103227
   0.68072397  0.00298216  0.10104043
   0.00387788  0.67908654  0.10103900
   0.00003447  0.50001384  0.33442968
   0.16672718  0.33340604  0.33446597
   0.00004571  0.00003147  0.33437489
   0.16676029  0.83336287  0.33447127
   0.50006370  0.50003835  0.33443312
   0.66672397  0.33336775  0.33430233
   0.50003812  0.00004142  0.33442823
   0.66668442  0.83332833  0.33446636
Direct configuration=    47
   0.00412629  0.00272796  0.10199839
   0.35938143  0.00311069  0.10099574
   0.00378688  0.35762810  0.10099680
   0.64922404  0.64749935  0.10099312
   0.32775516  0.32614355  0.10102904
   0.68072162  0.00297780  0.10103735
   0.00388337  0.67908734  0.10103595
   0.00002682  0.50000547  0.33443873
   0.16672418  0.33340812  0.33447236
   0.00004621  0.00003193  0.33437925
   0.16676632  0.83336691  0.33447787
   0.50007242  0.50003920  0.33444231
   0.66672463  0.33336809  0.33430554
   0.50003806  0.00004972  0.33443737
   0.66668323  0.83332310  0.33447283
Direct configuration=    48
   0.00413177  0.00274345  0.10193495
   0.35940584  0.00311831  0.10098692
   0.00377464  0.35763940  0.10098824
   0.64920444  0.64746862  0.10098381
   0.32774283  0.32614207  0.10102258
   0.68071693  0.00296908  0.10103119
   0.00389436  0.67908893  0.10102985
   0.00001153  0.49998874  0.33445685
   0.16671817  0.33341227  0.33448516
   0.00004719  0.00003285  0.33438798
   0.16677837  0.83337499  0.33449106
   0.50008985  0.50004088  0.33446070
   0.66672597  0.33336878  0.33431198
   0.50003794  0.00006633  0.33445564
   0.66668085  0.83331264  0.33448577
Direct configuration=    49
   0.00412818  0.00273331  0.10197650
   0.35938986  0.00311332  0.10099270
   0.00378266  0.35763200  0.10099385
   0.64921728  0.64748874  0.10098990
   0.32775090  0.32614304  0.10102681
   0.68072000  0.00297479  0.10103523
   0.00388717  0.67908789  0.10103384
   0.00002155  0.49999969  0.33444498
   0.16672210  0.33340955  0.33447678
   0.00004654  0.00003225  0.33438226
   0.16677048  0.83336970  0.33448242
   0.50007843  0.50003978  0.33444866
   0.66672509  0.33336833  0.33430776
   0.50003802  0.00005545  0.33444367
   0.66668241  0.83331949  0.33447730
Direct configuration=    50
   0.00413288  0.00275294  0.10187153
   0.35939204  0.00309931  0.10097538
   0.00377425  0.35763929  0.10097684
   0.64920383  0.64747195  0.10097181
   0.32776539  0.32613819  0.10101404
   0.68071843  0.00299077  0.10102178
   0.00387424  0.67907144  0.10102028
   0.00009827  0.50002026  0.33447252
   0.16670519  0.33342834  0.33450013
   0.00006389  0.00003350  0.33440384
   0.16677980  0.83337283  0.33450602
   0.50008053  0.50008834  0.33447632