<?xml version="1.0" encoding="ISO-8859-1"?>
<modeling>
 <generator>
  <i name="program" type="string">vasp </i>
  <i name="version" type="string">6.3.2  </i>
  <i name="subversion" type="string">27Jun22 (build Dec 22 2022 13:13:19) complex                          parallel </i>
  <i name="platform" type="string">LinuxIFC </i>
  <i name="date" type="string">2023 08 23 </i>
  <i name="time" type="string">02:23:07 </i>
 </generator>
 <incar>
  <i type="string" name="SYSTEM">Lattice</i>
  <i type="int" name="ISTART">     0</i>
  <i type="string" name="PREC">Accurate</i>
  <i type="string" name="ALGO">Normal</i>
  <i type="int" name="ISPIN">     2</i>
  <i type="int" name="ICHARG">     2</i>
  <i type="int" name="NELM">    64</i>
  <i type="int" name="IBRION">     2</i>
  <i name="EDIFF">      0.00000100</i>
  <i name="EDIFFG">     -0.00100000</i>
  <i type="int" name="NSW">   128</i>
  <i type="int" name="ISIF">     2</i>
  <i name="ENCUT">    450.00000000</i>
  <i name="POTIM">      0.50000000</i>
  <i type="int" name="ISMEAR">     0</i>
  <i name="SIGMA">      0.10000000</i>
  <i type="logical" name="LWAVE"> F  </i>
  <i type="logical" name="LCHARG"> F  </i>
  <i type="string" name="GGA">PE</i>
  <i type="int" name="IVDW">    12</i>
 </incar>
 <primitive_cell>
  <structure name="primitive_cell" >
   <crystal>
    <varray name="basis" >
     <v>       4.36043791       2.51750000       0.00000000 </v>
     <v>      -4.36043791       2.51750000       0.00000000 </v>
     <v>       0.00000000       0.00000000      15.00000000 </v>
    </varray>
    <i name="volume">    329.32207301 </i>
    <varray name="rec_basis" >
     <v>       0.11466738       0.19860973       0.00000000 </v>
     <v>      -0.11466738       0.19860973       0.00000000 </v>
     <v>       0.00000000       0.00000000       0.06666667 </v>
    </varray>
   </crystal>
   <varray name="positions" >
    <v>       0.33833034       0.66916432       0.10000000 </v>
    <v>       0.67165522       0.33584146       0.10000000 </v>
    <v>       0.16373946       0.31999962       0.10000000 </v>
    <v>       0.32250218       0.16126397       0.10000000 </v>
    <v>       0.16376430       0.84376384       0.10000000 </v>
    <v>       0.84623863       0.16123684       0.10000000 </v>
    <v>       0.68749850       0.84373000       0.10000000 </v>
    <v>       0.84626736       0.68499594       0.10000000 </v>
    <v>       0.24999933       0.24999967       0.32633333 </v>
    <v>       0.41666633       0.08333267       0.32633333 </v>
    <v>       0.24999933       0.74999967       0.32633333 </v>
    <v>       0.41666633       0.58333267       0.32633333 </v>
    <v>       0.74999933       0.24999967       0.32633333 </v>
    <v>       0.91666633       0.08333267       0.32633333 </v>
    <v>       0.74999933       0.74999967       0.32633333 </v>
    <v>       0.91666633       0.58333267       0.32633333 </v>
   </varray>
  </structure>
  <varray name="primitive_index" >
   <v type="int" >        1 </v>
   <v type="int" >        2 </v>
   <v type="int" >        3 </v>
   <v type="int" >        4 </v>
   <v type="int" >        5 </v>
   <v type="int" >        6 </v>
   <v type="int" >        7 </v>
   <v type="int" >        8 </v>
   <v type="int" >        9 </v>
   <v type="int" >       10 </v>
   <v type="int" >       11 </v>
   <v type="int" >       12 </v>
   <v type="int" >       13 </v>
   <v type="int" >       14 </v>
   <v type="int" >       15 </v>
   <v type="int" >       16 </v>
  </varray>
 </primitive_cell>
 <kpoints>
  <generation param="Gamma">
   <v type="int" name="divisions">      12       12        1 </v>
   <v name="usershift">      0.00000000       0.00000000       0.00000000 </v>
   <v name="genvec1">      0.08333333      -0.00000000       0.00000000 </v>
   <v name="genvec2">     -0.00000000       0.08333333       0.00000000 </v>
   <v name="genvec3">      0.00000000       0.00000000       1.00000000 </v>
   <v name="shift">      0.00000000       0.00000000       0.00000000 </v>
  </generation>
  <varray name="kpointlist" >
   <v>       0.00000000       0.00000000       0.00000000 </v>
   <v>       0.08333333      -0.00000000       0.00000000 </v>
   <v>      -0.00000000       0.08333333       0.00000000 </v>
   <v>      -0.08333333       0.08333333       0.00000000 </v>
   <v>       0.16666667      -0.00000000       0.00000000 </v>
   <v>      -0.00000000       0.16666667       0.00000000 </v>
   <v>      -0.16666667       0.16666667       0.00000000 </v>
   <v>       0.25000000      -0.00000000       0.00000000 </v>
   <v>      -0.00000000       0.25000000       0.00000000 </v>
   <v>      -0.25000000       0.25000000       0.00000000 </v>
   <v>       0.33333333       0.00000000       0.00000000 </v>
   <v>       0.00000000       0.33333333       0.00000000 </v>
   <v>      -0.33333333       0.33333333       0.00000000 </v>
   <v>       0.41666667      -0.00000000       0.00000000 </v>
   <v>      -0.00000000       0.41666667       0.00000000 </v>
   <v>      -0.41666667       0.41666667       0.00000000 </v>
   <v>       0.50000000      -0.00000000       0.00000000 </v>
   <v>      -0.00000000       0.50000000       0.00000000 </v>
   <v>       0.50000000       0.50000000       0.00000000 </v>
   <v>       0.08333333       0.08333333       0.00000000 </v>
   <v>      -0.08333333       0.16666667       0.00000000 </v>
   <v>      -0.16666667       0.08333333       0.00000000 </v>
   <v>       0.16666667       0.08333333       0.00000000 </v>
   <v>      -0.08333333       0.25000000       0.00000000 </v>
   <v>      -0.25000000       0.16666667       0.00000000 </v>
   <v>      -0.16666667       0.25000000       0.00000000 </v>
   <v>       0.08333333       0.16666667       0.00000000 </v>
   <v>       0.25000000      -0.08333333       0.00000000 </v>
   <v>       0.25000000       0.08333333       0.00000000 </v>
   <v>      -0.08333333       0.33333333       0.00000000 </v>
   <v>      -0.33333333       0.25000000       0.00000000 </v>
   <v>      -0.25000000       0.33333333       0.00000000 </v>
   <v>       0.08333333       0.25000000       0.00000000 </v>
   <v>       0.33333333      -0.08333333       0.00000000 </v>
   <v>       0.33333333       0.08333333       0.00000000 </v>
   <v>      -0.08333333       0.41666667       0.00000000 </v>
   <v>      -0.41666667       0.33333333       0.00000000 </v>
   <v>      -0.33333333       0.41666667       0.00000000 </v>
   <v>       0.08333333       0.33333333       0.00000000 </v>
   <v>       0.41666667      -0.08333333       0.00000000 </v>
   <v>       0.41666667       0.08333333       0.00000000 </v>
   <v>      -0.08333333       0.50000000       0.00000000 </v>
   <v>       0.50000000       0.41666667       0.00000000 </v>
   <v>      -0.41666667       0.50000000       0.00000000 </v>
   <v>       0.08333333       0.41666667       0.00000000 </v>
   <v>       0.50000000      -0.08333333       0.00000000 </v>
   <v>       0.16666667       0.16666667       0.00000000 </v>
   <v>      -0.16666667       0.33333333       0.00000000 </v>
   <v>      -0.33333333       0.16666667       0.00000000 </v>
   <v>       0.25000000       0.16666667       0.00000000 </v>
   <v>      -0.16666667       0.41666667       0.00000000 </v>
   <v>      -0.41666667       0.25000000       0.00000000 </v>
   <v>      -0.25000000       0.41666667       0.00000000 </v>
   <v>       0.16666667       0.25000000       0.00000000 </v>
   <v>       0.41666667      -0.16666667       0.00000000 </v>
   <v>       0.33333333       0.16666667       0.00000000 </v>
   <v>      -0.16666667       0.50000000       0.00000000 </v>
   <v>       0.50000000       0.33333333       0.00000000 </v>
   <v>      -0.33333333       0.50000000       0.00000000 </v>
   <v>       0.16666667       0.33333333       0.00000000 </v>
   <v>       0.50000000      -0.16666667       0.00000000 </v>
   <v>       0.41666667       0.16666667       0.00000000 </v>
   <v>      -0.16666667      -0.41666667       0.00000000 </v>
   <v>       0.41666667       0.41666667       0.00000000 </v>
   <v>       0.25000000       0.25000000       0.00000000 </v>
   <v>      -0.25000000       0.50000000       0.00000000 </v>
   <v>       0.50000000       0.25000000       0.00000000 </v>
   <v>       0.33333333       0.25000000       0.00000000 </v>
   <v>      -0.25000000      -0.41666667       0.00000000 </v>
   <v>       0.41666667       0.33333333       0.00000000 </v>
   <v>      -0.33333333      -0.41666667       0.00000000 </v>
   <v>       0.25000000       0.33333333       0.00000000 </v>
   <v>      -0.41666667      -0.25000000       0.00000000 </v>
   <v>       0.33333333       0.33333333       0.00000000 </v>
  </varray>
  <varray name="weights" >
   <v>       0.00694444 </v>
   <v>       0.01388889 </v>
   <v>       0.01388889 </v>
   <v>       0.01388889 </v>
   <v>       0.01388889 </v>
   <v>       0.01388889 </v>
   <v>       0.01388889 </v>
   <v>       0.01388889 </v>
   <v>       0.01388889 </v>
   <v>       0.01388889 </v>
   <v>       0.01388889 </v>
   <v>       0.01388889 </v>
   <v>       0.01388889 </v>
   <v>       0.01388889 </v>
   <v>       0.01388889 </v>
   <v>       0.01388889 </v>
   <v>       0.00694444 </v>
   <v>       0.00694444 </v>
   <v>       0.00694444 </v>
   <v>       0.01388889 </v>
   <v>       0.01388889 </v>
   <v>       0.01388889 </v>
   <v>       0.01388889 </v>
   <v>       0.01388889 </v>
   <v>       0.01388889 </v>
   <v>       0.01388889 </v>
   <v>       0.01388889 </v>
   <v>       0.01388889 </v>
   <v>       0.01388889 </v>
   <v>       0.01388889 </v>
   <v>       0.01388889 </v>
   <v>       0.01388889 </v>
   <v>       0.01388889 </v>
   <v>       0.01388889 </v>
   <v>       0.01388889 </v>
   <v>       0.01388889 </v>
   <v>       0.01388889 </v>
   <v>       0.01388889 </v>
   <v>       0.01388889 </v>
   <v>       0.01388889 </v>
   <v>       0.01388889 </v>
   <v>       0.01388889 </v>
   <v>       0.01388889 </v>
   <v>       0.01388889 </v>
   <v>       0.01388889 </v>
   <v>       0.01388889 </v>
   <v>       0.01388889 </v>
   <v>       0.01388889 </v>
   <v>       0.01388889 </v>
   <v>       0.01388889 </v>
   <v>       0.01388889 </v>
   <v>       0.01388889 </v>
   <v>       0.01388889 </v>
   <v>       0.01388889 </v>
   <v>       0.01388889 </v>
   <v>       0.01388889 </v>
   <v>       0.01388889 </v>
   <v>       0.01388889 </v>
   <v>       0.01388889 </v>
   <v>       0.01388889 </v>
   <v>       0.01388889 </v>
   <v>       0.01388889 </v>
   <v>       0.01388889 </v>
   <v>       0.01388889 </v>
   <v>       0.01388889 </v>
   <v>       0.01388889 </v>
   <v>       0.01388889 </v>
   <v>       0.01388889 </v>
   <v>       0.01388889 </v>
   <v>       0.01388889 </v>
   <v>       0.01388889 </v>
   <v>       0.01388889 </v>
   <v>       0.01388889 </v>
   <v>       0.01388889 </v>
  </varray>
 </kpoints>
 <parameters>
  <separator name="general" >
   <i type="string" name="SYSTEM">Lattice</i>
   <i type="logical" name="LCOMPAT"> F  </i>
  </separator>
  <separator name="electronic" >
   <i type="string" name="PREC">accura</i>
   <i name="ENMAX">    450.00000000</i>
   <i name="ENAUG">    644.87300000</i>
   <i name="EDIFF">      0.00000100</i>
   <i type="int" name="IALGO">    38</i>
   <i type="int" name="IWAVPR">    11</i>
   <i type="int" name="NBANDS">    48</i>
   <i type="int" name="NBANDSLOW">    -1</i>
   <i type="int" name="NBANDSHIGH">    -1</i>
   <i name="NELECT">     62.00000000</i>
   <i type="int" name="TURBO">     0</i>
   <i type="int" name="IRESTART">     0</i>
   <i type="int" name="NREBOOT">     0</i>
   <i type="int" name="NMIN">     0</i>
   <i name="EREF">      0.00000000</i>
   <separator name="electronic smearing" >
    <i type="int" name="ISMEAR">     0</i>
    <i name="SIGMA">      0.10000000</i>
    <i name="KSPACING">      0.50000000</i>
    <i type="logical" name="KGAMMA"> T  </i>
    <i type="logical" name="KBLOWUP"> T  </i>
   </separator>
   <separator name="electronic projectors" >
    <i type="logical" name="LREAL"> F  </i>
    <v name="ROPT">      0.00000000      0.00000000</v>
    <i type="int" name="LMAXPAW">  -100</i>
    <i type="int" name="LMAXMIX">     2</i>
    <i type="logical" name="NLSPLINE"> F  </i>
   </separator>
   <separator name="electronic startup" >
    <i type="int" name="ISTART">     0</i>
    <i type="int" name="ICHARG">     2</i>
    <i type="int" name="INIWAV">     1</i>
   </separator>
   <separator name="electronic spin" >
    <i type="int" name="ISPIN">     2</i>
    <i type="logical" name="LNONCOLLINEAR"> F  </i>
    <v name="MAGMOM">      1.00000000      1.00000000      1.00000000      1.00000000      1.00000000      1.00000000      1.00000000      1.00000000      1.00000000      1.00000000      1.00000000      1.00000000      1.00000000      1.00000000      1.00000000      1.00000000</v>
    <i name="NUPDOWN">     -1.00000000</i>
    <i type="logical" name="LSORBIT"> F  </i>
    <v name="SAXIS">      0.00000000      0.00000000      1.00000000</v>
    <i type="logical" name="LSPIRAL"> F  </i>
    <v name="QSPIRAL">      0.00000000      0.00000000      0.00000000</v>
    <i type="logical" name="LZEROZ"> F  </i>
   </separator>
   <separator name="electronic exchange-correlation" >
    <i type="logical" name="LASPH"> F  </i>
    <i type="logical" name="LMETAGGA"> F  </i>
   </separator>
   <separator name="electronic convergence" >
    <i type="int" name="NELM">    64</i>
    <i type="int" name="NELMDL">    -5</i>
    <i type="int" name="NELMIN">     2</i>
    <i name="ENINI">    450.00000000</i>
    <separator name="electronic convergence detail" >
     <i type="logical" name="LDIAG"> T  </i>
     <i type="logical" name="LSUBROT"> F  </i>
     <i name="WEIMIN">      0.00100000</i>
     <i name="EBREAK">      0.00000001</i>
     <i name="DEPER">      0.30000000</i>
     <i type="int" name="NRMM">     4</i>
     <i name="TIME">      0.40000000</i>
    </separator>
   </separator>
   <separator name="electronic mixer" >
    <i name="AMIX">      0.40000000</i>
    <i name="BMIX">      1.00000000</i>
    <i name="AMIN">      0.10000000</i>
    <i name="AMIX_MAG">      1.60000000</i>
    <i name="BMIX_MAG">      1.00000000</i>
    <separator name="electronic mixer details" >
     <i type="int" name="IMIX">     4</i>
     <i type="logical" name="MIXFIRST"> F  </i>
     <i type="int" name="MAXMIX">   -45</i>
     <i name="WC">    100.00000000</i>
     <i type="int" name="INIMIX">     1</i>
     <i type="int" name="MIXPRE">     1</i>
     <i type="int" name="MREMOVE">     5</i>
    </separator>
   </separator>
   <separator name="electronic dipolcorrection" >
    <i type="logical" name="LDIPOL"> F  </i>
    <i type="logical" name="LMONO"> F  </i>
    <i type="int" name="IDIPOL">     0</i>
    <i name="EPSILON">      1.00000000</i>
    <v name="DIPOL">   -100.00000000   -100.00000000   -100.00000000</v>
    <i name="EFIELD">      0.00000000</i>
   </separator>
  </separator>
  <separator name="grids" >
   <i type="int" name="NGX">    36</i>
   <i type="int" name="NGY">    36</i>
   <i type="int" name="NGZ">   108</i>
   <i type="int" name="NGXF">    72</i>
   <i type="int" name="NGYF">    72</i>
   <i type="int" name="NGZF">   216</i>
   <i type="logical" name="ADDGRID"> F  </i>
  </separator>
  <separator name="ionic" >
   <i type="int" name="NSW">   128</i>
   <i type="int" name="IBRION">     2</i>
   <i type="int" name="MDALGO">     0</i>
   <i type="int" name="ISIF">     2</i>
   <i name="PSTRESS">      0.00000000</i>
   <i name="EDIFFG">     -0.00100000</i>
   <i type="int" name="NFREE">     1</i>
   <i name="POTIM">      0.50000000</i>
   <i name="SMASS">     -3.00000000</i>
   <i name="SCALEE">      1.00000000</i>
  </separator>
  <separator name="ionic md" >
   <i name="TEBEG">      0.00010000</i>
   <i name="TEEND">      0.00010000</i>
   <i type="int" name="NBLOCK">     1</i>
   <i type="int" name="KBLOCK">   128</i>
   <i type="int" name="NPACO">   256</i>
   <i name="APACO">     10.00000000</i>
  </separator>
  <separator name="symmetry" >
   <i type="int" name="ISYM">     2</i>
   <i name="SYMPREC">      0.00001000</i>
  </separator>
  <separator name="dos" >
   <i type="int" name="LORBIT">     0</i>
   <v name="RWIGS">     -1.00000000     -1.00000000</v>
   <i type="int" name="NEDOS">   301</i>
   <i name="EMIN">     10.00000000</i>
   <i name="EMAX">    -10.00000000</i>
   <i name="EFERMI">      0.00000000</i>
  </separator>
  <separator name="writing" >
   <i type="int" name="NWRITE">     2</i>
   <i type="logical" name="LWAVE"> F  </i>
   <i type="logical" name="LDOWNSAMPLE"> F  </i>
   <i type="logical" name="LCHARG"> F  </i>
   <i type="logical" name="LPARD"> F  </i>
   <i type="logical" name="LVTOT"> F  </i>
   <i type="logical" name="LVHAR"> F  </i>
   <i type="logical" name="LELF"> F  </i>
   <i type="logical" name="LOPTICS"> F  </i>
   <v name="STM">      0.00000000      0.00000000      0.00000000      0.00000000      0.00000000      0.00000000      0.00000000</v>
  </separator>
  <separator name="performance" >
   <i type="int" name="NPAR">    48</i>
   <i type="int" name="NSIM">     4</i>
   <i type="int" name="NBLK">    -1</i>
   <i type="logical" name="LPLANE"> T  </i>
   <i type="logical" name="LSCALAPACK"> T  </i>
   <i type="logical" name="LSCAAWARE"> F  </i>
   <i type="logical" name="LSCALU"> F  </i>
   <i type="logical" name="LASYNC"> F  </i>
   <i type="logical" name="LORBITALREAL"> F  </i>
  </separator>
  <separator name="miscellaneous" >
   <i type="int" name="IDIOT">     3</i>
   <i type="int" name="PHON_NSTRUCT">    -1</i>
   <i type="logical" name="LMUSIC"> F  </i>
   <v name="POMASS">     10.81100000     12.01100000</v>
   <v name="DARWINR">      0.00000000      0.00000000</v>
   <v name="DARWINV">      1.00000000      1.00000000</v>
   <i type="logical" name="LCORR"> T  </i>
  </separator>
  <i type="logical" name="GGA_COMPAT"> T  </i>
  <i type="logical" name="LBERRY"> F  </i>
  <i type="int" name="ICORELEVEL">     0</i>
  <i type="logical" name="LDAU"> F  </i>
  <i type="int" name="I_CONSTRAINED_M">     0</i>
  <separator name="electronic exchange-correlation" >
   <i type="string" name="GGA">PE</i>
   <i type="int" name="VOSKOWN">     0</i>
   <i type="logical" name="LHFCALC"> F  </i>
   <i type="string" name="PRECFOCK"></i>
   <i type="logical" name="LSYMGRAD"> F  </i>
   <i type="logical" name="LHFONE"> F  </i>
   <i type="logical" name="LRHFCALC"> F  </i>
   <i type="logical" name="LTHOMAS"> F  </i>
   <i type="logical" name="LMODELHF"> F  </i>
   <i type="logical" name="LFOCKACE"> F  </i>
   <i name="ENCUT4O">     -1.00000000</i>
   <i type="int" name="EXXOEP">     0</i>
   <i type="int" name="FOURORBIT">     0</i>
   <i name="AEXX">      0.00000000</i>
   <i name="HFALPHA">      0.00000000</i>
   <i name="MCALPHA">      0.00000000</i>
   <i name="ALDAX">      1.00000000</i>
   <i name="AGGAX">      1.00000000</i>
   <i name="ALDAC">      1.00000000</i>
   <i name="AGGAC">      1.00000000</i>
   <i type="int" name="NKREDX">     1</i>
   <i type="int" name="NKREDY">     1</i>
   <i type="int" name="NKREDZ">     1</i>
   <i type="logical" name="SHIFTRED"> F  </i>
   <i type="logical" name="ODDONLY"> F  </i>
   <i type="logical" name="EVENONLY"> F  </i>
   <i type="int" name="LMAXFOCK">     0</i>
   <i type="int" name="NMAXFOCKAE">     0</i>
   <i type="logical" name="LFOCKAEDFT"> F  </i>
   <i name="HFSCREEN">      0.00000000</i>
   <i name="HFSCREENC">      0.00000000</i>
   <i type="int" name="NBANDSGWLOW">     0</i>
  </separator>
  <separator name="vdW DFT" >
   <i type="logical" name="LUSE_VDW"> F  </i>
   <i name="Zab_VDW">     -0.84910000</i>
   <i name="PARAM1">      0.12340000</i>
   <i name="PARAM2">      1.00000000</i>
   <i name="PARAM3">      0.00000000</i>
  </separator>
  <separator name="model GW" >
   <i type="int" name="MODEL_GW">     0</i>
   <i name="MODEL_EPS0">     12.34957774</i>
   <i name="MODEL_ALPHA">      1.00000000</i>
  </separator>
  <separator name="linear response parameters" >
   <i type="logical" name="LEPSILON"> F  </i>
   <i type="logical" name="LRPA"> F  </i>
   <i type="logical" name="LNABLA"> F  </i>
   <i type="logical" name="LVEL"> F  </i>
   <i name="CSHIFT">      0.10000000</i>
   <i name="OMEGAMAX">     -1.00000000</i>
   <i name="DEG_THRESHOLD">      0.00200000</i>
   <i name="RTIME">     -0.10000000</i>
   <i name="WPLASMAI">      0.00000000</i>
   <v name="DFIELD">      0.00000000      0.00000000      0.00000000</v>
   <v name="WPLASMA">      0.00000000      0.00000000      0.00000000      0.00000000      0.00000000      0.00000000      0.00000000      0.00000000      0.00000000</v>
  </separator>
  <separator name="orbital magnetization" >
   <i type="logical" name="NUCIND"> F  </i>
   <v name="MAGPOS">      0.00000000      0.00000000      0.00000000</v>
   <i type="logical" name="LNICSALL"> T  </i>
   <i type="logical" name="ORBITALMAG"> F  </i>
   <i type="logical" name="LMAGBLOCH"> F  </i>
   <i type="logical" name="LCHIMAG"> F  </i>
   <i type="logical" name="LGAUGE"> T  </i>
   <i type="int" name="MAGATOM">     0</i>
   <v name="MAGDIPOL">      0.00000000      0.00000000      0.00000000</v>
   <v name="AVECCONST">      0.00000000      0.00000000      0.00000000</v>
  </separator>
  <separator name="response functions" >
   <i type="logical" name="LFINITE_TEMPERATURE"> F  </i>
   <i type="logical" name="LADDER"> F  </i>
   <i type="logical" name="LRPAFORCE"> F  </i>
   <i type="logical" name="LFXC"> F  </i>
   <i type="logical" name="LHARTREE"> T  </i>
   <i type="int" name="IBSE">     0</i>
   <v type="int" name="KPOINT">    -1     0     0     0</v>
   <i type="logical" name="LTCTC"> F  </i>
   <i type="logical" name="LTCTE"> F  </i>
   <i type="logical" name="LTETE"> F  </i>
   <i type="logical" name="LTRIPLET"> F  </i>
   <i type="logical" name="LFXCEPS"> F  </i>
   <i type="logical" name="LFXHEG"> F  </i>
   <i type="int" name="NATURALO">     2</i>
   <i type="logical" name="LHOLEGF"> F  </i>
   <i type="logical" name="L2ORDER"> F  </i>
   <i type="logical" name="LDMP1"> F  </i>
   <i type="logical" name="LMP2LT"> F  </i>
   <i type="logical" name="LSMP2LT"> F  </i>
   <i type="logical" name="LGWLF"> F  </i>
   <i name="ENCUTGW">     -2.00000000</i>
   <i name="ENCUTGWSOFT">     -2.00000000</i>
   <i name="ENCUTLF">     -1.00000000</i>
   <i type="logical" name="LESF_SPLINES"> F  </i>
   <i type="int" name="LMAXMP2">    -1</i>
   <i name="SCISSOR">      0.00000000</i>
   <i type="int" name="NOMEGA">     0</i>
   <i type="int" name="NOMEGAR">     0</i>
   <i type="int" name="NBANDSGW">    -1</i>
   <i type="int" name="NBANDSO">    -1</i>
   <i type="int" name="NBANDSV">    -1</i>
   <i type="int" name="NELMGW">     1</i>
   <i type="int" name="NELMHF">     1</i>
   <i type="int" name="DIM">     3</i>
   <i type="int" name="IESPILON">     4</i>
   <i type="int" name="ANTIRES">     0</i>
   <i name="OMEGAMAX">    -30.00000000</i>
   <i name="OMEGAMIN">    -30.00000000</i>
   <i name="OMEGATL">   -200.00000000</i>
   <i type="int" name="OMEGAGRID">     0</i>
   <i name="CSHIFT">     -0.10000000</i>
   <i type="logical" name="LSELFENERGY"> F  </i>
   <i type="logical" name="LSPECTRAL"> F  </i>
   <i type="logical" name="LSPECTRALGW"> F  </i>
   <i type="logical" name="LSINGLES"> F  </i>
   <i type="logical" name="LFERMIGW"> F  </i>
   <i type="logical" name="ODDONLYGW"> F  </i>
   <i type="logical" name="EVENONLYGW"> F  </i>
   <i type="int" name="NKREDLFX">     1</i>
   <i type="int" name="NKREDLFY">     1</i>
   <i type="int" name="NKREDLFZ">     1</i>
   <i type="int" name="MAXMEM">  2800</i>
   <i type="int" name="TELESCOPE">     0</i>
   <i type="int" name="NTAUPAR">    -1</i>
   <i type="int" name="NOMEGAPAR">    -1</i>
   <i name="DAMP_NEWTON">      0.80000001</i>
   <i name="LAMBDA">      1.00000000</i>
  </separator>
  <separator name="External order field" >
   <i name="OFIELD_KAPPA">      0.00000000</i>
   <v name="OFIELD_K">      0.00000000      0.00000000      0.00000000</v>
   <i name="OFIELD_Q6_NEAR">      0.00000000</i>
   <i name="OFIELD_Q6_FAR">      0.00000000</i>
   <i name="OFIELD_A">      0.00000000</i>
  </separator>
  <separator name="optional k-points parameters" >
   <i type="int" name="KPOINTS_OPT_MODE">     1</i>
   <i type="logical" name="LKPOINTS_OPT"> F  </i>
  </separator>
  <separator name="solvation model" >
   <i type="logical" name="LSOL"> F  </i>
  </separator>
 </parameters>
 <atominfo>
  <atoms>      16 </atoms>
  <types>       2 </types>
  <array name="atoms" >
   <dimension dim="1">ion</dimension>
   <field type="string">element</field>
   <field type="int">atomtype</field>
   <set>
    <rc><c>B </c><c>   1</c></rc>
    <rc><c>B </c><c>   1</c></rc>
    <rc><c>C </c><c>   2</c></rc>
    <rc><c>C </c><c>   2</c></rc>
    <rc><c>C </c><c>   2</c></rc>
    <rc><c>C </c><c>   2</c></rc>
    <rc><c>C </c><c>   2</c></rc>
    <rc><c>C </c><c>   2</c></rc>
    <rc><c>C </c><c>   2</c></rc>
    <rc><c>C </c><c>   2</c></rc>
    <rc><c>C </c><c>   2</c></rc>
    <rc><c>C </c><c>   2</c></rc>
    <rc><c>C </c><c>   2</c></rc>
    <rc><c>C </c><c>   2</c></rc>
    <rc><c>C </c><c>   2</c></rc>
    <rc><c>C </c><c>   2</c></rc>
   </set>
  </array>
  <array name="atomtypes" >
   <dimension dim="1">type</dimension>
   <field type="int">atomspertype</field>
   <field type="string">element</field>
   <field>mass</field>
   <field>valence</field>
   <field type="string">pseudopotential</field>
   <set>
    <rc><c>   2</c><c>B </c><c>     10.81100000</c><c>      3.00000000</c><c>  PAW_PBE B 06Sep2000                   </c></rc>
    <rc><c>  14</c><c>C </c><c>     12.01100000</c><c>      4.00000000</c><c>  PAW_PBE C 08Apr2002                   </c></rc>
   </set>
  </array>
 </atominfo>
 <structure name="initialpos" >
  <crystal>
   <varray name="basis" >
    <v>       4.36043791       2.51750000       0.00000000 </v>
    <v>      -4.36043791       2.51750000       0.00000000 </v>
    <v>       0.00000000       0.00000000      15.00000000 </v>
   </varray>
   <i name="volume">    329.32207301 </i>
   <varray name="rec_basis" >
    <v>       0.11466738       0.19860973       0.00000000 </v>
    <v>      -0.11466738       0.19860973       0.00000000 </v>
    <v>       0.00000000       0.00000000       0.06666667 </v>
   </varray>
  </crystal>
  <varray name="positions" >
   <v>       0.33833034       0.66916432       0.10000000 </v>
   <v>       0.67165522       0.33584146       0.10000000 </v>
   <v>       0.16373946       0.31999962       0.10000000 </v>
   <v>       0.32250218       0.16126397       0.10000000 </v>
   <v>       0.16376430       0.84376384       0.10000000 </v>
   <v>       0.84623863       0.16123684       0.10000000 </v>
   <v>       0.68749850       0.84373000       0.10000000 </v>
   <v>       0.84626736       0.68499594       0.10000000 </v>
   <v>       0.24999933       0.24999967       0.32633333 </v>
   <v>       0.41666633       0.08333267       0.32633333 </v>
   <v>       0.24999933       0.74999967       0.32633333 </v>
   <v>       0.41666633       0.58333267       0.32633333 </v>
   <v>       0.74999933       0.24999967       0.32633333 </v>
   <v>       0.91666633       0.08333267       0.32633333 </v>
   <v>       0.74999933       0.74999967       0.32633333 </v>
   <v>       0.91666633       0.58333267       0.32633333 </v>
  </varray>
 </structure>
 <calculation>
  <scstep>
   <time name="dav">    5.66    5.72</time>
   <time name="total">    5.71    5.77</time>
   <energy>
    <i name="alphaZ">     62.76338497 </i>
    <i name="ewald">   5460.06927073 </i>
    <i name="hartreedc">  -7276.65140646 </i>
    <i name="XCdc">    199.97461077 </i>
    <i name="pawpsdc">   1604.28699987 </i>
    <i name="pawaedc">  -1610.37247880 </i>
    <i name="eentropy">     -0.01858453 </i>
    <i name="bandstr">   -382.35001464 </i>
    <i name="atom">   2202.35892741 </i>
    <i name="e_fr_energy">    260.06070933 </i>
    <i name="e_wo_entrp">    260.07929385 </i>
    <i name="e_0_energy">    260.07000159 </i>
   </energy>
  </scstep>
  <scstep>
   <time name="dav">    8.85    8.93</time>
   <time name="total">    8.85    8.93</time>
   <energy>
    <i name="e_fr_energy">   -130.19566907 </i>
    <i name="e_wo_entrp">   -130.18446268 </i>
    <i name="e_0_energy">   -130.19006588 </i>
   </energy>
  </scstep>
  <scstep>
   <time name="dav">   11.03   11.11</time>
   <time name="total">   11.03   11.11</time>
   <energy>
    <i name="e_fr_energy">   -145.87620598 </i>
    <i name="e_wo_entrp">   -145.86935706 </i>
    <i name="e_0_energy">   -145.87278152 </i>
   </energy>
  </scstep>
  <scstep>
   <time name="dav">    9.22    9.30</time>
   <time name="total">    9.22    9.30</time>
   <energy>
    <i name="e_fr_energy">   -145.91573472 </i>
    <i name="e_wo_entrp">   -145.90887729 </i>
    <i name="e_0_energy">   -145.91230600 </i>
   </energy>
  </scstep>
  <scstep>
   <time name="dav">   10.43   10.49</time>
   <time name="total">   10.69   10.76</time>
   <energy>
    <i name="e_fr_energy">   -145.91581518 </i>
    <i name="e_wo_entrp">   -145.90895787 </i>
    <i name="e_0_energy">   -145.91238652 </i>
   </energy>
  </scstep>
  <scstep>
   <time name="dav">   10.56   10.64</time>
   <time name="total">   11.01   11.11</time>
   <energy>
    <i name="e_fr_energy">   -107.25049868 </i>
    <i name="e_wo_entrp">   -107.22931472 </i>
    <i name="e_0_energy">   -107.23990670 </i>
   </energy>
  </scstep>
  <scstep>
   <time name="dav">    9.97   10.03</time>
   <time name="total">   10.42   10.50</time>
   <energy>
    <i name="e_fr_energy">   -114.39968298 </i>
    <i name="e_wo_entrp">   -114.38208586 </i>
    <i name="e_0_energy">   -114.39088442 </i>
   </energy>
  </scstep>
  <scstep>
   <time name="dav">   11.20   11.27</time>
   <time name="total">   11.64   11.73</time>
   <energy>
    <i name="e_fr_energy">   -123.57900779 </i>
    <i name="e_wo_entrp">   -123.57177360 </i>
    <i name="e_0_energy">   -123.57539070 </i>
   </energy>
  </scstep>
  <scstep>
   <time name="dav">    7.17    7.22</time>
   <time name="total">    7.62    7.68</time>
   <energy>
    <i name="e_fr_energy">   -131.45246551 </i>
    <i name="e_wo_entrp">   -131.44738074 </i>
    <i name="e_0_energy">   -131.44992312 </i>
   </energy>
  </scstep>
  <scstep>
   <time name="dav">    9.39    9.44</time>
   <time name="total">    9.84    9.91</time>
   <energy>
    <i name="e_fr_energy">   -138.59241394 </i>
    <i name="e_wo_entrp">   -138.59032704 </i>
    <i name="e_0_energy">   -138.59137049 </i>
   </energy>
  </scstep>
  <scstep>
   <time name="dav">    9.08    9.14</time>
   <time name="total">    9.52    9.59</time>
   <energy>
    <i name="e_fr_energy">   -140.02542340 </i>
    <i name="e_wo_entrp">   -140.02354166 </i>
    <i name="e_0_energy">   -140.02448253 </i>
   </energy>
  </scstep>
  <scstep>
   <time name="dav">    8.54    8.59</time>
   <time name="total">    8.98    9.04</time>
   <energy>
    <i name="e_fr_energy">   -140.28146630 </i>
    <i name="e_wo_entrp">   -140.27973547 </i>
    <i name="e_0_energy">   -140.28060089 </i>
   </energy>
  </scstep>
  <scstep>
   <time name="dav">    7.16    7.22</time>
   <time name="total">    7.61    7.68</time>
   <energy>
    <i name="e_fr_energy">   -140.33568286 </i>
    <i name="e_wo_entrp">   -140.33373553 </i>
    <i name="e_0_energy">   -140.33470919 </i>
   </energy>
  </scstep>
  <scstep>
   <time name="dav">    7.98    8.03</time>
   <time name="total">    8.43    8.50</time>
   <energy>
    <i name="e_fr_energy">   -140.36012158 </i>
    <i name="e_wo_entrp">   -140.35801254 </i>
    <i name="e_0_energy">   -140.35906706 </i>
   </energy>
  </scstep>
  <scstep>
   <time name="dav">    8.45    8.50</time>
   <time name="total">    8.89    8.96</time>
   <energy>
    <i name="e_fr_energy">   -140.36925321 </i>
    <i name="e_wo_entrp">   -140.36704390 </i>
    <i name="e_0_energy">   -140.36814856 </i>
   </energy>
  </scstep>
  <scstep>
   <time name="dav">    6.22    6.25</time>
   <time name="total">    6.66    6.71</time>
   <energy>
    <i name="e_fr_energy">   -140.37065324 </i>
    <i name="e_wo_entrp">   -140.36841793 </i>
    <i name="e_0_energy">   -140.36953558 </i>
   </energy>
  </scstep>
  <scstep>
   <time name="dav">    6.52    6.57</time>
   <time name="total">    6.96    7.03</time>
   <energy>
    <i name="e_fr_energy">   -140.37241657 </i>
    <i name="e_wo_entrp">   -140.37018282 </i>
    <i name="e_0_energy">   -140.37129969 </i>
   </energy>
  </scstep>
  <scstep>
   <time name="dav">    6.63    6.67</time>
   <time name="total">    7.07    7.13</time>
   <energy>
    <i name="e_fr_energy">   -140.37346960 </i>
    <i name="e_wo_entrp">   -140.37125043 </i>
    <i name="e_0_energy">   -140.37236002 </i>
   </energy>
  </scstep>
  <scstep>
   <time name="dav">    7.64    7.68</time>
   <time name="total">    8.08    8.13</time>
   <energy>
    <i name="e_fr_energy">   -140.37399048 </i>
    <i name="e_wo_entrp">   -140.37177540 </i>
    <i name="e_0_energy">   -140.37288294 </i>
   </energy>
  </scstep>
  <scstep>
   <time name="dav">    7.06    7.11</time>
   <time name="total">    7.51    7.56</time>
   <energy>
    <i name="e_fr_energy">   -140.37413813 </i>
    <i name="e_wo_entrp">   -140.37191597 </i>
    <i name="e_0_energy">   -140.37302705 </i>
   </energy>
  </scstep>
  <scstep>
   <time name="dav">    7.54    7.58</time>
   <time name="total">    7.98    8.04</time>
   <energy>
    <i name="e_fr_energy">   -140.37418362 </i>
    <i name="e_wo_entrp">   -140.37195642 </i>
    <i name="e_0_energy">   -140.37307002 </i>
   </energy>
  </scstep>
  <scstep>
   <time name="dav">   10.60   10.66</time>
   <time name="total">   11.04   11.12</time>
   <energy>
    <i name="e_fr_energy">   -140.37418979 </i>
    <i name="e_wo_entrp">   -140.37196223 </i>
    <i name="e_0_energy">   -140.37307601 </i>
   </energy>
  </scstep>
  <scstep>
   <time name="dav">    8.81    8.86</time>
   <time name="total">    9.25    9.31</time>
   <energy>
    <i name="e_fr_energy">   -140.37419801 </i>
    <i name="e_wo_entrp">   -140.37197004 </i>
    <i name="e_0_energy">   -140.37308402 </i>
   </energy>
  </scstep>
  <scstep>
   <time name="dav">    9.56    9.61</time>
   <time name="total">    9.99   10.06</time>
   <energy>
    <i name="e_fr_energy">   -140.37420179 </i>
    <i name="e_wo_entrp">   -140.37197404 </i>
    <i name="e_0_energy">   -140.37308791 </i>
   </energy>
  </scstep>
  <scstep>
   <time name="dav">    8.69    8.74</time>
   <time name="total">    9.13    9.20</time>
   <energy>
    <i name="e_fr_energy">   -140.37420355 </i>
    <i name="e_wo_entrp">   -140.37197634 </i>
    <i name="e_0_energy">   -140.37308994 </i>
   </energy>
  </scstep>
  <scstep>
   <time name="dav">    8.31    8.36</time>
   <time name="total">    8.76    8.82</time>
   <energy>
    <i name="e_fr_energy">   -140.37420457 </i>
    <i name="e_wo_entrp">   -140.37197761 </i>
    <i name="e_0_energy">   -140.37309109 </i>
   </energy>
  </scstep>
  <scstep>
   <time name="dav">    7.44    7.49</time>
   <time name="total">    7.48    7.52</time>
   <energy>
    <i name="alphaZ">     62.76338497 </i>
    <i name="ewald">   5460.06927073 </i>
    <i name="hartreedc">  -7510.37964427 </i>
    <i name="XCdc">    206.65412513 </i>
    <i name="pawpsdc">   6365.09720927 </i>
    <i name="pawaedc">  -6373.13002489 </i>
    <i name="eentropy">     -0.00222695 </i>
    <i name="bandstr">   -553.80522630 </i>
    <i name="atom">   2202.35892741 </i>
    <i name="e_fr_energy">   -140.37420490 </i>
    <i name="e_wo_entrp">   -140.37197795 </i>
    <i name="e_0_energy">   -140.37309142 </i>
   </energy>
  </scstep>
  <structure>
   <crystal>
    <varray name="basis" >
     <v>       4.36043791       2.51750000       0.00000000 </v>
     <v>      -4.36043791       2.51750000       0.00000000 </v>
     <v>       0.00000000       0.00000000      15.00000000 </v>
    </varray>
    <i name="volume">    329.32207301 </i>
    <varray name="rec_basis" >
     <v>       0.11466738       0.19860973       0.00000000 </v>
     <v>      -0.11466738       0.19860973       0.00000000 </v>
     <v>       0.00000000       0.00000000       0.06666667 </v>
    </varray>
   </crystal>
   <varray name="positions" >
    <v>       0.33833034       0.66916432       0.10000000 </v>
    <v>       0.67165522       0.33584146       0.10000000 </v>
    <v>       0.16373946       0.31999962       0.10000000 </v>
    <v>       0.32250218       0.16126397       0.10000000 </v>
    <v>       0.16376430       0.84376384       0.10000000 </v>
    <v>       0.84623863       0.16123684       0.10000000 </v>
    <v>       0.68749850       0.84373000       0.10000000 </v>
    <v>       0.84626736       0.68499594       0.10000000 </v>
    <v>       0.24999933       0.24999967       0.32633333 </v>
    <v>       0.41666633       0.08333267       0.32633333 </v>
    <v>       0.24999933       0.74999967       0.32633333 </v>
    <v>       0.41666633       0.58333267       0.32633333 </v>
    <v>       0.74999933       0.24999967       0.32633333 </v>
    <v>       0.91666633       0.08333267       0.32633333 </v>
    <v>       0.74999933       0.74999967       0.32633333 </v>
    <v>       0.91666633       0.58333267       0.32633333 </v>
   </varray>
  </structure>
  <varray name="forces" >
   <v>       0.01961892       0.00014976       0.04421988 </v>
   <v>       0.02500169      -0.00005586       0.02589025 </v>
   <v>      -0.31692940       0.55417024      -0.01738243 </v>
   <v>       0.30246605       0.53038917      -0.00771383 </v>
   <v>       0.60848456      -0.00031075      -0.01361980 </v>
   <v>      -0.64128377      -0.00092303      -0.01244914 </v>
   <v>      -0.31776851      -0.55201540      -0.01725268 </v>
   <v>       0.29910866      -0.53107710      -0.00763570 </v>
   <v>       0.02408258      -0.02792331       0.02225487 </v>
   <v>      -0.02827580      -0.02163122       0.01929727 </v>
   <v>      -0.03312193       0.00061263      -0.01977025 </v>
   <v>       0.01945151      -0.00018547      -0.03228172 </v>
   <v>       0.00715370      -0.00045343      -0.03877471 </v>
   <v>       0.03695425      -0.00039342       0.01482231 </v>
   <v>       0.02351802       0.02832637       0.02271347 </v>
   <v>      -0.02846052       0.02132082       0.01768222 </v>
  </varray>
  <varray name="stress" >
   <v>      10.19468147      -0.00453927       0.34958675 </v>
   <v>      -0.00453927       9.99389946      -0.00852502 </v>
   <v>       0.34958678      -0.00852503      -2.25554361 </v>
  </varray>
  <energy>
   <i name="e_fr_energy">   -142.26558952 </i>
   <i name="e_wo_entrp">   -142.26336257 </i>
   <i name="e_0_energy">   -142.26447604 </i>
  </energy>
  <time name="totalsc">  244.85  246.70</time>
 </calculation>
 <calculation>
  <scstep>
   <time name="dav">    5.86    5.90</time>
   <time name="total">    6.29    6.35</time>
   <energy>
    <i name="alphaZ">     62.76338497 </i>
    <i name="ewald">   5450.55387233 </i>
    <i name="hartreedc">  -7503.41639645 </i>
    <i name="XCdc">    206.50313489 </i>
    <i name="pawpsdc">   6365.09816479 </i>
    <i name="pawaedc">  -6373.13098515 </i>
    <i name="eentropy">     -0.00278739 </i>
    <i name="bandstr">   -551.04854033 </i>
    <i name="atom">   2202.35892741 </i>
    <i name="e_fr_energy">   -140.32122494 </i>
    <i name="e_wo_entrp">   -140.31843755 </i>
    <i name="e_0_energy">   -140.31983125 </i>
   </energy>
  </scstep>
  <scstep>
   <time name="dav">   10.68   10.75</time>
   <time name="total">   11.11   11.19</time>
   <energy>
    <i name="e_fr_energy">   -140.27648673 </i>
    <i name="e_wo_entrp">   -140.27352300 </i>
    <i name="e_0_energy">   -140.27500486 </i>
   </energy>
  </scstep>
  <scstep>
   <time name="dav">   10.04   10.10</time>
   <time name="total">   10.47   10.55</time>
   <energy>
    <i name="e_fr_energy">   -140.27203764 </i>
    <i name="e_wo_entrp">   -140.26905467 </i>
    <i name="e_0_energy">   -140.27054615 </i>
   </energy>
  </scstep>
  <scstep>
   <time name="dav">    8.33    9.23</time>
   <time name="total">    8.74    9.66</time>
   <energy>
    <i name="e_fr_energy">   -140.27194900 </i>
    <i name="e_wo_entrp">   -140.26897706 </i>
    <i name="e_0_energy">   -140.27046303 </i>
   </energy>
  </scstep>
  <scstep>
   <time name="dav">    8.28    8.32</time>
   <time name="total">    8.70    8.76</time>
   <energy>
    <i name="e_fr_energy">   -140.27194891 </i>
    <i name="e_wo_entrp">   -140.26900177 </i>
    <i name="e_0_energy">   -140.27047534 </i>
   </energy>
  </scstep>
  <scstep>
   <time name="dav">    9.69    9.75</time>
   <time name="total">   10.11   10.18</time>
   <energy>
    <i name="e_fr_energy">   -140.27195430 </i>
    <i name="e_wo_entrp">   -140.26900385 </i>
    <i name="e_0_energy">   -140.27047907 </i>
   </energy>
  </scstep>
  <scstep>
   <time name="dav">    8.64    8.69</time>
   <time name="total">    9.06    9.13</time>
   <energy>
    <i name="e_fr_energy">   -140.27196649 </i>
    <i name="e_wo_entrp">   -140.26901237 </i>
    <i name="e_0_energy">   -140.27048943 </i>
   </energy>
  </scstep>
  <scstep>
   <time name="dav">    9.41    9.47</time>
   <time name="total">    9.83    9.90</time>
   <energy>
    <i name="e_fr_energy">   -140.27197643 </i>
    <i name="e_wo_entrp">   -140.26902354 </i>
    <i name="e_0_energy">   -140.27049998 </i>
   </energy>
  </scstep>
  <scstep>
   <time name="dav">    7.21    7.26</time>
   <time name="total">    7.63    7.69</time>
   <energy>
    <i name="e_fr_energy">   -140.27199548 </i>
    <i name="e_wo_entrp">   -140.26904472 </i>
    <i name="e_0_energy">   -140.27052010 </i>
   </energy>
  </scstep>
  <scstep>
   <time name="dav">    9.86    9.92</time>
   <time name="total">   10.28   10.35</time>
   <energy>
    <i name="e_fr_energy">   -140.27200233 </i>
    <i name="e_wo_entrp">   -140.26905167 </i>
    <i name="e_0_energy">   -140.27052700 </i>
   </energy>
  </scstep>
  <scstep>
   <time name="dav">    7.00    7.04</time>
   <time name="total">    7.42    7.47</time>
   <energy>
    <i name="e_fr_energy">   -140.27200956 </i>
    <i name="e_wo_entrp">   -140.26905891 </i>
    <i name="e_0_energy">   -140.27053423 </i>
   </energy>
  </scstep>
  <scstep>
   <time name="dav">    6.84    6.88</time>
   <time name="total">    7.26    7.32</time>
   <energy>
    <i name="e_fr_energy">   -140.27201181 </i>
    <i name="e_wo_entrp">   -140.26906134 </i>
    <i name="e_0_energy">   -140.27053657 </i>
   </energy>
  </scstep>
  <scstep>
   <time name="dav">    8.86    8.92</time>
   <time name="total">    8.89    8.95</time>
   <energy>
    <i name="alphaZ">     62.76338497 </i>
    <i name="ewald">   5450.55387233 </i>
    <i name="hartreedc">  -7500.55072945 </i>
    <i name="XCdc">    206.38993234 </i>
    <i name="pawpsdc">   6321.68267893 </i>
    <i name="pawaedc">  -6329.70060339 </i>
    <i name="eentropy">     -0.00295042 </i>
    <i name="bandstr">   -553.76652506 </i>
    <i name="atom">   2202.35892741 </i>
    <i name="e_fr_energy">   -140.27201235 </i>
    <i name="e_wo_entrp">   -140.26906193 </i>
    <i name="e_0_energy">   -140.27053714 </i>
   </energy>
  </scstep>
  <structure>
   <crystal>
    <varray name="basis" >
     <v>       4.36043791       2.51750000       0.00000000 </v>
     <v>      -4.36043791       2.51750000       0.00000000 </v>
     <v>       0.00000000       0.00000000      15.00000000 </v>
    </varray>
    <i name="volume">    329.32207301 </i>
    <varray name="rec_basis" >
     <v>       0.11466738       0.19860973       0.00000000 </v>
     <v>      -0.11466738       0.19860973       0.00000000 </v>
     <v>       0.00000000       0.00000000       0.06666667 </v>
    </varray>
   </crystal>
   <varray name="positions" >
    <v>       0.33844031       0.66905723       0.10014222 </v>
    <v>       0.67179299       0.33570262       0.10008327 </v>
    <v>       0.16729601       0.32706259       0.09994410 </v>
    <v>       0.32925729       0.16467267       0.09997519 </v>
    <v>       0.16712737       0.84039481       0.09995620 </v>
    <v>       0.84268230       0.16477549       0.09995996 </v>
    <v>       0.68045154       0.84019874       0.09994451 </v>
    <v>       0.84283349       0.67825282       0.09997544 </v>
    <v>       0.24986501       0.24959890       0.32640491 </v>
    <v>       0.41630266       0.08328183       0.32639540 </v>
    <v>       0.24982198       0.75018876       0.32626975 </v>
    <v>       0.41677216       0.58322329       0.32622951 </v>
    <v>       0.75003456       0.24995575       0.32620863 </v>
    <v>       0.91686699       0.08312447       0.32638100 </v>
    <v>       0.75040084       0.75014098       0.32640638 </v>
    <v>       0.91671318       0.58369439       0.32639020 </v>
   </varray>
  </structure>
  <varray name="forces" >
   <v>      -0.06405405       0.00095353       0.00737886 </v>
   <v>      -0.07984422       0.00042806       0.00378301 </v>
   <v>       0.83497398      -1.49960567      -0.00136401 </v>
   <v>      -0.82278163      -1.41299877      -0.00600855 </v>
   <v>      -1.64117357      -0.00198557       0.00296306 </v>
   <v>       1.74020097       0.00590852      -0.00753528 </v>
   <v>       0.83205681       1.49348771      -0.00136957 </v>
   <v>      -0.81771502       1.41411806      -0.00584080 </v>
   <v>      -0.04938573       0.06394390       0.00576122 </v>
   <v>       0.07875934       0.04817043      -0.00169001 </v>
   <v>       0.07938171      -0.00186261      -0.00012681 </v>
   <v>      -0.03557442       0.00062470      -0.00305024 </v>
   <v>      -0.01500582       0.00074837       0.00146564 </v>
   <v>      -0.07093898       0.00101741       0.00184672 </v>
   <v>      -0.04802852      -0.06574869       0.00565997 </v>
   <v>       0.07912916      -0.04719937      -0.00187323 </v>
  </varray>
  <varray name="stress" >
   <v>       2.27049915      -0.02822906       0.29628938 </v>
   <v>      -0.02822905       1.73676733      -0.00702796 </v>
   <v>       0.29628936      -0.00702797      -2.23668444 </v>
  </varray>
  <energy>
   <i name="e_fr_energy">   -142.16852496 </i>
   <i name="e_wo_entrp">   -142.16557454 </i>
   <i name="e_0_energy">   -142.16704975 </i>
  </energy>
  <time name="totalsc">  121.22  122.94</time>
 </calculation>
 <calculation>
  <scstep>
   <time name="dav">    5.84    5.88</time>
   <time name="total">    6.26    6.31</time>
   <energy>
    <i name="alphaZ">     62.76338497 </i>
    <i name="ewald">   5457.25498373 </i>
    <i name="hartreedc">  -7505.32001819 </i>
    <i name="XCdc">    206.49122023 </i>
    <i name="pawpsdc">   6321.67716238 </i>
    <i name="pawaedc">  -6329.69509123 </i>
    <i name="eentropy">     -0.00168765 </i>
    <i name="bandstr">   -555.94234109 </i>
    <i name="atom">   2202.35892741 </i>
    <i name="e_fr_energy">   -140.41345943 </i>
    <i name="e_wo_entrp">   -140.41177179 </i>
    <i name="e_0_energy">   -140.41261561 </i>
   </energy>
  </scstep>
  <scstep>
   <time name="dav">   10.06   10.12</time>
   <time name="total">   10.48   10.56</time>
   <energy>
    <i name="e_fr_energy">   -140.39033139 </i>
    <i name="e_wo_entrp">   -140.38829360 </i>
    <i name="e_0_energy">   -140.38931249 </i>
   </energy>
  </scstep>
  <scstep>
   <time name="dav">   10.38   10.44</time>
   <time name="total">   10.80   10.87</time>
   <energy>
    <i name="e_fr_energy">   -140.38771672 </i>
    <i name="e_wo_entrp">   -140.38535285 </i>
    <i name="e_0_energy">   -140.38653478 </i>
   </energy>
  </scstep>
  <scstep>
   <time name="dav">    8.02    8.06</time>
   <time name="total">    8.44    8.49</time>
   <energy>
    <i name="e_fr_energy">   -140.38760787 </i>
    <i name="e_wo_entrp">   -140.38519971 </i>
    <i name="e_0_energy">   -140.38640379 </i>
   </energy>
  </scstep>
  <scstep>
   <time name="dav">    8.40    8.45</time>
   <time name="total">    8.82    8.88</time>
   <energy>
    <i name="e_fr_energy">   -140.38759903 </i>
    <i name="e_wo_entrp">   -140.38510947 </i>
    <i name="e_0_energy">   -140.38635425 </i>
   </energy>
  </scstep>
  <scstep>
   <time name="dav">    8.34    8.38</time>
   <time name="total">    8.76    8.82</time>
   <energy>
    <i name="e_fr_energy">   -140.38759569 </i>
    <i name="e_wo_entrp">   -140.38511836 </i>
    <i name="e_0_energy">   -140.38635703 </i>
   </energy>
  </scstep>
  <scstep>
   <time name="dav">   10.60   10.66</time>
   <time name="total">   11.02   11.09</time>
   <energy>
    <i name="e_fr_energy">   -140.38760072 </i>
    <i name="e_wo_entrp">   -140.38512222 </i>
    <i name="e_0_energy">   -140.38636147 </i>
   </energy>
  </scstep>
  <scstep>
   <time name="dav">    9.94   10.00</time>
   <time name="total">   10.36   10.43</time>
   <energy>
    <i name="e_fr_energy">   -140.38760540 </i>
    <i name="e_wo_entrp">   -140.38512430 </i>
    <i name="e_0_energy">   -140.38636485 </i>
   </energy>
  </scstep>
  <scstep>
   <time name="dav">    9.02    9.07</time>
   <time name="total">    9.45    9.52</time>
   <energy>
    <i name="e_fr_energy">   -140.38761408 </i>
    <i name="e_wo_entrp">   -140.38512937 </i>
    <i name="e_0_energy">   -140.38637173 </i>
   </energy>
  </scstep>
  <scstep>
   <time name="dav">    7.19    7.23</time>
   <time name="total">    7.60    7.66</time>
   <energy>
    <i name="e_fr_energy">   -140.38761971 </i>
    <i name="e_wo_entrp">   -140.38513443 </i>
    <i name="e_0_energy">   -140.38637707 </i>
   </energy>
  </scstep>
  <scstep>
   <time name="dav">    6.10    6.13</time>
   <time name="total">    6.52    6.57</time>
   <energy>
    <i name="e_fr_energy">   -140.38762531 </i>
    <i name="e_wo_entrp">   -140.38513965 </i>
    <i name="e_0_energy">   -140.38638248 </i>
   </energy>
  </scstep>
  <scstep>
   <time name="dav">   10.83   10.89</time>
   <time name="total">   10.87   10.93</time>
   <energy>
    <i name="alphaZ">     62.76338497 </i>
    <i name="ewald">   5457.25498373 </i>
    <i name="hartreedc">  -7507.52917706 </i>
    <i name="XCdc">    206.57770007 </i>
    <i name="pawpsdc">   6350.27650947 </i>
    <i name="pawaedc">  -6358.30406016 </i>
    <i name="eentropy">     -0.00248583 </i>
    <i name="bandstr">   -553.78340841 </i>
    <i name="atom">   2202.35892741 </i>
    <i name="e_fr_energy">   -140.38762581 </i>
    <i name="e_wo_entrp">   -140.38513997 </i>
    <i name="e_0_energy">   -140.38638289 </i>
   </energy>
  </scstep>
  <structure>
   <crystal>
    <varray name="basis" >
     <v>       4.36043791       2.51750000       0.00000000 </v>
     <v>      -4.36043791       2.51750000       0.00000000 </v>
     <v>       0.00000000       0.00000000      15.00000000 </v>
    </varray>
    <i name="volume">    329.32207301 </i>
    <varray name="rec_basis" >
     <v>       0.11466738       0.19860973       0.00000000 </v>
     <v>      -0.11466738       0.19860973       0.00000000 </v>
     <v>       0.00000000       0.00000000       0.06666667 </v>
    </varray>
   </crystal>
   <varray name="positions" >
    <v>       0.33835973       0.66913570       0.10003801 </v>
    <v>       0.67169204       0.33580435       0.10002226 </v>
    <v>       0.16469005       0.32188739       0.09998506 </v>
    <v>       0.32430767       0.16217503       0.09999337 </v>
    <v>       0.16466317       0.84286338       0.09998829 </v>
    <v>       0.84528811       0.16218264       0.09998930 </v>
    <v>       0.68561501       0.84278618       0.09998517 </v>
    <v>       0.84534956       0.68319366       0.09999344 </v>
    <v>       0.24996343       0.24989255       0.32635246 </v>
    <v>       0.41656913       0.08331908       0.32634992 </v>
    <v>       0.24995193       0.75005021       0.32631634 </v>
    <v>       0.41669462       0.58330343       0.32630558 </v>
    <v>       0.75000875       0.24998793       0.32630000 </v>
    <v>       0.91671996       0.08327702       0.32634607 </v>
    <v>       0.75010665       0.75003744       0.32635286 </v>
    <v>       0.91667885       0.58342935       0.32634853 </v>
   </varray>
  </structure>
  <varray name="forces" >
   <v>      -0.00056529       0.00031434       0.03363552 </v>
   <v>      -0.00032860       0.00002407       0.01956894 </v>
   <v>      -0.00489887      -0.00433048      -0.01288541 </v>
   <v>      -0.00425343       0.00118821      -0.00705546 </v>
   <v>      -0.00436170      -0.00086274      -0.00900823 </v>
   <v>       0.00541421       0.00109715      -0.01087709 </v>
   <v>      -0.00625769       0.00418427      -0.01280298 </v>
   <v>      -0.00521612      -0.00124996      -0.00693610 </v>
   <v>       0.00478150      -0.00342099       0.01789556 </v>
   <v>      -0.00004233      -0.00305205       0.01372141 </v>
   <v>      -0.00289420      -0.00003831      -0.01456474 </v>
   <v>       0.00453713       0.00000999      -0.02460972 </v>
   <v>       0.00148263      -0.00012381      -0.02816226 </v>
   <v>       0.00795435      -0.00004083       0.01138989 </v>
   <v>       0.00472538       0.00325760       0.01820420 </v>
   <v>      -0.00007697       0.00304351       0.01248646 </v>
  </varray>
  <varray name="stress" >
   <v>       7.47868401      -0.01189626       0.33640157 </v>
   <v>      -0.01189624       7.19505308      -0.00811152 </v>
   <v>       0.33640155      -0.00811150      -2.25126301 </v>
  </varray>
  <energy>
   <i name="e_fr_energy">   -142.28073626 </i>
   <i name="e_wo_entrp">   -142.27825043 </i>
   <i name="e_0_energy">   -142.27949335 </i>
  </energy>
  <time name="totalsc">  114.77  115.59</time>
 </calculation>
 <calculation>
  <scstep>
   <time name="dav">    6.24    6.28</time>
   <time name="total">    6.66    6.72</time>
   <energy>
    <i name="alphaZ">     62.76338497 </i>
    <i name="ewald">   5457.25657863 </i>
    <i name="hartreedc">  -7507.53181163 </i>
    <i name="XCdc">    206.57772247 </i>
    <i name="pawpsdc">   6350.28176825 </i>
    <i name="pawaedc">  -6358.30931003 </i>
    <i name="eentropy">     -0.00248553 </i>
    <i name="bandstr">   -553.78240169 </i>
    <i name="atom">   2202.35892741 </i>
    <i name="e_fr_energy">   -140.38762715 </i>
    <i name="e_wo_entrp">   -140.38514162 </i>
    <i name="e_0_energy">   -140.38638439 </i>
   </energy>
  </scstep>
  <scstep>
   <time name="dav">   11.58   11.64</time>
   <time name="total">   11.61   11.67</time>
   <energy>
    <i name="alphaZ">     62.76338497 </i>
    <i name="ewald">   5457.25657863 </i>
    <i name="hartreedc">  -7507.53258807 </i>
    <i name="XCdc">    206.57773927 </i>
    <i name="pawpsdc">   6350.28746167 </i>
    <i name="pawaedc">  -6358.31500483 </i>
    <i name="eentropy">     -0.00248560 </i>
    <i name="bandstr">   -553.78164068 </i>
    <i name="atom">   2202.35892741 </i>
    <i name="e_fr_energy">   -140.38762724 </i>
    <i name="e_wo_entrp">   -140.38514164 </i>
    <i name="e_0_energy">   -140.38638444 </i>
   </energy>
  </scstep>
  <structure>
   <crystal>
    <varray name="basis" >
     <v>       4.36043791       2.51750000       0.00000000 </v>
     <v>      -4.36043791       2.51750000       0.00000000 </v>
     <v>       0.00000000       0.00000000      15.00000000 </v>
    </varray>
    <i name="volume">    329.32207301 </i>
    <varray name="rec_basis" >
     <v>       0.11466738       0.19860973       0.00000000 </v>
     <v>      -0.11466738       0.19860973       0.00000000 </v>
     <v>       0.00000000       0.00000000       0.06666667 </v>
    </varray>
   </crystal>
   <varray name="positions" >
    <v>       0.33835972       0.66913572       0.10003799 </v>
    <v>       0.67169202       0.33580437       0.10002224 </v>
    <v>       0.16468949       0.32188628       0.09998507 </v>
    <v>       0.32430661       0.16217450       0.09999337 </v>
    <v>       0.16466264       0.84286391       0.09998830 </v>
    <v>       0.84528867       0.16218209       0.09998930 </v>
    <v>       0.68561612       0.84278673       0.09998518 </v>
    <v>       0.84535010       0.68319472       0.09999344 </v>
    <v>       0.24996345       0.24989261       0.32635245 </v>
    <v>       0.41656919       0.08331909       0.32634991 </v>
    <v>       0.24995196       0.75005018       0.32631635 </v>
    <v>       0.41669460       0.58330345       0.32630560 </v>
    <v>       0.75000874       0.24998794       0.32630002 </v>
    <v>       0.91671993       0.08327705       0.32634607 </v>
    <v>       0.75010658       0.75003741       0.32635285 </v>
    <v>       0.91667885       0.58342929       0.32634852 </v>
   </varray>
  </structure>
  <varray name="forces" >
   <v>      -0.00055574       0.00031422       0.03364171 </v>
   <v>      -0.00031555       0.00002414       0.01957255 </v>
   <v>      -0.00504317      -0.00407233      -0.01288810 </v>
   <v>      -0.00411240       0.00143117      -0.00705590 </v>
   <v>      -0.00407895      -0.00086261      -0.00901114 </v>
   <v>       0.00511570       0.00109624      -0.01087793 </v>
   <v>      -0.00640177       0.00392726      -0.01280568 </v>
   <v>      -0.00507608      -0.00149323      -0.00693667 </v>
   <v>       0.00478912      -0.00343243       0.01789822 </v>
   <v>      -0.00005586      -0.00305846       0.01372467 </v>
   <v>      -0.00290656      -0.00003795      -0.01456797 </v>
   <v>       0.00454510       0.00000986      -0.02461398 </v>
   <v>       0.00148718      -0.00012401      -0.02816839 </v>
   <v>       0.00796678      -0.00004097       0.01139209 </v>
   <v>       0.00473271       0.00326930       0.01820699 </v>
   <v>      -0.00009053       0.00304979       0.01248953 </v>
  </varray>
  <varray name="stress" >
   <v>       7.48075506      -0.01189671       0.33641203 </v>
   <v>      -0.01189673       7.19709335      -0.00811160 </v>
   <v>       0.33641205      -0.00811162      -2.24982058 </v>
  </varray>
  <energy>
   <i name="e_fr_energy">   -142.28073676 </i>
   <i name="e_wo_entrp">   -142.27825117 </i>
   <i name="e_0_energy">   -142.27949397 </i>
  </energy>
  <time name="totalsc">   23.70   23.86</time>
 </calculation>
 <calculation>
  <scstep>
   <time name="dav">    5.93    5.97</time>
   <time name="total">    6.35    6.41</time>
   <energy>
    <i name="alphaZ">     62.76338497 </i>
    <i name="ewald">   5456.95467608 </i>
    <i name="hartreedc">  -7507.22902070 </i>
    <i name="XCdc">    206.57793872 </i>
    <i name="pawpsdc">   6350.28903773 </i>
    <i name="pawaedc">  -6358.31658215 </i>
    <i name="eentropy">     -0.00248076 </i>
    <i name="bandstr">   -553.78366235 </i>
    <i name="atom">   2202.35892741 </i>
    <i name="e_fr_energy">   -140.38778106 </i>
    <i name="e_wo_entrp">   -140.38530029 </i>
    <i name="e_0_energy">   -140.38654067 </i>
   </energy>
  </scstep>
  <scstep>
   <time name="dav">   10.77   10.83</time>
   <time name="total">   11.19   11.27</time>
   <energy>
    <i name="e_fr_energy">   -140.38778328 </i>
    <i name="e_wo_entrp">   -140.38530586 </i>
    <i name="e_0_energy">   -140.38654457 </i>
   </energy>
  </scstep>
  <scstep>
   <time name="dav">    5.87    5.90</time>
   <time name="total">    6.29    6.34</time>
   <energy>
    <i name="e_fr_energy">   -140.38778637 </i>
    <i name="e_wo_entrp">   -140.38531294 </i>
    <i name="e_0_energy">   -140.38654965 </i>
   </energy>
  </scstep>
  <scstep>
   <time name="dav">   10.93   10.99</time>
   <time name="total">   10.96   11.03</time>
   <energy>
    <i name="alphaZ">     62.76338497 </i>
    <i name="ewald">   5456.95467608 </i>
    <i name="hartreedc">  -7507.21178575 </i>
    <i name="XCdc">    206.57794925 </i>
    <i name="pawpsdc">   6350.28820454 </i>
    <i name="pawaedc">  -6358.31574314 </i>
    <i name="eentropy">     -0.00247326 </i>
    <i name="bandstr">   -553.80092640 </i>
    <i name="atom">   2202.35892741 </i>
    <i name="e_fr_energy">   -140.38778630 </i>
    <i name="e_wo_entrp">   -140.38531304 </i>
    <i name="e_0_energy">   -140.38654967 </i>
   </energy>
  </scstep>
  <structure>
   <crystal>
    <varray name="basis" >
     <v>       4.36043791       2.51750000       0.00000000 </v>
     <v>      -4.36043791       2.51750000       0.00000000 </v>
     <v>       0.00000000       0.00000000      15.00000000 </v>
    </varray>
    <i name="volume">    329.32207301 </i>
    <varray name="rec_basis" >
     <v>       0.11466738       0.19860973       0.00000000 </v>
     <v>      -0.11466738       0.19860973       0.00000000 </v>
     <v>       0.00000000       0.00000000       0.06666667 </v>
    </varray>
   </crystal>
   <varray name="positions" >
    <v>       0.33835988       0.66914069       0.10013061 </v>
    <v>       0.67169100       0.33580578       0.10007613 </v>
    <v>       0.16463953       0.32189099       0.09994958 </v>
    <v>       0.32431247       0.16221247       0.09997396 </v>
    <v>       0.16464309       0.84286934       0.09996348 </v>
    <v>       0.84531463       0.16217401       0.09995937 </v>
    <v>       0.68560385       0.84284197       0.09994992 </v>
    <v>       0.84530703       0.68319292       0.09997435 </v>
    <v>       0.24995773       0.24984113       0.32640172 </v>
    <v>       0.41654318       0.08329424       0.32638771 </v>
    <v>       0.24993757       0.75006397       0.32627624 </v>
    <v>       0.41671635       0.58328185       0.32623783 </v>
    <v>       0.75001482       0.24997981       0.32622246 </v>
    <v>       0.91675761       0.08323869       0.32637743 </v>
    <v>       0.75015647       0.75004209       0.32640297 </v>
    <v>       0.91670345       0.58345538       0.32638292 </v>
   </varray>
  </structure>
  <varray name="forces" >
   <v>      -0.00852363      -0.00100811       0.01555936 </v>
   <v>      -0.00015094       0.00054637       0.01053330 </v>
   <v>       0.00964663       0.00933901      -0.00490731 </v>
   <v>      -0.00312592      -0.00728874      -0.00555089 </v>
   <v>      -0.00672404       0.00087544      -0.00110647 </v>
   <v>      -0.01579962      -0.00124310      -0.00924936 </v>
   <v>       0.00924349      -0.00608546      -0.00481068 </v>
   <v>      -0.00470765       0.00521098      -0.00544864 </v>
   <v>      -0.00099239       0.00613241       0.00773314 </v>
   <v>       0.00680230       0.00547515       0.00057413 </v>
   <v>       0.01259359      -0.00002386      -0.00488148 </v>
   <v>      -0.00170937      -0.00017621      -0.00688998 </v>
   <v>       0.00489986       0.00013946      -0.00436434 </v>
   <v>      -0.00740561      -0.00008312       0.00501435 </v>
   <v>      -0.00089840      -0.00605179       0.00765578 </v>
   <v>       0.00685169      -0.00575845       0.00013908 </v>
  </varray>
  <varray name="stress" >
   <v>       7.44276812      -0.00226152       0.33129346 </v>
   <v>      -0.00226154       7.25681043      -0.00786407 </v>
   <v>       0.33129346      -0.00786410      -2.27414893 </v>
  </varray>
  <energy>
   <i name="e_fr_energy">   -142.28087337 </i>
   <i name="e_wo_entrp">   -142.27840011 </i>
   <i name="e_0_energy">   -142.27963674 </i>
  </energy>
  <time name="totalsc">   40.21   40.50</time>
 </calculation>
 <calculation>
  <scstep>
   <time name="dav">    5.99    6.02</time>
   <time name="total">    6.40    6.45</time>
   <energy>
    <i name="alphaZ">     62.76338497 </i>
    <i name="ewald">   5456.84776932 </i>
    <i name="hartreedc">  -7507.10202319 </i>
    <i name="XCdc">    206.57798568 </i>
    <i name="pawpsdc">   6350.29197133 </i>
    <i name="pawaedc">  -6358.31951154 </i>
    <i name="eentropy">     -0.00247119 </i>
    <i name="bandstr">   -553.80383648 </i>
    <i name="atom">   2202.35892741 </i>
    <i name="e_fr_energy">   -140.38780371 </i>
    <i name="e_wo_entrp">   -140.38533251 </i>
    <i name="e_0_energy">   -140.38656811 </i>
   </energy>
  </scstep>
  <scstep>
   <time name="dav">    9.99   10.05</time>
   <time name="total">   10.41   10.48</time>
   <energy>
    <i name="e_fr_energy">   -140.38780376 </i>
    <i name="e_wo_entrp">   -140.38533390 </i>
    <i name="e_0_energy">   -140.38656883 </i>
   </energy>
  </scstep>
  <scstep>
   <time name="dav">    6.23    6.27</time>
   <time name="total">    6.27    6.31</time>
   <energy>
    <i name="alphaZ">     62.76338497 </i>
    <i name="ewald">   5456.84776932 </i>
    <i name="hartreedc">  -7507.09238846 </i>
    <i name="XCdc">    206.57797803 </i>
    <i name="pawpsdc">   6350.30665688 </i>
    <i name="pawaedc">  -6358.33420145 </i>
    <i name="eentropy">     -0.00246814 </i>
    <i name="bandstr">   -553.81346313 </i>
    <i name="atom">   2202.35892741 </i>
    <i name="e_fr_energy">   -140.38780458 </i>
    <i name="e_wo_entrp">   -140.38533644 </i>
    <i name="e_0_energy">   -140.38657051 </i>
   </energy>
  </scstep>
  <structure>
   <crystal>
    <varray name="basis" >
     <v>       4.36043791       2.51750000       0.00000000 </v>
     <v>      -4.36043791       2.51750000       0.00000000 </v>
     <v>       0.00000000       0.00000000      15.00000000 </v>
    </varray>
    <i name="volume">    329.32207301 </i>
    <varray name="rec_basis" >
     <v>       0.11466738       0.19860973       0.00000000 </v>
     <v>      -0.11466738       0.19860973       0.00000000 </v>
     <v>       0.00000000       0.00000000       0.06666667 </v>
    </varray>
   </crystal>
   <varray name="positions" >
    <v>       0.33835994       0.66914244       0.10016320 </v>
    <v>       0.67169064       0.33580628       0.10009509 </v>
    <v>       0.16462195       0.32189264       0.09993709 </v>
    <v>       0.32431453       0.16222583       0.09996713 </v>
    <v>       0.16463621       0.84287125       0.09995474 </v>
    <v>       0.84532377       0.16217117       0.09994883 </v>
    <v>       0.68559953       0.84286141       0.09993751 </v>
    <v>       0.84529187       0.68319229       0.09996764 </v>
    <v>       0.24995571       0.24982302       0.32641906 </v>
    <v>       0.41653404       0.08328550       0.32640100 </v>
    <v>       0.24993251       0.75006882       0.32626212 </v>
    <v>       0.41672400       0.58327425       0.32621399 </v>
    <v>       0.75001696       0.24997695       0.32619517 </v>
    <v>       0.91677087       0.08322519       0.32638847 </v>
    <v>       0.75017402       0.75004373       0.32642060 </v>
    <v>       0.91671211       0.58346456       0.32639502 </v>
   </varray>
  </structure>
  <varray name="forces" >
   <v>      -0.01144650      -0.00145787       0.00922349 </v>
   <v>      -0.00028673       0.00072147       0.00736560 </v>
   <v>       0.01496079       0.01411391      -0.00205978 </v>
   <v>      -0.00271869      -0.01034010      -0.00500932 </v>
   <v>      -0.00764878       0.00149279       0.00171442 </v>
   <v>      -0.02318568      -0.00208228      -0.00869256 </v>
   <v>       0.01487812      -0.00965419      -0.00196730 </v>
   <v>      -0.00452404       0.00755027      -0.00491566 </v>
   <v>      -0.00324897       0.00970364       0.00409116 </v>
   <v>       0.00941424       0.00869785      -0.00409120 </v>
   <v>       0.01835306      -0.00002082      -0.00145145 </v>
   <v>      -0.00399651      -0.00024533      -0.00063181 </v>
   <v>       0.00616699       0.00023237       0.00406312 </v>
   <v>      -0.01311241      -0.00009541       0.00272383 </v>
   <v>      -0.00309851      -0.00953956       0.00387842 </v>
   <v>       0.00949363      -0.00907674      -0.00424095 </v>
  </varray>
  <varray name="stress" >
   <v>       7.42953657       0.00105038       0.32934421 </v>
   <v>       0.00105035       7.27682499      -0.00778667 </v>
   <v>       0.32934423      -0.00778665      -2.28068429 </v>
  </varray>
  <energy>
   <i name="e_fr_energy">   -142.28088381 </i>
   <i name="e_wo_entrp">   -142.27841567 </i>
   <i name="e_0_energy">   -142.27964974 </i>
  </energy>
  <time name="totalsc">   28.48   28.69</time>
 </calculation>
 <calculation>
  <scstep>
   <time name="dav">    6.31    6.35</time>
   <time name="total">    6.73    6.78</time>
   <energy>
    <i name="alphaZ">     62.76338497 </i>
    <i name="ewald">   5456.48236416 </i>
    <i name="hartreedc">  -7506.72596313 </i>
    <i name="XCdc">    206.57794916 </i>
    <i name="pawpsdc">   6350.30376441 </i>
    <i name="pawaedc">  -6358.33130846 </i>
    <i name="eentropy">     -0.00246274 </i>
    <i name="bandstr">   -553.81442993 </i>
    <i name="atom">   2202.35892741 </i>
    <i name="e_fr_energy">   -140.38777414 </i>
    <i name="e_wo_entrp">   -140.38531140 </i>
    <i name="e_0_energy">   -140.38654277 </i>
   </energy>
  </scstep>
  <scstep>
   <time name="dav">    6.14    6.18</time>
   <time name="total">    6.56    6.61</time>
   <energy>
    <i name="e_fr_energy">   -140.38777458 </i>
    <i name="e_wo_entrp">   -140.38531474 </i>
    <i name="e_0_energy">   -140.38654466 </i>
   </energy>
  </scstep>
  <scstep>
   <time name="dav">    7.10    7.14</time>
   <time name="total">    7.52    7.57</time>
   <energy>
    <i name="e_fr_energy">   -140.38777382 </i>
    <i name="e_wo_entrp">   -140.38531698 </i>
    <i name="e_0_energy">   -140.38654540 </i>
   </energy>
  </scstep>
  <scstep>
   <time name="dav">   10.70   10.76</time>
   <time name="total">   10.73   10.79</time>
   <energy>
    <i name="alphaZ">     62.76338497 </i>
    <i name="ewald">   5456.48236416 </i>
    <i name="hartreedc">  -7506.70209443 </i>
    <i name="XCdc">    206.57785011 </i>
    <i name="pawpsdc">   6350.14851862 </i>
    <i name="pawaedc">  -6358.17602961 </i>
    <i name="eentropy">     -0.00245627 </i>
    <i name="bandstr">   -553.83823882 </i>
    <i name="atom">   2202.35892741 </i>
    <i name="e_fr_energy">   -140.38777386 </i>
    <i name="e_wo_entrp">   -140.38531759 </i>
    <i name="e_0_energy">   -140.38654572 </i>
   </energy>
  </scstep>
  <structure>
   <crystal>
    <varray name="basis" >
     <v>       4.36043791       2.51750000       0.00000000 </v>
     <v>      -4.36043791       2.51750000       0.00000000 </v>
     <v>       0.00000000       0.00000000      15.00000000 </v>
    </varray>
    <i name="volume">    329.32207301 </i>
    <varray name="rec_basis" >
     <v>       0.11466738       0.19860973       0.00000000 </v>
     <v>      -0.11466738       0.19860973       0.00000000 </v>
     <v>       0.00000000       0.00000000       0.06666667 </v>
    </varray>
   </crystal>
   <varray name="positions" >
    <v>       0.33828945       0.66919073       0.10024988 </v>
    <v>       0.67169486       0.33581495       0.10015140 </v>
    <v>       0.16478894       0.32194360       0.09990821 </v>
    <v>       0.32421407       0.16217349       0.09993992 </v>
    <v>       0.16459805       0.84292646       0.09994381 </v>
    <v>       0.84520509       0.16226491       0.09990404 </v>
    <v>       0.68558232       0.84273726       0.09990905 </v>
    <v>       0.84530738       0.68328008       0.09994091 </v>
    <v>       0.25002054       0.24989125       0.32646277 </v>
    <v>       0.41664101       0.08329807       0.32641330 </v>
    <v>       0.25001581       0.74998477       0.32623205 </v>
    <v>       0.41671565       0.58327841       0.32616854 </v>
    <v>       0.75005407       0.24994260       0.32615720 </v>
    <v>       0.91672801       0.08326594       0.32641665 </v>
    <v>       0.75010696       0.74997890       0.32646424 </v>
    <v>       0.91669647       0.58335393       0.32640469 </v>
   </varray>
  </structure>
  <varray name="forces" >
   <v>       0.01148689       0.00448656      -0.00604579 </v>
   <v>      -0.02494245      -0.00275725      -0.00428303 </v>
   <v>      -0.05207754      -0.03587164       0.00127679 </v>
   <v>       0.01678775       0.02472537       0.00083297 </v>
   <v>       0.00355672      -0.00685941       0.00490645 </v>
   <v>       0.05649222       0.00880622      -0.00308346 </v>
   <v>      -0.05225360       0.02203492       0.00142715 </v>
   <v>       0.02108110      -0.01422314       0.00090089 </v>
   <v>       0.00836177      -0.01340979      -0.00571716 </v>
   <v>      -0.00520013      -0.01171370      -0.00790640 </v>
   <v>      -0.02096445      -0.00020304       0.00332252 </v>
   <v>       0.01355219       0.00034307       0.01289763 </v>
   <v>      -0.00420821      -0.00054630       0.01511707 </v>
   <v>       0.02547304       0.00014159      -0.00006656 </v>
   <v>       0.00813043       0.01275980      -0.00608247 </v>
   <v>      -0.00527574       0.01228674      -0.00749659 </v>
  </varray>
  <varray name="stress" >
   <v>       7.69538995      -0.05067689       0.32825219 </v>
   <v>      -0.05067692       7.01305069      -0.00769205 </v>
   <v>       0.32825221      -0.00769204      -2.29603329 </v>
  </varray>
  <energy>
   <i name="e_fr_energy">   -142.28082598 </i>
   <i name="e_wo_entrp">   -142.27836971 </i>
   <i name="e_0_energy">   -142.27959784 </i>
  </energy>
  <time name="totalsc">   36.96   37.22</time>
 </calculation>
 <calculation>
  <scstep>
   <time name="dav">    6.82    6.87</time>
   <time name="total">    7.24    7.30</time>
   <energy>
    <i name="alphaZ">     62.76338497 </i>
    <i name="ewald">   5456.71816421 </i>
    <i name="hartreedc">  -7506.93254575 </i>
    <i name="XCdc">    206.57783865 </i>
    <i name="pawpsdc">   6350.20778548 </i>
    <i name="pawaedc">  -6358.23531304 </i>
    <i name="eentropy">     -0.00245901 </i>
    <i name="bandstr">   -553.84362222 </i>
    <i name="atom">   2202.35892741 </i>
    <i name="e_fr_energy">   -140.38783929 </i>
    <i name="e_wo_entrp">   -140.38538028 </i>
    <i name="e_0_energy">   -140.38660978 </i>
   </energy>
  </scstep>
  <scstep>
   <time name="dav">    6.09    6.13</time>
   <time name="total">    6.51    6.56</time>
   <energy>
    <i name="e_fr_energy">   -140.38783816 </i>
    <i name="e_wo_entrp">   -140.38537749 </i>
    <i name="e_0_energy">   -140.38660783 </i>
   </energy>
  </scstep>
  <scstep>
   <time name="dav">    6.16    6.20</time>
   <time name="total">    6.57    6.64</time>
   <energy>
    <i name="e_fr_energy">   -140.38783767 </i>
    <i name="e_wo_entrp">   -140.38537534 </i>
    <i name="e_0_energy">   -140.38660651 </i>
   </energy>
  </scstep>
  <scstep>
   <time name="dav">   10.11   10.18</time>
   <time name="total">   10.15   10.22</time>
   <energy>
    <i name="alphaZ">     62.76338497 </i>
    <i name="ewald">   5456.71816421 </i>
    <i name="hartreedc">  -7506.93917448 </i>
    <i name="XCdc">    206.57784062 </i>
    <i name="pawpsdc">   6350.36323409 </i>
    <i name="pawaedc">  -6358.39079114 </i>
    <i name="eentropy">     -0.00246255 </i>
    <i name="bandstr">   -553.83696096 </i>
    <i name="atom">   2202.35892741 </i>
    <i name="e_fr_energy">   -140.38783784 </i>
    <i name="e_wo_entrp">   -140.38537529 </i>
    <i name="e_0_energy">   -140.38660657 </i>
   </energy>
  </scstep>
  <structure>
   <crystal>
    <varray name="basis" >
     <v>       4.36043791       2.51750000       0.00000000 </v>
     <v>      -4.36043791       2.51750000       0.00000000 </v>
     <v>       0.00000000       0.00000000      15.00000000 </v>
    </varray>
    <i name="volume">    329.32207301 </i>
    <varray name="rec_basis" >
     <v>       0.11466738       0.19860973       0.00000000 </v>
     <v>      -0.11466738       0.19860973       0.00000000 </v>
     <v>       0.00000000       0.00000000       0.06666667 </v>
    </varray>
   </crystal>
   <varray name="positions" >
    <v>       0.33833493       0.66915958       0.10019396 </v>
    <v>       0.67169214       0.33580935       0.10011507 </v>
    <v>       0.16468121       0.32191072       0.09992685 </v>
    <v>       0.32427888       0.16220725       0.09995747 </v>
    <v>       0.16462267       0.84289084       0.09995087 </v>
    <v>       0.84528166       0.16220443       0.09993294 </v>
    <v>       0.68559342       0.84281735       0.09992741 </v>
    <v>       0.84529737       0.68322344       0.09995815 </v>
    <v>       0.24997871       0.24984723       0.32643457 </v>
    <v>       0.41657199       0.08328996       0.32640537 </v>
    <v>       0.24996207       0.75003900       0.32625145 </v>
    <v>       0.41672104       0.58327573       0.32619786 </v>
    <v>       0.75003013       0.24996476       0.32618170 </v>
    <v>       0.91675566       0.08323965       0.32639847 </v>
    <v>       0.75015022       0.75002073       0.32643609 </v>
    <v>       0.91670656       0.58342531       0.32639845 </v>
   </varray>
  </structure>
  <varray name="forces" >
   <v>      -0.00322475       0.00064435       0.00379948 </v>
   <v>      -0.00881758      -0.00049832       0.00318495 </v>
   <v>      -0.00908254      -0.00394252      -0.00092284 </v>
   <v>       0.00420814       0.00198110      -0.00301001 </v>
   <v>      -0.00389074      -0.00149324       0.00285458 </v>
   <v>       0.00526764       0.00182688      -0.00692316 </v>
   <v>      -0.00915370       0.00185102      -0.00081812 </v>
   <v>       0.00458723      -0.00002696      -0.00292020 </v>
   <v>       0.00109928       0.00123926       0.00079424 </v>
   <v>       0.00404699       0.00119728      -0.00536626 </v>
   <v>       0.00401348      -0.00008592       0.00018088 </v>
   <v>       0.00232721      -0.00003414       0.00409906 </v>
   <v>       0.00244107      -0.00004506       0.00791619 </v>
   <v>       0.00099708      -0.00001146       0.00192895 </v>
   <v>       0.00111257      -0.00136710       0.00052713 </v>
   <v>       0.00406862      -0.00123517      -0.00532487 </v>
  </varray>
  <varray name="stress" >
   <v>       7.52878473      -0.01838165       0.32879887 </v>
   <v>      -0.01838167       7.17728174      -0.00776725 </v>
   <v>       0.32879886      -0.00776727      -2.27918351 </v>
  </varray>
  <energy>
   <i name="e_fr_energy">   -142.28090753 </i>
   <i name="e_wo_entrp">   -142.27844498 </i>
   <i name="e_0_energy">   -142.27967625 </i>
  </energy>
  <time name="totalsc">   35.89   36.17</time>
 </calculation>
 <calculation>
  <scstep>
   <time name="dav">    5.95    5.99</time>
   <time name="total">    6.37    6.43</time>
   <energy>
    <i name="alphaZ">     62.76338497 </i>
    <i name="ewald">   5456.52211781 </i>
    <i name="hartreedc">  -7506.74456656 </i>
    <i name="XCdc">    206.57777367 </i>
    <i name="pawpsdc">   6350.33692833 </i>
    <i name="pawaedc">  -6358.36447700 </i>
    <i name="eentropy">     -0.00246404 </i>
    <i name="bandstr">   -553.83548574 </i>
    <i name="atom">   2202.35892741 </i>
    <i name="e_fr_energy">   -140.38786115 </i>
    <i name="e_wo_entrp">   -140.38539711 </i>
    <i name="e_0_energy">   -140.38662913 </i>
   </energy>
  </scstep>
  <scstep>
   <time name="dav">    6.48    6.52</time>
   <time name="total">    6.90    6.95</time>
   <energy>
    <i name="e_fr_energy">   -140.38786124 </i>
    <i name="e_wo_entrp">   -140.38539812 </i>
    <i name="e_0_energy">   -140.38662968 </i>
   </energy>
  </scstep>
  <scstep>
   <time name="dav">    7.62    7.67</time>
   <time name="total">    7.66    7.71</time>
   <energy>
    <i name="alphaZ">     62.76338497 </i>
    <i name="ewald">   5456.52211781 </i>
    <i name="hartreedc">  -7506.73769660 </i>
    <i name="XCdc">    206.57777357 </i>
    <i name="pawpsdc">   6350.29051771 </i>
    <i name="pawaedc">  -6358.31804624 </i>
    <i name="eentropy">     -0.00246243 </i>
    <i name="bandstr">   -553.84237763 </i>
    <i name="atom">   2202.35892741 </i>
    <i name="e_fr_energy">   -140.38786143 </i>
    <i name="e_wo_entrp">   -140.38539900 </i>
    <i name="e_0_energy">   -140.38663022 </i>
   </energy>
  </scstep>
  <structure>
   <crystal>
[...]
   <v>       0.00317252       0.00211895       0.01087919 </v>
   <v>       0.00133317       0.00220452       0.00091561 </v>
  </varray>
  <varray name="stress" >
   <v>       7.50277607      -0.01408979       0.32796209 </v>
   <v>      -0.01408980       7.20819109      -0.00762380 </v>
   <v>       0.32796209      -0.00762382      -2.30047449 </v>
  </varray>
  <energy>
   <i name="e_fr_energy">   -142.28096806 </i>
   <i name="e_wo_entrp">   -142.27850303 </i>
   <i name="e_0_energy">   -142.27973555 </i>
  </energy>
  <time name="totalsc">   25.38   25.58</time>
 </calculation>
 <calculation>
  <scstep>
   <time name="dav">    6.77    6.81</time>
   <time name="total">    7.19    7.25</time>
   <energy>
    <i name="alphaZ">     62.76338497 </i>
    <i name="ewald">   5454.80301159 </i>
    <i name="hartreedc">  -7505.00361256 </i>
    <i name="XCdc">    206.57731936 </i>
    <i name="pawpsdc">   6350.29372014 </i>
    <i name="pawaedc">  -6358.32125693 </i>
    <i name="eentropy">     -0.00246532 </i>
    <i name="bandstr">   -553.85724550 </i>
    <i name="atom">   2202.35892741 </i>
    <i name="e_fr_energy">   -140.38821685 </i>
    <i name="e_wo_entrp">   -140.38575154 </i>
    <i name="e_0_energy">   -140.38698420 </i>
   </energy>
  </scstep>
  <scstep>
   <time name="dav">    5.87    5.91</time>
   <time name="total">    5.90    5.94</time>
   <energy>
    <i name="alphaZ">     62.76338497 </i>
    <i name="ewald">   5454.80301159 </i>
    <i name="hartreedc">  -7505.00207374 </i>
    <i name="XCdc">    206.57734049 </i>
    <i name="pawpsdc">   6350.28573241 </i>
    <i name="pawaedc">  -6358.31326786 </i>
    <i name="eentropy">     -0.00246535 </i>
    <i name="bandstr">   -553.85880682 </i>
    <i name="atom">   2202.35892741 </i>
    <i name="e_fr_energy">   -140.38821689 </i>
    <i name="e_wo_entrp">   -140.38575154 </i>
    <i name="e_0_energy">   -140.38698421 </i>
   </energy>
  </scstep>
  <structure>
   <crystal>
    <varray name="basis" >
     <v>       4.36043791       2.51750000       0.00000000 </v>
     <v>      -4.36043791       2.51750000       0.00000000 </v>
     <v>       0.00000000       0.00000000      15.00000000 </v>
    </varray>
    <i name="volume">    329.32207301 </i>
    <varray name="rec_basis" >
     <v>       0.11466738       0.19860973       0.00000000 </v>
     <v>      -0.11466738       0.19860973       0.00000000 </v>
     <v>       0.00000000       0.00000000       0.06666667 </v>
    </varray>
   </crystal>
   <varray name="positions" >
    <v>       0.33813642       0.66937122       0.10026163 </v>
    <v>       0.67149403       0.33602148       0.10009883 </v>
    <v>       0.16445750       0.32211808       0.09981869 </v>
    <v>       0.32408304       0.16242232       0.09997223 </v>
    <v>       0.16441063       0.84309175       0.10001895 </v>
    <v>       0.84509758       0.16242549       0.09976901 </v>
    <v>       0.68539581       0.84307052       0.09982452 </v>
    <v>       0.84507700       0.68343115       0.09997755 </v>
    <v>       0.25018965       0.24964682       0.32644620 </v>
    <v>       0.41679214       0.08307926       0.32639275 </v>
    <v>       0.25017661       0.74981189       0.32622418 </v>
    <v>       0.41692106       0.58306317       0.32628906 </v>
    <v>       0.75023460       0.24974845       0.32625661 </v>
    <v>       0.91694922       0.08303384       0.32648695 </v>
    <v>       0.75033862       0.74979749       0.32644423 </v>
    <v>       0.91690476       0.58319240       0.32638526 </v>
   </varray>
  </structure>
  <varray name="forces" >
   <v>      -0.00524322       0.00033197      -0.01414777 </v>
   <v>      -0.00989852      -0.00068275       0.00175903 </v>
   <v>      -0.00075625       0.00415155       0.00649537 </v>
   <v>       0.00249393      -0.00179505      -0.00386863 </v>
   <v>      -0.00575915      -0.00007675       0.00944257 </v>
   <v>      -0.00218886       0.00003493      -0.00603179 </v>
   <v>      -0.00001779      -0.00514398       0.00654339 </v>
   <v>       0.00267304       0.00347464      -0.00377049 </v>
   <v>       0.00324358      -0.00234038       0.01018763 </v>
   <v>       0.00084848      -0.00215283       0.00090491 </v>
   <v>      -0.00215223      -0.00005433       0.01181618 </v>
   <v>       0.00479405       0.00002390      -0.01604766 </v>
   <v>       0.00175509      -0.00014654      -0.00237580 </v>
   <v>       0.00620176      -0.00001163      -0.01243076 </v>
   <v>       0.00319503       0.00216988       0.01066456 </v>
   <v>       0.00081106       0.00221738       0.00085926 </v>
  </varray>
  <varray name="stress" >
   <v>       7.49920936      -0.01330863       0.32740889 </v>
   <v>      -0.01330862       7.21031890      -0.00761387 </v>
   <v>       0.32740884      -0.00761387      -2.30390778 </v>
  </varray>
  <energy>
   <i name="e_fr_energy">   -142.28097388 </i>
   <i name="e_wo_entrp">   -142.27850853 </i>
   <i name="e_0_energy">   -142.27974120 </i>
  </energy>
  <time name="totalsc">   18.49   18.62</time>
 </calculation>
 <calculation>
  <scstep>
   <time name="dav">    5.85    5.89</time>
   <time name="total">    6.27    6.32</time>
   <energy>
    <i name="alphaZ">     62.76338497 </i>
    <i name="ewald">   5454.47364865 </i>
    <i name="hartreedc">  -7504.67302445 </i>
    <i name="XCdc">    206.57715111 </i>
    <i name="pawpsdc">   6350.27369947 </i>
    <i name="pawaedc">  -6358.30123220 </i>
    <i name="eentropy">     -0.00246692 </i>
    <i name="bandstr">   -553.85837790 </i>
    <i name="atom">   2202.35892741 </i>
    <i name="e_fr_energy">   -140.38828985 </i>
    <i name="e_wo_entrp">   -140.38582294 </i>
    <i name="e_0_energy">   -140.38705639 </i>
   </energy>
  </scstep>
  <scstep>
   <time name="dav">    5.87    5.90</time>
   <time name="total">    6.29    6.34</time>
   <energy>
    <i name="e_fr_energy">   -140.38829050 </i>
    <i name="e_wo_entrp">   -140.38582338 </i>
    <i name="e_0_energy">   -140.38705694 </i>
   </energy>
  </scstep>
  <scstep>
   <time name="dav">    5.84    5.88</time>
   <time name="total">    5.87    5.91</time>
   <energy>
    <i name="alphaZ">     62.76338497 </i>
    <i name="ewald">   5454.47364865 </i>
    <i name="hartreedc">  -7504.66988001 </i>
    <i name="XCdc">    206.57717041 </i>
    <i name="pawpsdc">   6350.24627034 </i>
    <i name="pawaedc">  -6358.27379900 </i>
    <i name="eentropy">     -0.00246754 </i>
    <i name="bandstr">   -553.86154601 </i>
    <i name="atom">   2202.35892741 </i>
    <i name="e_fr_energy">   -140.38829078 </i>
    <i name="e_wo_entrp">   -140.38582324 </i>
    <i name="e_0_energy">   -140.38705701 </i>
   </energy>
  </scstep>
  <structure>
   <crystal>
    <varray name="basis" >
     <v>       4.36043791       2.51750000       0.00000000 </v>
     <v>      -4.36043791       2.51750000       0.00000000 </v>
     <v>       0.00000000       0.00000000      15.00000000 </v>
    </varray>
    <i name="volume">    329.32207301 </i>
    <varray name="rec_basis" >
     <v>       0.11466738       0.19860973       0.00000000 </v>
     <v>      -0.11466738       0.19860973       0.00000000 </v>
     <v>       0.00000000       0.00000000       0.06666667 </v>
    </varray>
   </crystal>
   <varray name="positions" >
    <v>       0.33809652       0.66941446       0.10025661 </v>
    <v>       0.67144777       0.33606788       0.10008928 </v>
    <v>       0.16442452       0.32216019       0.09980339 </v>
    <v>       0.32404847       0.16245660       0.09997808 </v>
    <v>       0.16437108       0.84313130       0.10003610 </v>
    <v>       0.84506221       0.16246544       0.09974266 </v>
    <v>       0.68535474       0.84310509       0.09981016 </v>
    <v>       0.84504594       0.68346994       0.09998426 </v>
    <v>       0.25022582       0.24960699       0.32645205 </v>
    <v>       0.41682970       0.08303842       0.32639712 </v>
    <v>       0.25021230       0.74977372       0.32622764 </v>
    <v>       0.41696054       0.58302165       0.32629438 </v>
    <v>       0.75027142       0.24970903       0.32626223 </v>
    <v>       0.91698808       0.08299292       0.32649311 </v>
    <v>       0.75037599       0.74975887       0.32645002 </v>
    <v>       0.91694358       0.58315283       0.32638957 </v>
   </varray>
  </structure>
  <varray name="forces" >
   <v>      -0.00410207       0.00005810      -0.01404592 </v>
   <v>      -0.00563338      -0.00021312       0.00263979 </v>
   <v>      -0.00060910       0.00311514       0.00713317 </v>
   <v>      -0.00083194      -0.00171701      -0.00437758 </v>
   <v>      -0.00450839       0.00046338       0.00857293 </v>
   <v>      -0.00340689      -0.00048582      -0.00492030 </v>
   <v>       0.00001339      -0.00328287       0.00712795 </v>
   <v>      -0.00056443       0.00237374      -0.00431283 </v>
   <v>       0.00397549      -0.00203251       0.00982990 </v>
   <v>       0.00053180      -0.00195216       0.00090359 </v>
   <v>      -0.00070934      -0.00000905       0.01194004 </v>
   <v>       0.00368120      -0.00002676      -0.01620539 </v>
   <v>       0.00234932      -0.00007985      -0.00266400 </v>
   <v>       0.00538254      -0.00006017      -0.01281090 </v>
   <v>       0.00393372       0.00195057       0.01031955 </v>
   <v>       0.00049808       0.00189839       0.00086999 </v>
  </varray>
  <varray name="stress" >
   <v>       7.48510567      -0.01003154       0.33071606 </v>
   <v>      -0.01003156       7.22190826      -0.00767739 </v>
   <v>       0.33071602      -0.00767736      -2.30524822 </v>
  </varray>
  <energy>
   <i name="e_fr_energy">   -142.28098984 </i>
   <i name="e_wo_entrp">   -142.27852230 </i>
   <i name="e_0_energy">   -142.27975607 </i>
  </energy>
  <time name="totalsc">   23.85   24.02</time>
 </calculation>
 <calculation>
  <scstep>
   <time name="dav">    5.85    5.89</time>
   <time name="total">    6.27    6.32</time>
   <energy>
    <i name="alphaZ">     62.76338497 </i>
    <i name="ewald">   5453.81468072 </i>
    <i name="hartreedc">  -7504.01410933 </i>
    <i name="XCdc">    206.57679407 </i>
    <i name="pawpsdc">   6350.24781974 </i>
    <i name="pawaedc">  -6358.27534763 </i>
    <i name="eentropy">     -0.00247058 </i>
    <i name="bandstr">   -553.85811055 </i>
    <i name="atom">   2202.35892741 </i>
    <i name="e_fr_energy">   -140.38843116 </i>
    <i name="e_wo_entrp">   -140.38596058 </i>
    <i name="e_0_energy">   -140.38719587 </i>
   </energy>
  </scstep>
  <scstep>
   <time name="dav">    6.01    6.05</time>
   <time name="total">    6.44    6.49</time>
   <energy>
    <i name="e_fr_energy">   -140.38843554 </i>
    <i name="e_wo_entrp">   -140.38596461 </i>
    <i name="e_0_energy">   -140.38720007 </i>
   </energy>
  </scstep>
  <scstep>
   <time name="dav">    5.85    5.89</time>
   <time name="total">    6.27    6.32</time>
   <energy>
    <i name="e_fr_energy">   -140.38843553 </i>
    <i name="e_wo_entrp">   -140.38596376 </i>
    <i name="e_0_energy">   -140.38719965 </i>
   </energy>
  </scstep>
  <scstep>
   <time name="dav">    7.20    7.24</time>
   <time name="total">    7.23    7.28</time>
   <energy>
    <i name="alphaZ">     62.76338497 </i>
    <i name="ewald">   5453.81468072 </i>
    <i name="hartreedc">  -7504.01115419 </i>
    <i name="XCdc">    206.57683322 </i>
    <i name="pawpsdc">   6350.20888525 </i>
    <i name="pawaedc">  -6358.23640381 </i>
    <i name="eentropy">     -0.00247212 </i>
    <i name="bandstr">   -553.86111723 </i>
    <i name="atom">   2202.35892741 </i>
    <i name="e_fr_energy">   -140.38843578 </i>
    <i name="e_wo_entrp">   -140.38596366 </i>
    <i name="e_0_energy">   -140.38719972 </i>
   </energy>
  </scstep>
  <structure>
   <crystal>
    <varray name="basis" >
     <v>       4.36043791       2.51750000       0.00000000 </v>
     <v>      -4.36043791       2.51750000       0.00000000 </v>
     <v>       0.00000000       0.00000000      15.00000000 </v>
    </varray>
    <i name="volume">    329.32207301 </i>
    <varray name="rec_basis" >
     <v>       0.11466738       0.19860973       0.00000000 </v>
     <v>      -0.11466738       0.19860973       0.00000000 </v>
     <v>       0.00000000       0.00000000       0.06666667 </v>
    </varray>
   </crystal>
   <varray name="positions" >
    <v>       0.33801670       0.66950094       0.10024656 </v>
    <v>       0.67135524       0.33616070       0.10007017 </v>
    <v>       0.16435856       0.32224441       0.09977277 </v>
    <v>       0.32397932       0.16252518       0.09998977 </v>
    <v>       0.16429197       0.84321042       0.10007041 </v>
    <v>       0.84499147       0.16254533       0.09968995 </v>
    <v>       0.68527259       0.84317423       0.09978144 </v>
    <v>       0.84498383       0.68354751       0.09999768 </v>
    <v>       0.25029816       0.24952734       0.32646375 </v>
    <v>       0.41690481       0.08295673       0.32640587 </v>
    <v>       0.25028370       0.74969738       0.32623455 </v>
    <v>       0.41703950       0.58293861       0.32630502 </v>
    <v>       0.75034505       0.24963018       0.32627348 </v>
    <v>       0.91706580       0.08291107       0.32650543 </v>
    <v>       0.75045072       0.74968162       0.32646161 </v>
    <v>       0.91702123       0.58307368       0.32639819 </v>
   </varray>
  </structure>
  <varray name="forces" >
   <v>      -0.00177102      -0.00049923      -0.01403076 </v>
   <v>       0.00289728       0.00071801       0.00412876 </v>
   <v>      -0.00010156       0.00109303       0.00703511 </v>
   <v>      -0.00695252      -0.00133684      -0.00493237 </v>
   <v>      -0.00193891       0.00152763       0.00824385 </v>
   <v>      -0.00583665      -0.00151778      -0.00498935 </v>
   <v>       0.00030385       0.00036711       0.00700644 </v>
   <v>      -0.00650492      -0.00003814      -0.00485340 </v>
   <v>       0.00520497      -0.00144251       0.00952832 </v>
   <v>      -0.00029311      -0.00156014       0.00125093 </v>
   <v>       0.00192061       0.00008379       0.01247470 </v>
   <v>       0.00131100      -0.00012181      -0.01615006 </v>
   <v>       0.00334245       0.00005343      -0.00285537 </v>
   <v>       0.00356282      -0.00015242      -0.01313606 </v>
   <v>       0.00517681       0.00154308       0.01004083 </v>
   <v>      -0.00032111       0.00128280       0.00123844 </v>
  </varray>
  <varray name="stress" >
   <v>       7.45740900      -0.00372552       0.33060749 </v>
   <v>      -0.00372552       7.24187263      -0.00764744 </v>
   <v>       0.33060751      -0.00764745      -2.31175117 </v>
  </varray>
  <energy>
   <i name="e_fr_energy">   -142.28101903 </i>
   <i name="e_wo_entrp">   -142.27854691 </i>
   <i name="e_0_energy">   -142.27978297 </i>
  </energy>
  <time name="totalsc">   31.63   31.86</time>
 </calculation>
 <calculation>
  <scstep>
   <time name="dav">    5.86    5.89</time>
   <time name="total">    6.27    6.33</time>
   <energy>
    <i name="alphaZ">     62.76338497 </i>
    <i name="ewald">   5452.49577649 </i>
    <i name="hartreedc">  -7502.69763103 </i>
    <i name="XCdc">    206.57608059 </i>
    <i name="pawpsdc">   6350.22214934 </i>
    <i name="pawaedc">  -6358.24966692 </i>
    <i name="eentropy">     -0.00247770 </i>
    <i name="bandstr">   -553.85524042 </i>
    <i name="atom">   2202.35892741 </i>
    <i name="e_fr_energy">   -140.38869726 </i>
    <i name="e_wo_entrp">   -140.38621956 </i>
    <i name="e_0_energy">   -140.38745841 </i>
   </energy>
  </scstep>
  <scstep>
   <time name="dav">    6.00    6.03</time>
   <time name="total">    6.42    6.47</time>
   <energy>
    <i name="e_fr_energy">   -140.38871581 </i>
    <i name="e_wo_entrp">   -140.38623734 </i>
    <i name="e_0_energy">   -140.38747658 </i>
   </energy>
  </scstep>
  <scstep>
   <time name="dav">    6.03    6.07</time>
   <time name="total">    6.45    6.50</time>
   <energy>
    <i name="e_fr_energy">   -140.38871269 </i>
    <i name="e_wo_entrp">   -140.38623251 </i>
    <i name="e_0_energy">   -140.38747260 </i>
   </energy>
  </scstep>
  <scstep>
   <time name="dav">    7.96    8.02</time>
   <time name="total">    7.99    8.05</time>
   <energy>
    <i name="alphaZ">     62.76338497 </i>
    <i name="ewald">   5452.49577649 </i>
    <i name="hartreedc">  -7502.69032409 </i>
    <i name="XCdc">    206.57615853 </i>
    <i name="pawpsdc">   6350.13236645 </i>
    <i name="pawaedc">  -6358.15986176 </i>
    <i name="eentropy">     -0.00248086 </i>
    <i name="bandstr">   -553.86266069 </i>
    <i name="atom">   2202.35892741 </i>
    <i name="e_fr_energy">   -140.38871356 </i>
    <i name="e_wo_entrp">   -140.38623270 </i>
    <i name="e_0_energy">   -140.38747313 </i>
   </energy>
  </scstep>
  <structure>
   <crystal>
    <varray name="basis" >
     <v>       4.36043791       2.51750000       0.00000000 </v>
     <v>      -4.36043791       2.51750000       0.00000000 </v>
     <v>       0.00000000       0.00000000      15.00000000 </v>
    </varray>
    <i name="volume">    329.32207301 </i>
    <varray name="rec_basis" >
     <v>       0.11466738       0.19860973       0.00000000 </v>
     <v>      -0.11466738       0.19860973       0.00000000 </v>
     <v>       0.00000000       0.00000000       0.06666667 </v>
    </varray>
   </crystal>
   <varray name="positions" >
    <v>       0.33785708       0.66967389       0.10022646 </v>
    <v>       0.67117018       0.33634633       0.10003196 </v>
    <v>       0.16422663       0.32241284       0.09971155 </v>
    <v>       0.32384104       0.16266233       0.10001317 </v>
    <v>       0.16413377       0.84336865       0.10013901 </v>
    <v>       0.84485000       0.16270512       0.09958454 </v>
    <v>       0.68510829       0.84331251       0.09972401 </v>
    <v>       0.84485960       0.68370264       0.10002452 </v>
    <v>       0.25044284       0.24936802       0.32648716 </v>
    <v>       0.41705504       0.08279336       0.32642338 </v>
    <v>       0.25042649       0.74954471       0.32624838 </v>
    <v>       0.41719743       0.58277254       0.32632630 </v>
    <v>       0.75049233       0.24947249       0.32629597 </v>
    <v>       0.91722125       0.08274737       0.32653006 </v>
    <v>       0.75060020       0.74952713       0.32648478 </v>
    <v>       0.91717651       0.58291540       0.32641542 </v>
   </varray>
  </structure>
  <varray name="forces" >
   <v>       0.00302201      -0.00160927      -0.01390352 </v>
   <v>       0.02009226       0.00258249       0.00722053 </v>
   <v>       0.00098969      -0.00295598       0.00741133 </v>
   <v>      -0.01919052      -0.00072843      -0.00612424 </v>
   <v>       0.00331228       0.00366077       0.00717025 </v>
   <v>      -0.01047803      -0.00358486      -0.00428910 </v>
   <v>       0.00095948       0.00766348       0.00730811 </v>
   <v>      -0.01839114      -0.00472522      -0.00604976 </v>
   <v>       0.00757178      -0.00024409       0.00871535 </v>
   <v>      -0.00203564      -0.00076428       0.00176121 </v>
   <v>       0.00711467       0.00027169       0.01338898 </v>
   <v>      -0.00353648      -0.00031097      -0.01622820 </v>
   <v>       0.00523399       0.00032324      -0.00344270 </v>
   <v>      -0.00018433      -0.00033482      -0.01400581 </v>
   <v>       0.00757059       0.00071415       0.00927453 </v>
   <v>      -0.00205064       0.00004209       0.00179305 </v>
  </varray>
  <varray name="stress" >
   <v>       7.40176725       0.00862379       0.33118756 </v>
   <v>       0.00862383       7.28133742      -0.00761515 </v>
   <v>       0.33118755      -0.00761516      -2.32390376 </v>
  </varray>
  <energy>
   <i name="e_fr_energy">   -142.28106537 </i>
   <i name="e_wo_entrp">   -142.27858451 </i>
   <i name="e_0_energy">   -142.27982494 </i>
  </energy>
  <time name="totalsc">   32.56   32.81</time>
 </calculation>
 <calculation>
  <scstep>
