  15  15   0   4
  0.2042152E+02  0.4856000E-09  0.4856000E-09  0.1500000E-08  0.5000000E-15
  1.000000000000000E-004
  CAR 
 Lattice                                 
     10.26959467    -21.64423466  301     -0.32063337      1.00000000
    -21.644  0.0000E+00  0.0000E+00  0.0000E+00  0.0000E+00
    -21.538  0.0000E+00  0.0000E+00  0.0000E+00  0.0000E+00
    -21.431  0.0000E+00  0.0000E+00  0.0000E+00  0.0000E+00
    -21.325  0.0000E+00  0.0000E+00  0.0000E+00  0.0000E+00
    -21.219  0.0000E+00  0.0000E+00  0.0000E+00  0.0000E+00
    -21.112  0.0000E+00  0.0000E+00  0.0000E+00  0.0000E+00
    -21.006  0.0000E+00  0.0000E+00  0.0000E+00  0.0000E+00
    -20.900  0.0000E+00  0.0000E+00  0.0000E+00  0.0000E+00
    -20.793  0.0000E+00  0.0000E+00  0.0000E+00  0.0000E+00
    -20.687  0.8358E-15  0.8358E-15  0.8892E-16  0.8891E-16
    -20.580  0.1342E-10  0.1342E-10  0.1428E-11  0.1428E-11
    -20.474  0.2634E-07  0.2634E-07  0.2804E-08  0.2804E-08
    -20.368  0.6939E-05  0.6939E-05  0.7410E-06  0.7409E-06
    -20.261  0.2737E-03  0.2737E-03  0.2986E-04  0.2986E-04
    -20.155  0.1980E-02  0.1980E-02  0.2405E-03  0.2405E-03
    -20.049  0.4159E-02  0.4159E-02  0.6829E-03  0.6829E-03
    -19.942  0.4534E-02  0.4534E-02  0.1165E-02  0.1165E-02
    -19.836  0.4947E-02  0.4947E-02  0.1691E-02  0.1691E-02
    -19.729  0.4172E-02  0.4172E-02  0.2135E-02  0.2135E-02
    -19.623  0.5391E-02  0.5391E-02  0.2709E-02  0.2709E-02
    -19.517  0.4234E-02  0.4234E-02  0.3159E-02  0.3159E-02
    -19.410  0.4266E-02  0.4266E-02  0.3613E-02  0.3613E-02
    -19.304  0.6018E-02  0.6018E-02  0.4253E-02  0.4253E-02
    -19.198  0.3834E-02  0.3834E-02  0.4661E-02  0.4661E-02
    -19.091  0.3888E-02  0.3888E-02  0.5075E-02  0.5075E-02
    -18.985  0.6124E-02  0.6124E-02  0.5726E-02  0.5726E-02
    -18.878  0.5226E-02  0.5226E-02  0.6282E-02  0.6282E-02
    -18.772  0.2980E-02  0.2980E-02  0.6599E-02  0.6599E-02
    -18.666  0.4374E-02  0.4374E-02  0.7065E-02  0.7065E-02
    -18.559  0.6926E-02  0.6926E-02  0.7801E-02  0.7801E-02
    -18.453  0.4591E-02  0.4591E-02  0.8290E-02  0.8290E-02
    -18.346  0.3805E-02  0.3805E-02  0.8694E-02  0.8694E-02
    -18.240  0.2993E-02  0.2993E-02  0.9013E-02  0.9013E-02
    -18.134  0.6623E-02  0.6623E-02  0.9717E-02  0.9717E-02
    -18.027  0.6634E-02  0.6634E-02  0.1042E-01  0.1042E-01
    -17.921  0.3561E-02  0.3561E-02  0.1080E-01  0.1080E-01
    -17.815  0.3292E-02  0.3292E-02  0.1115E-01  0.1115E-01
    -17.708  0.4115E-02  0.4115E-02  0.1159E-01  0.1159E-01
    -17.602  0.6219E-02  0.6219E-02  0.1225E-01  0.1225E-01
    -17.495  0.6867E-02  0.6867E-02  0.1298E-01  0.1298E-01
    -17.389  0.6324E-02  0.6324E-02  0.1365E-01  0.1365E-01
    -17.283  0.7691E-02  0.7691E-02  0.1447E-01  0.1447E-01
    -17.176  0.1064E-01  0.1064E-01  0.1560E-01  0.1560E-01
    -17.070  0.1491E-01  0.1491E-01  0.1719E-01  0.1719E-01
    -16.964  0.1623E-01  0.1623E-01  0.1892E-01  0.1892E-01
    -16.857  0.1862E-01  0.1862E-01  0.2090E-01  0.2090E-01
    -16.751  0.2124E-01  0.2124E-01  0.2316E-01  0.2316E-01
    -16.644  0.1309E-01  0.1309E-01  0.2455E-01  0.2455E-01
    -16.538  0.3495E-02  0.3495E-02  0.2492E-01  0.2492E-01
    -16.432  0.7153E-02  0.7153E-02  0.2568E-01  0.2568E-01
    -16.325  0.8168E-02  0.8168E-02  0.2655E-01  0.2655E-01
    -16.219  0.4591E-02  0.4591E-02  0.2704E-01  0.2704E-01
    -16.113  0.4164E-02  0.4164E-02  0.2748E-01  0.2748E-01
    -16.006  0.3890E-02  0.3890E-02  0.2790E-01  0.2790E-01
    -15.900  0.3811E-02  0.3811E-02  0.2830E-01  0.2830E-01
    -15.793  0.3687E-02  0.3687E-02  0.2869E-01  0.2869E-01
    -15.687  0.8117E-02  0.8117E-02  0.2956E-01  0.2956E-01
    -15.581  0.8076E-02  0.8076E-02  0.3042E-01  0.3042E-01
    -15.474  0.3958E-02  0.3958E-02  0.3084E-01  0.3084E-01
    -15.368  0.3886E-02  0.3886E-02  0.3125E-01  0.3125E-01
    -15.261  0.3414E-02  0.3414E-02  0.3161E-01  0.3161E-01
    -15.155  0.4654E-02  0.4654E-02  0.3211E-01  0.3211E-01
    -15.049  0.6501E-02  0.6501E-02  0.3280E-01  0.3280E-01
    -14.942  0.1241E-01  0.1241E-01  0.3412E-01  0.3412E-01
    -14.836  0.1834E-01  0.1834E-01  0.3607E-01  0.3607E-01
    -14.730  0.1887E-01  0.1887E-01  0.3808E-01  0.3808E-01
    -14.623  0.1638E-01  0.1638E-01  0.3982E-01  0.3982E-01
    -14.517  0.1004E-01  0.1004E-01  0.4089E-01  0.4089E-01
    -14.410  0.8297E-02  0.8297E-02  0.4177E-01  0.4177E-01
    -14.304  0.1487E-01  0.1487E-01  0.4336E-01  0.4336E-01
    -14.198  0.1542E-01  0.1542E-01  0.4500E-01  0.4500E-01
    -14.091  0.1197E-01  0.1197E-01  0.4627E-01  0.4627E-01
    -13.985  0.1059E-01  0.1059E-01  0.4740E-01  0.4740E-01
    -13.879  0.1400E-01  0.1400E-01  0.4889E-01  0.4889E-01
    -13.772  0.1970E-01  0.1970E-01  0.5098E-01  0.5098E-01
    -13.666  0.1854E-01  0.1854E-01  0.5295E-01  0.5295E-01
    -13.559  0.1728E-01  0.1728E-01  0.5479E-01  0.5479E-01
    -13.453  0.9374E-02  0.9374E-02  0.5579E-01  0.5579E-01
    -13.347  0.6002E-02  0.6002E-02  0.5643E-01  0.5643E-01
    -13.240  0.3449E-02  0.3449E-02  0.5680E-01  0.5680E-01
    -13.134  0.3949E-02  0.3949E-02  0.5722E-01  0.5722E-01
    -13.028  0.6813E-02  0.6813E-02  0.5794E-01  0.5794E-01
    -12.921  0.7004E-02  0.7004E-02  0.5869E-01  0.5869E-01
    -12.815  0.4831E-02  0.4831E-02  0.5920E-01  0.5920E-01
    -12.708  0.6805E-02  0.6805E-02  0.5992E-01  0.5992E-01
    -12.602  0.7203E-02  0.7203E-02  0.6069E-01  0.6069E-01
    -12.496  0.5511E-02  0.5511E-02  0.6128E-01  0.6128E-01
    -12.389  0.5508E-02  0.5508E-02  0.6186E-01  0.6186E-01
    -12.283  0.3326E-02  0.3326E-02  0.6222E-01  0.6222E-01
    -12.176  0.6169E-02  0.6169E-02  0.6287E-01  0.6287E-01
    -12.070  0.8253E-02  0.8253E-02  0.6375E-01  0.6375E-01
    -11.964  0.3457E-02  0.3457E-02  0.6412E-01  0.6412E-01
    -11.857  0.3280E-02  0.3280E-02  0.6447E-01  0.6447E-01
    -11.751  0.3414E-02  0.3414E-02  0.6483E-01  0.6483E-01
    -11.645  0.5953E-02  0.5953E-02  0.6546E-01  0.6546E-01
    -11.538  0.6768E-02  0.6768E-02  0.6618E-01  0.6618E-01
    -11.432  0.3924E-02  0.3924E-02  0.6660E-01  0.6660E-01
    -11.325  0.1873E-02  0.1873E-02  0.6680E-01  0.6680E-01
    -11.219  0.4502E-02  0.4502E-02  0.6728E-01  0.6728E-01
    -11.113  0.5824E-02  0.5824E-02  0.6790E-01  0.6790E-01
    -11.006  0.5080E-02  0.5080E-02  0.6844E-01  0.6844E-01
    -10.900  0.7251E-02  0.7251E-02  0.6921E-01  0.6921E-01
    -10.794  0.6761E-02  0.6761E-02  0.6993E-01  0.6993E-01
    -10.687  0.2824E-02  0.2824E-02  0.7023E-01  0.7023E-01
    -10.581  0.8292E-02  0.8292E-02  0.7111E-01  0.7111E-01
    -10.474  0.1386E-01  0.1386E-01  0.7259E-01  0.7259E-01
    -10.368  0.1535E-01  0.1535E-01  0.7422E-01  0.7422E-01
    -10.262  0.1451E-01  0.1451E-01  0.7576E-01  0.7576E-01
    -10.155  0.1538E-01  0.1538E-01  0.7740E-01  0.7740E-01
    -10.049  0.1809E-01  0.1809E-01  0.7932E-01  0.7932E-01
     -9.942  0.1704E-01  0.1704E-01  0.8113E-01  0.8113E-01
     -9.836  0.9998E-02  0.9998E-02  0.8220E-01  0.8220E-01
     -9.730  0.8833E-02  0.8833E-02  0.8314E-01  0.8314E-01
     -9.623  0.1401E-01  0.1401E-01  0.8463E-01  0.8463E-01
     -9.517  0.1304E-01  0.1304E-01  0.8602E-01  0.8602E-01
     -9.411  0.1665E-01  0.1665E-01  0.8779E-01  0.8779E-01
     -9.304  0.1772E-01  0.1772E-01  0.8967E-01  0.8967E-01
     -9.198  0.1361E-01  0.1361E-01  0.9112E-01  0.9112E-01
     -9.091  0.9536E-02  0.9536E-02  0.9213E-01  0.9213E-01
     -8.985  0.7620E-02  0.7620E-02  0.9294E-01  0.9294E-01
     -8.879  0.1701E-01  0.1701E-01  0.9475E-01  0.9475E-01
     -8.772  0.2028E-01  0.2028E-01  0.9691E-01  0.9691E-01
     -8.666  0.1337E-01  0.1337E-01  0.9833E-01  0.9833E-01
     -8.560  0.7970E-02  0.7970E-02  0.9918E-01  0.9918E-01
     -8.453  0.1229E-01  0.1229E-01  0.1005E+00  0.1005E+00
     -8.347  0.1983E-01  0.1983E-01  0.1026E+00  0.1026E+00
     -8.240  0.1660E-01  0.1660E-01  0.1044E+00  0.1044E+00
     -8.134  0.1283E-01  0.1283E-01  0.1057E+00  0.1057E+00
     -8.028  0.1756E-01  0.1756E-01  0.1076E+00  0.1076E+00
     -7.921  0.2399E-01  0.2399E-01  0.1101E+00  0.1101E+00
     -7.815  0.2517E-01  0.2517E-01  0.1128E+00  0.1128E+00
     -7.709  0.1823E-01  0.1823E-01  0.1148E+00  0.1148E+00
     -7.602  0.1062E-01  0.1062E-01  0.1159E+00  0.1159E+00
     -7.496  0.7656E-02  0.7656E-02  0.1167E+00  0.1167E+00
     -7.389  0.1731E-01  0.1731E-01  0.1186E+00  0.1186E+00
     -7.283  0.1865E-01  0.1865E-01  0.1205E+00  0.1205E+00
     -7.177  0.1307E-01  0.1307E-01  0.1219E+00  0.1219E+00
     -7.070  0.1045E-01  0.1045E-01  0.1230E+00  0.1230E+00
     -6.964  0.1578E-01  0.1578E-01  0.1247E+00  0.1247E+00
     -6.857  0.1858E-01  0.1858E-01  0.1267E+00  0.1267E+00
     -6.751  0.2034E-01  0.2034E-01  0.1289E+00  0.1289E+00
     -6.645  0.2187E-01  0.2187E-01  0.1312E+00  0.1312E+00
     -6.538  0.1795E-01  0.1795E-01  0.1331E+00  0.1331E+00
     -6.432  0.2108E-01  0.2108E-01  0.1353E+00  0.1353E+00
     -6.326  0.1803E-01  0.1803E-01  0.1373E+00  0.1373E+00
     -6.219  0.1878E-01  0.1878E-01  0.1393E+00  0.1393E+00
     -6.113  0.2682E-01  0.2682E-01  0.1421E+00  0.1421E+00
     -6.006  0.2304E-01  0.2304E-01  0.1446E+00  0.1446E+00
     -5.900  0.3071E-01  0.3071E-01  0.1478E+00  0.1478E+00
     -5.794  0.2853E-01  0.2853E-01  0.1509E+00  0.1509E+00
     -5.687  0.1814E-01  0.1814E-01  0.1528E+00  0.1528E+00
     -5.581  0.1974E-01  0.1974E-01  0.1549E+00  0.1549E+00
     -5.475  0.3291E-01  0.3291E-01  0.1584E+00  0.1584E+00
     -5.368  0.3569E-01  0.3569E-01  0.1622E+00  0.1622E+00
     -5.262  0.2112E-01  0.2112E-01  0.1644E+00  0.1644E+00
     -5.155  0.1587E-01  0.1587E-01  0.1661E+00  0.1661E+00
     -5.049  0.1056E-01  0.1056E-01  0.1672E+00  0.1672E+00
     -4.943  0.1148E-01  0.1148E-01  0.1685E+00  0.1685E+00
     -4.836  0.1391E-01  0.1391E-01  0.1699E+00  0.1699E+00
     -4.730  0.1046E-01  0.1046E-01  0.1711E+00  0.1711E+00
     -4.624  0.7488E-02  0.7488E-02  0.1719E+00  0.1719E+00
     -4.517  0.9138E-02  0.9138E-02  0.1728E+00  0.1728E+00
     -4.411  0.1746E-01  0.1746E-01  0.1747E+00  0.1747E+00
     -4.304  0.2353E-01  0.2353E-01  0.1772E+00  0.1772E+00
     -4.198  0.2067E-01  0.2067E-01  0.1794E+00  0.1794E+00
     -4.092  0.1740E-01  0.1740E-01  0.1812E+00  0.1812E+00
     -3.985  0.2017E-01  0.2017E-01  0.1834E+00  0.1834E+00
     -3.879  0.2414E-01  0.2414E-01  0.1860E+00  0.1860E+00
     -3.772  0.1874E-01  0.1874E-01  0.1879E+00  0.1879E+00
     -3.666  0.1918E-01  0.1918E-01  0.1900E+00  0.1900E+00
     -3.560  0.2036E-01  0.2036E-01  0.1921E+00  0.1921E+00
     -3.453  0.1615E-01  0.1615E-01  0.1939E+00  0.1939E+00
     -3.347  0.1282E-01  0.1281E-01  0.1952E+00  0.1952E+00
     -3.241  0.1227E-01  0.1227E-01  0.1965E+00  0.1965E+00
     -3.134  0.1766E-01  0.1766E-01  0.1984E+00  0.1984E+00
     -3.028  0.1813E-01  0.1813E-01  0.2003E+00  0.2003E+00
     -2.921  0.1202E-01  0.1202E-01  0.2016E+00  0.2016E+00
     -2.815  0.1226E-01  0.1226E-01  0.2029E+00  0.2029E+00
     -2.709  0.8173E-02  0.8173E-02  0.2038E+00  0.2038E+00
     -2.602  0.9437E-02  0.9438E-02  0.2048E+00  0.2048E+00
     -2.496  0.1750E-01  0.1750E-01  0.2067E+00  0.2067E+00
     -2.390  0.1687E-01  0.1687E-01  0.2085E+00  0.2085E+00
     -2.283  0.4980E-02  0.4980E-02  0.2090E+00  0.2090E+00
     -2.177  0.5220E-02  0.5220E-02  0.2095E+00  0.2095E+00
     -2.070  0.1027E-01  0.1027E-01  0.2106E+00  0.2106E+00
     -1.964  0.9568E-02  0.9568E-02  0.2116E+00  0.2116E+00
     -1.858  0.1088E-01  0.1088E-01  0.2128E+00  0.2128E+00
     -1.751  0.1107E-01  0.1107E-01  0.2140E+00  0.2140E+00
     -1.645  0.1017E-01  0.1017E-01  0.2151E+00  0.2151E+00
     -1.539  0.7856E-02  0.7856E-02  0.2159E+00  0.2159E+00
     -1.432  0.3926E-02  0.3926E-02  0.2163E+00  0.2163E+00
     -1.326  0.4150E-02  0.4150E-02  0.2168E+00  0.2168E+00
     -1.219  0.4258E-02  0.4258E-02  0.2172E+00  0.2172E+00
     -1.113  0.3370E-02  0.3370E-02  0.2176E+00  0.2176E+00
     -1.007  0.5479E-02  0.5479E-02  0.2182E+00  0.2182E+00
     -0.900  0.3689E-02  0.3689E-02  0.2185E+00  0.2185E+00
     -0.794  0.7794E-03  0.7794E-03  0.2186E+00  0.2186E+00
     -0.687  0.8594E-04  0.8593E-04  0.2186E+00  0.2186E+00
     -0.581  0.2561E-05  0.2560E-05  0.2186E+00  0.2186E+00
     -0.475  0.2987E-04  0.2987E-04  0.2186E+00  0.2186E+00
     -0.368  0.4802E-03  0.4802E-03  0.2187E+00  0.2187E+00
     -0.262  0.1114E-02  0.1114E-02  0.2188E+00  0.2188E+00
     -0.156  0.3953E-03  0.3953E-03  0.2189E+00  0.2189E+00
     -0.049  0.2001E-04  0.2001E-04  0.2189E+00  0.2189E+00
      0.057  0.1784E-06  0.1784E-06  0.2189E+00  0.2189E+00
      0.164  0.1525E-04  0.1525E-04  0.2189E+00  0.2189E+00
      0.270  0.5730E-03  0.5730E-03  0.2189E+00  0.2189E+00
      0.376  0.2955E-02  0.2955E-02  0.2192E+00  0.2192E+00
      0.483  0.2342E-02  0.2342E-02  0.2195E+00  0.2195E+00
      0.589  0.1095E-02  0.1095E-02  0.2196E+00  0.2196E+00
      0.695  0.3853E-02  0.3853E-02  0.2200E+00  0.2200E+00
      0.802  0.6251E-02  0.6252E-02  0.2207E+00  0.2207E+00
      0.908  0.1104E-01  0.1104E-01  0.2219E+00  0.2219E+00
      1.015  0.2437E-01  0.2437E-01  0.2244E+00  0.2244E+00
      1.121  0.1876E-01  0.1876E-01  0.2264E+00  0.2264E+00
      1.227  0.4570E-02  0.4570E-02  0.2269E+00  0.2269E+00
      1.334  0.2555E-02  0.2555E-02  0.2272E+00  0.2272E+00
      1.440  0.6889E-02  0.6889E-02  0.2279E+00  0.2279E+00
      1.546  0.1507E-01  0.1507E-01  0.2295E+00  0.2295E+00
      1.653  0.2029E-01  0.2029E-01  0.2317E+00  0.2317E+00
      1.759  0.1411E-01  0.1411E-01  0.2332E+00  0.2332E+00
      1.866  0.7580E-02  0.7580E-02  0.2340E+00  0.2340E+00
      1.972  0.7807E-02  0.7807E-02  0.2348E+00  0.2348E+00
      2.078  0.1013E-01  0.1013E-01  0.2359E+00  0.2359E+00
      2.185  0.6998E-02  0.6998E-02  0.2367E+00  0.2367E+00
      2.291  0.8890E-02  0.8890E-02  0.2376E+00  0.2376E+00
      2.398  0.6416E-02  0.6415E-02  0.2383E+00  0.2383E+00
      2.504  0.8806E-02  0.8806E-02  0.2392E+00  0.2392E+00
      2.610  0.1290E-01  0.1290E-01  0.2406E+00  0.2406E+00
      2.717  0.7592E-02  0.7592E-02  0.2414E+00  0.2414E+00
      2.823  0.4474E-02  0.4472E-02  0.2419E+00  0.2419E+00
      2.929  0.7391E-02  0.7386E-02  0.2427E+00  0.2427E+00
      3.036  0.1154E-01  0.1154E-01  0.2439E+00  0.2439E+00
      3.142  0.1072E-01  0.1072E-01  0.2450E+00  0.2450E+00
      3.249  0.9680E-02  0.9677E-02  0.2461E+00  0.2461E+00
      3.355  0.1039E-01  0.1039E-01  0.2472E+00  0.2472E+00
      3.461  0.1008E-01  0.1008E-01  0.2482E+00  0.2482E+00
      3.568  0.1792E-01  0.1792E-01  0.2501E+00  0.2501E+00
      3.674  0.2473E-01  0.2473E-01  0.2528E+00  0.2528E+00
      3.780  0.2467E-01  0.2466E-01  0.2554E+00  0.2554E+00
      3.887  0.2277E-01  0.2277E-01  0.2578E+00  0.2578E+00
      3.993  0.2257E-01  0.2257E-01  0.2602E+00  0.2602E+00
      4.100  0.2621E-01  0.2621E-01  0.2630E+00  0.2630E+00
      4.206  0.2505E-01  0.2505E-01  0.2657E+00  0.2657E+00
      4.312  0.2316E-01  0.2316E-01  0.2681E+00  0.2681E+00
      4.419  0.2345E-01  0.2344E-01  0.2706E+00  0.2706E+00
      4.525  0.2185E-01  0.2185E-01  0.2730E+00  0.2730E+00
      4.631  0.1945E-01  0.1944E-01  0.2750E+00  0.2750E+00
      4.738  0.2769E-01  0.2768E-01  0.2780E+00  0.2780E+00
      4.844  0.2584E-01  0.2584E-01  0.2807E+00  0.2807E+00
      4.951  0.2095E-01  0.2095E-01  0.2829E+00  0.2829E+00
      5.057  0.2431E-01  0.2429E-01  0.2855E+00  0.2855E+00
      5.163  0.2779E-01  0.2780E-01  0.2885E+00  0.2885E+00
      5.270  0.2354E-01  0.2355E-01  0.2910E+00  0.2910E+00
      5.376  0.2150E-01  0.2150E-01  0.2933E+00  0.2933E+00
      5.483  0.2149E-01  0.2148E-01  0.2956E+00  0.2956E+00
      5.589  0.2602E-01  0.2601E-01  0.2983E+00  0.2983E+00
      5.695  0.2280E-01  0.2278E-01  0.3008E+00  0.3008E+00
      5.802  0.2344E-01  0.2345E-01  0.3033E+00  0.3032E+00
      5.908  0.2054E-01  0.2055E-01  0.3054E+00  0.3054E+00
      6.014  0.1995E-01  0.1995E-01  0.3076E+00  0.3076E+00
      6.121  0.1505E-01  0.1505E-01  0.3092E+00  0.3092E+00
      6.227  0.1875E-01  0.1872E-01  0.3112E+00  0.3112E+00
      6.334  0.2315E-01  0.2316E-01  0.3136E+00  0.3136E+00
      6.440  0.2308E-01  0.2308E-01  0.3161E+00  0.3161E+00
      6.546  0.2584E-01  0.2584E-01  0.3188E+00  0.3188E+00
      6.653  0.2812E-01  0.2810E-01  0.3218E+00  0.3218E+00
      6.759  0.3324E-01  0.3323E-01  0.3254E+00  0.3253E+00
      6.865  0.2627E-01  0.2629E-01  0.3281E+00  0.3281E+00
      6.972  0.2486E-01  0.2485E-01  0.3308E+00  0.3308E+00
      7.078  0.2584E-01  0.2584E-01  0.3335E+00  0.3335E+00
      7.185  0.2163E-01  0.2164E-01  0.3358E+00  0.3358E+00
      7.291  0.1924E-01  0.1925E-01  0.3379E+00  0.3379E+00
      7.397  0.1982E-01  0.1979E-01  0.3400E+00  0.3400E+00
      7.504  0.2351E-01  0.2351E-01  0.3425E+00  0.3425E+00
      7.610  0.2401E-01  0.2401E-01  0.3450E+00  0.3450E+00
      7.716  0.2952E-01  0.2951E-01  0.3482E+00  0.3482E+00
      7.823  0.3474E-01  0.3476E-01  0.3519E+00  0.3519E+00
      7.929  0.2626E-01  0.2627E-01  0.3547E+00  0.3547E+00
      8.036  0.3150E-01  0.3148E-01  0.3580E+00  0.3580E+00
      8.142  0.3507E-01  0.3510E-01  0.3618E+00  0.3618E+00
      8.248  0.3246E-01  0.3247E-01  0.3652E+00  0.3652E+00
      8.355  0.3746E-01  0.3744E-01  0.3692E+00  0.3692E+00
      8.461  0.2785E-01  0.2788E-01  0.3722E+00  0.3722E+00
      8.568  0.1395E-01  0.1397E-01  0.3736E+00  0.3736E+00
      8.674  0.6352E-02  0.6360E-02  0.3743E+00  0.3743E+00
      8.780  0.3450E-02  0.3453E-02  0.3747E+00  0.3747E+00
      8.887  0.2371E-02  0.2372E-02  0.3749E+00  0.3749E+00
      8.993  0.5257E-03  0.5259E-03  0.3750E+00  0.3750E+00
      9.099  0.2063E-04  0.2065E-04  0.3750E+00  0.3750E+00
      9.206  0.1067E-06  0.1068E-06  0.3750E+00  0.3750E+00
      9.312  0.6439E-10  0.6449E-10  0.3750E+00  0.3750E+00
      9.419  0.4319E-14  0.4327E-14  0.3750E+00  0.3750E+00
      9.525  0.0000E+00  0.0000E+00  0.3750E+00  0.3750E+00
      9.631  0.0000E+00  0.0000E+00  0.3750E+00  0.3750E+00
      9.738  0.0000E+00  0.0000E+00  0.3750E+00  0.3750E+00
      9.844  0.0000E+00  0.0000E+00  0.3750E+00  0.3750E+00
      9.950  0.0000E+00  0.0000E+00  0.3750E+00  0.3750E+00
     10.057  0.0000E+00  0.0000E+00  0.3750E+00  0.3750E+00
     10.163  0.0000E+00  0.0000E+00  0.3750E+00  0.3750E+00
     10.270  0.0000E+00  0.0000E+00  0.3750E+00  0.3750E+00
