<?xml version="1.0" encoding="ISO-8859-1"?>
<modeling>
 <generator>
  <i name="program" type="string">vasp </i>
  <i name="version" type="string">6.3.2  </i>
  <i name="subversion" type="string">27Jun22 (build Dec 22 2022 13:13:19) complex                          parallel </i>
  <i name="platform" type="string">LinuxIFC </i>
  <i name="date" type="string">2023 08 22 </i>
  <i name="time" type="string">23:25:59 </i>
 </generator>
 <incar>
  <i type="string" name="SYSTEM">Lattice</i>
  <i type="int" name="ISTART">     0</i>
  <i type="string" name="PREC">Accurate</i>
  <i type="string" name="ALGO">Normal</i>
  <i type="int" name="ISPIN">     2</i>
  <i type="int" name="ICHARG">     2</i>
  <i type="int" name="NELM">    64</i>
  <i type="int" name="IBRION">     2</i>
  <i name="EDIFF">      0.00000100</i>
  <i name="EDIFFG">     -0.00100000</i>
  <i type="int" name="NSW">   128</i>
  <i type="int" name="ISIF">     2</i>
  <i name="ENCUT">    450.00000000</i>
  <i name="POTIM">      0.50000000</i>
  <i type="int" name="ISMEAR">     0</i>
  <i name="SIGMA">      0.10000000</i>
  <i type="logical" name="LWAVE"> F  </i>
  <i type="logical" name="LCHARG"> F  </i>
  <i type="string" name="GGA">PE</i>
  <i type="int" name="IVDW">    12</i>
 </incar>
 <primitive_cell>
  <structure name="primitive_cell" >
   <crystal>
    <varray name="basis" >
     <v>       4.20541936       2.42800000       0.00000000 </v>
     <v>      -4.20541936       2.42800000       0.00000000 </v>
     <v>       0.00000000       0.00000000      15.00000000 </v>
    </varray>
    <i name="volume">    306.32274624 </i>
    <varray name="rec_basis" >
     <v>       0.11889421       0.20593081       0.00000000 </v>
     <v>      -0.11889421       0.20593081       0.00000000 </v>
     <v>       0.00000000       0.00000000       0.06666667 </v>
    </varray>
   </crystal>
   <varray name="positions" >
    <v>       0.00415361       0.00267210       0.12034134 </v>
    <v>       0.35695335       0.00285503       0.09748893 </v>
    <v>       0.00423858       0.35550699       0.09749256 </v>
    <v>       0.65142295       0.65006557       0.09747688 </v>
    <v>       0.32808646       0.32671938       0.10030508 </v>
    <v>       0.68027775       0.00278085       0.10027562 </v>
    <v>       0.00416530       0.67883808       0.10026559 </v>
    <v>       0.11111044       0.38888856       0.33726667 </v>
    <v>       0.27777744       0.22222156       0.33726667 </v>
    <v>       0.11111044       0.88888856       0.33726667 </v>
    <v>       0.27777744       0.72222156       0.33726667 </v>
    <v>       0.61111044       0.38888856       0.33726667 </v>
    <v>       0.77777744       0.22222156       0.33726667 </v>
    <v>       0.61111044       0.88888856       0.33726667 </v>
    <v>       0.77777744       0.72222156       0.33726667 </v>
   </varray>
  </structure>
  <varray name="primitive_index" >
   <v type="int" >        1 </v>
   <v type="int" >        2 </v>
   <v type="int" >        3 </v>
   <v type="int" >        4 </v>
   <v type="int" >        5 </v>
   <v type="int" >        6 </v>
   <v type="int" >        7 </v>
   <v type="int" >        8 </v>
   <v type="int" >        9 </v>
   <v type="int" >       10 </v>
   <v type="int" >       11 </v>
   <v type="int" >       12 </v>
   <v type="int" >       13 </v>
   <v type="int" >       14 </v>
   <v type="int" >       15 </v>
  </varray>
 </primitive_cell>
 <kpoints>
  <generation param="Gamma">
   <v type="int" name="divisions">      12       12        1 </v>
   <v name="usershift">      0.00000000       0.00000000       0.00000000 </v>
   <v name="genvec1">      0.08333333      -0.00000000       0.00000000 </v>
   <v name="genvec2">     -0.00000000       0.08333333       0.00000000 </v>
   <v name="genvec3">      0.00000000       0.00000000       1.00000000 </v>
   <v name="shift">      0.00000000       0.00000000       0.00000000 </v>
  </generation>
  <varray name="kpointlist" >
   <v>       0.00000000       0.00000000       0.00000000 </v>
   <v>       0.08333333       0.00000000       0.00000000 </v>
   <v>       0.00000000       0.08333333       0.00000000 </v>
   <v>      -0.08333333       0.08333333       0.00000000 </v>
   <v>       0.16666667      -0.00000000       0.00000000 </v>
   <v>      -0.00000000       0.16666667       0.00000000 </v>
   <v>      -0.16666667       0.16666667       0.00000000 </v>
   <v>       0.25000000      -0.00000000       0.00000000 </v>
   <v>      -0.00000000       0.25000000       0.00000000 </v>
   <v>      -0.25000000       0.25000000       0.00000000 </v>
   <v>       0.33333333      -0.00000000       0.00000000 </v>
   <v>      -0.00000000       0.33333333       0.00000000 </v>
   <v>      -0.33333333       0.33333333       0.00000000 </v>
   <v>       0.41666667      -0.00000000       0.00000000 </v>
   <v>      -0.00000000       0.41666667       0.00000000 </v>
   <v>      -0.41666667       0.41666667       0.00000000 </v>
   <v>       0.50000000      -0.00000000       0.00000000 </v>
   <v>      -0.00000000       0.50000000       0.00000000 </v>
   <v>       0.50000000       0.50000000       0.00000000 </v>
   <v>       0.08333333       0.08333333       0.00000000 </v>
   <v>      -0.08333333       0.16666667       0.00000000 </v>
   <v>      -0.16666667       0.08333333       0.00000000 </v>
   <v>       0.16666667       0.08333333       0.00000000 </v>
   <v>      -0.08333333       0.25000000       0.00000000 </v>
   <v>      -0.25000000       0.16666667       0.00000000 </v>
   <v>      -0.16666667       0.25000000       0.00000000 </v>
   <v>       0.08333333       0.16666667       0.00000000 </v>
   <v>       0.25000000      -0.08333333       0.00000000 </v>
   <v>       0.25000000       0.08333333       0.00000000 </v>
   <v>      -0.08333333       0.33333333       0.00000000 </v>
   <v>      -0.33333333       0.25000000       0.00000000 </v>
   <v>      -0.25000000       0.33333333       0.00000000 </v>
   <v>       0.08333333       0.25000000       0.00000000 </v>
   <v>       0.33333333      -0.08333333       0.00000000 </v>
   <v>       0.33333333       0.08333333       0.00000000 </v>
   <v>      -0.08333333       0.41666667       0.00000000 </v>
   <v>      -0.41666667       0.33333333       0.00000000 </v>
   <v>      -0.33333333       0.41666667       0.00000000 </v>
   <v>       0.08333333       0.33333333       0.00000000 </v>
   <v>       0.41666667      -0.08333333       0.00000000 </v>
   <v>       0.41666667       0.08333333       0.00000000 </v>
   <v>      -0.08333333       0.50000000       0.00000000 </v>
   <v>       0.50000000       0.41666667       0.00000000 </v>
   <v>      -0.41666667       0.50000000       0.00000000 </v>
   <v>       0.08333333       0.41666667       0.00000000 </v>
   <v>       0.50000000      -0.08333333       0.00000000 </v>
   <v>       0.16666667       0.16666667       0.00000000 </v>
   <v>      -0.16666667       0.33333333       0.00000000 </v>
   <v>      -0.33333333       0.16666667       0.00000000 </v>
   <v>       0.25000000       0.16666667       0.00000000 </v>
   <v>      -0.16666667       0.41666667       0.00000000 </v>
   <v>      -0.41666667       0.25000000       0.00000000 </v>
   <v>      -0.25000000       0.41666667       0.00000000 </v>
   <v>       0.16666667       0.25000000       0.00000000 </v>
   <v>       0.41666667      -0.16666667       0.00000000 </v>
   <v>       0.33333333       0.16666667       0.00000000 </v>
   <v>      -0.16666667       0.50000000       0.00000000 </v>
   <v>       0.50000000       0.33333333       0.00000000 </v>
   <v>      -0.33333333       0.50000000       0.00000000 </v>
   <v>       0.16666667       0.33333333       0.00000000 </v>
   <v>       0.50000000      -0.16666667       0.00000000 </v>
   <v>       0.41666667       0.16666667       0.00000000 </v>
   <v>      -0.16666667      -0.41666667       0.00000000 </v>
   <v>       0.41666667       0.41666667       0.00000000 </v>
   <v>       0.25000000       0.25000000       0.00000000 </v>
   <v>      -0.25000000       0.50000000       0.00000000 </v>
   <v>       0.50000000       0.25000000       0.00000000 </v>
   <v>       0.33333333       0.25000000       0.00000000 </v>
   <v>      -0.25000000      -0.41666667       0.00000000 </v>
   <v>       0.41666667       0.33333333       0.00000000 </v>
   <v>      -0.33333333      -0.41666667       0.00000000 </v>
   <v>       0.25000000       0.33333333       0.00000000 </v>
   <v>      -0.41666667      -0.25000000       0.00000000 </v>
   <v>       0.33333333       0.33333333       0.00000000 </v>
  </varray>
  <varray name="weights" >
   <v>       0.00694444 </v>
   <v>       0.01388889 </v>
   <v>       0.01388889 </v>
   <v>       0.01388889 </v>
   <v>       0.01388889 </v>
   <v>       0.01388889 </v>
   <v>       0.01388889 </v>
   <v>       0.01388889 </v>
   <v>       0.01388889 </v>
   <v>       0.01388889 </v>
   <v>       0.01388889 </v>
   <v>       0.01388889 </v>
   <v>       0.01388889 </v>
   <v>       0.01388889 </v>
   <v>       0.01388889 </v>
   <v>       0.01388889 </v>
   <v>       0.00694444 </v>
   <v>       0.00694444 </v>
   <v>       0.00694444 </v>
   <v>       0.01388889 </v>
   <v>       0.01388889 </v>
   <v>       0.01388889 </v>
   <v>       0.01388889 </v>
   <v>       0.01388889 </v>
   <v>       0.01388889 </v>
   <v>       0.01388889 </v>
   <v>       0.01388889 </v>
   <v>       0.01388889 </v>
   <v>       0.01388889 </v>
   <v>       0.01388889 </v>
   <v>       0.01388889 </v>
   <v>       0.01388889 </v>
   <v>       0.01388889 </v>
   <v>       0.01388889 </v>
   <v>       0.01388889 </v>
   <v>       0.01388889 </v>
   <v>       0.01388889 </v>
   <v>       0.01388889 </v>
   <v>       0.01388889 </v>
   <v>       0.01388889 </v>
   <v>       0.01388889 </v>
   <v>       0.01388889 </v>
   <v>       0.01388889 </v>
   <v>       0.01388889 </v>
   <v>       0.01388889 </v>
   <v>       0.01388889 </v>
   <v>       0.01388889 </v>
   <v>       0.01388889 </v>
   <v>       0.01388889 </v>
   <v>       0.01388889 </v>
   <v>       0.01388889 </v>
   <v>       0.01388889 </v>
   <v>       0.01388889 </v>
   <v>       0.01388889 </v>
   <v>       0.01388889 </v>
   <v>       0.01388889 </v>
   <v>       0.01388889 </v>
   <v>       0.01388889 </v>
   <v>       0.01388889 </v>
   <v>       0.01388889 </v>
   <v>       0.01388889 </v>
   <v>       0.01388889 </v>
   <v>       0.01388889 </v>
   <v>       0.01388889 </v>
   <v>       0.01388889 </v>
   <v>       0.01388889 </v>
   <v>       0.01388889 </v>
   <v>       0.01388889 </v>
   <v>       0.01388889 </v>
   <v>       0.01388889 </v>
   <v>       0.01388889 </v>
   <v>       0.01388889 </v>
   <v>       0.01388889 </v>
   <v>       0.01388889 </v>
  </varray>
 </kpoints>
 <parameters>
  <separator name="general" >
   <i type="string" name="SYSTEM">Lattice</i>
   <i type="logical" name="LCOMPAT"> F  </i>
  </separator>
  <separator name="electronic" >
   <i type="string" name="PREC">accura</i>
   <i name="ENMAX">    450.00000000</i>
   <i name="ENAUG">    644.87300000</i>
   <i name="EDIFF">      0.00000100</i>
   <i type="int" name="IALGO">    38</i>
   <i type="int" name="IWAVPR">    11</i>
   <i type="int" name="NBANDS">    48</i>
   <i type="int" name="NBANDSLOW">    -1</i>
   <i type="int" name="NBANDSHIGH">    -1</i>
   <i name="NELECT">     56.00000000</i>
   <i type="int" name="TURBO">     0</i>
   <i type="int" name="IRESTART">     0</i>
   <i type="int" name="NREBOOT">     0</i>
   <i type="int" name="NMIN">     0</i>
   <i name="EREF">      0.00000000</i>
   <separator name="electronic smearing" >
    <i type="int" name="ISMEAR">     0</i>
    <i name="SIGMA">      0.10000000</i>
    <i name="KSPACING">      0.50000000</i>
    <i type="logical" name="KGAMMA"> T  </i>
    <i type="logical" name="KBLOWUP"> T  </i>
   </separator>
   <separator name="electronic projectors" >
    <i type="logical" name="LREAL"> F  </i>
    <v name="ROPT">      0.00000000      0.00000000</v>
    <i type="int" name="LMAXPAW">  -100</i>
    <i type="int" name="LMAXMIX">     2</i>
    <i type="logical" name="NLSPLINE"> F  </i>
   </separator>
   <separator name="electronic startup" >
    <i type="int" name="ISTART">     0</i>
    <i type="int" name="ICHARG">     2</i>
    <i type="int" name="INIWAV">     1</i>
   </separator>
   <separator name="electronic spin" >
    <i type="int" name="ISPIN">     2</i>
    <i type="logical" name="LNONCOLLINEAR"> F  </i>
    <v name="MAGMOM">      1.00000000      1.00000000      1.00000000      1.00000000      1.00000000      1.00000000      1.00000000      1.00000000      1.00000000      1.00000000      1.00000000      1.00000000      1.00000000      1.00000000      1.00000000</v>
    <i name="NUPDOWN">     -1.00000000</i>
    <i type="logical" name="LSORBIT"> F  </i>
    <v name="SAXIS">      0.00000000      0.00000000      1.00000000</v>
    <i type="logical" name="LSPIRAL"> F  </i>
    <v name="QSPIRAL">      0.00000000      0.00000000      0.00000000</v>
    <i type="logical" name="LZEROZ"> F  </i>
   </separator>
   <separator name="electronic exchange-correlation" >
    <i type="logical" name="LASPH"> F  </i>
    <i type="logical" name="LMETAGGA"> F  </i>
   </separator>
   <separator name="electronic convergence" >
    <i type="int" name="NELM">    64</i>
    <i type="int" name="NELMDL">    -5</i>
    <i type="int" name="NELMIN">     2</i>
    <i name="ENINI">    450.00000000</i>
    <separator name="electronic convergence detail" >
     <i type="logical" name="LDIAG"> T  </i>
     <i type="logical" name="LSUBROT"> F  </i>
     <i name="WEIMIN">      0.00100000</i>
     <i name="EBREAK">      0.00000001</i>
     <i name="DEPER">      0.30000000</i>
     <i type="int" name="NRMM">     4</i>
     <i name="TIME">      0.40000000</i>
    </separator>
   </separator>
   <separator name="electronic mixer" >
    <i name="AMIX">      0.40000000</i>
    <i name="BMIX">      1.00000000</i>
    <i name="AMIN">      0.10000000</i>
    <i name="AMIX_MAG">      1.60000000</i>
    <i name="BMIX_MAG">      1.00000000</i>
    <separator name="electronic mixer details" >
     <i type="int" name="IMIX">     4</i>
     <i type="logical" name="MIXFIRST"> F  </i>
     <i type="int" name="MAXMIX">   -45</i>
     <i name="WC">    100.00000000</i>
     <i type="int" name="INIMIX">     1</i>
     <i type="int" name="MIXPRE">     1</i>
     <i type="int" name="MREMOVE">     5</i>
    </separator>
   </separator>
   <separator name="electronic dipolcorrection" >
    <i type="logical" name="LDIPOL"> F  </i>
    <i type="logical" name="LMONO"> F  </i>
    <i type="int" name="IDIPOL">     0</i>
    <i name="EPSILON">      1.00000000</i>
    <v name="DIPOL">   -100.00000000   -100.00000000   -100.00000000</v>
    <i name="EFIELD">      0.00000000</i>
   </separator>
  </separator>
  <separator name="grids" >
   <i type="int" name="NGX">    36</i>
   <i type="int" name="NGY">    36</i>
   <i type="int" name="NGZ">   108</i>
   <i type="int" name="NGXF">    72</i>
   <i type="int" name="NGYF">    72</i>
   <i type="int" name="NGZF">   216</i>
   <i type="logical" name="ADDGRID"> F  </i>
  </separator>
  <separator name="ionic" >
   <i type="int" name="NSW">   128</i>
   <i type="int" name="IBRION">     2</i>
   <i type="int" name="MDALGO">     0</i>
   <i type="int" name="ISIF">     2</i>
   <i name="PSTRESS">      0.00000000</i>
   <i name="EDIFFG">     -0.00100000</i>
   <i type="int" name="NFREE">     1</i>
   <i name="POTIM">      0.50000000</i>
   <i name="SMASS">     -3.00000000</i>
   <i name="SCALEE">      1.00000000</i>
  </separator>
  <separator name="ionic md" >
   <i name="TEBEG">      0.00010000</i>
   <i name="TEEND">      0.00010000</i>
   <i type="int" name="NBLOCK">     1</i>
   <i type="int" name="KBLOCK">   128</i>
   <i type="int" name="NPACO">   256</i>
   <i name="APACO">     10.00000000</i>
  </separator>
  <separator name="symmetry" >
   <i type="int" name="ISYM">     2</i>
   <i name="SYMPREC">      0.00001000</i>
  </separator>
  <separator name="dos" >
   <i type="int" name="LORBIT">     0</i>
   <v name="RWIGS">     -1.00000000     -1.00000000</v>
   <i type="int" name="NEDOS">   301</i>
   <i name="EMIN">     10.00000000</i>
   <i name="EMAX">    -10.00000000</i>
   <i name="EFERMI">      0.00000000</i>
  </separator>
  <separator name="writing" >
   <i type="int" name="NWRITE">     2</i>
   <i type="logical" name="LWAVE"> F  </i>
   <i type="logical" name="LDOWNSAMPLE"> F  </i>
   <i type="logical" name="LCHARG"> F  </i>
   <i type="logical" name="LPARD"> F  </i>
   <i type="logical" name="LVTOT"> F  </i>
   <i type="logical" name="LVHAR"> F  </i>
   <i type="logical" name="LELF"> F  </i>
   <i type="logical" name="LOPTICS"> F  </i>
   <v name="STM">      0.00000000      0.00000000      0.00000000      0.00000000      0.00000000      0.00000000      0.00000000</v>
  </separator>
  <separator name="performance" >
   <i type="int" name="NPAR">    48</i>
   <i type="int" name="NSIM">     4</i>
   <i type="int" name="NBLK">    -1</i>
   <i type="logical" name="LPLANE"> T  </i>
   <i type="logical" name="LSCALAPACK"> T  </i>
   <i type="logical" name="LSCAAWARE"> F  </i>
   <i type="logical" name="LSCALU"> F  </i>
   <i type="logical" name="LASYNC"> F  </i>
   <i type="logical" name="LORBITALREAL"> F  </i>
  </separator>
  <separator name="miscellaneous" >
   <i type="int" name="IDIOT">     3</i>
   <i type="int" name="PHON_NSTRUCT">    -1</i>
   <i type="logical" name="LMUSIC"> F  </i>
   <v name="POMASS">     10.81100000     12.01100000</v>
   <v name="DARWINR">      0.00000000      0.00000000</v>
   <v name="DARWINV">      1.00000000      1.00000000</v>
   <i type="logical" name="LCORR"> T  </i>
  </separator>
  <i type="logical" name="GGA_COMPAT"> T  </i>
  <i type="logical" name="LBERRY"> F  </i>
  <i type="int" name="ICORELEVEL">     0</i>
  <i type="logical" name="LDAU"> F  </i>
  <i type="int" name="I_CONSTRAINED_M">     0</i>
  <separator name="electronic exchange-correlation" >
   <i type="string" name="GGA">PE</i>
   <i type="int" name="VOSKOWN">     0</i>
   <i type="logical" name="LHFCALC"> F  </i>
   <i type="string" name="PRECFOCK"></i>
   <i type="logical" name="LSYMGRAD"> F  </i>
   <i type="logical" name="LHFONE"> F  </i>
   <i type="logical" name="LRHFCALC"> F  </i>
   <i type="logical" name="LTHOMAS"> F  </i>
   <i type="logical" name="LMODELHF"> F  </i>
   <i type="logical" name="LFOCKACE"> F  </i>
   <i name="ENCUT4O">     -1.00000000</i>
   <i type="int" name="EXXOEP">     0</i>
   <i type="int" name="FOURORBIT">     0</i>
   <i name="AEXX">      0.00000000</i>
   <i name="HFALPHA">      0.00000000</i>
   <i name="MCALPHA">      0.00000000</i>
   <i name="ALDAX">      1.00000000</i>
   <i name="AGGAX">      1.00000000</i>
   <i name="ALDAC">      1.00000000</i>
   <i name="AGGAC">      1.00000000</i>
   <i type="int" name="NKREDX">     1</i>
   <i type="int" name="NKREDY">     1</i>
   <i type="int" name="NKREDZ">     1</i>
   <i type="logical" name="SHIFTRED"> F  </i>
   <i type="logical" name="ODDONLY"> F  </i>
   <i type="logical" name="EVENONLY"> F  </i>
   <i type="int" name="LMAXFOCK">     0</i>
   <i type="int" name="NMAXFOCKAE">     0</i>
   <i type="logical" name="LFOCKAEDFT"> F  </i>
   <i name="HFSCREEN">      0.00000000</i>
   <i name="HFSCREENC">      0.00000000</i>
   <i type="int" name="NBANDSGWLOW">     0</i>
  </separator>
  <separator name="vdW DFT" >
   <i type="logical" name="LUSE_VDW"> F  </i>
   <i name="Zab_VDW">     -0.84910000</i>
   <i name="PARAM1">      0.12340000</i>
   <i name="PARAM2">      1.00000000</i>
   <i name="PARAM3">      0.00000000</i>
  </separator>
  <separator name="model GW" >
   <i type="int" name="MODEL_GW">     0</i>
   <i name="MODEL_EPS0">     12.25290985</i>
   <i name="MODEL_ALPHA">      1.00000000</i>
  </separator>
  <separator name="linear response parameters" >
   <i type="logical" name="LEPSILON"> F  </i>
   <i type="logical" name="LRPA"> F  </i>
   <i type="logical" name="LNABLA"> F  </i>
   <i type="logical" name="LVEL"> F  </i>
   <i name="CSHIFT">      0.10000000</i>
   <i name="OMEGAMAX">     -1.00000000</i>
   <i name="DEG_THRESHOLD">      0.00200000</i>
   <i name="RTIME">     -0.10000000</i>
   <i name="WPLASMAI">      0.00000000</i>
   <v name="DFIELD">      0.00000000      0.00000000      0.00000000</v>
   <v name="WPLASMA">      0.00000000      0.00000000      0.00000000      0.00000000      0.00000000      0.00000000      0.00000000      0.00000000      0.00000000</v>
  </separator>
  <separator name="orbital magnetization" >
   <i type="logical" name="NUCIND"> F  </i>
   <v name="MAGPOS">      0.00000000      0.00000000      0.00000000</v>
   <i type="logical" name="LNICSALL"> T  </i>
   <i type="logical" name="ORBITALMAG"> F  </i>
   <i type="logical" name="LMAGBLOCH"> F  </i>
   <i type="logical" name="LCHIMAG"> F  </i>
   <i type="logical" name="LGAUGE"> T  </i>
   <i type="int" name="MAGATOM">     0</i>
   <v name="MAGDIPOL">      0.00000000      0.00000000      0.00000000</v>
   <v name="AVECCONST">      0.00000000      0.00000000      0.00000000</v>
  </separator>
  <separator name="response functions" >
   <i type="logical" name="LFINITE_TEMPERATURE"> F  </i>
   <i type="logical" name="LADDER"> F  </i>
   <i type="logical" name="LRPAFORCE"> F  </i>
   <i type="logical" name="LFXC"> F  </i>
   <i type="logical" name="LHARTREE"> T  </i>
   <i type="int" name="IBSE">     0</i>
   <v type="int" name="KPOINT">    -1     0     0     0</v>
   <i type="logical" name="LTCTC"> F  </i>
   <i type="logical" name="LTCTE"> F  </i>
   <i type="logical" name="LTETE"> F  </i>
   <i type="logical" name="LTRIPLET"> F  </i>
   <i type="logical" name="LFXCEPS"> F  </i>
   <i type="logical" name="LFXHEG"> F  </i>
   <i type="int" name="NATURALO">     2</i>
   <i type="logical" name="LHOLEGF"> F  </i>
   <i type="logical" name="L2ORDER"> F  </i>
   <i type="logical" name="LDMP1"> F  </i>
   <i type="logical" name="LMP2LT"> F  </i>
   <i type="logical" name="LSMP2LT"> F  </i>
   <i type="logical" name="LGWLF"> F  </i>
   <i name="ENCUTGW">     -2.00000000</i>
   <i name="ENCUTGWSOFT">     -2.00000000</i>
   <i name="ENCUTLF">     -1.00000000</i>
   <i type="logical" name="LESF_SPLINES"> F  </i>
   <i type="int" name="LMAXMP2">    -1</i>
   <i name="SCISSOR">      0.00000000</i>
   <i type="int" name="NOMEGA">     0</i>
   <i type="int" name="NOMEGAR">     0</i>
   <i type="int" name="NBANDSGW">    -1</i>
   <i type="int" name="NBANDSO">    -1</i>
   <i type="int" name="NBANDSV">    -1</i>
   <i type="int" name="NELMGW">     1</i>
   <i type="int" name="NELMHF">     1</i>
   <i type="int" name="DIM">     3</i>
   <i type="int" name="IESPILON">     4</i>
   <i type="int" name="ANTIRES">     0</i>
   <i name="OMEGAMAX">    -30.00000000</i>
   <i name="OMEGAMIN">    -30.00000000</i>
   <i name="OMEGATL">   -200.00000000</i>
   <i type="int" name="OMEGAGRID">     0</i>
   <i name="CSHIFT">     -0.10000000</i>
   <i type="logical" name="LSELFENERGY"> F  </i>
   <i type="logical" name="LSPECTRAL"> F  </i>
   <i type="logical" name="LSPECTRALGW"> F  </i>
   <i type="logical" name="LSINGLES"> F  </i>
   <i type="logical" name="LFERMIGW"> F  </i>
   <i type="logical" name="ODDONLYGW"> F  </i>
   <i type="logical" name="EVENONLYGW"> F  </i>
   <i type="int" name="NKREDLFX">     1</i>
   <i type="int" name="NKREDLFY">     1</i>
   <i type="int" name="NKREDLFZ">     1</i>
   <i type="int" name="MAXMEM">  2800</i>
   <i type="int" name="TELESCOPE">     0</i>
   <i type="int" name="NTAUPAR">    -1</i>
   <i type="int" name="NOMEGAPAR">    -1</i>
   <i name="DAMP_NEWTON">      0.80000001</i>
   <i name="LAMBDA">      1.00000000</i>
  </separator>
  <separator name="External order field" >
   <i name="OFIELD_KAPPA">      0.00000000</i>
   <v name="OFIELD_K">      0.00000000      0.00000000      0.00000000</v>
   <i name="OFIELD_Q6_NEAR">      0.00000000</i>
   <i name="OFIELD_Q6_FAR">      0.00000000</i>
   <i name="OFIELD_A">      0.00000000</i>
  </separator>
  <separator name="optional k-points parameters" >
   <i type="int" name="KPOINTS_OPT_MODE">     1</i>
   <i type="logical" name="LKPOINTS_OPT"> F  </i>
  </separator>
  <separator name="solvation model" >
   <i type="logical" name="LSOL"> F  </i>
  </separator>
 </parameters>
 <atominfo>
  <atoms>      15 </atoms>
  <types>       2 </types>
  <array name="atoms" >
   <dimension dim="1">ion</dimension>
   <field type="string">element</field>
   <field type="int">atomtype</field>
   <set>
    <rc><c>B </c><c>   1</c></rc>
    <rc><c>B </c><c>   1</c></rc>
    <rc><c>B </c><c>   1</c></rc>
    <rc><c>B </c><c>   1</c></rc>
    <rc><c>C </c><c>   2</c></rc>
    <rc><c>C </c><c>   2</c></rc>
    <rc><c>C </c><c>   2</c></rc>
    <rc><c>C </c><c>   2</c></rc>
    <rc><c>C </c><c>   2</c></rc>
    <rc><c>C </c><c>   2</c></rc>
    <rc><c>C </c><c>   2</c></rc>
    <rc><c>C </c><c>   2</c></rc>
    <rc><c>C </c><c>   2</c></rc>
    <rc><c>C </c><c>   2</c></rc>
    <rc><c>C </c><c>   2</c></rc>
   </set>
  </array>
  <array name="atomtypes" >
   <dimension dim="1">type</dimension>
   <field type="int">atomspertype</field>
   <field type="string">element</field>
   <field>mass</field>
   <field>valence</field>
   <field type="string">pseudopotential</field>
   <set>
    <rc><c>   4</c><c>B </c><c>     10.81100000</c><c>      3.00000000</c><c>  PAW_PBE B 06Sep2000                   </c></rc>
    <rc><c>  11</c><c>C </c><c>     12.01100000</c><c>      4.00000000</c><c>  PAW_PBE C 08Apr2002                   </c></rc>
   </set>
  </array>
 </atominfo>
 <structure name="initialpos" >
  <crystal>
   <varray name="basis" >
    <v>       4.20541936       2.42800000       0.00000000 </v>
    <v>      -4.20541936       2.42800000       0.00000000 </v>
    <v>       0.00000000       0.00000000      15.00000000 </v>
   </varray>
   <i name="volume">    306.32274624 </i>
   <varray name="rec_basis" >
    <v>       0.11889421       0.20593081       0.00000000 </v>
    <v>      -0.11889421       0.20593081       0.00000000 </v>
    <v>       0.00000000       0.00000000       0.06666667 </v>
   </varray>
  </crystal>
  <varray name="positions" >
   <v>       0.00415361       0.00267210       0.12034134 </v>
   <v>       0.35695335       0.00285503       0.09748893 </v>
   <v>       0.00423858       0.35550699       0.09749256 </v>
   <v>       0.65142295       0.65006557       0.09747688 </v>
   <v>       0.32808646       0.32671938       0.10030508 </v>
   <v>       0.68027775       0.00278085       0.10027562 </v>
   <v>       0.00416530       0.67883808       0.10026559 </v>
   <v>       0.11111044       0.38888856       0.33726667 </v>
   <v>       0.27777744       0.22222156       0.33726667 </v>
   <v>       0.11111044       0.88888856       0.33726667 </v>
   <v>       0.27777744       0.72222156       0.33726667 </v>
   <v>       0.61111044       0.38888856       0.33726667 </v>
   <v>       0.77777744       0.22222156       0.33726667 </v>
   <v>       0.61111044       0.88888856       0.33726667 </v>
   <v>       0.77777744       0.72222156       0.33726667 </v>
  </varray>
 </structure>
 <calculation>
  <scstep>
   <time name="dav">    5.48    5.53</time>
   <time name="total">    5.53    5.58</time>
   <energy>
    <i name="alphaZ">     58.06716954 </i>
    <i name="ewald">   4659.45657119 </i>
    <i name="hartreedc">  -6217.31850444 </i>
    <i name="XCdc">    174.89536100 </i>
    <i name="pawpsdc">   1365.87943566 </i>
    <i name="pawaedc">  -1368.52100941 </i>
    <i name="eentropy">     -0.01910687 </i>
    <i name="bandstr">   -373.26947348 </i>
    <i name="atom">   1903.26342058 </i>
    <i name="e_fr_energy">    202.43386378 </i>
    <i name="e_wo_entrp">    202.45297064 </i>
    <i name="e_0_energy">    202.44341721 </i>
   </energy>
  </scstep>
  <scstep>
   <time name="dav">    7.89    7.96</time>
   <time name="total">    7.89    7.96</time>
   <energy>
    <i name="e_fr_energy">   -116.17306007 </i>
    <i name="e_wo_entrp">   -116.17145595 </i>
    <i name="e_0_energy">   -116.17225801 </i>
   </energy>
  </scstep>
  <scstep>
   <time name="dav">   11.18   11.26</time>
   <time name="total">   11.18   11.26</time>
   <energy>
    <i name="e_fr_energy">   -129.20762117 </i>
    <i name="e_wo_entrp">   -129.20451850 </i>
    <i name="e_0_energy">   -129.20606983 </i>
   </energy>
  </scstep>
  <scstep>
   <time name="dav">    7.92    7.98</time>
   <time name="total">    7.92    7.98</time>
   <energy>
    <i name="e_fr_energy">   -129.23484499 </i>
    <i name="e_wo_entrp">   -129.23169301 </i>
    <i name="e_0_energy">   -129.23326900 </i>
   </energy>
  </scstep>
  <scstep>
   <time name="dav">   10.84   10.92</time>
   <time name="total">   11.10   11.19</time>
   <energy>
    <i name="e_fr_energy">   -129.23490965 </i>
    <i name="e_wo_entrp">   -129.23175753 </i>
    <i name="e_0_energy">   -129.23333359 </i>
   </energy>
  </scstep>
  <scstep>
   <time name="dav">   10.71   10.78</time>
   <time name="total">   11.01   11.09</time>
   <energy>
    <i name="e_fr_energy">    -91.95879107 </i>
    <i name="e_wo_entrp">    -91.95215998 </i>
    <i name="e_0_energy">    -91.95547553 </i>
   </energy>
  </scstep>
  <scstep>
   <time name="dav">    8.69    8.75</time>
   <time name="total">    8.99    9.06</time>
   <energy>
    <i name="e_fr_energy">   -100.36531469 </i>
    <i name="e_wo_entrp">   -100.35956762 </i>
    <i name="e_0_energy">   -100.36244116 </i>
   </energy>
  </scstep>
  <scstep>
   <time name="dav">   10.12   10.18</time>
   <time name="total">   10.41   10.49</time>
   <energy>
    <i name="e_fr_energy">   -110.45858222 </i>
    <i name="e_wo_entrp">   -110.45855458 </i>
    <i name="e_0_energy">   -110.45856840 </i>
   </energy>
  </scstep>
  <scstep>
   <time name="dav">    7.48    7.54</time>
   <time name="total">    7.77    7.84</time>
   <energy>
    <i name="e_fr_energy">   -117.11577264 </i>
    <i name="e_wo_entrp">   -117.11576869 </i>
    <i name="e_0_energy">   -117.11577066 </i>
   </energy>
  </scstep>
  <scstep>
   <time name="dav">    9.74    9.81</time>
   <time name="total">   10.03   10.10</time>
   <energy>
    <i name="e_fr_energy">   -123.47558646 </i>
    <i name="e_wo_entrp">   -123.47497104 </i>
    <i name="e_0_energy">   -123.47527875 </i>
   </energy>
  </scstep>
  <scstep>
   <time name="dav">   10.26   10.34</time>
   <time name="total">   10.55   10.64</time>
   <energy>
    <i name="e_fr_energy">   -125.27158416 </i>
    <i name="e_wo_entrp">   -125.27039340 </i>
    <i name="e_0_energy">   -125.27098878 </i>
   </energy>
  </scstep>
  <scstep>
   <time name="dav">    7.95    8.00</time>
   <time name="total">    8.24    8.30</time>
   <energy>
    <i name="e_fr_energy">   -125.42854214 </i>
    <i name="e_wo_entrp">   -125.42705970 </i>
    <i name="e_0_energy">   -125.42780092 </i>
   </energy>
  </scstep>
  <scstep>
   <time name="dav">    6.99    7.03</time>
   <time name="total">    7.28    7.33</time>
   <energy>
    <i name="e_fr_energy">   -125.45510439 </i>
    <i name="e_wo_entrp">   -125.45354555 </i>
    <i name="e_0_energy">   -125.45432497 </i>
   </energy>
  </scstep>
  <scstep>
   <time name="dav">    8.55    8.61</time>
   <time name="total">    8.84    8.91</time>
   <energy>
    <i name="e_fr_energy">   -125.47833418 </i>
    <i name="e_wo_entrp">   -125.47677012 </i>
    <i name="e_0_energy">   -125.47755215 </i>
   </energy>
  </scstep>
  <scstep>
   <time name="dav">    7.48    7.53</time>
   <time name="total">    7.77    7.83</time>
   <energy>
    <i name="e_fr_energy">   -125.48604900 </i>
    <i name="e_wo_entrp">   -125.48448420 </i>
    <i name="e_0_energy">   -125.48526660 </i>
   </energy>
  </scstep>
  <scstep>
   <time name="dav">    6.18    6.22</time>
   <time name="total">    6.47    6.52</time>
   <energy>
    <i name="e_fr_energy">   -125.48805050 </i>
    <i name="e_wo_entrp">   -125.48648567 </i>
    <i name="e_0_energy">   -125.48726808 </i>
   </energy>
  </scstep>
  <scstep>
   <time name="dav">    5.79    5.83</time>
   <time name="total">    6.08    6.13</time>
   <energy>
    <i name="e_fr_energy">   -125.48931263 </i>
    <i name="e_wo_entrp">   -125.48774782 </i>
    <i name="e_0_energy">   -125.48853022 </i>
   </energy>
  </scstep>
  <scstep>
   <time name="dav">    6.18    6.23</time>
   <time name="total">    6.47    6.52</time>
   <energy>
    <i name="e_fr_energy">   -125.49000769 </i>
    <i name="e_wo_entrp">   -125.48844289 </i>
    <i name="e_0_energy">   -125.48922529 </i>
   </energy>
  </scstep>
  <scstep>
   <time name="dav">    7.92    7.98</time>
   <time name="total">    8.21    8.28</time>
   <energy>
    <i name="e_fr_energy">   -125.49045182 </i>
    <i name="e_wo_entrp">   -125.48888700 </i>
    <i name="e_0_energy">   -125.48966941 </i>
   </energy>
  </scstep>
  <scstep>
   <time name="dav">    9.00    9.06</time>
   <time name="total">    9.29    9.36</time>
   <energy>
    <i name="e_fr_energy">   -125.49050129 </i>
    <i name="e_wo_entrp">   -125.48893647 </i>
    <i name="e_0_energy">   -125.48971888 </i>
   </energy>
  </scstep>
  <scstep>
   <time name="dav">    8.13    8.18</time>
   <time name="total">    8.42    8.49</time>
   <energy>
    <i name="e_fr_energy">   -125.49052207 </i>
    <i name="e_wo_entrp">   -125.48895725 </i>
    <i name="e_0_energy">   -125.48973966 </i>
   </energy>
  </scstep>
  <scstep>
   <time name="dav">    8.66    8.72</time>
   <time name="total">    8.95    9.02</time>
   <energy>
    <i name="e_fr_energy">   -125.49054318 </i>
    <i name="e_wo_entrp">   -125.48897836 </i>
    <i name="e_0_energy">   -125.48976077 </i>
   </energy>
  </scstep>
  <scstep>
   <time name="dav">    8.80    8.85</time>
   <time name="total">    9.09    9.15</time>
   <energy>
    <i name="e_fr_energy">   -125.49055898 </i>
    <i name="e_wo_entrp">   -125.48899416 </i>
    <i name="e_0_energy">   -125.48977657 </i>
   </energy>
  </scstep>
  <scstep>
   <time name="dav">    9.41    9.47</time>
   <time name="total">    9.70    9.77</time>
   <energy>
    <i name="e_fr_energy">   -125.49056221 </i>
    <i name="e_wo_entrp">   -125.48899738 </i>
    <i name="e_0_energy">   -125.48977979 </i>
   </energy>
  </scstep>
  <scstep>
   <time name="dav">    8.76    8.81</time>
   <time name="total">    8.79    8.84</time>
   <energy>
    <i name="alphaZ">     58.06716954 </i>
    <i name="ewald">   4659.45657119 </i>
    <i name="hartreedc">  -6416.89716827 </i>
    <i name="XCdc">    180.22320034 </i>
    <i name="pawpsdc">   5680.94627175 </i>
    <i name="pawaedc">  -5685.33529585 </i>
    <i name="eentropy">     -0.00156483 </i>
    <i name="bandstr">   -505.21316764 </i>
    <i name="atom">   1903.26342058 </i>
    <i name="e_fr_energy">   -125.49056318 </i>
    <i name="e_wo_entrp">   -125.48899836 </i>
    <i name="e_0_energy">   -125.48978077 </i>
   </energy>
  </scstep>
  <structure>
   <crystal>
    <varray name="basis" >
     <v>       4.20541936       2.42800000       0.00000000 </v>
     <v>      -4.20541936       2.42800000       0.00000000 </v>
     <v>       0.00000000       0.00000000      15.00000000 </v>
    </varray>
    <i name="volume">    306.32274624 </i>
    <varray name="rec_basis" >
     <v>       0.11889421       0.20593081       0.00000000 </v>
     <v>      -0.11889421       0.20593081       0.00000000 </v>
     <v>       0.00000000       0.00000000       0.06666667 </v>
    </varray>
   </crystal>
   <varray name="positions" >
    <v>       0.00415361       0.00267210       0.12034134 </v>
    <v>       0.35695335       0.00285503       0.09748893 </v>
    <v>       0.00423858       0.35550699       0.09749256 </v>
    <v>       0.65142295       0.65006557       0.09747688 </v>
    <v>       0.32808646       0.32671938       0.10030508 </v>
    <v>       0.68027775       0.00278085       0.10027562 </v>
    <v>       0.00416530       0.67883808       0.10026559 </v>
    <v>       0.11111044       0.38888856       0.33726667 </v>
    <v>       0.27777744       0.22222156       0.33726667 </v>
    <v>       0.11111044       0.88888856       0.33726667 </v>
    <v>       0.27777744       0.72222156       0.33726667 </v>
    <v>       0.61111044       0.38888856       0.33726667 </v>
    <v>       0.77777744       0.22222156       0.33726667 </v>
    <v>       0.61111044       0.88888856       0.33726667 </v>
    <v>       0.77777744       0.72222156       0.33726667 </v>
   </varray>
  </structure>
  <varray name="forces" >
   <v>      -0.00073052       0.00177745      -0.41952072 </v>
   <v>      -0.10724268      -0.06816077       0.10907204 </v>
   <v>       0.08833186      -0.05587722       0.12560770 </v>
   <v>       0.00947937       0.11344778       0.12128283 </v>
   <v>       0.01410000      -0.36187325       0.00275394 </v>
   <v>       0.32853417       0.19104245       0.01635451 </v>
   <v>      -0.30294301       0.18088365       0.00542922 </v>
   <v>      -0.01521787       0.00153314       0.00431775 </v>
   <v>       0.00125494       0.01294293       0.02747379 </v>
   <v>       0.00469453       0.01609286       0.00794038 </v>
   <v>       0.01694398       0.00950153      -0.01889224 </v>
   <v>       0.00118159      -0.00454332      -0.02043473 </v>
   <v>      -0.00762893       0.00038435       0.00721826 </v>
   <v>      -0.01162185      -0.01182645       0.02390373 </v>
   <v>      -0.01913557      -0.02532512       0.00749354 </v>
  </varray>
  <varray name="stress" >
   <v>     -16.79997995       0.07664645      -0.54700937 </v>
   <v>       0.07664647     -16.92865068      -0.02053741 </v>
   <v>      -0.54700938      -0.02053740      -2.12166704 </v>
  </varray>
  <energy>
   <i name="e_fr_energy">   -127.07625764 </i>
   <i name="e_wo_entrp">   -127.07469282 </i>
   <i name="e_0_energy">   -127.07547523 </i>
  </energy>
  <time name="totalsc">  220.71  222.41</time>
 </calculation>
 <calculation>
  <scstep>
   <time name="dav">    5.47    5.51</time>
   <time name="total">    5.76    5.81</time>
   <energy>
    <i name="alphaZ">     58.06716954 </i>
    <i name="ewald">   4663.09609874 </i>
    <i name="hartreedc">  -6419.09277616 </i>
    <i name="XCdc">    180.30713449 </i>
    <i name="pawpsdc">   5680.97611928 </i>
    <i name="pawaedc">  -5685.36514159 </i>
    <i name="eentropy">     -0.00156390 </i>
    <i name="bandstr">   -506.75249898 </i>
    <i name="atom">   1903.26342058 </i>
    <i name="e_fr_energy">   -125.50203801 </i>
    <i name="e_wo_entrp">   -125.50047411 </i>
    <i name="e_0_energy">   -125.50125606 </i>
   </energy>
  </scstep>
  <scstep>
   <time name="dav">   11.05   11.11</time>
   <time name="total">   11.33   11.40</time>
   <energy>
    <i name="e_fr_energy">   -125.49301513 </i>
    <i name="e_wo_entrp">   -125.49145112 </i>
    <i name="e_0_energy">   -125.49223313 </i>
   </energy>
  </scstep>
  <scstep>
   <time name="dav">    8.20    8.26</time>
   <time name="total">    8.49    8.56</time>
   <energy>
    <i name="e_fr_energy">   -125.49201080 </i>
    <i name="e_wo_entrp">   -125.49044675 </i>
    <i name="e_0_energy">   -125.49122877 </i>
   </energy>
  </scstep>
  <scstep>
   <time name="dav">   11.36   11.42</time>
   <time name="total">   11.65   11.73</time>
   <energy>
    <i name="e_fr_energy">   -125.49196861 </i>
    <i name="e_wo_entrp">   -125.49040455 </i>
    <i name="e_0_energy">   -125.49118658 </i>
   </energy>
  </scstep>
  <scstep>
   <time name="dav">    9.97   10.03</time>
   <time name="total">   10.26   10.32</time>
   <energy>
    <i name="e_fr_energy">   -125.49197221 </i>
    <i name="e_wo_entrp">   -125.49040815 </i>
    <i name="e_0_energy">   -125.49119018 </i>
   </energy>
  </scstep>
  <scstep>
   <time name="dav">    9.51    9.56</time>
   <time name="total">    9.54    9.60</time>
   <energy>
    <i name="alphaZ">     58.06716954 </i>
    <i name="ewald">   4663.09609874 </i>
    <i name="hartreedc">  -6419.84698266 </i>
    <i name="XCdc">    180.32401696 </i>
    <i name="pawpsdc">   5708.26687688 </i>
    <i name="pawaedc">  -5712.66481639 </i>
    <i name="eentropy">     -0.00156405 </i>
    <i name="bandstr">   -505.99619178 </i>
    <i name="atom">   1903.26342058 </i>
    <i name="e_fr_energy">   -125.49197219 </i>
    <i name="e_wo_entrp">   -125.49040814 </i>
    <i name="e_0_energy">   -125.49119017 </i>
   </energy>
  </scstep>
  <structure>
   <crystal>
    <varray name="basis" >
     <v>       4.20541936       2.42800000       0.00000000 </v>
     <v>      -4.20541936       2.42800000       0.00000000 </v>
     <v>       0.00000000       0.00000000      15.00000000 </v>
    </varray>
    <i name="volume">    306.32274624 </i>
    <varray name="rec_basis" >
     <v>       0.11889421       0.20593081       0.00000000 </v>
     <v>      -0.11889421       0.20593081       0.00000000 </v>
     <v>       0.00000000       0.00000000       0.06666667 </v>
    </varray>
   </crystal>
   <varray name="positions" >
    <v>       0.00416708       0.00269395       0.11899209 </v>
    <v>       0.35566108       0.00279300       0.09783973 </v>
    <v>       0.00419011       0.35444522       0.09789654 </v>
    <v>       0.65260439       0.65113826       0.09786695 </v>
    <v>       0.32457225       0.32304342       0.10031393 </v>
    <v>       0.68406008       0.00279439       0.10032822 </v>
    <v>       0.00422470       0.68237271       0.10028305 </v>
    <v>       0.11103839       0.38899107       0.33728055 </v>
    <v>       0.27791323       0.22234294       0.33735503 </v>
    <v>       0.11129725       0.88902151       0.33729220 </v>
    <v>       0.27796903       0.72221876       0.33720591 </v>
    <v>       0.61107209       0.38883664       0.33720094 </v>
    <v>       0.77773750       0.22226913       0.33728988 </v>
    <v>       0.61092629       0.88883772       0.33734355 </v>
    <v>       0.77741609       0.72207972       0.33729077 </v>
   </varray>
  </structure>
  <varray name="forces" >
   <v>      -0.00308407       0.00237568      -0.18874326 </v>
   <v>       0.26120204       0.14604943       0.06149000 </v>
   <v>      -0.22215195       0.13519112       0.07314802 </v>
   <v>       0.01083062      -0.27299636       0.06971243 </v>
   <v>       0.00205248       0.56969370      -0.02142210 </v>
   <v>      -0.50899430      -0.29709023      -0.01358170 </v>
   <v>       0.48920545      -0.28208303      -0.01967094 </v>
   <v>       0.03870253      -0.00676844       0.00495415 </v>
   <v>      -0.02742596      -0.04183021       0.00910942 </v>
   <v>      -0.03168120      -0.05990211       0.00785016 </v>
   <v>      -0.07571603      -0.03325739      -0.00101890 </v>
   <v>      -0.01418816       0.01345994       0.00046005 </v>
   <v>       0.01136421      -0.00519459       0.00367556 </v>
   <v>       0.02213808       0.04471556       0.00899965 </v>
   <v>       0.04774628       0.08763692       0.00503744 </v>
  </varray>
  <varray name="stress" >
   <v>     -14.12343102       0.11028233      -0.55528576 </v>
   <v>       0.11028235     -14.19202087      -0.01938958 </v>
   <v>      -0.55528579      -0.01938960      -1.70928760 </v>
  </varray>
  <energy>
   <i name="e_fr_energy">   -127.07701518 </i>
   <i name="e_wo_entrp">   -127.07545112 </i>
   <i name="e_0_energy">   -127.07623315 </i>
  </energy>
  <time name="totalsc">   61.76   62.18</time>
 </calculation>
 <calculation>
  <scstep>
   <time name="dav">    5.48    5.51</time>
   <time name="total">    5.77    5.82</time>
   <energy>
    <i name="alphaZ">     58.06716954 </i>
    <i name="ewald">   4661.27953002 </i>
    <i name="hartreedc">  -6418.74378394 </i>
    <i name="XCdc">    180.28182939 </i>
    <i name="pawpsdc">   5708.27579118 </i>
    <i name="pawaedc">  -5712.67371577 </i>
    <i name="eentropy">     -0.00156453 </i>
    <i name="bandstr">   -505.25019919 </i>
    <i name="atom">   1903.26342058 </i>
    <i name="e_fr_energy">   -125.50152272 </i>
    <i name="e_wo_entrp">   -125.49995819 </i>
    <i name="e_0_energy">   -125.50074046 </i>
   </energy>
  </scstep>
  <scstep>
   <time name="dav">   10.96   11.03</time>
   <time name="total">   11.25   11.33</time>
   <energy>
    <i name="e_fr_energy">   -125.49931562 </i>
    <i name="e_wo_entrp">   -125.49775114 </i>
    <i name="e_0_energy">   -125.49853338 </i>
   </energy>
  </scstep>
  <scstep>
   <time name="dav">    9.63    9.69</time>
   <time name="total">    9.92    9.99</time>
   <energy>
    <i name="e_fr_energy">   -125.49908454 </i>
    <i name="e_wo_entrp">   -125.49752008 </i>
    <i name="e_0_energy">   -125.49830231 </i>
   </energy>
  </scstep>
  <scstep>
   <time name="dav">    9.16    9.21</time>
   <time name="total">    9.44    9.51</time>
   <energy>
    <i name="e_fr_energy">   -125.49907471 </i>
    <i name="e_wo_entrp">   -125.49751025 </i>
    <i name="e_0_energy">   -125.49829248 </i>
   </energy>
  </scstep>
  <scstep>
   <time name="dav">    9.00    9.06</time>
   <time name="total">    9.04    9.10</time>
   <energy>
    <i name="alphaZ">     58.06716954 </i>
    <i name="ewald">   4661.27953002 </i>
    <i name="hartreedc">  -6418.39778789 </i>
    <i name="XCdc">    180.27365424 </i>
    <i name="pawpsdc">   5694.35093077 </i>
    <i name="pawaedc">  -5698.74419878 </i>
    <i name="eentropy">     -0.00156446 </i>
    <i name="bandstr">   -505.59022952 </i>
    <i name="atom">   1903.26342058 </i>
    <i name="e_fr_energy">   -125.49907549 </i>
    <i name="e_wo_entrp">   -125.49751103 </i>
    <i name="e_0_energy">   -125.49829326 </i>
   </energy>
  </scstep>
  <structure>
   <crystal>
    <varray name="basis" >
     <v>       4.20541936       2.42800000       0.00000000 </v>
     <v>      -4.20541936       2.42800000       0.00000000 </v>
     <v>       0.00000000       0.00000000      15.00000000 </v>
    </varray>
    <i name="volume">    306.32274624 </i>
    <varray name="rec_basis" >
     <v>       0.11889421       0.20593081       0.00000000 </v>
     <v>      -0.11889421       0.20593081       0.00000000 </v>
     <v>       0.00000000       0.00000000       0.06666667 </v>
    </varray>
   </crystal>
   <varray name="positions" >
    <v>       0.00416050       0.00268328       0.11965099 </v>
    <v>       0.35629216       0.00282329       0.09766842 </v>
    <v>       0.00421378       0.35496374       0.09769926 </v>
    <v>       0.65202743       0.65061441       0.09767646 </v>
    <v>       0.32628842       0.32483858       0.10030961 </v>
    <v>       0.68221298       0.00278778       0.10030253 </v>
    <v>       0.00419569       0.68064657       0.10027452 </v>
    <v>       0.11107358       0.38894101       0.33727377 </v>
    <v>       0.27784692       0.22228366       0.33731188 </v>
    <v>       0.11120602       0.88895658       0.33727973 </v>
    <v>       0.27787547       0.72222013       0.33723558 </v>
    <v>       0.61109082       0.38886199       0.33723304 </v>
    <v>       0.77775701       0.22224590       0.33727854 </v>
    <v>       0.61101622       0.88886255       0.33730600 </v>
    <v>       0.77759256       0.72214898       0.33727900 </v>
   </varray>
  </structure>
  <varray name="forces" >
   <v>      -0.00245710       0.00199685      -0.30014955 </v>
   <v>       0.08519082       0.04366863       0.08458591 </v>
   <v>      -0.07381735       0.04356347       0.09858703 </v>
   <v>       0.01020877      -0.08824504       0.09473954 </v>
   <v>       0.00825031       0.11313826      -0.00980795 </v>
   <v>      -0.09892924      -0.05798738       0.00090739 </v>
   <v>       0.10086927      -0.05491666      -0.00766890 </v>
   <v>       0.01233502      -0.00272014       0.00459743 </v>
   <v>      -0.01333826      -0.01510388       0.01809245 </v>
   <v>      -0.01397834      -0.02275557       0.00789998 </v>
   <v>      -0.03038376      -0.01226117      -0.00980549 </v>
   <v>      -0.00671179       0.00463588      -0.00980266 </v>
   <v>       0.00205163      -0.00241973       0.00536290 </v>
   <v>       0.00566116       0.01693555       0.01625201 </v>
   <v>       0.01504888       0.03247092       0.00620991 </v>
  </varray>
  <varray name="stress" >
   <v>     -15.56334765       0.08910018      -0.55153385 </v>
   <v>       0.08910017     -15.66283651      -0.01948399 </v>
   <v>      -0.55153387      -0.01948401      -1.89505540 </v>
  </varray>
  <energy>
   <i name="e_fr_energy">   -127.08443136 </i>
   <i name="e_wo_entrp">   -127.08286691 </i>
   <i name="e_0_energy">   -127.08364913 </i>
  </energy>
  <time name="totalsc">   50.15   50.50</time>
 </calculation>
