Lattice                                 
           1
     4.205419    2.428000    0.000000
    -4.205419    2.428000    0.000000
     0.000000    0.000000   15.000000
   B    C 
     4    11
Direct configuration=     1
   0.00415361  0.00267210  0.12034134
   0.35695335  0.00285503  0.09748893
   0.00423858  0.35550699  0.09749256
   0.65142295  0.65006557  0.09747688
   0.32808646  0.32671938  0.10030508
   0.68027775  0.00278085  0.10027562
   0.00416530  0.67883808  0.10026559
   0.11111044  0.38888856  0.33726667
   0.27777744  0.22222156  0.33726667
   0.11111044  0.88888856  0.33726667
   0.27777744  0.72222156  0.33726667
   0.61111044  0.38888856  0.33726667
   0.77777744  0.22222156  0.33726667
   0.61111044  0.88888856  0.33726667
   0.77777744  0.72222156  0.33726667
Direct configuration=     2
   0.00416708  0.00269395  0.11899209
   0.35566108  0.00279300  0.09783973
   0.00419011  0.35444522  0.09789654
   0.65260439  0.65113826  0.09786695
   0.32457225  0.32304342  0.10031393
   0.68406008  0.00279439  0.10032822
   0.00422470  0.68237271  0.10028305
   0.11103839  0.38899107  0.33728055
   0.27791323  0.22234294  0.33735503
   0.11129725  0.88902151  0.33729220
   0.27796903  0.72221876  0.33720591
   0.61107209  0.38883664  0.33720094
   0.77773750  0.22226913  0.33728988
   0.61092629  0.88883772  0.33734355
   0.77741609  0.72207972  0.33729077
Direct configuration=     3
   0.00416050  0.00268328  0.11965099
   0.35629216  0.00282329  0.09766842
   0.00421378  0.35496374  0.09769926
   0.65202743  0.65061441  0.09767646
   0.32628842  0.32483858  0.10030961
   0.68221298  0.00278778  0.10030253
   0.00419569  0.68064657  0.10027452
   0.11107358  0.38894101  0.33727377
   0.27784692  0.22228366  0.33731188
   0.11120602  0.88895658  0.33727973
   0.27787547  0.72222013  0.33723558
   0.61109082  0.38886199  0.33723304
   0.77775701  0.22224590  0.33727854
   0.61101622  0.88886255  0.33730600
   0.77759256  0.72214898  0.33727900
Direct configuration=     4
   0.00416903  0.00271934  0.11844409
   0.35680286  0.00275840  0.09800121
   0.00421018  0.35547201  0.09808592
   0.65158329  0.65003753  0.09804849
   0.32647058  0.32489507  0.10028335
   0.68212264  0.00278335  0.10031826
   0.00424024  0.68051205  0.10025661
   0.11109510  0.38887830  0.33729057
   0.27767629  0.22224751  0.33738638
   0.11097619  0.88885803  0.33730902
   0.27765599  0.72226677  0.33719200
   0.61108809  0.38892537  0.33718823
   0.77773599  0.22222543  0.33729989
   0.61115150  0.88897241  0.33737230
   0.77787158  0.72232687  0.33730302
Direct configuration=     5
   0.00419464  0.00282750  0.11482338
   0.35833496  0.00256373  0.09899959
   0.00419940  0.35699681  0.09924591
   0.65025087  0.64830689  0.09916459
   0.32701705  0.32506456  0.10020458
   0.68185162  0.00277005  0.10036544
   0.00437390  0.68010851  0.10020288
   0.11115966  0.38869018  0.33734097
   0.27716439  0.22213907  0.33760988
   0.11028668  0.88856238  0.33739686
   0.27699755  0.72240671  0.33706126
   0.61107991  0.38911548  0.33705381
   0.77767295  0.22216403  0.33736391
   0.61155733  0.88930200  0.33757120
   0.77870863  0.72286053  0.33737508
Direct configuration=     6
   0.00420140  0.00283130  0.11433462
   0.35847958  0.00254534  0.09910503
   0.00421218  0.35711690  0.09936637
   0.65014240  0.64815760  0.09928088
   0.32713512  0.32515218  0.10022845
   0.68175193  0.00275565  0.10040213
   0.00438570  0.68000467  0.10022966
   0.11109403  0.38880214  0.33734747
   0.27730745  0.22217670  0.33762504
   0.11051237  0.88873687  0.33740739
   0.27719757  0.72239326  0.33706045
   0.61103702  0.38909308  0.33705368
   0.77767178  0.22222627  0.33737039
   0.61136211  0.88919818  0.33758492
   0.77835891  0.72268830  0.33738285
Direct configuration=     7
   0.00422168  0.00284270  0.11286835
   0.35891342  0.00249017  0.09942138
   0.00425052  0.35747716  0.09972778
   0.64981699  0.64770974  0.09962973
   0.32748933  0.32541504  0.10030007
   0.68145286  0.00271246  0.10051220
   0.00442112  0.67969313  0.10031000
   0.11089713  0.38913801  0.33736699
   0.27773661  0.22228960  0.33767053
   0.11118945  0.88926032  0.33743897
   0.27779762  0.72235292  0.33705803
   0.61090836  0.38902589  0.33705328
   0.77766828  0.22241297  0.33738983
   0.61077645  0.88888673  0.33762606
   0.77730973  0.72217159  0.33740616
Direct configuration=     8
   0.00422697  0.00284567  0.11248553
   0.35902669  0.00247576  0.09950397
   0.00426053  0.35757121  0.09982213
   0.64973204  0.64759281  0.09972081
   0.32758181  0.32548367  0.10031877
   0.68137478  0.00270118  0.10054094
   0.00443036  0.67961180  0.10033097
   0.11084572  0.38922570  0.33737208
   0.27784866  0.22231908  0.33768241
   0.11136622  0.88939699  0.33744721
   0.27795428  0.72234239  0.33705740
   0.61087477  0.38900834  0.33705317
   0.77766737  0.22246172  0.33739490
   0.61062354  0.88880542  0.33763681
   0.77703580  0.72203669  0.33741224
Direct configuration=     9
   0.00424493  0.00282655  0.11184444
   0.35904549  0.00246653  0.09959365
   0.00429805  0.35754150  0.09991719
   0.64975856  0.64759364  0.09981409
   0.32768269  0.32557717  0.10041018
   0.68128139  0.00266385  0.10064008
   0.00443837  0.67951129  0.10042458
   0.11084618  0.38921686  0.33738005
   0.27785892  0.22243542  0.33767547
   0.11133963  0.88933930  0.33745713
   0.27796017  0.72236443  0.33708708
   0.61086889  0.38896588  0.33708501
   0.77760957  0.22246188  0.33739990
   0.61061501  0.88884398  0.33763111
   0.77700169  0.72207016  0.33741939
Direct configuration=    10
   0.00429882  0.00276916  0.10992118
   0.35910189  0.00243885  0.09986268
   0.00441060  0.35745238  0.10020236
   0.64983815  0.64759614  0.10009393
   0.32798535  0.32585766  0.10068442
   0.68100119  0.00255183  0.10093750
   0.00446238  0.67920976  0.10070541
   0.11084756  0.38919035  0.33740394
   0.27788970  0.22278446  0.33765465
   0.11125987  0.88916623  0.33748689
   0.27797785  0.72243055  0.33717612
   0.61085127  0.38883851  0.33718052
   0.77743617  0.22246238  0.33741490
   0.61058940  0.88895964  0.33761402
   0.77689935  0.72217055  0.33744083
Direct configuration=    11
   0.00440658  0.00265439  0.10607466
   0.35921469  0.00238347  0.10040075
   0.00463570  0.35727413  0.10077270
   0.64999732  0.64760112  0.10065360
   0.32859066  0.32641864  0.10123289
   0.68044080  0.00232781  0.10153233
   0.00451041  0.67860670  0.10126705
   0.11085032  0.38913733  0.33745173
   0.27795125  0.22348253  0.33761301
   0.11110035  0.88882010  0.33754642
   0.27801320  0.72256279  0.33735420
   0.61081601  0.38858375  0.33737153
   0.77708938  0.22246337  0.33744489
   0.61053820  0.88919098  0.33757984
   0.77669467  0.72237132  0.33748373
Direct configuration=    12
   0.00444685  0.00261201  0.10509196
   0.35923786  0.00237577  0.10055622
   0.00468182  0.35726816  0.10092282
   0.65000323  0.64758999  0.10080511
   0.32859905  0.32640564  0.10136461
   0.68048242  0.00228818  0.10166585
   0.00453428  0.67856061  0.10140085
   0.11078450  0.38917183  0.33746342
   0.27768432  0.22303175  0.33760014
   0.11089916  0.88899742  0.33755873
   0.27772435  0.72251685  0.33740692
   0.61079444  0.38889118  0.33742381
   0.77724113  0.22244480  0.33745549
   0.61067292  0.88927579  0.33756704
   0.77706322  0.72244846  0.33749637
Direct configuration=    13
   0.00448738  0.00256934  0.10410285
   0.35926118  0.00236803  0.10071271
   0.00472825  0.35726216  0.10107391
   0.65000917  0.64757878  0.10095761
   0.32860749  0.32639256  0.10149719
   0.68052432  0.00224830  0.10180024
   0.00455831  0.67851422  0.10153551
   0.11071824  0.38920655  0.33747519
   0.27741565  0.22257804  0.33758718
   0.11069666  0.88917589  0.33757111
   0.27743362  0.72247061  0.33745998
   0.61077272  0.38920062  0.33747643
   0.77739387  0.22242611  0.33746617
   0.61080852  0.88936116  0.33755415
   0.77743418  0.72252609  0.33750909
Direct configuration=    14
   0.00449923  0.00255463  0.10403045
   0.35930402  0.00237010  0.10076201
   0.00471239  0.35732432  0.10110734
   0.64994026  0.64752654  0.10099594
   0.32847202  0.32623559  0.10147957
   0.68070341  0.00227258  0.10177033
   0.00457420  0.67862391  0.10151697
   0.11072485  0.38919776  0.33747651
   0.27739948  0.22251222  0.33759041
   0.11075135  0.88923186  0.33756948
   0.27743130  0.72253210  0.33746414
   0.61074676  0.38920617  0.33747618
   0.77741967  0.22251653  0.33747181
   0.61076007  0.88923424  0.33755531
   0.77741055  0.72253988  0.33751288
Direct configuration=    15
   0.00452289  0.00252524  0.10388580
   0.35938961  0.00237424  0.10086052
   0.00468071  0.35744852  0.10117411
   0.64980259  0.64742217  0.10107251
   0.32820135  0.32592197  0.10144438
   0.68106122  0.00232110  0.10171056
   0.00460596  0.67884306  0.10147993
   0.11073805  0.38918021  0.33747914
   0.27736716  0.22238072  0.33759686
   0.11086064  0.88934369  0.33756623
   0.27742666  0.72265497  0.33747245
   0.61069490  0.38921725  0.33747569
   0.77747122  0.22269721  0.33748307
   0.61066327  0.88898066  0.33755762
   0.77736334  0.72256744  0.33752045
Direct configuration=    16
   0.00453235  0.00249843  0.10382054
   0.35951197  0.00237420  0.10093603
   0.00465543  0.35753954  0.10121978
   0.64967582  0.64731471  0.10112732
   0.32812396  0.32581281  0.10140811
   0.68118450  0.00235824  0.10164933
   0.00462614  0.67891796  0.10144175
   0.11074947  0.38921617  0.33748254
   0.27739896  0.22248168  0.33760319
   0.11080534  0.88929235  0.33756417
   0.27743365  0.72260070  0.33747418
   0.61069762  0.38921189  0.33747241
   0.77741005  0.22259832  0.33749162
   0.61068366  0.88911773  0.33756322
   0.77736064  0.72254370  0.33752513
Direct configuration=    17
   0.00454119  0.00247339  0.10375957
   0.35962630  0.00237417  0.10100659
   0.00463180  0.35762459  0.10126245
   0.64955737  0.64721430  0.10117853
   0.32805165  0.32571082  0.10137422
   0.68129970  0.00239294  0.10159211
   0.00464499  0.67898794  0.10140607
   0.11076015  0.38924978  0.33748572
   0.27742867  0.22257602  0.33760911
   0.11075366  0.88924438  0.33756225
   0.27744018  0.72254999  0.33747581
   0.61070016  0.38920688  0.33746935
   0.77735289  0.22250592  0.33749961
   0.61070271  0.88924580  0.33756845
   0.77735813  0.72252152  0.33752950
Direct configuration=    18
   0.00454197  0.00245332  0.10372342
   0.35970566  0.00237196  0.10104810
   0.00462537  0.35763116  0.10128095
   0.64951443  0.64716987  0.10120401
   0.32814717  0.32579280  0.10135875
   0.68120956  0.00240267  0.10155498
   0.00464961  0.67892070  0.10138897
   0.11071101  0.38922131  0.33749052
   0.27740126  0.22257193  0.33761290
   0.11074803  0.88924663  0.33756327
   0.27743184  0.72256442  0.33747413
   0.61071842  0.38920014  0.33746832
   0.77738087  0.22254153  0.33750425
   0.61071538  0.88923849  0.33757594
   0.77734897  0.72255151  0.33753083
Direct configuration=    19
   0.00454252  0.00243895  0.10369752
   0.35976251  0.00237037  0.10107784
   0.00462077  0.35763586  0.10129419
   0.64948368  0.64713805  0.10122227
   0.32821559  0.32585153  0.10134767
   0.68114500  0.00240964  0.10152838
   0.00465292  0.67887254  0.10137672
   0.11067581  0.38920091  0.33749395
   0.27738163  0.22256900  0.33761561
   0.11074400  0.88924824  0.33756399
   0.27742587  0.72257475  0.33747293
   0.61073149  0.38919530  0.33746757
   0.77740092  0.22256703  0.33750758
   0.61072446  0.88923326  0.33758131
   0.77734240  0.72257300  0.33753178
Direct configuration=    20
   0.00454985  0.00242727  0.10366263
   0.35974252  0.00237078  0.10109916
   0.00462539  0.35758767  0.10129708
   0.64952428  0.64717019  0.10123074
   0.32825080  0.32588017  0.10134851
   0.68111967  0.00240468  0.10150957
   0.00465390  0.67883815  0.10137608
   0.11070893  0.38923577  0.33749878
   0.27738545  0.22254500  0.33761839
   0.11075380  0.88928042  0.33756620
   0.27741835  0.72258172  0.33747191
   0.61070181  0.38922097  0.33746848
   0.77738038  0.22256573  0.33751112
   0.61069402  0.88921532  0.33758820
   0.77734041  0.72255461  0.33753249
Direct configuration=    21
   0.00455661  0.00241649  0.10363045
   0.35972409  0.00237115  0.10111883
   0.00462966  0.35754322  0.10129973
   0.64956173  0.64719984  0.10123855
   0.32828328  0.32590659  0.10134929
   0.68109632  0.00240009  0.10149221
   0.00465480  0.67880643  0.10137549
   0.11073947  0.38926793  0.33750322
   0.27738897  0.22252286  0.33762095
   0.11076284  0.88931010  0.33756824
   0.27741141  0.72258816  0.33747096
   0.61067443  0.38924464  0.33746932
   0.77736143  0.22256452  0.33751439
   0.61066595  0.88919878  0.33759455
   0.77733858  0.72253766  0.33753315
Direct configuration=    22
   0.00456646  0.00240824  0.10359429
   0.35969515  0.00237117  0.10113379
   0.00463651  0.35750232  0.10129907
   0.64960354  0.64723185  0.10124259
   0.32828979  0.32590602  0.10135451
   0.68110311  0.00239255  0.10147945
   0.00465724  0.67879193  0.10137935
   0.11073128  0.38926401  0.33750739
   0.27738409  0.22254207  0.33762379
   0.11075083  0.88930156  0.33757031
   0.27740494  0.72259709  0.33747135
   0.61067037  0.38924078  0.33747078
   0.77735517  0.22257116  0.33751803
   0.61066482  0.88920635  0.33760014
   0.77733623  0.72255135  0.33753447
Direct configuration=    23
   0.00459600  0.00238349  0.10348582
   0.35960835  0.00237124  0.10117868
   0.00465709  0.35737960  0.10129710
   0.64972898  0.64732788  0.10125473
   0.32830931  0.32590433  0.10137017
   0.68112350  0.00236992  0.10144118
   0.00466455  0.67874843  0.10139094
   0.11070673  0.38925223  0.33751990
   0.27736947  0.22259969  0.33763232
   0.11071478  0.88927595  0.33757654
   0.27738554  0.72262390  0.33747251
   0.61065821  0.38922921  0.33747515
   0.77733638  0.22259110  0.33752895
   0.61066145  0.88922904  0.33761693
   0.77732919  0.72259244  0.33753842
Direct configuration=    24
   0.00461133  0.00237474  0.10342454
   0.35962339  0.00236482  0.10119183
   0.00466931  0.35737780  0.10129392
   0.64973336  0.64731269  0.10125643
   0.32831050  0.32588794  0.10138253
   0.68114338  0.00235739  0.10143113
   0.00467474  0.67874043  0.10140166
   0.11066294  0.38926055  0.33752457
   0.27734761  0.22259420  0.33763736
   0.11070732  0.88930006  0.33757933
   0.27738039  0.72261183  0.33747734
   0.61067130  0.38924571  0.33747864
   0.77734376  0.22259430  0.33753541
   0.61066599  0.88926191  0.33762197
   0.77730421  0.72259408  0.33754266
Direct configuration=    25
   0.00464634  0.00235476  0.10328461
   0.35965775  0.00235016  0.10122187
   0.00469722  0.35737370  0.10128668
   0.64974337  0.64727802  0.10126032
   0.32831321  0.32585051  0.10141076
   0.68118875  0.00232877  0.10140818
   0.00469801  0.67872215  0.10142613
   0.11056295  0.38927954  0.33753525
   0.27729770  0.22258166  0.33764888
   0.11069027  0.88935511  0.33758569
   0.27736864  0.72258425  0.33748836
   0.61070119  0.38928340  0.33748661
   0.77736062  0.22260160  0.33755015
   0.61067635  0.88933696  0.33763349
   0.77724718  0.72259784  0.33755236
Direct configuration=    26
   0.00465278  0.00235040  0.10325466
   0.35967244  0.00234569  0.10122712
   0.00470301  0.35737800  0.10128577
   0.64973956  0.64726400  0.10126124
   0.32831598  0.32584364  0.10141632
   0.68119617  0.00232294  0.10140440
   0.00470360  0.67871903  0.10143103
   0.11055983  0.38928356  0.33753741
   0.27729393  0.22258735  0.33765123
   0.11068588  0.88935840  0.33758719
   0.27736435  0.72259029  0.33749108
   0.61069506  0.38928658  0.33748864
   0.77735465  0.22260693  0.33755309
   0.61067003  0.88933895  0.33763556
   0.77724230  0.72260268  0.33755459
Direct configuration=    27
   0.00467209  0.00233732  0.10316481
   0.35971649  0.00233229  0.10124287
   0.00472037  0.35739092  0.10128304
   0.64972815  0.64722196  0.10126402
   0.32832427  0.32582302  0.10143300
   0.68121841  0.00230545  0.10139304
   0.00472037  0.67870965  0.10144573
   0.11055046  0.38929563  0.33754390
   0.27728262  0.22260442  0.33765829
   0.11067271  0.88936824  0.33759170
   0.27735148  0.72260839  0.33749924
   0.61067668  0.38929611  0.33749471
   0.77733672  0.22262293  0.33756192
   0.61065107  0.88934491  0.33764178
   0.77722766  0.72261720  0.33756127
Direct configuration=    28
   0.00471071  0.00231116  0.10298511
   0.35980461  0.00230548  0.10127438
   0.00475509  0.35741675  0.10127759
   0.64970532  0.64713788  0.10126956
   0.32834087  0.32578179  0.10146637
   0.68126290  0.00227047  0.10137034
   0.00475393  0.67869089  0.10147513
   0.11053173  0.38931975  0.33755688
   0.27725999  0.22263856  0.33767241
   0.11064635  0.88938793  0.33760073
   0.27732574  0.72264459  0.33751555
   0.61063993  0.38931518  0.33750686
   0.77730087  0.22265492  0.33757958
   0.61061315  0.88935684  0.33765420
   0.77719837  0.72264625  0.33757464
Direct configuration=    29
   0.00478795  0.00225884  0.10262571
   0.35998083  0.00225187  0.10133738
   0.00482453  0.35746840  0.10126668
   0.64965965  0.64696972  0.10128065
   0.32837405  0.32569933  0.10153310
   0.68135188  0.00220052  0.10132494
   0.00482104  0.67865338  0.10153395
   0.11049427  0.38936799  0.33758284
   0.27721475  0.22270684  0.33770064
   0.11059364  0.88942732  0.33761878
   0.27727426  0.72271700  0.33754817
   0.61056642  0.38935332  0.33753116
   0.77722916  0.22271890  0.33761491
   0.61053731  0.88938069  0.33767905
   0.77713981  0.72270434  0.33760138
Direct configuration=    30
   0.00478895  0.00224421  0.10257245
   0.35998534  0.00223334  0.10134396
   0.00483271  0.35743761  0.10128163
   0.64968797  0.64697356  0.10129296
   0.32840292  0.32570040  0.10152672
   0.68134876  0.00219429  0.10132095
   0.00483363  0.67864739  0.10152798
   0.11053423  0.38938646  0.33758848
   0.27721254  0.22271727  0.33770276
   0.11057153  0.88942353  0.33762579
   0.27724239  0.72273945  0.33755243
   0.61052433  0.38936959  0.33753902
   0.77719823  0.22271912  0.33761644
   0.61051928  0.88937618  0.33768323
   0.77716677  0.72271604  0.33760453
Direct configuration=    31
   0.00479050  0.00222161  0.10249015
   0.35999230  0.00220471  0.10135413
   0.00484535  0.35739001  0.10130472
   0.64973172  0.64697950  0.10131197
   0.32844754  0.32570206  0.10151686
   0.68134393  0.00218467  0.10131480
   0.00485308  0.67863814  0.10151877
   0.11059597  0.38941499  0.33759720
   0.27720912  0.22273339  0.33770604
   0.11053735  0.88941769  0.33763661
   0.27719315  0.72277414  0.33755902
   0.61045927  0.38939473  0.33755117
   0.77715043  0.22271947  0.33761880
   0.61049142  0.88936921  0.33768969
   0.77720842  0.72273412  0.33760940
Direct configuration=    32
   0.00479305  0.00221046  0.10244461
   0.35998380  0.00218758  0.10135763
   0.00485319  0.35735769  0.10132402
   0.64976486  0.64699013  0.10132637
   0.32847375  0.32570084  0.10150491
   0.68134400  0.00218065  0.10131400
   0.00486591  0.67862729  0.10150789
   0.11057837  0.38942274  0.33760205
   0.27719559  0.22273378  0.33770792
   0.11053137  0.88943326  0.33764364
   0.27718529  0.72277956  0.33756287
   0.61045500  0.38940512  0.33755865
   0.77714737  0.22273099  0.33761932
   0.61048354  0.88937733  0.33769298
   0.77719447  0.72274102  0.33761248
Direct configuration=    33
   0.00480071  0.00217699  0.10230802
   0.35995828  0.00213618  0.10136812
   0.00487669  0.35726071  0.10138190
   0.64986430  0.64702202  0.10136954
   0.32855237  0.32569719  0.10146903
   0.68134420  0.00216859  0.10131161
   0.00490440  0.67859476  0.10147526
   0.11052559  0.38944600  0.33761659
   0.27715498  0.22273494  0.33771358
   0.11051344  0.88947999  0.33766473
   0.27716170  0.72279583  0.33757440
   0.61044218  0.38943628  0.33758109
   0.77713818  0.22276555  0.33762085
   0.61045991  0.88940169  0.33770286
   0.77715262  0.72276173  0.33762174
Direct configuration=    34
   0.00481602  0.00211005  0.10203483
   0.35990725  0.00203338  0.10138912
   0.00492370  0.35706675  0.10149766
   0.65006318  0.64708580  0.10145590
   0.32870961  0.32568989  0.10139728
   0.68134460  0.00214448  0.10130684
   0.00498138  0.67852970  0.10140998
   0.11042002  0.38949251  0.33764568
   0.27707376  0.22273726  0.33772488
   0.11047757  0.88957344  0.33770691
   0.27711454  0.72282837  0.33759746
   0.61041656  0.38949861  0.33762599
   0.77711981  0.22283466  0.33762393
   0.61041266  0.88945040  0.33772260
   0.77706891  0.72280314  0.33764027
Direct configuration=    35
   0.00480984  0.00213707  0.10214509
   0.35992784  0.00207487  0.10138064
   0.00490472  0.35714503  0.10145094
   0.64998291  0.64706006  0.10142105
   0.32864615  0.32569284  0.10142624
   0.68134443  0.00215421  0.10130877
   0.00495031  0.67855596  0.10143633
   0.11046263  0.38947374  0.33763394
   0.27710654  0.22273632  0.33772032
   0.11049204  0.88953573  0.33768989
   0.27713357  0.72281523  0.33758815
   0.61042690  0.38947345  0.33760787
   0.77712722  0.22280677  0.33762269
   0.61043173  0.88943074  0.33771463
   0.77710269  0.72278643  0.33763279
Direct configuration=    36
   0.00485016  0.00213802  0.10206129
   0.35992961  0.00206282  0.10137642
   0.00493136  0.35716443  0.10147815
   0.64998590  0.64702449  0.10143870
   0.32864486  0.32564870  0.10140890
   0.68139188  0.00213839  0.10132306
   0.00497650  0.67851480  0.10142176
   0.11041391  0.38947136  0.33763724
   0.27710504  0.22281260  0.33773159
   0.11046834  0.88951453  0.33769718
   0.27714545  0.72283183  0.33759906
   0.61043068  0.38945486  0.33761367
   0.77710223  0.22281662  0.33763039
   0.61042012  0.88947261  0.33771732
   0.77705350  0.72281239  0.33764459
Direct configuration=    37
   0.00487536  0.00213862  0.10200892
   0.35993071  0.00205529  0.10137378
   0.00494801  0.35717655  0.10149516
   0.64998777  0.64700226  0.10144973
   0.32864405  0.32562112  0.10139807
   0.68142154  0.00212850  0.10133199
   0.00499287  0.67848907  0.10141265
   0.11038347  0.38946988  0.33763930
   0.27710410  0.22286027  0.33773863
   0.11045353  0.88950128  0.33770175
   0.27715288  0.72284220  0.33760587
   0.61043304  0.38944325  0.33761730
   0.77708662  0.22282277  0.33763520
   0.61041286  0.88949878  0.33771900
   0.77702276  0.72282862  0.33765197
Direct configuration=    38
   0.00492504  0.00213741  0.10191527
   0.35998375  0.00204997  0.10136094
   0.00498425  0.35722887  0.10151284
   0.64995401  0.64692294  0.10145831
   0.32862455  0.32556463  0.10138778
   0.68148090  0.00209718  0.10136211
   0.00501607  0.67846022  0.10140564
   0.11038408  0.38950706  0.33764024
   0.27708309  0.22285990  0.33775566
   0.11043258  0.88953403  0.33770599
   0.27712044  0.72285309  0.33761875
   0.61040001  0.38948136  0.33761816
   0.77705815  0.22282731  0.33764805
   0.61038894  0.88952089  0.33772179
   0.77701370  0.72283359  0.33766780
Direct configuration=    39
   0.00498408  0.00213597  0.10180396
   0.36004679  0.00204365  0.10134567
   0.00502733  0.35729105  0.10153385
   0.64991388  0.64682866  0.10146852
   0.32860138  0.32549749  0.10137555
   0.68155147  0.00205995  0.10139792
   0.00504365  0.67842594  0.10139730
   0.11038480  0.38955126  0.33764136
   0.27705811  0.22285947  0.33777590
   0.11040768  0.88957294  0.33771103
   0.27708188  0.72286604  0.33763407
   0.61036075  0.38952666  0.33761917
   0.77702432  0.22283270  0.33766331
   0.61036050  0.88954718  0.33772510
   0.77700293  0.72283951  0.33768662
Direct configuration=    40
   0.00499420  0.00208914  0.10169374
   0.36015879  0.00201956  0.10133221
   0.00506110  0.35726925  0.10154139
   0.64991793  0.64676838  0.10147006
   0.32863202  0.32548778  0.10137157
   0.68155851  0.00201044  0.10143685
   0.00505817  0.67844893  0.10139649
   0.11035271  0.38954639  0.33764924
   0.27701285  0.22285989  0.33779005
   0.11038631  0.88960095  0.33772028
   0.27704247  0.72292094  0.33764242
   0.61032881  0.38954043  0.33762468
   0.77702201  0.22290734  0.33767474
   0.61032893  0.88951533  0.33773699
   0.77699474  0.72289369  0.33769863
Direct configuration=    41
   0.00499607  0.00208045  0.10167328
   0.36017957  0.00201509  0.10132971
   0.00506737  0.35726521  0.10154279
   0.64991868  0.64675719  0.10147035
   0.32863770  0.32548598  0.10137083
   0.68155982  0.00200126  0.10144407
   0.00506087  0.67845319  0.10139634
   0.11034676  0.38954549  0.33765071
   0.27700445  0.22285996  0.33779267
   0.11038234  0.88960615  0.33772199
   0.27703516  0.72293113  0.33764397
   0.61032289  0.38954298  0.33762570
   0.77702158  0.22292119  0.33767686
   0.61032308  0.88950942  0.33773920
   0.77699322  0.72290375  0.33770086
Direct configuration=    42
   0.00499127  0.00202483  0.10158741
   0.36023417  0.00198611  0.10132826
   0.00508686  0.35719089  0.10154040
   0.64997402  0.64676041  0.10146873
   0.32869455  0.32550303  0.10137010
   0.68154744  0.00196659  0.10146809
   0.00507613  0.67846209  0.10139723
   0.11031266  0.38957807  0.33766469
   0.27699167  0.22290200  0.33779652
   0.11035502  0.88962042  0.33773443
   0.27702644  0.72292870  0.33764478
   0.61031329  0.38956398  0.33763687
   0.77698634  0.22290924  0.33768175
   0.61030784  0.88957387  0.33775664
   0.77695186  0.72290822  0.33770343
Direct configuration=    43
   0.00499011  0.00201126  0.10156647
   0.36024749  0.00197904  0.10132791
   0.00509162  0.35717277  0.10153982
   0.64998751  0.64676119  0.10146834
   0.32870841  0.32550719  0.10136992
   0.68154442  0.00195813  0.10147395
   0.00507985  0.67846426  0.10139745
   0.11030435  0.38958602  0.33766810
   0.27698856  0.22291225  0.33779746
   0.11034835  0.88962390  0.33773746
   0.27702431  0.72292811  0.33764498
   0.61031095  0.38956910  0.33763959
   0.77697774  0.22290632  0.33768294
   0.61030412  0.88958959  0.33776089
   0.77694177  0.72290930  0.33770406
Direct configuration=    44
   0.00502214  0.00198962  0.10150230
   0.36021189  0.00196128  0.10133974
   0.00510775  0.35712400  0.10153531
   0.65004551  0.64678544  0.10146931
   0.32874052  0.32549351  0.10136730
   0.68157297  0.00194844  0.10147854
   0.00511030  0.67840750  0.10139509
   0.11029071  0.38960486  0.33768115
   0.27697432  0.22293812  0.33779808
   0.11032917  0.88963680  0.33774716
   0.27700560  0.72294975  0.33764646
   0.61028554  0.38958470  0.33765081
   0.77695293  0.22292380  0.33768756
   0.61028041  0.88960375  0.33777566
   0.77691980  0.72292688  0.33770487
Direct configuration=    45
   0.00506706  0.00195926  0.10141232
   0.36016197  0.00193637  0.10135633
   0.00513037  0.35705561  0.10152899
   0.65012683  0.64681944  0.10147068
   0.32878555  0.32547433  0.10136362
   0.68161299  0.00193485  0.10148498
   0.00515300  0.67832790  0.10139177
   0.11027159  0.38963129  0.33769945
   0.27695436  0.22297440  0.33779895
   0.11030228  0.88965488  0.33776076
   0.27697937  0.72298010  0.33764854
   0.61024991  0.38960657  0.33766653
   0.77691814  0.22294831  0.33769403
   0.61024715  0.88962361  0.33779637
   0.77688898  0.72295152  0.33770601
Direct configuration=    46
   0.00511331  0.00194589  0.10134060
   0.36017766  0.00191150  0.10138020
   0.00515783  0.35701993  0.10152728
   0.65015156  0.64679427  0.10147729
   0.32881094  0.32543703  0.10135696
   0.68164568  0.00192305  0.10147318
   0.00519152  0.67828807  0.10138445
   0.11023093  0.38964619  0.33770640
   0.27689939  0.22295157  0.33780750
   0.11027639  0.88970373  0.33776346
   0.27693832  0.72300462  0.33766124
   0.61023225  0.38964160  0.33767304
   0.77691577  0.22299468  0.33770831
   0.61022704  0.88963099  0.33780340
   0.77688097  0.72298532  0.33771604
Direct configuration=    47
   0.00515132  0.00193491  0.10128166
   0.36019055  0.00189106  0.10139982
   0.00518040  0.35699060  0.10152587
   0.65017189  0.64677358  0.10148272
   0.32883180  0.32540638  0.10135148
   0.68167254  0.00191335  0.10146348
   0.00522318  0.67825533  0.10137843
   0.11019752  0.38965844  0.33771212
   0.27685421  0.22293281  0.33781452
   0.11025511  0.88974388  0.33776567
   0.27690458  0.72302478  0.33767169
   0.61021774  0.38967039  0.33767839
   0.77691382  0.22303279  0.33772004
   0.61021052  0.88963705  0.33780918
   0.77687439  0.72301311  0.33772427
Direct configuration=    48
   0.00516795  0.00192396  0.10124806
   0.36021233  0.00187698  0.10141122
   0.00519453  0.35697806  0.10152576
   0.65017951  0.64675415  0.10148632
   0.32884484  0.32538924  0.10134833
   0.68168761  0.00190380  0.10145588
   0.00523907  0.67824605  0.10137486
   0.11018696  0.38967081  0.33771470
   0.27684440  0.22295040  0.33781936
   0.11024105  0.88975148  0.33776647
   0.27689236  0.72303646  0.33767865
   0.61020326  0.38968056  0.33768104
   0.77689757  0.22304111  0.33772732
   0.61019741  0.88965139  0.33781150
   0.77686072  0.72302399  0.33772986
Direct configuration=    49
   0.00521785  0.00189111  0.10114726
   0.36027767  0.00183474  0.10144540
   0.00523692  0.35694043  0.10152543
   0.65020235  0.64669585  0.10149712
   0.32888396  0.32533785  0.10133890
   0.68173282  0.00187516  0.10143308
   0.00528676  0.67821823  0.10136415
   0.11015527  0.38970792  0.33772245
   0.27681496  0.22300319  0.33783388
   0.11019884  0.88977428  0.33776885
   0.27685571  0.72307149  0.33769954
   0.61015984  0.38971107  0.33768900
   0.77684881  0.22306607  0.33774919
   0.61015807  0.88969441  0.33781845
   0.77681970  0.72305664  0.33774663
Direct configuration=    50
   0.00531764  0.00182541  0.10094566
   0.36040836  0.00175026  0.10151376
   0.00532171  0.35686518  0.10152479
   0.65024804  0.64657926  0.10151874
   0.32896221  0.32523505  0.10132002
   0.68182326  0.00181788  0.10138747
   0.00538214  0.67816259  0.10134273
   0.11009190  0.38978214  0.33773796
   0.27675609  0.22310878  0.33786292
   0.11011444  0.88981987  0.33777363
   0.27678241  0.72314157  0.33774132
   0.61007299  0.38977210  0.33770491