Lattice                                 
           1
     4.205419    2.428000    0.000000
    -4.205419    2.428000    0.000000
     0.000000    0.000000   15.000000
   B    C 
     4    11
Direct configuration=     1
   0.00415361  0.00267210  0.12034134
   0.35695335  0.00285503  0.09748893
   0.00423858  0.35550699  0.09749256
   0.65142295  0.65006557  0.09747688
   0.32808646  0.32671938  0.10030508
   0.68027775  0.00278085  0.10027562
   0.00416530  0.67883808  0.10026559
   0.11111044  0.38888856  0.33726667
   0.27777744  0.22222156  0.33726667
   0.11111044  0.88888856  0.33726667
   0.27777744  0.72222156  0.33726667
   0.61111044  0.38888856  0.33726667
   0.77777744  0.22222156  0.33726667
   0.61111044  0.88888856  0.33726667
   0.77777744  0.72222156  0.33726667
Direct configuration=     2
   0.00416708  0.00269395  0.11899209
   0.35566108  0.00279300  0.09783973
   0.00419011  0.35444522  0.09789654
   0.65260439  0.65113826  0.09786695
   0.32457225  0.32304342  0.10031393
   0.68406008  0.00279439  0.10032822
   0.00422470  0.68237271  0.10028305
   0.11103839  0.38899107  0.33728055
   0.27791323  0.22234294  0.33735503
   0.11129725  0.88902151  0.33729220
   0.27796903  0.72221876  0.33720591
   0.61107209  0.38883664  0.33720094
   0.77773750  0.22226913  0.33728988
   0.61092629  0.88883772  0.33734355
   0.77741609  0.72207972  0.33729077
Direct configuration=     3
   0.00416050  0.00268328  0.11965099
   0.35629216  0.00282329  0.09766842
   0.00421378  0.35496374  0.09769926
   0.65202743  0.65061441  0.09767646
   0.32628842  0.32483858  0.10030961
   0.68221298  0.00278778  0.10030253
   0.00419569  0.68064657  0.10027452
   0.11107358  0.38894101  0.33727377
   0.27784692  0.22228366  0.33731188
   0.11120602  0.88895658  0.33727973
   0.27787547  0.72222013  0.33723558
   0.61109082  0.38886199  0.33723304
   0.77775701  0.22224590  0.33727854
   0.61101622  0.88886255  0.33730600
   0.77759256  0.72214898  0.33727900
