   7   7   0   4
  0.4047228E+02  0.4670000E-09  0.4670000E-09  0.1500000E-08  0.5000000E-15
  1.000000000000000E-004
  CAR 
 Borophene                               
     14.89166214    -21.40900420  301     -2.40787416      1.00000000
    -21.409  0.0000E+00  0.0000E+00
    -21.288  0.0000E+00  0.0000E+00
    -21.167  0.0000E+00  0.0000E+00
    -21.046  0.0000E+00  0.0000E+00
    -20.925  0.0000E+00  0.0000E+00
    -20.804  0.0000E+00  0.0000E+00
    -20.683  0.0000E+00  0.0000E+00
    -20.562  0.0000E+00  0.0000E+00
    -20.441  0.0000E+00  0.0000E+00
    -20.320  0.1593E-17  0.1927E-18
    -20.199  0.3749E-12  0.4536E-13
    -20.078  0.6288E-08  0.7609E-09
    -19.957  0.7241E-05  0.8769E-06
    -19.836  0.6653E-03  0.8138E-04
    -19.715  0.6951E-02  0.9224E-03
    -19.594  0.1564E-01  0.2814E-02
    -19.473  0.1860E-01  0.5065E-02
    -19.352  0.2138E-01  0.7652E-02
    -19.231  0.2731E-01  0.1096E-01
    -19.110  0.3948E-01  0.1573E-01
    -18.989  0.2985E-01  0.1935E-01
    -18.868  0.5267E-02  0.1998E-01
    -18.747  0.1336E-03  0.2000E-01
    -18.626  0.3166E-06  0.2000E-01
    -18.505  0.5575E-10  0.2000E-01
    -18.384  0.6509E-15  0.2000E-01
    -18.263  0.0000E+00  0.2000E-01
    -18.142  0.0000E+00  0.2000E-01
    -18.021  0.0000E+00  0.2000E-01
    -17.900  0.0000E+00  0.2000E-01
    -17.779  0.0000E+00  0.2000E-01
    -17.658  0.2191E-15  0.2000E-01
    -17.537  0.2143E-10  0.2000E-01
    -17.416  0.1282E-06  0.2000E-01
    -17.295  0.5568E-04  0.2001E-01
    -17.174  0.2409E-02  0.2030E-01
    -17.053  0.1509E-01  0.2212E-01
    -16.932  0.2660E-01  0.2534E-01
    -16.811  0.2989E-01  0.2896E-01
    -16.690  0.2133E-01  0.3154E-01
    -16.569  0.1394E-01  0.3323E-01
    -16.448  0.1875E-01  0.3550E-01
    -16.327  0.1609E-01  0.3744E-01
    -16.206  0.1685E-01  0.3948E-01
    -16.085  0.2453E-01  0.4245E-01
    -15.964  0.2123E-01  0.4502E-01
    -15.843  0.3433E-01  0.4917E-01
    -15.722  0.3597E-01  0.5353E-01
    -15.601  0.2673E-01  0.5676E-01
    -15.480  0.1988E-01  0.5917E-01
    -15.359  0.6449E-02  0.5995E-01
    -15.238  0.4434E-03  0.6000E-01
    -15.117  0.3381E-05  0.6000E-01
    -14.996  0.1957E-08  0.6000E-01
    -14.875  0.7383E-13  0.6000E-01
    -14.754  0.0000E+00  0.6000E-01
    -14.633  0.0000E+00  0.6000E-01
    -14.512  0.0000E+00  0.6000E-01
    -14.391  0.0000E+00  0.6000E-01
    -14.270  0.0000E+00  0.6000E-01
    -14.149  0.0000E+00  0.6000E-01
    -14.028  0.0000E+00  0.6000E-01
    -13.907  0.0000E+00  0.6000E-01
    -13.786  0.0000E+00  0.6000E-01
    -13.665  0.0000E+00  0.6000E-01
    -13.544  0.0000E+00  0.6000E-01
    -13.423  0.0000E+00  0.6000E-01
    -13.302  0.1013E-16  0.6000E-01
    -13.181  0.1938E-11  0.6000E-01
    -13.060  0.2177E-07  0.6000E-01
    -12.939  0.1606E-04  0.6000E-01
    -12.818  0.9420E-03  0.6012E-01
    -12.697  0.6403E-02  0.6089E-01
    -12.576  0.1563E-01  0.6278E-01
    -12.455  0.2346E-01  0.6562E-01
    -12.334  0.1987E-01  0.6803E-01
    -12.213  0.2244E-01  0.7074E-01
    -12.092  0.2735E-01  0.7405E-01
    -11.971  0.1936E-01  0.7639E-01
    -11.850  0.6985E-02  0.7724E-01
    -11.729  0.1417E-01  0.7895E-01
    -11.608  0.2971E-01  0.8255E-01
    -11.487  0.1281E-01  0.8410E-01
    -11.366  0.8944E-02  0.8518E-01
    -11.245  0.2262E-01  0.8792E-01
    -11.124  0.2329E-01  0.9073E-01
    -11.003  0.9970E-02  0.9194E-01
    -10.882  0.1431E-01  0.9367E-01
    -10.761  0.2234E-01  0.9638E-01
    -10.640  0.2674E-01  0.9961E-01
    -10.519  0.1410E-01  0.1013E+00
    -10.398  0.7650E-02  0.1022E+00
    -10.277  0.1798E-01  0.1044E+00
    -10.156  0.2395E-01  0.1073E+00
    -10.035  0.9020E-02  0.1084E+00
     -9.914  0.6406E-02  0.1092E+00
     -9.793  0.2373E-01  0.1121E+00
     -9.672  0.2612E-01  0.1152E+00
     -9.551  0.2740E-01  0.1185E+00
     -9.430  0.1598E-01  0.1205E+00
     -9.309  0.3848E-02  0.1209E+00
     -9.188  0.1320E-02  0.1211E+00
     -9.067  0.7712E-02  0.1220E+00
     -8.946  0.1302E-01  0.1236E+00
     -8.825  0.1362E-01  0.1252E+00
     -8.704  0.1188E-01  0.1267E+00
     -8.583  0.9481E-02  0.1278E+00
     -8.462  0.1631E-01  0.1298E+00
     -8.341  0.1907E-01  0.1321E+00
     -8.220  0.1333E-01  0.1337E+00
     -8.099  0.2085E-01  0.1362E+00
     -7.978  0.1918E-01  0.1386E+00
     -7.857  0.4084E-01  0.1435E+00
     -7.736  0.4846E-01  0.1494E+00
     -7.615  0.3903E-01  0.1541E+00
     -7.494  0.2030E-01  0.1566E+00
     -7.373  0.1607E-01  0.1585E+00
     -7.252  0.3553E-01  0.1628E+00
     -7.131  0.4853E-01  0.1687E+00
     -7.010  0.2222E-01  0.1714E+00
     -6.889  0.3896E-02  0.1718E+00
     -6.768  0.3843E-02  0.1723E+00
     -6.647  0.2894E-02  0.1726E+00
     -6.526  0.1047E-01  0.1739E+00
     -6.405  0.7092E-02  0.1748E+00
     -6.284  0.3632E-02  0.1752E+00
     -6.163  0.1727E-01  0.1773E+00
     -6.042  0.3665E-01  0.1817E+00
     -5.921  0.4792E-01  0.1875E+00
     -5.800  0.4231E-01  0.1927E+00
     -5.679  0.4163E-01  0.1977E+00
     -5.558  0.2436E-01  0.2006E+00
     -5.437  0.1882E-01  0.2029E+00
     -5.316  0.1284E-01  0.2045E+00
     -5.195  0.2852E-01  0.2079E+00
     -5.074  0.2114E-01  0.2105E+00
     -4.953  0.1212E-01  0.2119E+00
     -4.832  0.1887E-01  0.2142E+00
     -4.711  0.1730E-01  0.2163E+00
     -4.590  0.2355E-01  0.2192E+00
     -4.469  0.1513E-01  0.2210E+00
     -4.348  0.1181E-01  0.2224E+00
     -4.227  0.1134E-01  0.2238E+00
     -4.106  0.2385E-01  0.2267E+00
     -3.985  0.1946E-01  0.2290E+00
     -3.864  0.1615E-01  0.2310E+00
     -3.743  0.1272E-01  0.2325E+00
     -3.622  0.1081E-01  0.2338E+00
     -3.501  0.1598E-01  0.2358E+00
     -3.380  0.5389E-02  0.2364E+00
     -3.259  0.6123E-02  0.2372E+00
     -3.138  0.9046E-02  0.2383E+00
     -3.017  0.6432E-02  0.2390E+00
     -2.896  0.5163E-02  0.2397E+00
     -2.775  0.2305E-02  0.2399E+00
     -2.654  0.4317E-03  0.2400E+00
     -2.533  0.1053E-04  0.2400E+00
     -2.412  0.1819E-07  0.2400E+00
     -2.291  0.1912E-11  0.2400E+00
     -2.170  0.1147E-16  0.2400E+00
     -2.049  0.0000E+00  0.2400E+00
     -1.928  0.0000E+00  0.2400E+00
     -1.807  0.0000E+00  0.2400E+00
     -1.686  0.4562E-14  0.2400E+00
     -1.565  0.2526E-09  0.2400E+00
     -1.444  0.8650E-06  0.2400E+00
     -1.323  0.2022E-03  0.2400E+00
     -1.202  0.4043E-02  0.2405E+00
     -1.081  0.1118E-01  0.2419E+00
     -0.960  0.1594E-01  0.2438E+00
     -0.839  0.3463E-01  0.2480E+00
     -0.718  0.2986E-01  0.2516E+00
     -0.597  0.8412E-02  0.2526E+00
     -0.476  0.7511E-02  0.2535E+00
     -0.355  0.1579E-01  0.2554E+00
     -0.234  0.2781E-01  0.2588E+00
     -0.113  0.9985E-02  0.2600E+00
      0.008  0.4875E-02  0.2606E+00
      0.129  0.8849E-02  0.2617E+00
      0.250  0.1886E-01  0.2640E+00
      0.371  0.1803E-01  0.2661E+00
      0.492  0.8575E-02  0.2672E+00
      0.613  0.5585E-02  0.2678E+00
      0.734  0.9551E-02  0.2690E+00
      0.855  0.1493E-01  0.2708E+00
      0.976  0.1479E-01  0.2726E+00
      1.097  0.1086E-01  0.2739E+00
      1.218  0.1020E-01  0.2751E+00
      1.339  0.1813E-01  0.2773E+00
      1.460  0.1914E-01  0.2797E+00
      1.581  0.1581E-01  0.2816E+00
      1.702  0.2457E-01  0.2845E+00
      1.823  0.2784E-01  0.2879E+00
      1.944  0.2758E-01  0.2912E+00
      2.065  0.4089E-01  0.2962E+00
      2.186  0.2677E-01  0.2994E+00
      2.307  0.1743E-01  0.3015E+00
      2.428  0.2716E-01  0.3048E+00
      2.549  0.2817E-01  0.3082E+00
      2.670  0.3470E-01  0.3124E+00
      2.791  0.3235E-01  0.3164E+00
      2.912  0.3068E-01  0.3201E+00
      3.033  0.5010E-01  0.3261E+00
      3.154  0.6811E-01  0.3344E+00
      3.275  0.6619E-01  0.3424E+00
      3.396  0.5977E-01  0.3496E+00
      3.517  0.5042E-01  0.3557E+00
      3.638  0.5948E-01  0.3629E+00
      3.759  0.5475E-01  0.3695E+00
      3.880  0.3740E-01  0.3741E+00
      4.001  0.3544E-01  0.3783E+00
      4.122  0.4060E-01  0.3833E+00
      4.243  0.5025E-01  0.3893E+00
      4.364  0.5386E-01  0.3959E+00
      4.485  0.6187E-01  0.4033E+00
      4.606  0.4981E-01  0.4094E+00
      4.727  0.5369E-01  0.4159E+00
      4.848  0.6944E-01  0.4243E+00
      4.969  0.7310E-01  0.4331E+00
      5.090  0.6568E-01  0.4411E+00
      5.211  0.5380E-01  0.4476E+00
      5.332  0.4702E-01  0.4533E+00
      5.453  0.4609E-01  0.4588E+00
      5.574  0.5428E-01  0.4654E+00
      5.695  0.5154E-01  0.4716E+00
      5.816  0.4644E-01  0.4773E+00
      5.937  0.6956E-01  0.4857E+00
      6.058  0.6453E-01  0.4935E+00
      6.180  0.5695E-01  0.5004E+00
      6.301  0.6543E-01  0.5083E+00
      6.422  0.6719E-01  0.5164E+00
      6.543  0.5501E-01  0.5231E+00
      6.664  0.5634E-01  0.5299E+00
      6.785  0.6323E-01  0.5375E+00
      6.906  0.6543E-01  0.5455E+00
      7.027  0.6563E-01  0.5534E+00
      7.148  0.4594E-01  0.5590E+00
      7.269  0.5183E-01  0.5652E+00
      7.390  0.7644E-01  0.5745E+00
      7.511  0.7620E-01  0.5837E+00
      7.632  0.5511E-01  0.5904E+00
      7.753  0.5254E-01  0.5967E+00
      7.874  0.5642E-01  0.6036E+00
      7.995  0.4033E-01  0.6084E+00
      8.116  0.4202E-01  0.6135E+00
      8.237  0.6979E-01  0.6220E+00
      8.358  0.6854E-01  0.6303E+00
      8.479  0.5161E-01  0.6365E+00
      8.600  0.4435E-01  0.6419E+00
      8.721  0.5840E-01  0.6489E+00
      8.842  0.6928E-01  0.6573E+00
      8.963  0.1113E+00  0.6708E+00
      9.084  0.9273E-01  0.6820E+00
      9.205  0.7378E-01  0.6909E+00
      9.326  0.7067E-01  0.6995E+00
      9.447  0.6694E-01  0.7076E+00
      9.568  0.8435E-01  0.7178E+00
      9.689  0.6855E-01  0.7261E+00
      9.810  0.5236E-01  0.7324E+00
      9.931  0.5924E-01  0.7396E+00
     10.052  0.7221E-01  0.7483E+00
     10.173  0.4781E-01  0.7541E+00
     10.294  0.4577E-01  0.7597E+00
     10.415  0.7026E-01  0.7682E+00
     10.536  0.9314E-01  0.7794E+00
     10.657  0.9242E-01  0.7906E+00
     10.778  0.6902E-01  0.7990E+00
     10.899  0.6257E-01  0.8065E+00
     11.020  0.6985E-01  0.8150E+00
     11.141  0.7184E-01  0.8237E+00
     11.262  0.5637E-01  0.8305E+00
     11.383  0.5807E-01  0.8375E+00
     11.504  0.6582E-01  0.8455E+00
     11.625  0.8392E-01  0.8556E+00
     11.746  0.8112E-01  0.8655E+00
     11.867  0.8351E-01  0.8756E+00
     11.988  0.7452E-01  0.8846E+00
     12.109  0.5764E-01  0.8916E+00
     12.230  0.6397E-01  0.8993E+00
     12.351  0.7825E-01  0.9088E+00
     12.472  0.6401E-01  0.9165E+00
     12.593  0.6212E-01  0.9240E+00
     12.714  0.6936E-01  0.9324E+00
     12.835  0.6578E-01  0.9404E+00
     12.956  0.5698E-01  0.9473E+00
     13.077  0.4322E-01  0.9525E+00
     13.198  0.3696E-01  0.9570E+00
     13.319  0.2208E-01  0.9596E+00
     13.440  0.2893E-02  0.9600E+00
     13.561  0.4047E-04  0.9600E+00
     13.682  0.4236E-07  0.9600E+00
     13.803  0.2856E-11  0.9600E+00
     13.924  0.1083E-16  0.9600E+00
     14.045  0.0000E+00  0.9600E+00
     14.166  0.0000E+00  0.9600E+00
     14.287  0.0000E+00  0.9600E+00
     14.408  0.0000E+00  0.9600E+00
     14.529  0.0000E+00  0.9600E+00
     14.650  0.0000E+00  0.9600E+00
     14.771  0.0000E+00  0.9600E+00
     14.892  0.0000E+00  0.9600E+00
