 vasp.6.3.2 27Jun22 (build Dec 22 2022 13:13:19) complex                        
  
 executed on             LinuxIFC date 2023.10.18  17:56:47
 running   48 mpi-ranks, with    1 threads/rank
 distrk:  each k-point on   48 cores,    1 groups
 distr:  one band on NCORE=   1 cores,   48 groups


--------------------------------------------------------------------------------------------------------


 INCAR:
   SYSTEM = Borophene
   ISTART = 0
   ICHARG = 2
   PREC = Accurate
   ENCUT = 450
   LCHARG = .FALSE.
   LWAVE = .FALSE.
   ALGO = Normal
   EDIFF = 1E-6
   EDIFFG = -1E-2
   SIGMA = 0.1
   ISMEAR = 0
   ISPIN = 1
   NSW = 100
   IBRION = 2
   ISIF = 2
   GGA = PE
   IVDW = 12

 POTCAR:    PAW_PBE B 06Sep2000                   
 POTCAR:    PAW_PBE C 08Apr2002                   
 POTCAR:    PAW_PBE B 06Sep2000                   
   SHA256 =  a32ced30f5ae56fd4d10b4325ff17eb3e4e38ee0f4288bc219fb012fddfa6e97 B/POTCAR              
   COPYR  = (c) Copyright 06Sep2000 Georg Kresse                                                    
   COPYR  = This file is part of the software VASP. Any use, copying, and all other rights are regul
   COPYR  = If you do not have a valid VASP license, you may not use, copy or distribute this file. 
   VRHFIN =B: s2p1                                                                                  
   LEXCH  = PE                                                                                      
   EATOM  =    71.1703 eV,    5.2309 Ry                                                             
                                                                                                    
   TITEL  = PAW_PBE B 06Sep2000                                                                     
   LULTRA =        F    use ultrasoft PP ?                                                          
   IUNSCR =        1    unscreen: 0-lin 1-nonlin 2-no                                               
   RPACOR =    1.200    partial core radius                                                         
   POMASS =   10.811; ZVAL   =    3.000    mass and valenz                                          
   RCORE  =    1.700    outmost cutoff radius                                                       
   RWIGS  =    1.710; RWIGS  =    0.905    wigner-seitz radius (au A)                               
   ENMAX  =  318.614; ENMIN  =  238.960 eV                                                          
   ICORE  =        2    local potential                                                             
   LCOR   =        T    correct aug charges                                                         
   LPAW   =        T    paw PP                                                                      
   EAUG   =  535.514                                                                                
   DEXC   =    0.000                                                                                
   RMAX   =    1.732    core radius for proj-oper                                                   
   RAUG   =    1.300    factor for augmentation sphere                                              
   RDEP   =    1.757    radius for radial grids                                                     
   RDEPT  =    1.436    core radius for aug-charge                                                  
                                                                                                    
   Atomic configuration                                                                             
    4 entries                                                                                       
     n  l   j            E        occ.                                                              
     1  0  0.50      -180.5896   2.0000                                                             
     2  0  0.50        -9.4431   2.0000                                                             
     2  1  0.50        -3.6068   1.0000                                                             
     3  2  1.50        -4.0817   0.0000                                                             
   Description                                                                                      
     l       E           TYP  RCUT    TYP  RCUT                                                     
     0     -9.4430752     23  1.500                                                                 
     0      0.8675899     23  1.500                                                                 
     1     -3.6067955     23  1.700                                                                 
     1      6.1086146     23  1.700                                                                 
     2     -4.0817478      7  1.700                                                                 
  local pseudopotential read in
  partial core-charges read in
  partial kinetic energy density read in
  atomic valenz-charges read in
  non local Contribution for L=           0  read in
    real space projection operators read in
  non local Contribution for L=           0  read in
    real space projection operators read in
  non local Contribution for L=           1  read in
    real space projection operators read in
  non local Contribution for L=           1  read in
    real space projection operators read in
    PAW grid and wavefunctions read in
 
   number of l-projection  operators is LMAX  =           4
   number of lm-projection operators is LMMAX =           8
 
 POTCAR:    PAW_PBE C 08Apr2002                   
   SHA256 =  253f7b50bb8d59471dbedb8285d89021f4a42ed1a2c5d38a03a736e69125dd95 C/POTCAR              
   COPYR  = (c) Copyright 08Apr2002 Georg Kresse                                                    
   COPYR  = This file is part of the software VASP. Any use, copying, and all other rights are regul
   COPYR  = If you do not have a valid VASP license, you may not use, copy or distribute this file. 
   VRHFIN =C: s2p2                                                                                  
   LEXCH  = PE                                                                                      
   EATOM  =   147.1560 eV,   10.8157 Ry                                                             
                                                                                                    
   TITEL  = PAW_PBE C 08Apr2002                                                                     
   LULTRA =        F    use ultrasoft PP ?                                                          
   IUNSCR =        1    unscreen: 0-lin 1-nonlin 2-no                                               
   RPACOR =    1.200    partial core radius                                                         
   POMASS =   12.011; ZVAL   =    4.000    mass and valenz                                          
   RCORE  =    1.500    outmost cutoff radius                                                       
   RWIGS  =    1.630; RWIGS  =    0.863    wigner-seitz radius (au A)                               
   ENMAX  =  400.000; ENMIN  =  300.000 eV                                                          
   ICORE  =        2    local potential                                                             
   LCOR   =        T    correct aug charges                                                         
   LPAW   =        T    paw PP                                                                      
   EAUG   =  644.873                                                                                
   DEXC   =    0.000                                                                                
   RMAX   =    1.529    core radius for proj-oper                                                   
   RAUG   =    1.300    factor for augmentation sphere                                              
   RDEP   =    1.501    radius for radial grids                                                     
   RDEPT  =    1.300    core radius for aug-charge                                                  
                                                                                                    
   Atomic configuration                                                                             
    4 entries                                                                                       
     n  l   j            E        occ.                                                              
     1  0  0.50      -273.3789   2.0000                                                             
     2  0  0.50       -13.7508   2.0000                                                             
     2  1  0.50        -5.2854   2.0000                                                             
     3  2  1.50        -5.4423   0.0000                                                             
   Description                                                                                      
     l       E           TYP  RCUT    TYP  RCUT                                                     
     0    -13.7508458     23  1.200                                                                 
     0     -8.2022199     23  1.200                                                                 
     1     -5.2854383     23  1.500                                                                 
     1     34.0145650     23  1.500                                                                 
     2     -5.4423304      7  1.500                                                                 
  local pseudopotential read in
  partial core-charges read in
  partial kinetic energy density read in
  atomic valenz-charges read in
  non local Contribution for L=           0  read in
    real space projection operators read in
  non local Contribution for L=           0  read in
    real space projection operators read in
  non local Contribution for L=           1  read in
    real space projection operators read in
  non local Contribution for L=           1  read in
    real space projection operators read in
    PAW grid and wavefunctions read in
 
   number of l-projection  operators is LMAX  =           4
   number of lm-projection operators is LMMAX =           8
 
  PAW_PBE B 06Sep2000                   :
 energy of atom  1       EATOM=  -71.1703
 kinetic energy error for atom=    0.0015 (will be added to EATOM!!)
  PAW_PBE C 08Apr2002                   :
 energy of atom  2       EATOM= -147.1560
 kinetic energy error for atom=    0.0116 (will be added to EATOM!!)
 
 
 POSCAR: B4C3 with lattice parameter 4.670
  positions in direct lattice
  No initial velocities read in
 exchange correlation table for  LEXCH =        8
   RHO(1)=    0.500       N(1)  =     2000
   RHO(2)=  100.500       N(2)  =     4000

 VTST: version 4.2, (08/11/21)

 CHAIN: initializing optimizer
 
 OPT: Using VASP Conjugate-Gradient optimizer
 CHAIN: Read ICHAIN            0
 
 POSCAR: B4C3 with lattice parameter 4.670
  positions in direct lattice
  No initial velocities read in
 


--------------------------------------------------------------------------------------------------------


 ion  position               nearest neighbor table
   1  0.012  0.008  0.114-   2 1.50   3 1.50   5 1.51   4 1.61   6 1.62   7 1.62
   2  0.335  0.019  0.100-   5 1.46   1 1.50   6 1.58   7 1.62
   3  0.018  0.329  0.100-   5 1.45   1 1.50   7 1.58   6 1.59
   4  0.665  0.670  0.100-   6 1.56   5 1.58   7 1.61   1 1.61
   5  0.330  0.330  0.100-   3 1.45   2 1.46   1 1.51   4 1.58
   6  0.666  0.004  0.100-   4 1.56   2 1.58   3 1.59   1 1.62
   7  0.004  0.660  0.100-   3 1.58   4 1.61   2 1.62   1 1.62
 
  LATTYP: Found a hexagonal cell.
 ALAT       =     4.6700003155
 C/A-ratio  =     3.2119912177
  
  Lattice vectors:
  
 A1 = (   4.0443390000,   2.3350000000,   0.0000000000)
 A2 = (  -4.0443390000,   2.3350000000,   0.0000000000)
 A3 = (   0.0000000000,   0.0000000000,  15.0000000000)


Analysis of symmetry for initial positions (statically):
=====================================================================
 Subroutine PRICEL returns:
 Original cell was already a primitive cell.
 

 Routine SETGRP: Setting up the symmetry group for a 
 hexagonal supercell.


 Subroutine GETGRP returns: Found  1 space group operations
 (whereof  1 operations were pure point group operations)
 out of a pool of 24 trial point group operations.


The static configuration has the point symmetry C_1 .


Analysis of symmetry for dynamics (positions and initial velocities):
=====================================================================
 Subroutine PRICEL returns:
 Original cell was already a primitive cell.
 

 Routine SETGRP: Setting up the symmetry group for a 
 hexagonal supercell.


 Subroutine GETGRP returns: Found  1 space group operations
 (whereof  1 operations were pure point group operations)
 out of a pool of 24 trial point group operations.


The dynamic configuration has the point symmetry C_1 .


 Subroutine INISYM returns: Found  1 space group operations
 (whereof  1 operations are pure point group operations),
 and found     1 'primitive' translations


----------------------------------------------------------------------------------------

                                     Primitive cell                                     

  volume of cell :     283.3059

  direct lattice vectors                    reciprocal lattice vectors
     4.044339000  2.335000000  0.000000000     0.123629597  0.214132762  0.000000000
    -4.044339000  2.335000000  0.000000000    -0.123629597  0.214132762  0.000000000
     0.000000000  0.000000000 15.000000000     0.000000000  0.000000000  0.066666667

  length of vectors
     4.670000316  4.670000316 15.000000000     0.247259210  0.247259210  0.066666667

  position of ions in fractional coordinates (direct lattice)
     0.012000000  0.008000000  0.113646000
     0.335033000  0.019000000  0.100000000
     0.018000000  0.328933000  0.100000000
     0.664666000  0.670006000  0.100000000
     0.329933000  0.329833000  0.100000000
     0.665666000  0.004000000  0.100000000
     0.004000000  0.659666000  0.100000000

  ion indices of the primitive-cell ions
   primitive index   ion index
                 1           1
                 2           2
                 3           3
                 4           4
                 5           5
                 6           6
                 7           7

----------------------------------------------------------------------------------------

 
 
 KPOINTS: k-points                                

Automatic generation of k-mesh.
 Grid dimensions read from file:
 generate k-points for:   12   12    1

 Generating k-lattice:

  Cartesian coordinates                     Fractional coordinates (reciprocal lattice)
     0.010302466  0.017844397  0.000000000     0.083333333  0.000000000  0.000000000
    -0.010302466  0.017844397  0.000000000     0.000000000  0.083333333  0.000000000
     0.000000000  0.000000000  0.066666667     0.000000000  0.000000000  1.000000000

  Length of vectors
     0.020604934  0.020604934  0.066666667

  Shift w.r.t. Gamma in fractional coordinates (k-lattice)
     0.000000000  0.000000000  0.000000000

 
 Subroutine IBZKPT returns following result:
 ===========================================
 
 Found     74 irreducible k-points:
 
 Following reciprocal coordinates:
            Coordinates               Weight
  0.000000  0.000000  0.000000      1.000000
  0.083333 -0.000000  0.000000      2.000000
 -0.000000  0.083333  0.000000      2.000000
 -0.083333  0.083333  0.000000      2.000000
  0.166667  0.000000  0.000000      2.000000
 -0.000000  0.166667  0.000000      2.000000
 -0.166667  0.166667  0.000000      2.000000
  0.250000  0.000000  0.000000      2.000000
 -0.000000  0.250000  0.000000      2.000000
 -0.250000  0.250000  0.000000      2.000000
  0.333333  0.000000  0.000000      2.000000
  0.000000  0.333333  0.000000      2.000000
 -0.333333  0.333333  0.000000      2.000000
  0.416667 -0.000000  0.000000      2.000000
 -0.000000  0.416667  0.000000      2.000000
 -0.416667  0.416667  0.000000      2.000000
  0.500000  0.000000  0.000000      1.000000
 -0.000000  0.500000  0.000000      1.000000
  0.500000  0.500000  0.000000      1.000000
  0.083333  0.083333  0.000000      2.000000
 -0.083333  0.166667  0.000000      2.000000
 -0.166667  0.083333  0.000000      2.000000
  0.166667  0.083333  0.000000      2.000000
 -0.083333  0.250000  0.000000      2.000000
 -0.250000  0.166667  0.000000      2.000000
 -0.166667  0.250000  0.000000      2.000000
  0.083333  0.166667  0.000000      2.000000
  0.250000 -0.083333  0.000000      2.000000
  0.250000  0.083333  0.000000      2.000000
 -0.083333  0.333333  0.000000      2.000000
 -0.333333  0.250000  0.000000      2.000000
 -0.250000  0.333333  0.000000      2.000000
  0.083333  0.250000  0.000000      2.000000
  0.333333 -0.083333  0.000000      2.000000
  0.333333  0.083333  0.000000      2.000000
 -0.083333  0.416667  0.000000      2.000000
 -0.416667  0.333333  0.000000      2.000000
 -0.333333  0.416667  0.000000      2.000000
  0.083333  0.333333  0.000000      2.000000
  0.416667 -0.083333  0.000000      2.000000
  0.416667  0.083333  0.000000      2.000000
 -0.083333  0.500000  0.000000      2.000000
  0.500000  0.416667  0.000000      2.000000
 -0.416667  0.500000  0.000000      2.000000
  0.083333  0.416667  0.000000      2.000000
  0.500000 -0.083333  0.000000      2.000000
  0.166667  0.166667  0.000000      2.000000
 -0.166667  0.333333  0.000000      2.000000
 -0.333333  0.166667  0.000000      2.000000
  0.250000  0.166667  0.000000      2.000000
 -0.166667  0.416667  0.000000      2.000000
 -0.416667  0.250000  0.000000      2.000000
 -0.250000  0.416667  0.000000      2.000000
  0.166667  0.250000  0.000000      2.000000
  0.416667 -0.166667  0.000000      2.000000
  0.333333  0.166667  0.000000      2.000000
 -0.166667  0.500000  0.000000      2.000000
  0.500000  0.333333  0.000000      2.000000
 -0.333333  0.500000  0.000000      2.000000
  0.166667  0.333333  0.000000      2.000000
  0.500000 -0.166667  0.000000      2.000000
  0.416667  0.166667  0.000000      2.000000
 -0.166667 -0.416667  0.000000      2.000000
  0.416667  0.416667  0.000000      2.000000
  0.250000  0.250000  0.000000      2.000000
 -0.250000  0.500000  0.000000      2.000000
  0.500000  0.250000  0.000000      2.000000
  0.333333  0.250000  0.000000      2.000000
 -0.250000 -0.416667  0.000000      2.000000
  0.416667  0.333333  0.000000      2.000000
 -0.333333 -0.416667  0.000000      2.000000
  0.250000  0.333333  0.000000      2.000000
 -0.416667 -0.250000  0.000000      2.000000
  0.333333  0.333333  0.000000      2.000000
 
 Following cartesian coordinates:
            Coordinates               Weight
  0.000000  0.000000  0.000000      1.000000
  0.010302  0.017844  0.000000      2.000000
 -0.010302  0.017844  0.000000      2.000000
 -0.020605  0.000000  0.000000      2.000000
  0.020605  0.035689  0.000000      2.000000
 -0.020605  0.035689  0.000000      2.000000
 -0.041210  0.000000  0.000000      2.000000
  0.030907  0.053533  0.000000      2.000000
 -0.030907  0.053533  0.000000      2.000000
 -0.061815  0.000000  0.000000      2.000000
  0.041210  0.071378  0.000000      2.000000
 -0.041210  0.071378  0.000000      2.000000
 -0.082420 -0.000000  0.000000      2.000000
  0.051512  0.089222  0.000000      2.000000
 -0.051512  0.089222  0.000000      2.000000
 -0.103025 -0.000000  0.000000      2.000000
  0.061815  0.107066  0.000000      1.000000
 -0.061815  0.107066  0.000000      1.000000
  0.000000  0.214133  0.000000      1.000000
  0.000000  0.035689  0.000000      2.000000
 -0.030907  0.017844  0.000000      2.000000
 -0.030907 -0.017844  0.000000      2.000000
  0.010302  0.053533  0.000000      2.000000
 -0.041210  0.035689  0.000000      2.000000
 -0.051512 -0.017844  0.000000      2.000000
 -0.051512  0.017844  0.000000      2.000000
 -0.010302  0.053533  0.000000      2.000000
  0.041210  0.035689  0.000000      2.000000
  0.020605  0.071378  0.000000      2.000000
 -0.051512  0.053533  0.000000      2.000000
 -0.072117 -0.017844  0.000000      2.000000
 -0.072117  0.017844  0.000000      2.000000
 -0.020605  0.071378  0.000000      2.000000
  0.051512  0.053533  0.000000      2.000000
  0.030907  0.089222  0.000000      2.000000
 -0.061815  0.071378  0.000000      2.000000
 -0.092722 -0.017844  0.000000      2.000000
 -0.092722  0.017844  0.000000      2.000000
 -0.030907  0.089222  0.000000      2.000000
  0.061815  0.071378  0.000000      2.000000
  0.041210  0.107066  0.000000      2.000000
 -0.072117  0.089222  0.000000      2.000000
  0.010302  0.196288  0.000000      2.000000
 -0.113327  0.017844  0.000000      2.000000
 -0.041210  0.107066  0.000000      2.000000
  0.072117  0.089222  0.000000      2.000000
 -0.000000  0.071378  0.000000      2.000000
 -0.061815  0.035689  0.000000      2.000000
 -0.061815 -0.035689  0.000000      2.000000
  0.010302  0.089222  0.000000      2.000000
 -0.072117  0.053533  0.000000      2.000000
 -0.082420 -0.035689  0.000000      2.000000
 -0.082420  0.035689  0.000000      2.000000
 -0.010302  0.089222  0.000000      2.000000
  0.072117  0.053533  0.000000      2.000000
  0.020605  0.107066  0.000000      2.000000
 -0.082420  0.071378  0.000000      2.000000
  0.020605  0.178444  0.000000      2.000000
 -0.103025  0.035689  0.000000      2.000000
 -0.020605  0.107066  0.000000      2.000000
  0.082420  0.071378  0.000000      2.000000
  0.030907  0.124911  0.000000      2.000000
  0.030907 -0.124911  0.000000      2.000000
  0.000000  0.178444  0.000000      2.000000
  0.000000  0.107066  0.000000      2.000000
 -0.092722  0.053533  0.000000      2.000000
  0.030907  0.160600  0.000000      2.000000
  0.010302  0.124911  0.000000      2.000000
  0.020605 -0.142755  0.000000      2.000000
  0.010302  0.160600  0.000000      2.000000
  0.010302 -0.160600  0.000000      2.000000
 -0.010302  0.124911  0.000000      2.000000
 -0.020605 -0.142755  0.000000      2.000000
 -0.000000  0.142755  0.000000      2.000000
 


--------------------------------------------------------------------------------------------------------




 Dimension of arrays:
   k-points           NKPTS =     74   k-points in BZ     NKDIM =     74   number of bands    NBANDS=     48
   number of dos      NEDOS =    301   number of ions     NIONS =      7
   non local maximal  LDIM  =      4   non local SUM 2l+1 LMDIM =      8
   total plane-waves  NPLWV = 110592
   max r-space proj   IRMAX =      1   max aug-charges    IRDMAX=   6286
   dimension x,y,z NGX =    32 NGY =   32 NGZ =  108
   dimension x,y,z NGXF=    64 NGYF=   64 NGZF=  216
   support grid    NGXF=    64 NGYF=   64 NGZF=  216
   ions per type =               4   3
   NGX,Y,Z   is equivalent  to a cutoff of  11.39, 11.39, 11.97 a.u.
   NGXF,Y,Z  is equivalent  to a cutoff of  22.78, 22.78, 23.94 a.u.

 SYSTEM =  Borophene                               
 POSCAR =  B4C3 with lattice parameter 4.670       

 Startparameter for this run:
   NWRITE =      2    write-flag & timer
   PREC   = accura    normal or accurate (medium, high low for compatibility)
   ISTART =      0    job   : 0-new  1-cont  2-samecut
   ICHARG =      2    charge: 1-file 2-atom 10-const
   ISPIN  =      1    spin polarized calculation?
   LNONCOLLINEAR =      F non collinear calculations
   LSORBIT =      F    spin-orbit coupling
   INIWAV =      1    electr: 0-lowe 1-rand  2-diag
   LASPH  =      F    aspherical Exc in radial PAW
 Electronic Relaxation 1
   ENCUT  =  450.0 eV  33.07 Ry    5.75 a.u.   8.08  8.08 25.95*2*pi/ulx,y,z
   ENINI  =  450.0     initial cutoff
   ENAUG  =  644.9 eV  augmentation charge cutoff
   NELM   =     60;   NELMIN=  2; NELMDL= -5     # of ELM steps 
   EDIFF  = 0.1E-05   stopping-criterion for ELM
   LREAL  =      F    real-space projection
   NLSPLINE    = F    spline interpolate recip. space projectors
   LCOMPAT=      F    compatible to vasp.4.4
   GGA_COMPAT  = T    GGA compatible to vasp.4.4-vasp.4.6
   LMAXPAW     = -100 max onsite density
   LMAXMIX     =    2 max onsite mixed and CHGCAR
   VOSKOWN=      0    Vosko Wilk Nusair interpolation
   ROPT   =    0.00000   0.00000
 Ionic relaxation
   EDIFFG = -.1E-01   stopping-criterion for IOM
   NSW    =    100    number of steps for IOM
   NBLOCK =      1;   KBLOCK =    100    inner block; outer block 
   IBRION =      2    ionic relax: 0-MD 1-quasi-New 2-CG
   NFREE  =      1    steps in history (QN), initial steepest desc. (CG)
   ISIF   =      2    stress and relaxation
   IWAVPR =     11    prediction:  0-non 1-charg 2-wave 3-comb
   ISYM   =      2    0-nonsym 1-usesym 2-fastsym
   LCORR  =      T    Harris-Foulkes like correction to forces

   POTIM  = 0.5000    time-step for ionic-motion
   TEIN   =    0.0    initial temperature
   TEBEG  =    0.0;   TEEND  =   0.0 temperature during run
   SMASS  =  -3.00    Nose mass-parameter (am)
   estimated Nose-frequenzy (Omega)   =  0.10E-29 period in steps = 0.13E+47 mass=  -0.498E-27a.u.
   SCALEE = 1.0000    scale energy and forces
   NPACO  =    256;   APACO  = 10.0  distance and # of slots for P.C.
   PSTRESS=    0.0 pullay stress

  Mass of Ions in am
   POMASS =  10.81 12.01
  Ionic Valenz
   ZVAL   =   3.00  4.00
  Atomic Wigner-Seitz radii
   RWIGS  =  -1.00 -1.00
  virtual crystal weights 
   VCA    =   1.00  1.00
   NELECT =      24.0000    total number of electrons
   NUPDOWN=      -1.0000    fix difference up-down

 DOS related values:
   EMIN   =  10.00;   EMAX   =-10.00  energy-range for DOS
   EFERMI =   0.00
   ISMEAR =     0;   SIGMA  =   0.10  broadening in eV -4-tet -1-fermi 0-gaus

 Electronic relaxation 2 (details)
   IALGO  =     38    algorithm
   LDIAG  =      T    sub-space diagonalisation (order eigenvalues)
   LSUBROT=      F    optimize rotation matrix (better conditioning)
   TURBO    =      0    0=normal 1=particle mesh
   IRESTART =      0    0=no restart 2=restart with 2 vectors
   NREBOOT  =      0    no. of reboots
   NMIN     =      0    reboot dimension
   EREF     =   0.00    reference energy to select bands
   IMIX   =      4    mixing-type and parameters
     AMIX     =   0.40;   BMIX     =  1.00
     AMIX_MAG =   1.60;   BMIX_MAG =  1.00
     AMIN     =   0.10
     WC   =   100.;   INIMIX=   1;  MIXPRE=   1;  MAXMIX= -45

 Intra band minimization:
   WEIMIN = 0.0010     energy-eigenvalue tresh-hold
   EBREAK =  0.52E-08  absolut break condition
   DEPER  =   0.30     relativ break condition  

   TIME   =   0.40     timestep for ELM

  volume/ion in A,a.u.               =      40.47       273.12
  Fermi-wavevector in a.u.,A,eV,Ry     =   0.718996  1.358706  7.033610  0.516956
  Thomas-Fermi vector in A             =   1.808078
 
 Write flags
   LWAVE        =      F    write WAVECAR
   LDOWNSAMPLE  =      F    k-point downsampling of WAVECAR
   LCHARG       =      F    write CHGCAR
   LVTOT        =      F    write LOCPOT, total local potential
   LVHAR        =      F    write LOCPOT, Hartree potential only
   LELF         =      F    write electronic localiz. function (ELF)
   LORBIT       =      0    0 simple, 1 ext, 2 COOP (PROOUT), +10 PAW based schemes


 Dipole corrections
   LMONO  =      F    monopole corrections only (constant potential shift)
   LDIPOL =      F    correct potential (dipole corrections)
   IDIPOL =      0    1-x, 2-y, 3-z, 4-all directions 
   EPSILON=  1.0000000 bulk dielectric constant

 Exchange correlation treatment:
   GGA     =    PE    GGA type
   LEXCH   =     8    internal setting for exchange type
   LIBXC   =     F    Libxc                    
   VOSKOWN =     0    Vosko Wilk Nusair interpolation
   LHFCALC =     F    Hartree Fock is set to
   LHFONE  =     F    Hartree Fock one center treatment
   AEXX    =    0.0000 exact exchange contribution

 Linear response parameters
   LEPSILON=     F    determine dielectric tensor
   LRPA    =     F    only Hartree local field effects (RPA)
   LNABLA  =     F    use nabla operator in PAW spheres
   LVEL    =     F    velocity operator in full k-point grid
   CSHIFT  =0.1000    complex shift for real part using Kramers Kronig
   OMEGAMAX=  -1.0    maximum frequency
   DEG_THRESHOLD= 0.2000000E-02 threshold for treating states as degnerate
   RTIME   =   -0.100 relaxation time in fs
  (WPLASMAI=    0.000 imaginary part of plasma frequency in eV, 0.658/RTIME)
   DFIELD  = 0.0000000 0.0000000 0.0000000 field for delta impulse in time
 
  Optional k-point grid parameters
   LKPOINTS_OPT  =     F    use optional k-point grid
   KPOINTS_OPT_MODE=     1    mode for optional k-point grid
 
 Orbital magnetization related:
   ORBITALMAG=     F  switch on orbital magnetization
   LCHIMAG   =     F  perturbation theory with respect to B field
   DQ        =  0.001000  dq finite difference perturbation B field
   LLRAUG    =     F  two centre corrections for induced B field



--------------------------------------------------------------------------------------------------------


 conjugate gradient relaxation of ions
 charge density and potential will be updated during run
 non-spin polarized calculation
 Variant of blocked Davidson
 Davidson routine will perform the subspace rotation
 perform sub-space diagonalisation
    after iterative eigenvector-optimisation
 modified Broyden-mixing scheme, WC =      100.0
 initial mixing is a Kerker type mixing with AMIX =  0.4000 and BMIX =      1.0000
 Hartree-type preconditioning will be used
 using additional bands           36
 reciprocal scheme for non local part
 use partial core corrections
 calculate Harris-corrections to forces 
   (improved forces if not selfconsistent)
 use gradient corrections 
 use of overlap-Matrix (Vanderbilt PP)
 Gauss-broadening in eV      SIGMA  =   0.10


--------------------------------------------------------------------------------------------------------


  energy-cutoff  :      450.00
  volume of cell :      283.31
      direct lattice vectors                 reciprocal lattice vectors
     4.044339000  2.335000000  0.000000000     0.123629597  0.214132762  0.000000000
    -4.044339000  2.335000000  0.000000000    -0.123629597  0.214132762  0.000000000
     0.000000000  0.000000000 15.000000000     0.000000000  0.000000000  0.066666667

  length of vectors
     4.670000316  4.670000316 15.000000000     0.247259210  0.247259210  0.066666667


 
 k-points in units of 2pi/SCALE and weight: k-points                                
   0.00000000  0.00000000  0.00000000       0.007
   0.01030247  0.01784440  0.00000000       0.014
  -0.01030247  0.01784440  0.00000000       0.014
  -0.02060493  0.00000000  0.00000000       0.014
   0.02060493  0.03568879  0.00000000       0.014
  -0.02060493  0.03568879  0.00000000       0.014
  -0.04120987  0.00000000  0.00000000       0.014
   0.03090740  0.05353319  0.00000000       0.014
  -0.03090740  0.05353319  0.00000000       0.014
  -0.06181480  0.00000000  0.00000000       0.014
   0.04120987  0.07137759  0.00000000       0.014
  -0.04120987  0.07137759  0.00000000       0.014
  -0.08241973 -0.00000000  0.00000000       0.014
   0.05151233  0.08922198  0.00000000       0.014
  -0.05151233  0.08922198  0.00000000       0.014
  -0.10302466 -0.00000000  0.00000000       0.014
   0.06181480  0.10706638  0.00000000       0.007
  -0.06181480  0.10706638  0.00000000       0.007
   0.00000000  0.21413276  0.00000000       0.007
   0.00000000  0.03568879  0.00000000       0.014
  -0.03090740  0.01784440  0.00000000       0.014
  -0.03090740 -0.01784440  0.00000000       0.014
   0.01030247  0.05353319  0.00000000       0.014
  -0.04120987  0.03568879  0.00000000       0.014
  -0.05151233 -0.01784440  0.00000000       0.014
  -0.05151233  0.01784440  0.00000000       0.014
  -0.01030247  0.05353319  0.00000000       0.014
   0.04120987  0.03568879  0.00000000       0.014
   0.02060493  0.07137759  0.00000000       0.014
  -0.05151233  0.05353319  0.00000000       0.014
  -0.07211726 -0.01784440  0.00000000       0.014
  -0.07211726  0.01784440  0.00000000       0.014
  -0.02060493  0.07137759  0.00000000       0.014
   0.05151233  0.05353319  0.00000000       0.014
   0.03090740  0.08922198  0.00000000       0.014
  -0.06181480  0.07137759  0.00000000       0.014
  -0.09272220 -0.01784440  0.00000000       0.014
  -0.09272220  0.01784440  0.00000000       0.014
  -0.03090740  0.08922198  0.00000000       0.014
   0.06181480  0.07137759  0.00000000       0.014
   0.04120987  0.10706638  0.00000000       0.014
  -0.07211726  0.08922198  0.00000000       0.014
   0.01030247  0.19628837  0.00000000       0.014
  -0.11332713  0.01784440  0.00000000       0.014
  -0.04120987  0.10706638  0.00000000       0.014
   0.07211726  0.08922198  0.00000000       0.014
  -0.00000000  0.07137759  0.00000000       0.014
  -0.06181480  0.03568879  0.00000000       0.014
  -0.06181480 -0.03568879  0.00000000       0.014
   0.01030247  0.08922198  0.00000000       0.014
  -0.07211726  0.05353319  0.00000000       0.014
  -0.08241973 -0.03568879  0.00000000       0.014
  -0.08241973  0.03568879  0.00000000       0.014
  -0.01030247  0.08922198  0.00000000       0.014
   0.07211726  0.05353319  0.00000000       0.014
   0.02060493  0.10706638  0.00000000       0.014
  -0.08241973  0.07137759  0.00000000       0.014
   0.02060493  0.17844397  0.00000000       0.014
  -0.10302466  0.03568879  0.00000000       0.014
  -0.02060493  0.10706638  0.00000000       0.014
   0.08241973  0.07137759  0.00000000       0.014
   0.03090740  0.12491078  0.00000000       0.014
   0.03090740 -0.12491078  0.00000000       0.014
   0.00000000  0.17844397  0.00000000       0.014
   0.00000000  0.10706638  0.00000000       0.014
  -0.09272220  0.05353319  0.00000000       0.014
   0.03090740  0.16059957  0.00000000       0.014
   0.01030247  0.12491078  0.00000000       0.014
   0.02060493 -0.14275517  0.00000000       0.014
   0.01030247  0.16059957  0.00000000       0.014
   0.01030247 -0.16059957  0.00000000       0.014
  -0.01030247  0.12491078  0.00000000       0.014
  -0.02060493 -0.14275517  0.00000000       0.014
  -0.00000000  0.14275517  0.00000000       0.014
 
 k-points in reciprocal lattice and weights: k-points                                
   0.00000000  0.00000000  0.00000000       0.007
   0.08333333 -0.00000000  0.00000000       0.014
  -0.00000000  0.08333333  0.00000000       0.014
  -0.08333333  0.08333333  0.00000000       0.014
   0.16666667  0.00000000  0.00000000       0.014
  -0.00000000  0.16666667  0.00000000       0.014
  -0.16666667  0.16666667  0.00000000       0.014
   0.25000000  0.00000000  0.00000000       0.014
  -0.00000000  0.25000000  0.00000000       0.014
  -0.25000000  0.25000000  0.00000000       0.014
   0.33333333  0.00000000  0.00000000       0.014
   0.00000000  0.33333333  0.00000000       0.014
  -0.33333333  0.33333333  0.00000000       0.014
   0.41666667 -0.00000000  0.00000000       0.014
  -0.00000000  0.41666667  0.00000000       0.014
  -0.41666667  0.41666667  0.00000000       0.014
   0.50000000  0.00000000  0.00000000       0.007
  -0.00000000  0.50000000  0.00000000       0.007
   0.50000000  0.50000000  0.00000000       0.007
   0.08333333  0.08333333  0.00000000       0.014
  -0.08333333  0.16666667  0.00000000       0.014
  -0.16666667  0.08333333  0.00000000       0.014
   0.16666667  0.08333333  0.00000000       0.014
  -0.08333333  0.25000000  0.00000000       0.014
  -0.25000000  0.16666667  0.00000000       0.014
  -0.16666667  0.25000000  0.00000000       0.014
   0.08333333  0.16666667  0.00000000       0.014
   0.25000000 -0.08333333  0.00000000       0.014
   0.25000000  0.08333333  0.00000000       0.014
  -0.08333333  0.33333333  0.00000000       0.014
  -0.33333333  0.25000000  0.00000000       0.014
  -0.25000000  0.33333333  0.00000000       0.014
   0.08333333  0.25000000  0.00000000       0.014
   0.33333333 -0.08333333  0.00000000       0.014
   0.33333333  0.08333333  0.00000000       0.014
  -0.08333333  0.41666667  0.00000000       0.014
  -0.41666667  0.33333333  0.00000000       0.014
  -0.33333333  0.41666667  0.00000000       0.014
   0.08333333  0.33333333  0.00000000       0.014
   0.41666667 -0.08333333  0.00000000       0.014
   0.41666667  0.08333333  0.00000000       0.014
  -0.08333333  0.50000000  0.00000000       0.014
   0.50000000  0.41666667  0.00000000       0.014
  -0.41666667  0.50000000  0.00000000       0.014
   0.08333333  0.41666667  0.00000000       0.014
   0.50000000 -0.08333333  0.00000000       0.014
   0.16666667  0.16666667  0.00000000       0.014
  -0.16666667  0.33333333  0.00000000       0.014
  -0.33333333  0.16666667  0.00000000       0.014
   0.25000000  0.16666667  0.00000000       0.014
  -0.16666667  0.41666667  0.00000000       0.014
  -0.41666667  0.25000000  0.00000000       0.014
  -0.25000000  0.41666667  0.00000000       0.014
   0.16666667  0.25000000  0.00000000       0.014
   0.41666667 -0.16666667  0.00000000       0.014
   0.33333333  0.16666667  0.00000000       0.014
  -0.16666667  0.50000000  0.00000000       0.014
   0.50000000  0.33333333  0.00000000       0.014
  -0.33333333  0.50000000  0.00000000       0.014
   0.16666667  0.33333333  0.00000000       0.014
   0.50000000 -0.16666667  0.00000000       0.014
   0.41666667  0.16666667  0.00000000       0.014
  -0.16666667 -0.41666667  0.00000000       0.014
   0.41666667  0.41666667  0.00000000       0.014
   0.25000000  0.25000000  0.00000000       0.014
  -0.25000000  0.50000000  0.00000000       0.014
   0.50000000  0.25000000  0.00000000       0.014
   0.33333333  0.25000000  0.00000000       0.014
  -0.25000000 -0.41666667  0.00000000       0.014
   0.41666667  0.33333333  0.00000000       0.014
  -0.33333333 -0.41666667  0.00000000       0.014
   0.25000000  0.33333333  0.00000000       0.014
  -0.41666667 -0.25000000  0.00000000       0.014
   0.33333333  0.33333333  0.00000000       0.014
 
 position of ions in fractional coordinates (direct lattice) 
   0.01200000  0.00800000  0.11364600
   0.33503300  0.01900000  0.10000000
   0.01800000  0.32893300  0.10000000
   0.66466600  0.67000600  0.10000000
   0.32993300  0.32983300  0.10000000
   0.66566600  0.00400000  0.10000000
   0.00400000  0.65966600  0.10000000
 
 position of ions in cartesian coordinates  (Angst):
   0.01617736  0.04670000  1.70469000
   1.27814459  0.82666706  1.50000000
  -1.25751846  0.81008855  1.50000000
  -0.02159677  3.11645912  1.50000000
   0.00040443  1.54055361  1.50000000
   2.67600161  1.56367011  1.50000000
  -2.65173557  1.54966011  1.50000000
 


--------------------------------------------------------------------------------------------------------


 k-point   1 :   0.0000 0.0000 0.0000  plane waves:    6063
 k-point   2 :   0.0833-0.0000 0.0000  plane waves:    6108
 k-point   3 :  -0.0000 0.0833 0.0000  plane waves:    6108
 k-point   4 :  -0.0833 0.0833 0.0000  plane waves:    6108
 k-point   5 :   0.1667 0.0000 0.0000  plane waves:    6090
 k-point   6 :  -0.0000 0.1667 0.0000  plane waves:    6090
 k-point   7 :  -0.1667 0.1667 0.0000  plane waves:    6090
 k-point   8 :   0.2500 0.0000 0.0000  plane waves:    6136
 k-point   9 :  -0.0000 0.2500 0.0000  plane waves:    6136
 k-point  10 :  -0.2500 0.2500 0.0000  plane waves:    6136
 k-point  11 :   0.3333 0.0000 0.0000  plane waves:    6150
 k-point  12 :   0.0000 0.3333 0.0000  plane waves:    6150
 k-point  13 :  -0.3333 0.3333 0.0000  plane waves:    6150
 k-point  14 :   0.4167-0.0000 0.0000  plane waves:    6164
 k-point  15 :  -0.0000 0.4167 0.0000  plane waves:    6164
 k-point  16 :  -0.4167 0.4167 0.0000  plane waves:    6164
 k-point  17 :   0.5000 0.0000 0.0000  plane waves:    6150
 k-point  18 :  -0.0000 0.5000 0.0000  plane waves:    6150
 k-point  19 :   0.5000 0.5000 0.0000  plane waves:    6150
 k-point  20 :   0.0833 0.0833 0.0000  plane waves:    6112
 k-point  21 :  -0.0833 0.1667 0.0000  plane waves:    6112
 k-point  22 :  -0.1667 0.0833 0.0000  plane waves:    6112
 k-point  23 :   0.1667 0.0833 0.0000  plane waves:    6112
 k-point  24 :  -0.0833 0.2500 0.0000  plane waves:    6112
 k-point  25 :  -0.2500 0.1667 0.0000  plane waves:    6112
 k-point  26 :  -0.1667 0.2500 0.0000  plane waves:    6112
 k-point  27 :   0.0833 0.1667 0.0000  plane waves:    6112
 k-point  28 :   0.2500-0.0833 0.0000  plane waves:    6112
 k-point  29 :   0.2500 0.0833 0.0000  plane waves:    6148
 k-point  30 :  -0.0833 0.3333 0.0000  plane waves:    6148
 k-point  31 :  -0.3333 0.2500 0.0000  plane waves:    6148
 k-point  32 :  -0.2500 0.3333 0.0000  plane waves:    6148
 k-point  33 :   0.0833 0.2500 0.0000  plane waves:    6148
 k-point  34 :   0.3333-0.0833 0.0000  plane waves:    6148
 k-point  35 :   0.3333 0.0833 0.0000  plane waves:    6144
 k-point  36 :  -0.0833 0.4167 0.0000  plane waves:    6144
 k-point  37 :  -0.4167 0.3333 0.0000  plane waves:    6144
 k-point  38 :  -0.3333 0.4167 0.0000  plane waves:    6144
 k-point  39 :   0.0833 0.3333 0.0000  plane waves:    6144
 k-point  40 :   0.4167-0.0833 0.0000  plane waves:    6144
 k-point  41 :   0.4167 0.0833 0.0000  plane waves:    6138
 k-point  42 :  -0.0833 0.5000 0.0000  plane waves:    6138
 k-point  43 :   0.5000 0.4167 0.0000  plane waves:    6138
 k-point  44 :  -0.4167 0.5000 0.0000  plane waves:    6138
 k-point  45 :   0.0833 0.4167 0.0000  plane waves:    6138
 k-point  46 :   0.5000-0.0833 0.0000  plane waves:    6138
 k-point  47 :   0.1667 0.1667 0.0000  plane waves:    6132
 k-point  48 :  -0.1667 0.3333 0.0000  plane waves:    6132
 k-point  49 :  -0.3333 0.1667 0.0000  plane waves:    6132
 k-point  50 :   0.2500 0.1667 0.0000  plane waves:    6145
 k-point  51 :  -0.1667 0.4167 0.0000  plane waves:    6145
 k-point  52 :  -0.4167 0.2500 0.0000  plane waves:    6145
 k-point  53 :  -0.2500 0.4167 0.0000  plane waves:    6145
 k-point  54 :   0.1667 0.2500 0.0000  plane waves:    6145
 k-point  55 :   0.4167-0.1667 0.0000  plane waves:    6145
 k-point  56 :   0.3333 0.1667 0.0000  plane waves:    6151
 k-point  57 :  -0.1667 0.5000 0.0000  plane waves:    6151
 k-point  58 :   0.5000 0.3333 0.0000  plane waves:    6151
 k-point  59 :  -0.3333 0.5000 0.0000  plane waves:    6151
 k-point  60 :   0.1667 0.3333 0.0000  plane waves:    6151
 k-point  61 :   0.5000-0.1667 0.0000  plane waves:    6151
 k-point  62 :   0.4167 0.1667 0.0000  plane waves:    6150
 k-point  63 :  -0.1667-0.4167 0.0000  plane waves:    6150
 k-point  64 :   0.4167 0.4167 0.0000  plane waves:    6150
 k-point  65 :   0.2500 0.2500 0.0000  plane waves:    6160
 k-point  66 :  -0.2500 0.5000 0.0000  plane waves:    6160
 k-point  67 :   0.5000 0.2500 0.0000  plane waves:    6160
 k-point  68 :   0.3333 0.2500 0.0000  plane waves:    6145
 k-point  69 :  -0.2500-0.4167 0.0000  plane waves:    6145
 k-point  70 :   0.4167 0.3333 0.0000  plane waves:    6145
 k-point  71 :  -0.3333-0.4167 0.0000  plane waves:    6145
 k-point  72 :   0.2500 0.3333 0.0000  plane waves:    6145
 k-point  73 :  -0.4167-0.2500 0.0000  plane waves:    6145
 k-point  74 :   0.3333 0.3333 0.0000  plane waves:    6132

 maximum and minimum number of plane-waves per node :      6164     6063

 maximum number of plane-waves:      6164
 maximum index in each direction: 
   IXMAX=    8   IYMAX=    8   IZMAX=   25
   IXMIN=   -8   IYMIN=   -8   IZMIN=  -25


 serial   3D FFT for wavefunctions
 parallel 3D FFT for charge:
    minimum data exchange during FFTs selected (reduces bandwidth)


 total amount of memory used by VASP MPI-rank0   104120. kBytes
=======================================================================

   base      :      30000. kBytes
   nonl-proj :      59344. kBytes
   fftplans  :       1313. kBytes
   grid      :       5998. kBytes
   one-center:         21. kBytes
   wavefun   :       7444. kBytes
 
     INWAV:  cpu time      0.0000: real time      0.0000
 Broyden mixing: mesh for mixing (old mesh)
   NGX = 17   NGY = 17   NGZ = 51
  (NGX  = 64   NGY  = 64   NGZ  =216)
  gives a total of  14739 points

 initial charge density was supplied:
 charge density of overlapping atoms calculated
 number of electron      24.0000000 magnetization 
 keeping initial charge density in first step


--------------------------------------------------------------------------------------------------------


 Maximum index for augmentation-charges          365 (set IRDMAX)


--------------------------------------------------------------------------------------------------------


 First call to EWALD:  gamma=   0.270
 Maximum number of real-space cells 4x 4x 1
 Maximum number of reciprocal cells 2x 2x 6

    FEWALD:  cpu time      0.0016: real time      0.0020


--------------------------------------- Iteration      1(   1)  ---------------------------------------


    POTLOK:  cpu time      0.0176: real time      0.0184
    SETDIJ:  cpu time      0.0023: real time      0.0023
     EDDAV:  cpu time      2.1565: real time      2.1922
       DOS:  cpu time      0.0019: real time      0.0021
    --------------------------------------------
      LOOP:  cpu time      2.1784: real time      2.2150

 eigenvalue-minimisations  :  7104
 total energy-change (2. order) : 0.4695987E+02  (-0.1018318E+04)
 number of electron      24.0000000 magnetization 
 augmentation part       24.0000000 magnetization 

 Free energy of the ion-electron system (eV)
  ---------------------------------------------------
  alpha Z        PSCENC =        12.98978730
  Ewald energy   TEWEN  =      2074.82040538
  -Hartree energ DENC   =     -2570.85023671
  -exchange      EXHF   =         0.00000000
  -V(xc)+E(xc)   XCENC  =        67.30205953
  PAW double counting   =       499.56560116     -497.85253880
  entropy T*S    EENTRO =        -0.00544120
  eigenvalues    EBANDS =      -265.11815858
  atomic energy  EATOM  =       726.10839270
  Solvation  Ediel_sol  =         0.00000000
  ---------------------------------------------------
  free energy    TOTEN  =        46.95987078 eV

  energy without entropy =       46.96531199  energy(sigma->0) =       46.96259138


--------------------------------------------------------------------------------------------------------




--------------------------------------- Iteration      1(   2)  ---------------------------------------


     EDDAV:  cpu time      3.3519: real time      3.3976
       DOS:  cpu time      0.0005: real time      0.0005
    --------------------------------------------
      LOOP:  cpu time      3.3524: real time      3.3981

 eigenvalue-minimisations  : 10512
 total energy-change (2. order) :-0.1016786E+03  (-0.1012397E+03)
 number of electron      24.0000000 magnetization 
 augmentation part       24.0000000 magnetization 

 Free energy of the ion-electron system (eV)
  ---------------------------------------------------
  alpha Z        PSCENC =        12.98978730
  Ewald energy   TEWEN  =      2074.82040538
  -Hartree energ DENC   =     -2570.85023671
  -exchange      EXHF   =         0.00000000
  -V(xc)+E(xc)   XCENC  =        67.30205953
  PAW double counting   =       499.56560116     -497.85253880
  entropy T*S    EENTRO =        -0.00000000
  eigenvalues    EBANDS =      -366.80220963
  atomic energy  EATOM  =       726.10839270
  Solvation  Ediel_sol  =         0.00000000
  ---------------------------------------------------
  free energy    TOTEN  =       -54.71873906 eV

  energy without entropy =      -54.71873906  energy(sigma->0) =      -54.71873906


--------------------------------------------------------------------------------------------------------




--------------------------------------- Iteration      1(   3)  ---------------------------------------


     EDDAV:  cpu time      3.0051: real time      3.0362
       DOS:  cpu time      0.0005: real time      0.0005
    --------------------------------------------
      LOOP:  cpu time      3.0056: real time      3.0367

 eigenvalue-minimisations  :  9216
 total energy-change (2. order) :-0.1462025E+01  (-0.1462025E+01)
 number of electron      24.0000000 magnetization 
 augmentation part       24.0000000 magnetization 

 Free energy of the ion-electron system (eV)
  ---------------------------------------------------
  alpha Z        PSCENC =        12.98978730
  Ewald energy   TEWEN  =      2074.82040538
  -Hartree energ DENC   =     -2570.85023671
  -exchange      EXHF   =         0.00000000
  -V(xc)+E(xc)   XCENC  =        67.30205953
  PAW double counting   =       499.56560116     -497.85253880
  entropy T*S    EENTRO =        -0.00000000
  eigenvalues    EBANDS =      -368.26423413
  atomic energy  EATOM  =       726.10839270
  Solvation  Ediel_sol  =         0.00000000
  ---------------------------------------------------
  free energy    TOTEN  =       -56.18076356 eV

  energy without entropy =      -56.18076356  energy(sigma->0) =      -56.18076356


--------------------------------------------------------------------------------------------------------




--------------------------------------- Iteration      1(   4)  ---------------------------------------


     EDDAV:  cpu time      4.2299: real time      4.2683
       DOS:  cpu time      0.0005: real time      0.0005
    --------------------------------------------
      LOOP:  cpu time      4.2305: real time      4.2688

 eigenvalue-minimisations  : 12144
 total energy-change (2. order) :-0.7584726E-02  (-0.7584726E-02)
 number of electron      24.0000000 magnetization 
 augmentation part       24.0000000 magnetization 

 Free energy of the ion-electron system (eV)
  ---------------------------------------------------
  alpha Z        PSCENC =        12.98978730
  Ewald energy   TEWEN  =      2074.82040538
  -Hartree energ DENC   =     -2570.85023671
  -exchange      EXHF   =         0.00000000
  -V(xc)+E(xc)   XCENC  =        67.30205953
  PAW double counting   =       499.56560116     -497.85253880
  entropy T*S    EENTRO =        -0.00000000
  eigenvalues    EBANDS =      -368.27181886
  atomic energy  EATOM  =       726.10839270
  Solvation  Ediel_sol  =         0.00000000
  ---------------------------------------------------
  free energy    TOTEN  =       -56.18834829 eV

  energy without entropy =      -56.18834829  energy(sigma->0) =      -56.18834829


--------------------------------------------------------------------------------------------------------




--------------------------------------- Iteration      1(   5)  ---------------------------------------


     EDDAV:  cpu time      2.9744: real time      3.0054
       DOS:  cpu time      0.0005: real time      0.0005
    CHARGE:  cpu time      0.0698: real time      0.0719
    MIXING:  cpu time      0.0021: real time      0.0021
    --------------------------------------------
      LOOP:  cpu time      3.0468: real time      3.0799

 eigenvalue-minimisations  :  9072
 total energy-change (2. order) :-0.2382233E-05  (-0.2382418E-05)
 number of electron      24.0000000 magnetization 
 augmentation part        0.3288001 magnetization 

 Broyden mixing:
  rms(total) = 0.11383E+01    rms(broyden)= 0.11381E+01
  rms(prec ) = 0.13258E+01
  weight for this iteration     100.00

 Free energy of the ion-electron system (eV)
  ---------------------------------------------------
  alpha Z        PSCENC =        12.98978730
  Ewald energy   TEWEN  =      2074.82040538
  -Hartree energ DENC   =     -2570.85023671
  -exchange      EXHF   =         0.00000000
  -V(xc)+E(xc)   XCENC  =        67.30205953
  PAW double counting   =       499.56560116     -497.85253880
  entropy T*S    EENTRO =        -0.00000000
  eigenvalues    EBANDS =      -368.27182124
  atomic energy  EATOM  =       726.10839270
  Solvation  Ediel_sol  =         0.00000000
  ---------------------------------------------------
  free energy    TOTEN  =       -56.18835067 eV

  energy without entropy =      -56.18835067  energy(sigma->0) =      -56.18835067


--------------------------------------------------------------------------------------------------------




--------------------------------------- Iteration      1(   6)  ---------------------------------------


    POTLOK:  cpu time      0.0142: real time      0.0146
    SETDIJ:  cpu time      0.0012: real time      0.0012
     EDDAV:  cpu time      3.8297: real time      3.8579
       DOS:  cpu time      0.0005: real time      0.0005
    CHARGE:  cpu time      0.0670: real time      0.0688
    MIXING:  cpu time      0.0010: real time      0.0010
    --------------------------------------------
      LOOP:  cpu time      3.9137: real time      3.9440

 eigenvalue-minimisations  : 11568
 total energy-change (2. order) : 0.4105826E+01  (-0.7382087E+00)
 number of electron      24.0000000 magnetization 
 augmentation part        0.2837949 magnetization 

 Broyden mixing:
  rms(total) = 0.61375E+00    rms(broyden)= 0.61369E+00
  rms(prec ) = 0.70129E+00
  weight for this iteration     100.00

 eigenvalues of (default mixing * dielectric matrix)
  average eigenvalue GAMMA=   1.6116
  1.6116

 Free energy of the ion-electron system (eV)
  ---------------------------------------------------
  alpha Z        PSCENC =        12.98978730
  Ewald energy   TEWEN  =      2074.82040538
  -Hartree energ DENC   =     -2608.71719956
  -exchange      EXHF   =         0.00000000
  -V(xc)+E(xc)   XCENC  =        68.81695339
  PAW double counting   =      1109.79645856    -1108.57310213
  entropy T*S    EENTRO =        -0.00000000
  eigenvalues    EBANDS =      -327.32421991
  atomic energy  EATOM  =       726.10839270
  Solvation  Ediel_sol  =         0.00000000
  ---------------------------------------------------
  free energy    TOTEN  =       -52.08252427 eV

  energy without entropy =      -52.08252427  energy(sigma->0) =      -52.08252427


--------------------------------------------------------------------------------------------------------




--------------------------------------- Iteration      1(   7)  ---------------------------------------


    POTLOK:  cpu time      0.0126: real time      0.0128
    SETDIJ:  cpu time      0.0010: real time      0.0010
     EDDAV:  cpu time      4.4825: real time      4.5083
       DOS:  cpu time      0.0006: real time      0.0005
    CHARGE:  cpu time      0.0681: real time      0.0724
    MIXING:  cpu time      0.0008: real time      0.0012
    --------------------------------------------
      LOOP:  cpu time      4.5655: real time      4.5963

 eigenvalue-minimisations  : 12912
 total energy-change (2. order) : 0.1288070E+01  (-0.2488497E+00)
 number of electron      24.0000001 magnetization 
 augmentation part        0.2611808 magnetization 

 Broyden mixing:
  rms(total) = 0.23245E+00    rms(broyden)= 0.23240E+00
  rms(prec ) = 0.26536E+00
  weight for this iteration     100.00

 eigenvalues of (default mixing * dielectric matrix)
  average eigenvalue GAMMA=   1.7485
  1.1539  2.3430

 Free energy of the ion-electron system (eV)
  ---------------------------------------------------
  alpha Z        PSCENC =        12.98978730
  Ewald energy   TEWEN  =      2074.82040538
  -Hartree energ DENC   =     -2642.80853667
  -exchange      EXHF   =         0.00000000
  -V(xc)+E(xc)   XCENC  =        70.02733016
  PAW double counting   =      1996.48289462    -1995.55865277
  entropy T*S    EENTRO =        -0.00000000
  eigenvalues    EBANDS =      -292.85607456
  atomic energy  EATOM  =       726.10839270
  Solvation  Ediel_sol  =         0.00000000
  ---------------------------------------------------
  free energy    TOTEN  =       -50.79445384 eV

  energy without entropy =      -50.79445384  energy(sigma->0) =      -50.79445384


--------------------------------------------------------------------------------------------------------




--------------------------------------- Iteration      1(   8)  ---------------------------------------


    POTLOK:  cpu time      0.0142: real time      0.0160
    SETDIJ:  cpu time      0.0012: real time      0.0012
     EDDAV:  cpu time      4.8080: real time      4.8475
       DOS:  cpu time      0.0006: real time      0.0006
    CHARGE:  cpu time      0.0669: real time      0.0726
    MIXING:  cpu time      0.0006: real time      0.0007
    --------------------------------------------
      LOOP:  cpu time      4.8914: real time      4.9385

 eigenvalue-minimisations  : 13584
 total energy-change (2. order) : 0.1711666E+00  (-0.3740609E-01)
 number of electron      24.0000001 magnetization 
 augmentation part        0.2530193 magnetization 

 Broyden mixing:
  rms(total) = 0.63929E-01    rms(broyden)= 0.63899E-01
  rms(prec ) = 0.90097E-01
  weight for this iteration     100.00

 eigenvalues of (default mixing * dielectric matrix)
  average eigenvalue GAMMA=   1.7382
  1.0467  2.3001  1.8677

 Free energy of the ion-electron system (eV)
  ---------------------------------------------------
  alpha Z        PSCENC =        12.98978730
  Ewald energy   TEWEN  =      2074.82040538
  -Hartree energ DENC   =     -2661.11099052
  -exchange      EXHF   =         0.00000000
  -V(xc)+E(xc)   XCENC  =        70.59104819
  PAW double counting   =      2564.58387427    -2563.72028292
  entropy T*S    EENTRO =        -0.00000000
  eigenvalues    EBANDS =      -274.88552167
  atomic energy  EATOM  =       726.10839270
  Solvation  Ediel_sol  =         0.00000000
  ---------------------------------------------------
  free energy    TOTEN  =       -50.62328728 eV

  energy without entropy =      -50.62328728  energy(sigma->0) =      -50.62328728


--------------------------------------------------------------------------------------------------------




--------------------------------------- Iteration      1(   9)  ---------------------------------------


    POTLOK:  cpu time      0.0121: real time      0.0143
    SETDIJ:  cpu time      0.0010: real time      0.0011
     EDDAV:  cpu time      4.5774: real time      4.6129
       DOS:  cpu time      0.0006: real time      0.0006
    CHARGE:  cpu time      0.0663: real time      0.0683
    MIXING:  cpu time      0.0006: real time      0.0006
    --------------------------------------------
      LOOP:  cpu time      4.6580: real time      4.6977

 eigenvalue-minimisations  : 13104
 total energy-change (2. order) : 0.2320279E-01  (-0.1492608E-02)
 number of electron      24.0000001 magnetization 
 augmentation part        0.2529343 magnetization 

 Broyden mixing:
  rms(total) = 0.21489E-01    rms(broyden)= 0.21485E-01
  rms(prec ) = 0.48215E-01
  weight for this iteration     100.00

 eigenvalues of (default mixing * dielectric matrix)
  average eigenvalue GAMMA=   1.7518
  1.0287  1.2940  2.3423  2.3423

 Free energy of the ion-electron system (eV)
  ---------------------------------------------------
  alpha Z        PSCENC =        12.98978730
  Ewald energy   TEWEN  =      2074.82040538
  -Hartree energ DENC   =     -2667.00211099
  -exchange      EXHF   =         0.00000000
  -V(xc)+E(xc)   XCENC  =        70.67325838
  PAW double counting   =      2646.14770383    -2645.23614186
  entropy T*S    EENTRO =        -0.00000000
  eigenvalues    EBANDS =      -269.10137923
  atomic energy  EATOM  =       726.10839270
  Solvation  Ediel_sol  =         0.00000000
  ---------------------------------------------------
  free energy    TOTEN  =       -50.60008448 eV

  energy without entropy =      -50.60008448  energy(sigma->0) =      -50.60008448


--------------------------------------------------------------------------------------------------------




--------------------------------------- Iteration      1(  10)  ---------------------------------------


    POTLOK:  cpu time      0.0127: real time      0.0141
    SETDIJ:  cpu time      0.0011: real time      0.0011
     EDDAV:  cpu time      3.9286: real time      3.9575
       DOS:  cpu time      0.0005: real time      0.0005
    CHARGE:  cpu time      0.0671: real time      0.0674
    MIXING:  cpu time      0.0006: real time      0.0006
    --------------------------------------------
      LOOP:  cpu time      4.0107: real time      4.0412

 eigenvalue-minimisations  : 11760
 total energy-change (2. order) : 0.1104842E-01  (-0.7136482E-03)
 number of electron      24.0000001 magnetization 
 augmentation part        0.2525171 magnetization 

 Broyden mixing:
  rms(total) = 0.13163E-01    rms(broyden)= 0.13160E-01
  rms(prec ) = 0.30831E-01
  weight for this iteration     100.00

 eigenvalues of (default mixing * dielectric matrix)
  average eigenvalue GAMMA=   1.8134
  2.5843  2.5843  0.9800  1.1500  1.7682

 Free energy of the ion-electron system (eV)
  ---------------------------------------------------
  alpha Z        PSCENC =        12.98978730
  Ewald energy   TEWEN  =      2074.82040538
  -Hartree energ DENC   =     -2672.87428061
  -exchange      EXHF   =         0.00000000
  -V(xc)+E(xc)   XCENC  =        70.75704507
  PAW double counting   =      2657.76856040    -2656.83649446
  entropy T*S    EENTRO =        -0.00000000
  eigenvalues    EBANDS =      -263.32245185
  atomic energy  EATOM  =       726.10839270
  Solvation  Ediel_sol  =         0.00000000
  ---------------------------------------------------
  free energy    TOTEN  =       -50.58903607 eV

  energy without entropy =      -50.58903607  energy(sigma->0) =      -50.58903607


--------------------------------------------------------------------------------------------------------




--------------------------------------- Iteration      1(  11)  ---------------------------------------


    POTLOK:  cpu time      0.0125: real time      0.0128
    SETDIJ:  cpu time      0.0011: real time      0.0011
     EDDAV:  cpu time      4.1814: real time      4.2054
       DOS:  cpu time      0.0005: real time      0.0005
    CHARGE:  cpu time      0.0655: real time      0.0659
    MIXING:  cpu time      0.0006: real time      0.0006
    --------------------------------------------
      LOOP:  cpu time      4.2617: real time      4.2863

 eigenvalue-minimisations  : 12336
 total energy-change (2. order) : 0.3156674E-02  (-0.5470247E-03)
 number of electron      24.0000001 magnetization 
 augmentation part        0.2519630 magnetization 

 Broyden mixing:
  rms(total) = 0.55751E-02    rms(broyden)= 0.55710E-02
  rms(prec ) = 0.15714E-01
  weight for this iteration     100.00

 eigenvalues of (default mixing * dielectric matrix)
  average eigenvalue GAMMA=   1.9479
  3.8861  2.4884  1.9790  0.9655  1.0327  1.3357

 Free energy of the ion-electron system (eV)
  ---------------------------------------------------
  alpha Z        PSCENC =        12.98978730
  Ewald energy   TEWEN  =      2074.82040538
  -Hartree energ DENC   =     -2678.80283964
  -exchange      EXHF   =         0.00000000
  -V(xc)+E(xc)   XCENC  =        70.82398902
  PAW double counting   =      2629.57770143    -2628.64450864
  entropy T*S    EENTRO =        -0.00000000
  eigenvalues    EBANDS =      -257.45880695
  atomic energy  EATOM  =       726.10839270
  Solvation  Ediel_sol  =         0.00000000
  ---------------------------------------------------
  free energy    TOTEN  =       -50.58587939 eV

  energy without entropy =      -50.58587939  energy(sigma->0) =      -50.58587939


--------------------------------------------------------------------------------------------------------




--------------------------------------- Iteration      1(  12)  ---------------------------------------


    POTLOK:  cpu time      0.0116: real time      0.0118
    SETDIJ:  cpu time      0.0011: real time      0.0011
     EDDAV:  cpu time      3.3769: real time      3.3981
       DOS:  cpu time      0.0005: real time      0.0005
    CHARGE:  cpu time      0.0671: real time      0.0678
    MIXING:  cpu time      0.0007: real time      0.0007
    --------------------------------------------
      LOOP:  cpu time      3.4578: real time      3.4801

 eigenvalue-minimisations  : 10368
 total energy-change (2. order) : 0.2323795E-02  (-0.1823621E-03)
 number of electron      24.0000001 magnetization 
 augmentation part        0.2516707 magnetization 

 Broyden mixing:
  rms(total) = 0.43188E-02    rms(broyden)= 0.43177E-02
  rms(prec ) = 0.10172E-01
  weight for this iteration     100.00

 eigenvalues of (default mixing * dielectric matrix)
  average eigenvalue GAMMA=   2.2054
  5.1642  2.5264  2.5264  1.9444  0.9686  1.0247  1.2835

 Free energy of the ion-electron system (eV)
  ---------------------------------------------------
  alpha Z        PSCENC =        12.98978730
  Ewald energy   TEWEN  =      2074.82040538
  -Hartree energ DENC   =     -2681.97588780
  -exchange      EXHF   =         0.00000000
  -V(xc)+E(xc)   XCENC  =        70.85625633
  PAW double counting   =      2629.97312703    -2629.03978256
  entropy T*S    EENTRO =        -0.00000000
  eigenvalues    EBANDS =      -254.31585398
  atomic energy  EATOM  =       726.10839270
  Solvation  Ediel_sol  =         0.00000000
  ---------------------------------------------------
  free energy    TOTEN  =       -50.58355560 eV

  energy without entropy =      -50.58355560  energy(sigma->0) =      -50.58355560


--------------------------------------------------------------------------------------------------------




--------------------------------------- Iteration      1(  13)  ---------------------------------------


    POTLOK:  cpu time      0.0115: real time      0.0117
    SETDIJ:  cpu time      0.0011: real time      0.0011
     EDDAV:  cpu time      3.3651: real time      3.3873
       DOS:  cpu time      0.0005: real time      0.0005
    CHARGE:  cpu time      0.0658: real time      0.0659
    MIXING:  cpu time      0.0006: real time      0.0006
    --------------------------------------------
      LOOP:  cpu time      3.4446: real time      3.4672

 eigenvalue-minimisations  : 10320
 total energy-change (2. order) :-0.1946682E-02  (-0.5259670E-04)
 number of electron      24.0000001 magnetization 
 augmentation part        0.2515090 magnetization 

 Broyden mixing:
  rms(total) = 0.20278E-02    rms(broyden)= 0.20270E-02
  rms(prec ) = 0.48603E-02
  weight for this iteration     100.00

 eigenvalues of (default mixing * dielectric matrix)
  average eigenvalue GAMMA=   2.2126
  5.8413  2.8983  2.4822  2.0026  0.9917  0.9917  1.3112  1.1822

 Free energy of the ion-electron system (eV)
  ---------------------------------------------------
  alpha Z        PSCENC =        12.98978730
  Ewald energy   TEWEN  =      2074.82040538
  -Hartree energ DENC   =     -2684.18632030
  -exchange      EXHF   =         0.00000000
  -V(xc)+E(xc)   XCENC  =        70.86084231
  PAW double counting   =      2631.91286315    -2630.98123811
  entropy T*S    EENTRO =        -0.00000000
  eigenvalues    EBANDS =      -252.11023472
  atomic energy  EATOM  =       726.10839270
  Solvation  Ediel_sol  =         0.00000000
  ---------------------------------------------------
  free energy    TOTEN  =       -50.58550228 eV

  energy without entropy =      -50.58550228  energy(sigma->0) =      -50.58550228


--------------------------------------------------------------------------------------------------------




--------------------------------------- Iteration      1(  14)  ---------------------------------------


    POTLOK:  cpu time      0.0118: real time      0.0120
    SETDIJ:  cpu time      0.0011: real time      0.0011
     EDDAV:  cpu time      3.4751: real time      3.4977
       DOS:  cpu time      0.0005: real time      0.0005
    CHARGE:  cpu time      0.0671: real time      0.0678
    MIXING:  cpu time      0.0007: real time      0.0007
    --------------------------------------------
      LOOP:  cpu time      3.5563: real time      3.5799

 eigenvalue-minimisations  : 10560
 total energy-change (2. order) :-0.2036857E-02  (-0.3562584E-04)
 number of electron      24.0000001 magnetization 
 augmentation part        0.2515867 magnetization 

 Broyden mixing:
  rms(total) = 0.13910E-02    rms(broyden)= 0.13910E-02
  rms(prec ) = 0.29527E-02
  weight for this iteration     100.00

 eigenvalues of (default mixing * dielectric matrix)
  average eigenvalue GAMMA=   2.3441
  6.4200  3.6544  2.3378  2.3378  1.9280  0.9886  0.9886  1.2985  1.1436

 Free energy of the ion-electron system (eV)
  ---------------------------------------------------
  alpha Z        PSCENC =        12.98978730
  Ewald energy   TEWEN  =      2074.82040538
  -Hartree energ DENC   =     -2684.21091127
  -exchange      EXHF   =         0.00000000
  -V(xc)+E(xc)   XCENC  =        70.85030105
  PAW double counting   =      2632.73915439    -2631.80699694
  entropy T*S    EENTRO =        -0.00000000
  eigenvalues    EBANDS =      -252.07767175
  atomic energy  EATOM  =       726.10839270
  Solvation  Ediel_sol  =         0.00000000
  ---------------------------------------------------
  free energy    TOTEN  =       -50.58753914 eV

  energy without entropy =      -50.58753914  energy(sigma->0) =      -50.58753914


--------------------------------------------------------------------------------------------------------




--------------------------------------- Iteration      1(  15)  ---------------------------------------


    POTLOK:  cpu time      0.0117: real time      0.0134
    SETDIJ:  cpu time      0.0011: real time      0.0011
     EDDAV:  cpu time      4.0418: real time      4.0656
       DOS:  cpu time      0.0005: real time      0.0005
    CHARGE:  cpu time      0.0651: real time      0.0662
    MIXING:  cpu time      0.0008: real time      0.0008
    --------------------------------------------
      LOOP:  cpu time      4.1210: real time      4.1475

 eigenvalue-minimisations  : 11808
 total energy-change (2. order) :-0.1081218E-02  (-0.1327601E-04)
 number of electron      24.0000001 magnetization 
 augmentation part        0.2515702 magnetization 

 Broyden mixing:
  rms(total) = 0.68307E-03    rms(broyden)= 0.68302E-03
  rms(prec ) = 0.13364E-02
  weight for this iteration     100.00

 eigenvalues of (default mixing * dielectric matrix)
  average eigenvalue GAMMA=   2.4965
  7.3621  4.6927  2.5270  2.5270  1.9214  1.6076  1.2856  0.9857  0.9857  1.0699

 Free energy of the ion-electron system (eV)
  ---------------------------------------------------
  alpha Z        PSCENC =        12.98978730
  Ewald energy   TEWEN  =      2074.82040538
  -Hartree energ DENC   =     -2684.73518638
  -exchange      EXHF   =         0.00000000
  -V(xc)+E(xc)   XCENC  =        70.85187956
  PAW double counting   =      2632.89088219    -2631.95811960
  entropy T*S    EENTRO =        -0.00000000
  eigenvalues    EBANDS =      -251.55666150
  atomic energy  EATOM  =       726.10839270
  Solvation  Ediel_sol  =         0.00000000
  ---------------------------------------------------
  free energy    TOTEN  =       -50.58862036 eV

  energy without entropy =      -50.58862036  energy(sigma->0) =      -50.58862036


--------------------------------------------------------------------------------------------------------




--------------------------------------- Iteration      1(  16)  ---------------------------------------


    POTLOK:  cpu time      0.0112: real time      0.0114
    SETDIJ:  cpu time      0.0011: real time      0.0011
     EDDAV:  cpu time      3.8358: real time      3.8600
       DOS:  cpu time      0.0005: real time      0.0005
    CHARGE:  cpu time      0.0666: real time      0.0676
    MIXING:  cpu time      0.0008: real time      0.0008
    --------------------------------------------
      LOOP:  cpu time      3.9160: real time      3.9414

 eigenvalue-minimisations  : 11328
 total energy-change (2. order) :-0.5928599E-03  (-0.8628486E-05)
 number of electron      24.0000001 magnetization 
 augmentation part        0.2515746 magnetization 

 Broyden mixing:
  rms(total) = 0.33586E-03    rms(broyden)= 0.33586E-03
  rms(prec ) = 0.54003E-03
  weight for this iteration     100.00

 eigenvalues of (default mixing * dielectric matrix)
  average eigenvalue GAMMA=   2.6698
  8.6799  5.3492  3.2375  2.5079  2.1520  1.8470  0.9843  0.9843  1.0477  1.3001
  1.2784

 Free energy of the ion-electron system (eV)
  ---------------------------------------------------
  alpha Z        PSCENC =        12.98978730
  Ewald energy   TEWEN  =      2074.82040538
  -Hartree energ DENC   =     -2684.74961985
  -exchange      EXHF   =         0.00000000
  -V(xc)+E(xc)   XCENC  =        70.85022137
  PAW double counting   =      2632.67883615    -2631.74609496
  entropy T*S    EENTRO =        -0.00000000
  eigenvalues    EBANDS =      -251.54114131
  atomic energy  EATOM  =       726.10839270
  Solvation  Ediel_sol  =         0.00000000
  ---------------------------------------------------
  free energy    TOTEN  =       -50.58921322 eV

  energy without entropy =      -50.58921322  energy(sigma->0) =      -50.58921322


--------------------------------------------------------------------------------------------------------




--------------------------------------- Iteration      1(  17)  ---------------------------------------


    POTLOK:  cpu time      0.0110: real time      0.0112
    SETDIJ:  cpu time      0.0010: real time      0.0010
     EDDAV:  cpu time      3.7438: real time      3.7728
       DOS:  cpu time      0.0005: real time      0.0005
    CHARGE:  cpu time      0.0645: real time      0.0648
    MIXING:  cpu time      0.0008: real time      0.0008
    --------------------------------------------
      LOOP:  cpu time      3.8215: real time      3.8511

 eigenvalue-minimisations  : 11136
 total energy-change (2. order) :-0.1384494E-03  (-0.8870507E-06)
 number of electron      24.0000001 magnetization 
 augmentation part        0.2515613 magnetization 

 Broyden mixing:
  rms(total) = 0.16328E-03    rms(broyden)= 0.16326E-03
  rms(prec ) = 0.20097E-03
  weight for this iteration     100.00

 eigenvalues of (default mixing * dielectric matrix)
  average eigenvalue GAMMA=   2.6385
  9.0730  5.5570  3.2282  2.4080  2.4080  2.0014  1.5843  1.2873  0.9824  0.9824
  1.0100  1.1400

 Free energy of the ion-electron system (eV)
  ---------------------------------------------------
  alpha Z        PSCENC =        12.98978730
  Ewald energy   TEWEN  =      2074.82040538
  -Hartree energ DENC   =     -2684.83988802
  -exchange      EXHF   =         0.00000000
  -V(xc)+E(xc)   XCENC  =        70.85155375
  PAW double counting   =      2632.10652604    -2631.17393496
  entropy T*S    EENTRO =        -0.00000000
  eigenvalues    EBANDS =      -251.45219386
  atomic energy  EATOM  =       726.10839270
  Solvation  Ediel_sol  =         0.00000000
  ---------------------------------------------------
  free energy    TOTEN  =       -50.58935167 eV

  energy without entropy =      -50.58935167  energy(sigma->0) =      -50.58935167


--------------------------------------------------------------------------------------------------------




--------------------------------------- Iteration      1(  18)  ---------------------------------------


    POTLOK:  cpu time      0.0110: real time      0.0113
    SETDIJ:  cpu time      0.0010: real time      0.0010
     EDDAV:  cpu time      3.8505: real time      3.8787
       DOS:  cpu time      0.0005: real time      0.0005
    CHARGE:  cpu time      0.0667: real time      0.0670
    MIXING:  cpu time      0.0008: real time      0.0008
    --------------------------------------------
      LOOP:  cpu time      3.9306: real time      3.9593

 eigenvalue-minimisations  : 11424
 total energy-change (2. order) :-0.2351527E-04  (-0.5627614E-07)
 number of electron      24.0000001 magnetization 
 augmentation part        0.2515599 magnetization 

 Broyden mixing:
  rms(total) = 0.52007E-04    rms(broyden)= 0.52002E-04
  rms(prec ) = 0.73849E-04
  weight for this iteration     100.00

 eigenvalues of (default mixing * dielectric matrix)
  average eigenvalue GAMMA=   2.6600
  9.4854  5.7924  3.6571  2.5804  2.4415  2.0174  1.8742  1.3685  1.2763  0.9888
  0.9888  1.0042  1.1052

 Free energy of the ion-electron system (eV)
  ---------------------------------------------------
  alpha Z        PSCENC =        12.98978730
  Ewald energy   TEWEN  =      2074.82040538
  -Hartree energ DENC   =     -2684.83715090
  -exchange      EXHF   =         0.00000000
  -V(xc)+E(xc)   XCENC  =        70.85138115
  PAW double counting   =      2632.36517108    -2631.43258287
  entropy T*S    EENTRO =        -0.00000000
  eigenvalues    EBANDS =      -251.45477902
  atomic energy  EATOM  =       726.10839270
  Solvation  Ediel_sol  =         0.00000000
  ---------------------------------------------------
  free energy    TOTEN  =       -50.58937518 eV

  energy without entropy =      -50.58937518  energy(sigma->0) =      -50.58937518


--------------------------------------------------------------------------------------------------------




--------------------------------------- Iteration      1(  19)  ---------------------------------------


    POTLOK:  cpu time      0.0113: real time      0.0116
    SETDIJ:  cpu time      0.0011: real time      0.0011
     EDDAV:  cpu time      3.0080: real time      3.0290
       DOS:  cpu time      0.0005: real time      0.0005
    CHARGE:  cpu time      0.0653: real time      0.0663
    MIXING:  cpu time      0.0008: real time      0.0008
    --------------------------------------------
      LOOP:  cpu time      3.0871: real time      3.1093

 eigenvalue-minimisations  :  9360
 total energy-change (2. order) :-0.1112769E-04  (-0.4537719E-07)
 number of electron      24.0000001 magnetization 
 augmentation part        0.2515609 magnetization 

 Broyden mixing:
  rms(total) = 0.21326E-04    rms(broyden)= 0.21326E-04
  rms(prec ) = 0.27069E-04
  weight for this iteration     100.00

 eigenvalues of (default mixing * dielectric matrix)
  average eigenvalue GAMMA=   2.6219
  9.5091  5.8956  3.7485  2.9206  2.4734  2.1345  1.9405  1.5501  1.2718  1.2269
  0.9918  0.9918  0.9841  1.0681

 Free energy of the ion-electron system (eV)
  ---------------------------------------------------
  alpha Z        PSCENC =        12.98978730
  Ewald energy   TEWEN  =      2074.82040538
  -Hartree energ DENC   =     -2684.83615748
  -exchange      EXHF   =         0.00000000
  -V(xc)+E(xc)   XCENC  =        70.85132602
  PAW double counting   =      2632.31264411    -2631.38004614
  entropy T*S    EENTRO =        -0.00000000
  eigenvalues    EBANDS =      -251.45573819
  atomic energy  EATOM  =       726.10839270
  Solvation  Ediel_sol  =         0.00000000
  ---------------------------------------------------
  free energy    TOTEN  =       -50.58938631 eV

  energy without entropy =      -50.58938631  energy(sigma->0) =      -50.58938631


--------------------------------------------------------------------------------------------------------




--------------------------------------- Iteration      1(  20)  ---------------------------------------


    POTLOK:  cpu time      0.0110: real time      0.0113
    SETDIJ:  cpu time      0.0010: real time      0.0010
     EDDAV:  cpu time      3.0456: real time      3.0629
       DOS:  cpu time      0.0005: real time      0.0005
    CHARGE:  cpu time      0.0662: real time      0.0664
    MIXING:  cpu time      0.0008: real time      0.0009
    --------------------------------------------
      LOOP:  cpu time      3.1252: real time      3.1430

 eigenvalue-minimisations  :  9456
 total energy-change (2. order) :-0.2047874E-05  (-0.6999662E-08)
 number of electron      24.0000001 magnetization 
 augmentation part        0.2515614 magnetization 

 Broyden mixing:
  rms(total) = 0.59577E-05    rms(broyden)= 0.59571E-05
  rms(prec ) = 0.89964E-05
[...]
     42      11.6503      0.00000
     43      12.0607      0.00000
     44      12.2383      0.00000
     45      12.3101      0.00000
     46      12.5850      0.00000
     47      12.7131      0.00000
     48      13.0021      0.00000

 k-point    69 :      -0.2500   -0.4167    0.0000
  band No.  band energies     occupation 
      1     -19.0479      2.00000
      2     -16.8949      2.00000
      3     -16.4683      2.00000
      4     -11.6194      2.00000
      5     -10.8645      2.00000
      6      -9.7852      2.00000
      7      -7.7694      2.00000
      8      -7.6508      2.00000
      9      -7.2827      2.00000
     10      -5.8288      2.00000
     11      -5.7483      2.00000
     12      -5.1535      2.00000
     13       0.2981      0.00000
     14       1.9507      0.00000
     15       2.6322      0.00000
     16       3.1124      0.00000
     17       3.2812      0.00000
     18       3.6267      0.00000
     19       3.7763      0.00000
     20       4.2438      0.00000
     21       4.3489      0.00000
     22       4.5319      0.00000
     23       4.7698      0.00000
     24       4.9599      0.00000
     25       5.3560      0.00000
     26       5.6593      0.00000
     27       5.8868      0.00000
     28       6.3692      0.00000
     29       6.6745      0.00000
     30       7.3246      0.00000
     31       7.5167      0.00000
     32       7.9361      0.00000
     33       8.1629      0.00000
     34       8.2795      0.00000
     35       8.8572      0.00000
     36       9.3211      0.00000
     37      10.4363      0.00000
     38      10.5617      0.00000
     39      10.9632      0.00000
     40      11.0673      0.00000
     41      11.3284      0.00000
     42      11.6504      0.00000
     43      12.0597      0.00000
     44      12.2391      0.00000
     45      12.3093      0.00000
     46      12.5855      0.00000
     47      12.7128      0.00000
     48      13.0028      0.00000

 k-point    70 :       0.4167    0.3333    0.0000
  band No.  band energies     occupation 
      1     -19.0479      2.00000
      2     -16.8951      2.00000
      3     -16.4681      2.00000
      4     -11.6191      2.00000
      5     -10.8649      2.00000
      6      -9.7852      2.00000
      7      -7.7690      2.00000
      8      -7.6506      2.00000
      9      -7.2830      2.00000
     10      -5.8296      2.00000
     11      -5.7479      2.00000
     12      -5.1533      2.00000
     13       0.2975      0.00000
     14       1.9525      0.00000
     15       2.6310      0.00000
     16       3.1132      0.00000
     17       3.2809      0.00000
     18       3.6258      0.00000
     19       3.7769      0.00000
     20       4.2440      0.00000
     21       4.3495      0.00000
     22       4.5310      0.00000
     23       4.7699      0.00000
     24       4.9598      0.00000
     25       5.3564      0.00000
     26       5.6596      0.00000
     27       5.8859      0.00000
     28       6.3695      0.00000
     29       6.6746      0.00000
     30       7.3252      0.00000
     31       7.5163      0.00000
     32       7.9363      0.00000
     33       8.1636      0.00000
     34       8.2787      0.00000
     35       8.8569      0.00000
     36       9.3216      0.00000
     37      10.4358      0.00000
     38      10.5619      0.00000
     39      10.9629      0.00000
     40      11.0667      0.00000
     41      11.3291      0.00000
     42      11.6503      0.00000
     43      12.0608      0.00000
     44      12.2386      0.00000
     45      12.3096      0.00000
     46      12.5845      0.00000
     47      12.7131      0.00000
     48      13.0024      0.00000

 k-point    71 :      -0.3333   -0.4167    0.0000
  band No.  band energies     occupation 
      1     -19.0479      2.00000
      2     -16.8950      2.00000
      3     -16.4681      2.00000
      4     -11.6191      2.00000
      5     -10.8648      2.00000
      6      -9.7851      2.00000
      7      -7.7694      2.00000
      8      -7.6507      2.00000
      9      -7.2828      2.00000
     10      -5.8295      2.00000
     11      -5.7479      2.00000
     12      -5.1532      2.00000
     13       0.2973      0.00000
     14       1.9523      0.00000
     15       2.6316      0.00000
     16       3.1129      0.00000
     17       3.2811      0.00000
     18       3.6259      0.00000
     19       3.7768      0.00000
     20       4.2438      0.00000
     21       4.3494      0.00000
     22       4.5312      0.00000
     23       4.7699      0.00000
     24       4.9598      0.00000
     25       5.3563      0.00000
     26       5.6596      0.00000
     27       5.8859      0.00000
     28       6.3696      0.00000
     29       6.6745      0.00000
     30       7.3251      0.00000
     31       7.5163      0.00000
     32       7.9362      0.00000
     33       8.1635      0.00000
     34       8.2786      0.00000
     35       8.8569      0.00000
     36       9.3217      0.00000
     37      10.4361      0.00000
     38      10.5617      0.00000
     39      10.9629      0.00000
     40      11.0667      0.00000
     41      11.3291      0.00000
     42      11.6503      0.00000
     43      12.0604      0.00000
     44      12.2389      0.00000
     45      12.3094      0.00000
     46      12.5846      0.00000
     47      12.7130      0.00000
     48      13.0026      0.00000

 k-point    72 :       0.2500    0.3333    0.0000
  band No.  band energies     occupation 
      1     -19.0479      2.00000
      2     -16.8948      2.00000
      3     -16.4684      2.00000
      4     -11.6193      2.00000
      5     -10.8647      2.00000
      6      -9.7850      2.00000
      7      -7.7692      2.00000
      8      -7.6505      2.00000
      9      -7.2829      2.00000
     10      -5.8289      2.00000
     11      -5.7478      2.00000
     12      -5.1541      2.00000
     13       0.2985      0.00000
     14       1.9520      0.00000
     15       2.6298      0.00000
     16       3.1124      0.00000
     17       3.2801      0.00000
     18       3.6270      0.00000
     19       3.7768      0.00000
     20       4.2440      0.00000
     21       4.3492      0.00000
     22       4.5316      0.00000
     23       4.7698      0.00000
     24       4.9600      0.00000
     25       5.3562      0.00000
     26       5.6595      0.00000
     27       5.8864      0.00000
     28       6.3689      0.00000
     29       6.6747      0.00000
     30       7.3246      0.00000
     31       7.5171      0.00000
     32       7.9366      0.00000
     33       8.1632      0.00000
     34       8.2794      0.00000
     35       8.8571      0.00000
     36       9.3207      0.00000
     37      10.4353      0.00000
     38      10.5624      0.00000
     39      10.9633      0.00000
     40      11.0678      0.00000
     41      11.3288      0.00000
     42      11.6502      0.00000
     43      12.0608      0.00000
     44      12.2380      0.00000
     45      12.3101      0.00000
     46      12.5848      0.00000
     47      12.7132      0.00000
     48      13.0022      0.00000

 k-point    73 :      -0.4167   -0.2500    0.0000
  band No.  band energies     occupation 
      1     -19.0479      2.00000
      2     -16.8949      2.00000
      3     -16.4683      2.00000
      4     -11.6193      2.00000
      5     -10.8646      2.00000
      6      -9.7853      2.00000
      7      -7.7687      2.00000
      8      -7.6506      2.00000
      9      -7.2832      2.00000
     10      -5.8286      2.00000
     11      -5.7486      2.00000
     12      -5.1535      2.00000
     13       0.2984      0.00000
     14       1.9503      0.00000
     15       2.6320      0.00000
     16       3.1125      0.00000
     17       3.2810      0.00000
     18       3.6269      0.00000
     19       3.7759      0.00000
     20       4.2439      0.00000
     21       4.3487      0.00000
     22       4.5320      0.00000
     23       4.7698      0.00000
     24       4.9600      0.00000
     25       5.3560      0.00000
     26       5.6593      0.00000
     27       5.8865      0.00000
     28       6.3693      0.00000
     29       6.6745      0.00000
     30       7.3246      0.00000
     31       7.5167      0.00000
     32       7.9365      0.00000
     33       8.1629      0.00000
     34       8.2797      0.00000
     35       8.8573      0.00000
     36       9.3208      0.00000
     37      10.4362      0.00000
     38      10.5618      0.00000
     39      10.9633      0.00000
     40      11.0677      0.00000
     41      11.3284      0.00000
     42      11.6504      0.00000
     43      12.0600      0.00000
     44      12.2391      0.00000
     45      12.3095      0.00000
     46      12.5855      0.00000
     47      12.7128      0.00000
     48      13.0026      0.00000

 k-point    74 :       0.3333    0.3333    0.0000
  band No.  band energies     occupation 
      1     -19.0165      2.00000
      2     -16.7322      2.00000
      3     -16.7318      2.00000
      4     -11.1352      2.00000
      5     -11.1350      2.00000
      6      -9.9632      2.00000
      7      -7.5800      2.00000
      8      -7.5314      2.00000
      9      -7.5306      2.00000
     10      -5.7140      2.00000
     11      -5.5571      2.00000
     12      -5.5561      2.00000
     13       0.5602      0.00000
     14       2.4237      0.00000
     15       2.4250      0.00000
     16       2.7932      0.00000
     17       3.4122      0.00000
     18       3.5970      0.00000
     19       3.5971      0.00000
     20       4.1977      0.00000
     21       4.1983      0.00000
     22       4.7731      0.00000
     23       4.9429      0.00000
     24       4.9432      0.00000
     25       5.1083      0.00000
     26       5.4334      0.00000
     27       5.4340      0.00000
     28       6.1905      0.00000
     29       7.3098      0.00000
     30       7.3103      0.00000
     31       7.3158      0.00000
     32       7.9983      0.00000
     33       7.9984      0.00000
     34       8.3719      0.00000
     35       9.0053      0.00000
     36       9.0068      0.00000
     37      10.6754      0.00000
     38      10.9818      0.00000
     39      10.9820      0.00000
     40      11.2770      0.00000
     41      11.4404      0.00000
     42      11.4413      0.00000
     43      12.1525      0.00000
     44      12.3859      0.00000
     45      12.3860      0.00000
     46      12.5291      0.00000
     47      12.8445      0.00000
     48      12.8448      0.00000


--------------------------------------------------------------------------------------------------------


 soft charge-density along one line, spin component           1
         0         1         2         3         4         5         6         7         8         9
 total charge-density along one line
 
 pseudopotential strength for first ion, spin component:           1
  6.900  10.540   0.000  -0.005  -0.000   0.000  -0.008  -0.000
 10.540  16.097   0.000  -0.008  -0.000   0.000  -0.012  -0.000
  0.000   0.000  -2.401  -0.000  -0.000  -4.143  -0.000  -0.000
 -0.005  -0.008  -0.000  -2.396   0.000  -0.000  -4.130   0.000
 -0.000  -0.000  -0.000   0.000  -2.401  -0.000   0.000  -4.143
  0.000   0.000  -4.143  -0.000  -0.000  -6.952  -0.000  -0.000
 -0.008  -0.012  -0.000  -4.130   0.000  -0.000  -6.923   0.000
 -0.000  -0.000  -0.000   0.000  -4.143  -0.000   0.000  -6.952
 total augmentation occupancy for first ion, spin component:           1
  4.066  -1.212  -0.000  -0.715   0.000   0.000   0.290  -0.000
 -1.212   0.387  -0.000   0.321  -0.000   0.000  -0.113   0.000
 -0.000  -0.000   4.614   0.001  -0.000  -1.378  -0.000   0.000
 -0.715   0.321   0.001   2.010  -0.000  -0.000  -0.480   0.000
  0.000  -0.000  -0.000  -0.000   4.615   0.000   0.000  -1.378
  0.000   0.000  -1.378  -0.000   0.000   0.423   0.000  -0.000
  0.290  -0.113  -0.000  -0.480   0.000   0.000   0.120  -0.000
 -0.000   0.000   0.000   0.000  -1.378  -0.000  -0.000   0.423


------------------------ aborting loop because EDIFF is reached ----------------------------------------


    CHARGE:  cpu time      0.0641: real time      0.0645
    FORLOC:  cpu time      0.0009: real time      0.0009
    FORNL :  cpu time      0.2025: real time      0.2030
    STRESS:  cpu time      1.8825: real time      1.8892
    FORCOR:  cpu time      0.0096: real time      0.0096
    FORHAR:  cpu time      0.0025: real time      0.0026
    MIXING:  cpu time      0.0004: real time      0.0004
    OFIELD:  cpu time      0.0000: real time      0.0000

 ---------------------------------------------------------------------------------------------

         DFTD3 V3.0 Rev 1        
 Edisp (eV)   -0.53172

 E6    (eV) :    -0.3509
 E8    (eV) :    -0.1808
 % E8        : 34.00
    FORVDW:  cpu time      0.0128: real time      0.0128

  FORCE on cell =-STRESS in cart. coord.  units (eV):
  Direction    XX          YY          ZZ          XY          YZ          ZX
  --------------------------------------------------------------------------------------
  Alpha Z    12.98979    12.98979    12.98979
  Ewald    2733.42964  2733.35825 -3410.71853    -0.02325     0.04662    -0.01089
  Hartree  2635.46092  2635.44566 -2597.75529    -0.00397     0.01225    -0.00192
  E(xc)     -83.27983   -83.27990   -86.02691    -0.00003     0.00004    -0.00000
  Local   -5587.69412 -5587.61843  5743.94404     0.02430    -0.05181     0.01065
  n-local   -15.03602   -15.03734   -15.69889    -0.00035    -0.00017     0.00015
  augment    -0.89306    -0.89285    -0.74476     0.00003    -0.00002    -0.00001
  Kinetic   306.91985   306.93041   353.89985     0.00376    -0.00566     0.00104
  Fock        0.00000     0.00000     0.00000     0.00000     0.00000     0.00000
  vdW        -0.54722    -0.54722    -0.00712     0.00000     0.00000    -0.00000
  -------------------------------------------------------------------------------------
  Total       1.34995     1.34836    -0.11782     0.00051     0.00126    -0.00098
  in kB       7.63434     7.62537    -0.66629     0.00287     0.00712    -0.00555
  external pressure =        4.86 kB  Pullay stress =        0.00 kB


 VOLUME and BASIS-vectors are now :
 -----------------------------------------------------------------------------
  energy-cutoff  :      450.00
  volume of cell :      283.31
      direct lattice vectors                 reciprocal lattice vectors
     4.044339000  2.335000000  0.000000000     0.123629597  0.214132762  0.000000000
    -4.044339000  2.335000000  0.000000000    -0.123629597  0.214132762  0.000000000
     0.000000000  0.000000000 15.000000000     0.000000000  0.000000000  0.066666667

  length of vectors
     4.670000316  4.670000316 15.000000000     0.247259210  0.247259210  0.066666667


 FORCES acting on ions
    electron-ion (+dipol)            ewald-force                    non-local-force                 convergence-correction
 -----------------------------------------------------------------------------------------------
   0.332E-02 0.741E-02 -.996E+02   -.239E-02 -.114E-01 0.101E+03   -.353E-02 0.711E-02 -.182E+01   -.129E-03 0.692E-03 -.353E-03
   -.209E+02 -.120E+02 0.217E+02   0.237E+02 0.137E+02 -.222E+02   -.281E+01 -.162E+01 0.463E+00   -.109E-02 -.114E-02 0.602E-03
   0.209E+02 -.121E+02 0.217E+02   -.237E+02 0.137E+02 -.221E+02   0.281E+01 -.162E+01 0.463E+00   0.204E-02 -.914E-03 0.971E-03
   0.159E-03 0.241E+02 0.221E+02   0.283E-03 -.273E+02 -.225E+02   0.213E-02 0.324E+01 0.464E+00   0.226E-04 0.491E-03 -.728E-03
   0.152E-02 -.375E+02 0.930E+01   -.135E-02 0.440E+02 -.114E+02   0.121E-02 -.649E+01 0.211E+01   -.116E-02 -.191E-02 0.781E-03
   0.324E+02 0.187E+02 0.943E+01   -.381E+02 -.220E+02 -.116E+02   0.563E+01 0.324E+01 0.212E+01   0.242E-02 0.171E-02 0.396E-03
   -.324E+02 0.187E+02 0.947E+01   0.381E+02 -.220E+02 -.116E+02   -.563E+01 0.325E+01 0.212E+01   -.362E-02 0.250E-02 0.286E-03
 -----------------------------------------------------------------------------------------------
   0.147E-02 -.386E-03 -.593E+01   -.711E-14 0.107E-13 -.213E-13   0.599E-04 -.121E-02 0.593E+01   -.152E-02 0.142E-02 0.195E-02
 
 
 POSITION                                       TOTAL-FORCE (eV/Angst)
 -----------------------------------------------------------------------------------
      0.00585      0.01603      1.82651        -0.002728      0.003829     -0.003703
      1.43096      0.83927      1.45727         0.000682     -0.002315     -0.003396
     -1.41956      0.83918      1.45755        -0.000052     -0.000603     -0.005704
      0.00556      3.04048      1.45619         0.002589     -0.001134      0.005301
      0.00568      1.52899      1.50265         0.000218      0.001936      0.001652
      2.73985      1.59500      1.50230         0.002793     -0.002570      0.002794
     -2.72846      1.59486      1.50222        -0.003502      0.000857      0.003055
 -----------------------------------------------------------------------------------
    total drift:                                0.000016     -0.000172      0.000232


--------------------------------------------------------------------------------------------------------



  FREE ENERGIE OF THE ION-ELECTRON SYSTEM (eV)
  ---------------------------------------------------
  free  energy   TOTEN  =       -52.83057962 eV

  energy  without entropy=      -52.83057962  energy(sigma->0) =      -52.83057962
 
 d Force = 0.7303705E-05[ 0.197E-05, 0.126E-04]  d Energy = 0.7008719E-05 0.295E-06
 d Force = 0.1328726E-01[ 0.133E-01, 0.133E-01]  d Ewald  = 0.1328726E-01-0.634E-09


--------------------------------------------------------------------------------------------------------


    POTLOK:  cpu time      0.0124: real time      0.0125


--------------------------------------------------------------------------------------------------------


 stress matrix after NEB project (eV)
      1.34995      0.00051     -0.00098
      0.00051      1.34836      0.00126
     -0.00098      0.00126     -0.11782
  FORCES: max atom, RMS     0.006007    0.004975
  FORCE total and by dimension    0.013162    0.005704
  Stress total and by dimension    1.911627    1.349946
 Conjugate gradient step on ions:
 trial-energy change:   -0.000007  1 .order   -0.000007   -0.000013   -0.000002
  (g-gl).g = 0.305E-04      g.g   = 0.295E-04  gl.gl    = 0.718E-04
 g(Force)  = 0.295E-04   g(Stress)= 0.000E+00 ortho     =-0.790E-06
 gamma     =   0.42415
 trial     =   0.43260
 opt step  =   0.51261  (harmonic =   0.51261) maximal distance =0.00052538
 next E    =   -52.830580   (d E  =  -0.00001)


--------------------------------------------------------------------------------------------------------


  
 reached required accuracy - stopping structural energy minimisation
     LOOP+:  cpu time      7.4829: real time      7.5324
    4ORBIT:  cpu time      0.0000: real time      0.0000

 total amount of memory used by VASP MPI-rank0   104120. kBytes
=======================================================================

   base      :      30000. kBytes
   nonl-proj :      59344. kBytes
   fftplans  :       1313. kBytes
   grid      :       5998. kBytes
   one-center:         21. kBytes
   wavefun   :       7444. kBytes
 
  
  
 General timing and accounting informations for this job:
 ========================================================
  
                  Total CPU time used (sec):      694.784
                            User time (sec):      690.937
                          System time (sec):        3.848
                         Elapsed time (sec):      702.680
  
                   Maximum memory used (kb):      622532.
                   Average memory used (kb):          N/A
  
                          Minor page faults:       642914
                          Major page faults:         4043
                 Voluntary context switches:         8370
