 ----------------------------------------------------
    OOO  PPPP  EEEEE N   N M   M PPPP
   O   O P   P E     NN  N MM MM P   P
   O   O PPPP  EEEEE N N N M M M PPPP   -- VERSION
   O   O P     E     N  NN M   M P
    OOO  P     EEEEE N   N M   M P
 ----------------------------------------------------
 running   48 mpi-ranks, with    1 threads/rank
 distrk:  each k-point on   48 cores,    1 groups
 distr:  one band on    1 cores,   48 groups
 vasp.6.3.2 27Jun22 (build Dec 22 2022 13:13:19) complex                        
  
 POSCAR found type information on POSCAR B C 
 POSCAR found :  2 types and       7 ions
 Reading from existing POTCAR
 scaLAPACK will be used
 Reading from existing POTCAR
 LDA part: xc-table for Pade appr. of Perdew
 POSCAR found type information on POSCAR B C 
 POSCAR found :  2 types and       7 ions
 POSCAR, INCAR and KPOINTS ok, starting setup
 FFT: planning ... GRIDC
 FFT: planning ... GRID_SOFT
 FFT: planning ... GRID
 WAVECAR not read
 entering main loop
       N       E                     dE             d eps       ncg     rms          rms(c)
DAV:   1     0.469598707844E+02    0.46960E+02   -0.10183E+04  7104   0.330E+02
DAV:   2    -0.547187390609E+02   -0.10168E+03   -0.10124E+03 10512   0.688E+01
DAV:   3    -0.561807635648E+02   -0.14620E+01   -0.14620E+01  9216   0.109E+01
DAV:   4    -0.561883482911E+02   -0.75847E-02   -0.75847E-02 12144   0.806E-01
DAV:   5    -0.561883506734E+02   -0.23822E-05   -0.23824E-05  9072   0.118E-02    0.114E+01
DAV:   6    -0.520825242702E+02    0.41058E+01   -0.73821E+00 11568   0.508E+00    0.614E+00
DAV:   7    -0.507944538377E+02    0.12881E+01   -0.24885E+00 12912   0.320E+00    0.232E+00
DAV:   8    -0.506232872776E+02    0.17117E+00   -0.37406E-01 13584   0.116E+00    0.639E-01
DAV:   9    -0.506000844848E+02    0.23203E-01   -0.14926E-02 13104   0.285E-01    0.215E-01
DAV:  10    -0.505890360689E+02    0.11048E-01   -0.71365E-03 11760   0.153E-01    0.132E-01
DAV:  11    -0.505858793948E+02    0.31567E-02   -0.54702E-03 12336   0.109E-01    0.558E-02
DAV:  12    -0.505835556000E+02    0.23238E-02   -0.18236E-03 10368   0.637E-02    0.432E-02
DAV:  13    -0.505855022816E+02   -0.19467E-02   -0.52597E-04 10320   0.358E-02    0.203E-02
DAV:  14    -0.505875391383E+02   -0.20369E-02   -0.35626E-04 10560   0.288E-02    0.139E-02
DAV:  15    -0.505886203559E+02   -0.10812E-02   -0.13276E-04 11808   0.149E-02    0.683E-03
DAV:  16    -0.505892132159E+02   -0.59286E-03   -0.86285E-05 11328   0.110E-02    0.336E-03
DAV:  17    -0.505893516653E+02   -0.13845E-03   -0.88705E-06 11136   0.409E-03    0.163E-03
DAV:  18    -0.505893751806E+02   -0.23515E-04   -0.56276E-07 11424   0.122E-03    0.520E-04
DAV:  19    -0.505893863082E+02   -0.11128E-04   -0.45377E-07  9360   0.828E-04    0.213E-04
DAV:  20    -0.505893883561E+02   -0.20479E-05   -0.69997E-08  9456   0.324E-04    0.596E-05
DAV:  21    -0.505893885748E+02   -0.21872E-06   -0.35638E-09 10704   0.811E-05
   1 F= -.51121167E+02 E0= -.51121167E+02  d E =-.511212E+02
 curvature:   0.00 expect dE= 0.000E+00 dE for cont linesearch  0.000E+00
 trial: gam= 0.00000 g(F)=  0.929E+01 g(S)=  0.000E+00 ort = 0.000E+00 (trialstep = 0.100E+01)
 search vector abs. value=  0.929E+01
 bond charge predicted
       N       E                     dE             d eps       ncg     rms          rms(c)
DAV:   1    -0.497090879767E+02    0.88030E+00   -0.48574E+02  7152   0.586E+01    0.771E+00
DAV:   2    -0.483344389618E+02    0.13746E+01   -0.90777E+00 10656   0.794E+00    0.382E+00
DAV:   3    -0.480872572036E+02    0.24718E+00   -0.11794E+00 10560   0.251E+00    0.140E+00
DAV:   4    -0.480740930575E+02    0.13164E-01   -0.10606E-01 11712   0.766E-01    0.511E-01
DAV:   5    -0.480748304386E+02   -0.73738E-03   -0.53022E-03 11424   0.196E-01    0.148E-01
DAV:   6    -0.480748221844E+02    0.82542E-05   -0.13040E-03 11568   0.861E-02    0.426E-02
DAV:   7    -0.480749154715E+02   -0.93287E-04   -0.55853E-05 12288   0.194E-02    0.141E-02
DAV:   8    -0.480749748874E+02   -0.59416E-04   -0.19101E-05 12000   0.788E-03    0.374E-03
DAV:   9    -0.480749933894E+02   -0.18502E-04   -0.22223E-06 12672   0.271E-03    0.199E-03
DAV:  10    -0.480750110377E+02   -0.17648E-04   -0.25401E-06 10848   0.211E-03    0.960E-04
DAV:  11    -0.480750195314E+02   -0.84937E-05   -0.98005E-07  9648   0.111E-03    0.563E-04
DAV:  12    -0.480750243218E+02   -0.47904E-05   -0.77395E-07 10848   0.992E-04    0.388E-04
DAV:  13    -0.480750257174E+02   -0.13956E-05   -0.25840E-07 10704   0.552E-04    0.138E-04
DAV:  14    -0.480750258291E+02   -0.11173E-06   -0.22165E-08 11712   0.176E-04
   2 F= -.48622273E+02 E0= -.48622273E+02  d E =0.249889E+01
 trial-energy change:    2.498894  1 .order    1.318820   -9.288778   11.926417
 step:   0.3609(harm=  0.4378)  dis= 0.14348  next Energy=   -52.741693 (dE=-0.162E+01)
 bond charge predicted
       N       E                     dE             d eps       ncg     rms          rms(c)
DAV:   1    -0.528700969052E+02   -0.47951E+01   -0.20714E+02  7104   0.373E+01    0.544E+00
DAV:   2    -0.521722507420E+02    0.69785E+00   -0.40745E+00 12528   0.483E+00    0.230E+00
DAV:   3    -0.521053809564E+02    0.66870E-01   -0.24367E-01  8448   0.126E+00    0.105E+00
DAV:   4    -0.520989605310E+02    0.64204E-02   -0.38048E-02 13344   0.492E-01    0.229E-01
DAV:   5    -0.520991415766E+02   -0.18105E-03   -0.12604E-03 11760   0.100E-01    0.839E-02
DAV:   6    -0.520992143241E+02   -0.72748E-04   -0.20143E-04 10416   0.347E-02    0.163E-02
DAV:   7    -0.520992465340E+02   -0.32210E-04   -0.18130E-05 10224   0.102E-02    0.574E-03
DAV:   8    -0.520992649930E+02   -0.18459E-04   -0.36643E-06  9984   0.388E-03    0.176E-03
DAV:   9    -0.520992736248E+02   -0.86319E-05   -0.10881E-06 10224   0.175E-03    0.935E-04
DAV:  10    -0.520992803279E+02   -0.67031E-05   -0.10529E-06  9792   0.129E-03    0.474E-04
DAV:  11    -0.520992823604E+02   -0.20325E-05   -0.30064E-07 10512   0.651E-04    0.343E-04
DAV:  12    -0.520992830169E+02   -0.65657E-06   -0.18864E-07  9888   0.471E-04
   3 F= -.52631997E+02 E0= -.52631997E+02  d E =-.151083E+01
 curvature:  -0.21 expect dE=-0.191E+00 dE for cont linesearch -0.135E-02
 ZBRENT: interpolating
 opt :   0.3517  next Energy=   -52.633098 (dE=-0.151E+01)
 bond charge predicted
       N       E                     dE             d eps       ncg     rms          rms(c)
DAV:   1    -0.521007680012E+02   -0.14856E-02   -0.46445E-02  7680   0.565E-01    0.764E-02
DAV:   2    -0.521006253458E+02    0.14266E-03   -0.97302E-04 13104   0.798E-02    0.339E-02
DAV:   3    -0.521006073605E+02    0.17985E-04   -0.71809E-05  8496   0.217E-02    0.142E-02
DAV:   4    -0.521006059938E+02    0.13667E-05   -0.10143E-05 10320   0.788E-03    0.424E-03
DAV:   5    -0.521006060679E+02   -0.74075E-07   -0.38382E-07  9984   0.170E-03
   4 F= -.52633301E+02 E0= -.52633301E+02  d E =-.151213E+01
 curvature:  -0.18 expect dE=-0.148E+00 dE for cont linesearch -0.361E-04
 trial: gam= 0.09539 g(F)=  0.842E+00 g(S)=  0.000E+00 ort =-0.437E-01 (trialstep = 0.870E+00)
 search vector abs. value=  0.919E+00
 bond charge predicted
       N       E                     dE             d eps       ncg     rms          rms(c)
DAV:   1    -0.522293150919E+02   -0.12871E+00   -0.65178E+01  7104   0.224E+01    0.228E+00
DAV:   2    -0.520453226387E+02    0.18399E+00   -0.10217E+00 12768   0.237E+00    0.859E-01
DAV:   3    -0.520346519718E+02    0.10671E-01   -0.62983E-02  8592   0.594E-01    0.389E-01
DAV:   4    -0.520341099859E+02    0.54199E-03   -0.62778E-03 12720   0.200E-01    0.660E-02
DAV:   5    -0.520341243094E+02   -0.14324E-04   -0.20753E-04  9840   0.350E-02    0.277E-02
DAV:   6    -0.520341318469E+02   -0.75376E-05   -0.31128E-05  8736   0.135E-02    0.617E-03
DAV:   7    -0.520341384588E+02   -0.66118E-05   -0.25506E-06  9840   0.382E-03    0.213E-03
DAV:   8    -0.520341441533E+02   -0.56945E-05   -0.39691E-07  9792   0.116E-03    0.798E-04
DAV:   9    -0.520341495766E+02   -0.54233E-05   -0.31069E-07 10032   0.779E-04    0.603E-04
DAV:  10    -0.520341566521E+02   -0.70755E-05   -0.76013E-07 11664   0.981E-04    0.336E-04
DAV:  11    -0.520341590444E+02   -0.23923E-05   -0.69210E-08 12768   0.312E-04    0.177E-04
DAV:  12    -0.520341608911E+02   -0.18467E-05   -0.29173E-08 10704   0.187E-04    0.998E-05
DAV:  13    -0.520341622158E+02   -0.13246E-05   -0.23119E-08 10416   0.147E-04    0.548E-05
DAV:  14    -0.520341626462E+02   -0.43044E-06   -0.48152E-09 10992   0.749E-05
   5 F= -.52566083E+02 E0= -.52566083E+02  d E =0.672181E-01
 trial-energy change:    0.067218  1 .order    0.090512   -0.729566    0.910590
 step:   0.4056(harm=  0.3871)  dis= 0.03402  next Energy=   -52.805654 (dE=-0.172E+00)
 bond charge predicted
       N       E                     dE             d eps       ncg     rms          rms(c)
DAV:   1    -0.523308479798E+02   -0.29669E+00   -0.19040E+01  7104   0.122E+01    0.122E+00
DAV:   2    -0.522763629933E+02    0.54485E-01   -0.29527E-01 12768   0.128E+00    0.476E-01
DAV:   3    -0.522728819367E+02    0.34811E-02   -0.19911E-02 10128   0.339E-01    0.208E-01
DAV:   4    -0.522727207777E+02    0.16116E-03   -0.16745E-03 13488   0.108E-01    0.383E-02
DAV:   5    -0.522727332212E+02   -0.12444E-04   -0.23452E-05 11424   0.149E-02    0.158E-02
DAV:   6    -0.522727404023E+02   -0.71811E-05   -0.81924E-06  9552   0.652E-03    0.245E-03
DAV:   7    -0.522727443475E+02   -0.39452E-05   -0.52631E-07 11424   0.173E-03    0.107E-03
DAV:   8    -0.522727484547E+02   -0.41071E-05   -0.34534E-07 10272   0.926E-04    0.427E-04
DAV:   9    -0.522727518708E+02   -0.34161E-05   -0.34333E-07 11520   0.718E-04    0.351E-04
DAV:  10    -0.522727543495E+02   -0.24787E-05   -0.44112E-07 11136   0.701E-04    0.201E-04
DAV:  11    -0.522727547370E+02   -0.38749E-06   -0.44426E-08 11616   0.238E-04
   6 F= -.52805122E+02 E0= -.52805122E+02  d E =-.171821E+00
 curvature:  -0.21 expect dE=-0.128E-01 dE for cont linesearch -0.372E-07
 trial: gam= 0.07159 g(F)=  0.606E-01 g(S)=  0.000E+00 ort =-0.402E-03 (trialstep = 0.777E+00)
 search vector abs. value=  0.652E-01
 bond charge predicted
       N       E                     dE             d eps       ncg     rms          rms(c)
DAV:   1    -0.522830360579E+02   -0.10282E-01   -0.36133E+00  7584   0.497E+00    0.634E-01
DAV:   2    -0.522715359699E+02    0.11500E-01   -0.49337E-02 13104   0.598E-01    0.301E-01
DAV:   3    -0.522691579506E+02    0.23780E-02   -0.79504E-03 11136   0.218E-01    0.781E-02
DAV:   4    -0.522691054267E+02    0.52524E-04   -0.62860E-04 12864   0.650E-02    0.320E-02
DAV:   5    -0.522691089808E+02   -0.35541E-05   -0.12052E-05 11040   0.101E-02    0.952E-03
DAV:   6    -0.522691103916E+02   -0.14109E-05   -0.28020E-06  9168   0.403E-03    0.157E-03
DAV:   7    -0.522691119038E+02   -0.15121E-05   -0.34116E-07 12192   0.126E-03    0.649E-04
DAV:   8    -0.522691132089E+02   -0.13051E-05   -0.10422E-07 11856   0.533E-04    0.292E-04
DAV:   9    -0.522691143934E+02   -0.11845E-05   -0.91393E-08 10992   0.380E-04    0.229E-04
DAV:  10    -0.522691153912E+02   -0.99783E-06   -0.81734E-08 10800   0.296E-04
   7 F= -.52801565E+02 E0= -.52801565E+02  d E =0.355634E-02
 trial-energy change:    0.003556  1 .order    0.003914   -0.047060    0.054888
 step:   0.3629(harm=  0.3588)  dis= 0.01194  next Energy=   -52.816143 (dE=-0.110E-01)
 bond charge predicted
       N       E                     dE             d eps       ncg     rms          rms(c)
DAV:   1    -0.522876593136E+02   -0.18545E-01   -0.10307E+00  7248   0.266E+00    0.338E-01
DAV:   2    -0.522844266320E+02    0.32327E-02   -0.14255E-02 13056   0.324E-01    0.161E-01
DAV:   3    -0.522837396616E+02    0.68697E-03   -0.23030E-03  9168   0.118E-01    0.413E-02
DAV:   4    -0.522837272248E+02    0.12437E-04   -0.19764E-04 12480   0.366E-02    0.177E-02
DAV:   5    -0.522837282915E+02   -0.10667E-05   -0.33429E-06 10416   0.538E-03    0.623E-03
DAV:   6    -0.522837284455E+02   -0.15395E-06   -0.88237E-07 10368   0.227E-03
   8 F= -.52816134E+02 E0= -.52816134E+02  d E =-.110123E-01
 curvature:  -0.19 expect dE=-0.156E-02 dE for cont linesearch -0.484E-10
 trial: gam= 0.12485 g(F)=  0.809E-02 g(S)=  0.000E+00 ort = 0.404E-05 (trialstep = 0.695E+00)
 search vector abs. value=  0.910E-02
 bond charge predicted
       N       E                     dE             d eps       ncg     rms          rms(c)
DAV:   1    -0.522878042734E+02   -0.40760E-02   -0.26098E-01  7152   0.144E+00    0.119E-01
DAV:   2    -0.522874247332E+02    0.37954E-03   -0.29596E-03 13296   0.142E-01    0.557E-02
DAV:   3    -0.522873945833E+02    0.30150E-04   -0.21732E-04  9312   0.361E-02    0.238E-02
DAV:   4    -0.522873961492E+02   -0.15659E-05   -0.23633E-05  9888   0.123E-02    0.594E-03
DAV:   5    -0.522873965842E+02   -0.43496E-06   -0.76824E-07 10224   0.256E-03
   9 F= -.52819783E+02 E0= -.52819783E+02  d E =-.364871E-02
 trial-energy change:   -0.003649  1 .order   -0.003644   -0.005615   -0.001673
 step:   0.9893(harm=  0.9893)  dis= 0.00774  next Energy=   -52.820133 (dE=-0.400E-02)
 bond charge predicted
       N       E                     dE             d eps       ncg     rms          rms(c)
DAV:   1    -0.522878359780E+02   -0.43983E-03   -0.47106E-02  7920   0.612E-01    0.509E-02
DAV:   2    -0.522877649099E+02    0.71068E-04   -0.52706E-04 13200   0.596E-02    0.237E-02
DAV:   3    -0.522877597910E+02    0.51189E-05   -0.40419E-05 10560   0.156E-02    0.101E-02
DAV:   4    -0.522877601837E+02   -0.39273E-06   -0.41143E-06 10128   0.511E-03
  10 F= -.52820138E+02 E0= -.52820138E+02  d E =-.400378E-02
 curvature:  -0.56 expect dE=-0.241E-02 dE for cont linesearch -0.113E-10
 trial: gam= 0.54267 g(F)=  0.434E-02 g(S)=  0.000E+00 ort = 0.430E-06 (trialstep = 0.753E+00)
 search vector abs. value=  0.702E-02
 bond charge predicted
       N       E                     dE             d eps       ncg     rms          rms(c)
DAV:   1    -0.522894572855E+02   -0.16975E-02   -0.24302E-01  7200   0.130E+00    0.143E-01
DAV:   2    -0.522889300018E+02    0.52728E-03   -0.32239E-03 12096   0.147E-01    0.686E-02
DAV:   3    -0.522888490042E+02    0.80998E-04   -0.34253E-04  8736   0.451E-02    0.224E-02
DAV:   4    -0.522888472287E+02    0.17755E-05   -0.38250E-05  9888   0.159E-02    0.610E-03
DAV:   5    -0.522888476720E+02   -0.44327E-06   -0.12085E-06 12240   0.301E-03
  11 F= -.52821117E+02 E0= -.52821117E+02  d E =-.979581E-03
 trial-energy change:   -0.000980  1 .order   -0.000987   -0.003267    0.001293
 step:   0.5383(harm=  0.5398)  dis= 0.00590  next Energy=   -52.821302 (dE=-0.116E-02)
 bond charge predicted
       N       E                     dE             d eps       ncg     rms          rms(c)
DAV:   1    -0.522890499661E+02   -0.20274E-03   -0.19736E-02  8400   0.370E-01    0.408E-02
DAV:   2    -0.522890067404E+02    0.43226E-04   -0.25634E-04 10464   0.412E-02    0.195E-02
DAV:   3    -0.522890013787E+02    0.53618E-05   -0.29332E-05  8640   0.133E-02    0.631E-03
DAV:   4    -0.522890019072E+02   -0.52856E-06   -0.32341E-06  9936   0.456E-03
  12 F= -.52821303E+02 E0= -.52821303E+02  d E =-.116493E-02
 curvature:  -0.44 expect dE=-0.141E-02 dE for cont linesearch -0.463E-08
 trial: gam= 0.73483 g(F)=  0.322E-02 g(S)=  0.000E+00 ort = 0.862E-05 (trialstep = 0.710E+00)
 search vector abs. value=  0.703E-02
 bond charge predicted
       N       E                     dE             d eps       ncg     rms          rms(c)
DAV:   1    -0.522911887300E+02   -0.21874E-02   -0.14582E-01  7104   0.990E-01    0.872E-02
DAV:   2    -0.522911233262E+02    0.65404E-04   -0.96149E-04 12480   0.852E-02    0.477E-02
DAV:   3    -0.522911182543E+02    0.50719E-05   -0.99784E-05  9936   0.223E-02    0.138E-02
DAV:   4    -0.522911204902E+02   -0.22359E-05   -0.10631E-05 10752   0.777E-03    0.315E-03
DAV:   5    -0.522911206389E+02   -0.14866E-06   -0.30781E-07  9120   0.153E-03
  13 F= -.52823355E+02 E0= -.52823355E+02  d E =-.205220E-02
 ZBRENT: can't locate minimum, use default step
 trial-energy change:   -0.002052  1 .order   -0.002050   -0.002292   -0.001808
 step:   2.8384(harm=  3.3632)  dis= 0.04642  next Energy=   -52.826734 (dE=-0.543E-02)
 bond charge predicted
       N       E                     dE             d eps       ncg     rms          rms(c)
DAV:   1    -0.522949336106E+02   -0.38131E-02   -0.13090E+00  7104   0.297E+00    0.265E-01
DAV:   2    -0.522943074004E+02    0.62621E-03   -0.87178E-03 12960   0.253E-01    0.144E-01
DAV:   3    -0.522942406868E+02    0.66714E-04   -0.88942E-04  9696   0.665E-02    0.425E-02
DAV:   4    -0.522942564429E+02   -0.15756E-04   -0.96011E-05 10656   0.234E-02    0.938E-03
DAV:   5    -0.522942582410E+02   -0.17981E-05   -0.32084E-06  8736   0.483E-03    0.359E-03
DAV:   6    -0.522942602477E+02   -0.20067E-05   -0.13576E-06 10608   0.240E-03    0.979E-04
DAV:   7    -0.522942632688E+02   -0.30211E-05   -0.33067E-07  8448   0.964E-04    0.548E-04
DAV:   8    -0.522942662466E+02   -0.29778E-05   -0.19118E-07  9936   0.574E-04    0.344E-04
DAV:   9    -0.522942689035E+02   -0.26569E-05   -0.16047E-07 11040   0.453E-04    0.218E-04
DAV:  10    -0.522942705751E+02   -0.16716E-05   -0.48894E-08 10800   0.235E-04    0.109E-04
DAV:  11    -0.522942715293E+02   -0.95421E-06   -0.11957E-08 10656   0.120E-04
  14 F= -.52826287E+02 E0= -.52826287E+02  d E =-.498392E-02
 curvature:  -3.51 expect dE=-0.390E-01 dE for cont linesearch -0.561E-05
 trial: gam= 3.40975 g(F)=  0.111E-01 g(S)=  0.000E+00 ort = 0.106E-03 (trialstep = 0.853E-01)
 search vector abs. value=  0.935E-01
 bond charge predicted
       N       E                     dE             d eps       ncg     rms          rms(c)
DAV:   1    -0.522952331765E+02   -0.96260E-03   -0.28170E-02  7104   0.437E-01    0.385E-02
DAV:   2    -0.522952229626E+02    0.10214E-04   -0.16277E-04 11952   0.363E-02    0.216E-02
DAV:   3    -0.522952217842E+02    0.11785E-05   -0.22632E-05  9120   0.107E-02    0.486E-03
DAV:   4    -0.522952220797E+02   -0.29559E-06   -0.18047E-06 10560   0.339E-03
  15 F= -.52827199E+02 E0= -.52827199E+02  d E =-.912238E-03
 ZBRENT: can't locate minimum, use default step
 trial-energy change:   -0.000912  1 .order   -0.000912   -0.000978   -0.000846
 step:   0.3412(harm=  0.6283)  dis= 0.02049  next Energy=   -52.829891 (dE=-0.360E-02)
 bond charge predicted
       N       E                     dE             d eps       ncg     rms          rms(c)
DAV:   1    -0.522973658568E+02   -0.21441E-02   -0.25314E-01  7104   0.131E+00    0.116E-01
DAV:   2    -0.522972689028E+02    0.96954E-04   -0.13406E-03 11280   0.104E-01    0.649E-02
DAV:   3    -0.522972510171E+02    0.17886E-04   -0.20291E-04  9312   0.319E-02    0.146E-02
DAV:   4    -0.522972531000E+02   -0.20830E-05   -0.16643E-05 10512   0.102E-02    0.476E-03
DAV:   5    -0.522972534725E+02   -0.37244E-06   -0.73241E-07  9360   0.225E-03
  16 F= -.52829112E+02 E0= -.52829112E+02  d E =-.282495E-02
 curvature:  -1.84 expect dE=-0.717E-02 dE for cont linesearch -0.498E-03
 ZBRENT: increasing intervall
 opt :   0.8530  next Energy=   -52.829182 (dE=-0.290E-02)
 bond charge predicted
       N       E                     dE             d eps       ncg     rms          rms(c)
DAV:   1    -0.522978307097E+02   -0.57761E-03   -0.10075E+00  7104   0.262E+00    0.234E-01
DAV:   2    -0.522974176981E+02    0.41301E-03   -0.53350E-03 12192   0.205E-01    0.130E-01
DAV:   3    -0.522973327918E+02    0.84906E-04   -0.78841E-04  9552   0.624E-02    0.300E-02
DAV:   4    -0.522973413932E+02   -0.86013E-05   -0.63958E-05 10848   0.200E-02    0.931E-03
DAV:   5    -0.522973433438E+02   -0.19507E-05   -0.29926E-06  8928   0.446E-03    0.354E-03
DAV:   6    -0.522973462052E+02   -0.28614E-05   -0.12032E-06 10272   0.226E-03    0.105E-03
DAV:   7    -0.522973505478E+02   -0.43427E-05   -0.50576E-07  8592   0.111E-03    0.639E-04
DAV:   8    -0.522973545688E+02   -0.40209E-05   -0.24243E-07 10224   0.639E-04    0.390E-04
DAV:   9    -0.522973578725E+02   -0.33037E-05   -0.19799E-07 10992   0.497E-04    0.245E-04
DAV:  10    -0.522973598849E+02   -0.20124E-05   -0.59183E-08 10752   0.264E-04    0.134E-04
DAV:  11    -0.522973610934E+02   -0.12085E-05   -0.15613E-08 10608   0.140E-04    0.665E-05
DAV:  12    -0.522973618730E+02   -0.77963E-06   -0.88185E-09 10752   0.102E-04
  17 F= -.52828966E+02 E0= -.52828966E+02  d E =-.267931E-02
 curvature:  -0.26 expect dE=-0.143E-02 dE for cont linesearch -0.953E-04
 ZBRENT: bracketing found
 ZBRENT: interpolating
 opt :   0.5778  next Energy=   -52.829706 (dE=-0.342E-02)
 bond charge predicted
       N       E                     dE             d eps       ncg     rms          rms(c)
DAV:   1    -0.522981194671E+02   -0.75837E-03   -0.29178E-01  7104   0.141E+00    0.126E-01
DAV:   2    -0.522980015398E+02    0.11793E-03   -0.16159E-03 10464   0.113E-01    0.702E-02
DAV:   3    -0.522979828762E+02    0.18664E-04   -0.24520E-04 12480   0.347E-02    0.163E-02
DAV:   4    -0.522979855514E+02   -0.26752E-05   -0.17373E-05 13248   0.100E-02    0.512E-03
DAV:   5    -0.522979870217E+02   -0.14703E-05   -0.68077E-07 10944   0.219E-03    0.200E-03
DAV:   6    -0.522979890277E+02   -0.20060E-05   -0.39480E-07  8448   0.128E-03    0.554E-04
DAV:   7    -0.522979910283E+02   -0.20006E-05   -0.16856E-07 11040   0.626E-04    0.325E-04
DAV:   8    -0.522979926693E+02   -0.16411E-05   -0.13405E-07  9600   0.437E-04    0.193E-04
DAV:   9    -0.522979936869E+02   -0.10176E-05   -0.10763E-07 10800   0.347E-04    0.123E-04
DAV:  10    -0.522979941229E+02   -0.43598E-06   -0.43872E-08 10944   0.214E-04
  18 F= -.52829738E+02 E0= -.52829738E+02  d E =-.345091E-02
 curvature:  -1.63 expect dE=-0.462E-02 dE for cont linesearch -0.587E-06
 trial: gam= 0.05180 g(F)=  0.284E-02 g(S)=  0.000E+00 ort = 0.184E-03 (trialstep = 0.184E+00)
 search vector abs. value=  0.311E-02
 bond charge predicted
       N       E                     dE             d eps       ncg     rms          rms(c)
DAV:   1    -0.522984562023E+02   -0.46252E-03   -0.10215E-02  7440   0.268E-01    0.287E-02
DAV:   2    -0.522984322156E+02    0.23987E-04   -0.12574E-04 12528   0.298E-02    0.136E-02
DAV:   3    -0.522984276017E+02    0.46139E-05   -0.18243E-05  9456   0.102E-02    0.363E-03
DAV:   4    -0.522984275233E+02    0.78393E-07   -0.16377E-06 11472   0.333E-03
  19 F= -.52830159E+02 E0= -.52830159E+02  d E =-.421558E-03
 trial-energy change:   -0.000422  1 .order   -0.000421   -0.000524   -0.000319
 step:   0.4685(harm=  0.4685)  dis= 0.00241  next Energy=   -52.830406 (dE=-0.668E-03)
 bond charge predicted
       N       E                     dE             d eps       ncg     rms          rms(c)
DAV:   1    -0.522987616319E+02   -0.33403E-03   -0.24507E-02  7104   0.415E-01    0.444E-02
DAV:   2    -0.522987042824E+02    0.57349E-04   -0.29858E-04 12000   0.461E-02    0.211E-02
DAV:   3    -0.522986933078E+02    0.10975E-04   -0.43744E-05  8880   0.159E-02    0.567E-03
DAV:   4    -0.522986931085E+02    0.19931E-06   -0.39887E-06 10512   0.519E-03
  20 F= -.52830406E+02 E0= -.52830406E+02  d E =-.668828E-03
 curvature:  -0.26 expect dE=-0.145E-03 dE for cont linesearch -0.204E-09
 trial: gam= 0.20329 g(F)=  0.567E-03 g(S)=  0.000E+00 ort =-0.158E-05 (trialstep = 0.241E+00)
 search vector abs. value=  0.695E-03
 bond charge predicted
       N       E                     dE             d eps       ncg     rms          rms(c)
DAV:   1    -0.522987998963E+02   -0.10659E-03   -0.30828E-03  9696   0.146E-01    0.171E-02
DAV:   2    -0.522987909210E+02    0.89753E-05   -0.54614E-05  8928   0.181E-02    0.755E-03
DAV:   3    -0.522987901839E+02    0.73711E-06   -0.46341E-06 10080   0.556E-03
  21 F= -.52830507E+02 E0= -.52830507E+02  d E =-.100341E-03
 trial-energy change:   -0.000100  1 .order   -0.000101   -0.000136   -0.000065
 step:   0.4579(harm=  0.4579)  dis= 0.00085  next Energy=   -52.830536 (dE=-0.130E-03)
 bond charge predicted
       N       E                     dE             d eps       ncg     rms          rms(c)
DAV:   1    -0.522988242482E+02   -0.33327E-04   -0.25035E-03  9936   0.131E-01    0.159E-02
DAV:   2    -0.522988168636E+02    0.73847E-05   -0.44997E-05  9024   0.164E-02    0.708E-03
DAV:   3    -0.522988162656E+02    0.59797E-06   -0.37941E-06  9888   0.504E-03
  22 F= -.52830536E+02 E0= -.52830536E+02  d E =-.129357E-03
 curvature:  -0.28 expect dE=-0.202E-04 dE for cont linesearch -0.757E-12
 trial: gam= 0.12593 g(F)=  0.718E-04 g(S)=  0.000E+00 ort =-0.433E-07 (trialstep = 0.284E+00)
 search vector abs. value=  0.828E-04
 bond charge predicted
       N       E                     dE             d eps       ncg     rms          rms(c)
DAV:   1    -0.522988351036E+02   -0.18240E-04   -0.39556E-04 10368   0.539E-02    0.516E-03
DAV:   2    -0.522988344661E+02    0.63753E-06   -0.38304E-06  8832   0.509E-03
  23 F= -.52830553E+02 E0= -.52830553E+02  d E =-.175704E-04
 trial-energy change:   -0.000018  1 .order   -0.000018   -0.000020   -0.000015
 step:   1.1309(harm=  1.1309)  dis= 0.00155  next Energy=   -52.830576 (dE=-0.406E-04)
 bond charge predicted
       N       E                     dE             d eps       ncg     rms          rms(c)
DAV:   1    -0.522988605365E+02   -0.25433E-04   -0.34720E-03  7296   0.160E-01    0.153E-02
DAV:   2    -0.522988554637E+02    0.50728E-05   -0.34089E-05  9312   0.156E-02    0.766E-03
DAV:   3    -0.522988550951E+02    0.36859E-06   -0.45205E-06 11040   0.504E-03
  24 F= -.52830572E+02 E0= -.52830572E+02  d E =-.363058E-04
 curvature:  -0.65 expect dE=-0.240E-04 dE for cont linesearch -0.452E-06
 ZBRENT: interpolating
 opt :   1.0263  next Energy=   -52.830572 (dE=-0.367E-04)
 bond charge predicted
       N       E                     dE             d eps       ncg     rms          rms(c)
DAV:   1    -0.522988554750E+02   -0.11319E-07   -0.54758E-05  9888   0.200E-02    0.167E-03
DAV:   2    -0.522988554081E+02    0.66938E-07   -0.54919E-07 10176   0.196E-03
  25 F= -.52830573E+02 E0= -.52830573E+02  d E =-.368538E-04
 curvature:  -0.57 expect dE=-0.169E-04 dE for cont linesearch -0.431E-08
 trial: gam= 0.42415 g(F)=  0.295E-04 g(S)=  0.000E+00 ort =-0.790E-06 (trialstep = 0.433E+00)
 search vector abs. value=  0.438E-04
 bond charge predicted
       N       E                     dE             d eps       ncg     rms          rms(c)
DAV:   1    -0.522988606907E+02   -0.52157E-05   -0.47540E-04  7488   0.568E-02    0.598E-03
DAV:   2    -0.522988599984E+02    0.69229E-06   -0.53348E-06  9216   0.630E-03
  26 F= -.52830580E+02 E0= -.52830580E+02  d E =-.700872E-05
 trial-energy change:   -0.000007  1 .order   -0.000007   -0.000013   -0.000002
 step:   0.5126(harm=  0.5126)  dis= 0.00053  next Energy=   -52.830580 (dE=-0.749E-05)
 reached required accuracy - stopping structural energy minimisation
