Borophene                               
           1
     4.044339    2.335000    0.000000
    -4.044339    2.335000    0.000000
     0.000000    0.000000   15.000000
   B    C 
     4     3
Direct configuration=     1
   0.01200000  0.00800000  0.11364600
   0.33503300  0.01900000  0.10000000
   0.01800000  0.32893300  0.10000000
   0.66466600  0.67000600  0.10000000
   0.32993300  0.32983300  0.10000000
   0.66566600  0.00400000  0.10000000
   0.00400000  0.65966600  0.10000000
Direct configuration=     2
  -0.02935629 -0.03585671  0.11718289
   0.39718306 -0.01716025  0.09794689
  -0.01685320  0.39620872  0.09785826
   0.63635591  0.63276130  0.09899271
   0.35474876  0.35189659  0.10042400
   0.68483541  0.00273778  0.10058340
   0.00238435  0.68885056  0.10065785
Direct configuration=     3
  -0.00292388 -0.00782619  0.11492232
   0.35746054  0.00595117  0.09925911
   0.00542283  0.35321020  0.09922713
   0.65444999  0.65656583  0.09963651
   0.33888805  0.33779490  0.10015301
   0.67258350  0.00354452  0.10021052
   0.00341698  0.67019758  0.10023739
Direct configuration=     4
  -0.00254616 -0.00742563  0.11489002
   0.35689290  0.00628143  0.09927786
   0.00574116  0.35259574  0.09924669
   0.65470855  0.65690600  0.09964571
   0.33866139  0.33759338  0.10014913
   0.67240842  0.00355604  0.10020520
   0.00343173  0.66993102  0.10023139
Direct configuration=     5
   0.00637937  0.00401936  0.11532920
   0.35934259  0.00256277  0.09865518
   0.00344705  0.35817145  0.09859870
   0.64299466  0.64176688  0.09874627
   0.31843300  0.31726935  0.10069485
   0.69259213  0.00569026  0.10079922
   0.00610920  0.68995794  0.10082257
Direct configuration=     6
   0.00161332 -0.00209204  0.11509469
   0.35803451  0.00454846  0.09898768
   0.00467206  0.35519413  0.09894472
   0.64924965  0.64985087  0.09922655
   0.32923456  0.32812198  0.10040345
   0.68181443  0.00455063  0.10048202
   0.00467949  0.67926396  0.10050689
Direct configuration=     7
   0.00589838  0.00457925  0.11558858
   0.36038046  0.00404030  0.09867011
   0.00528042  0.35828099  0.09863507
   0.64849666  0.64757190  0.09879654
   0.32574719  0.32470960  0.10063825
   0.67879644  0.00366159  0.10065748
   0.00469844  0.67659436  0.10065998
Direct configuration=     8
   0.00361379  0.00102244  0.11532526
   0.35912971  0.00431123  0.09883942
   0.00495607  0.35663523  0.09880016
   0.64889812  0.64878694  0.09902580
   0.32760649  0.32652892  0.10051307
   0.68040548  0.00413558  0.10056393
   0.00468833  0.67801766  0.10057836
Direct configuration=     9
   0.00404178  0.00234696  0.11568754
   0.35841826  0.00313911  0.09861933
   0.00446863  0.35673330  0.09858356
   0.64986892  0.64874688  0.09875349
   0.32871333  0.32744251  0.10062780
   0.67960501  0.00292163  0.10068170
   0.00418208  0.67810760  0.10069257
Direct configuration=    10
   0.00422342  0.00290911  0.11584130
   0.35811630  0.00264164  0.09852592
   0.00426175  0.35677492  0.09849164
   0.65028095  0.64872989  0.09863792
   0.32918309  0.32783025  0.10067650
   0.67926528  0.00240641  0.10073168
   0.00396721  0.67814578  0.10074104
Direct configuration=    11
   0.00461375  0.00381779  0.11639177
   0.35706115  0.00211890  0.09832309
   0.00388773  0.35633627  0.09830066
   0.65153221  0.64952618  0.09837252
   0.32851174  0.32694783  0.10072253
   0.67974396  0.00211436  0.10076641
   0.00394746  0.67857667  0.10076902
Direct configuration=    12
   0.00450229  0.00355832  0.11623459
   0.35736245  0.00226817  0.09838101
   0.00399453  0.35646153  0.09835519
   0.65117492  0.64929880  0.09844831
   0.32870344  0.32719980  0.10070938
   0.67960727  0.00219775  0.10075650
   0.00395310  0.67845363  0.10076103
Direct configuration=    13
   0.00462016  0.00376055  0.11700828
   0.35718890  0.00220789  0.09820124
   0.00380187  0.35620625  0.09819333
   0.65130114  0.64940611  0.09820691
   0.32857234  0.32696353  0.10065633
   0.67962870  0.00249737  0.10068858
   0.00418487  0.67839631  0.10069132
Direct configuration=    14
   0.00497377  0.00436723  0.11932938
   0.35666827  0.00202705  0.09766193
   0.00322391  0.35544040  0.09770774
   0.65167982  0.64972804  0.09748273
   0.32817905  0.32625470  0.10049719
   0.67969300  0.00339620  0.10048483
   0.00488018  0.67822437  0.10048219
Direct configuration=    15
   0.00486102  0.00419886  0.11967095
   0.35661577  0.00202956  0.09758781
   0.00322773  0.35535204  0.09763870
   0.65172224  0.64979494  0.09739097
   0.32824448  0.32633528  0.10046287
   0.67977254  0.00337894  0.10044866
   0.00485422  0.67834839  0.10044604
Direct configuration=    16
   0.00452278  0.00369375  0.12069567
   0.35645828  0.00203708  0.09736548
   0.00323918  0.35508694  0.09743158
   0.65184947  0.64999564  0.09711567
   0.32844079  0.32657701  0.10035991
   0.68001116  0.00332714  0.10034012
   0.00477634  0.67872044  0.10033757
Direct configuration=    17
   0.00384629  0.00268352  0.12274512
   0.35614330  0.00205212  0.09692080
   0.00326209  0.35455674  0.09701734
   0.65210394  0.65039705  0.09656508
   0.32883341  0.32706046  0.10015397
   0.68048839  0.00322355  0.10012306
   0.00462057  0.67946456  0.10012063
Direct configuration=    18
   0.00421005  0.00322673  0.12164310
   0.35631267  0.00204404  0.09715991
   0.00324977  0.35484183  0.09724008
   0.65196711  0.65018121  0.09686114
   0.32862230  0.32680050  0.10026471
   0.68023178  0.00327925  0.10023978
   0.00470433  0.67906444  0.10023728
Direct configuration=    19
   0.00420885  0.00313602  0.12168081
   0.35635849  0.00222169  0.09715787
   0.00350896  0.35497630  0.09723202
   0.65203218  0.65031985  0.09687690
   0.32840838  0.32669678  0.10025059
   0.68025303  0.00306688  0.10022582
   0.00452811  0.67902049  0.10022199
Direct configuration=    20
   0.00420699  0.00299551  0.12173921
   0.35642947  0.00249687  0.09715471
   0.00391045  0.35518460  0.09721953
   0.65213298  0.65053461  0.09690132
   0.32807702  0.32653611  0.10022872
   0.68028596  0.00273791  0.10020420
   0.00425514  0.67895240  0.10019831
Direct configuration=    21
   0.00422295  0.00294757  0.12175645
   0.35650945  0.00260720  0.09715717
   0.00405924  0.35522527  0.09721484
   0.65197369  0.65043236  0.09693027
   0.32812480  0.32665994  0.10021339
   0.68022478  0.00267897  0.10018990
   0.00418308  0.67888669  0.10018398
Direct configuration=    22
   0.00423735  0.00290431  0.12177201
   0.35658162  0.00270675  0.09715938
   0.00419349  0.35526197  0.09721061
   0.65182998  0.65034011  0.09695639
   0.32816791  0.32677166  0.10019956
   0.68016958  0.00262580  0.10017700
   0.00411807  0.67882740  0.10017106
Direct configuration=    23
   0.00422140  0.00286002  0.12177156
   0.35658609  0.00273276  0.09715885
   0.00419635  0.35523332  0.09720356
   0.65180542  0.65034398  0.09698228
   0.32814907  0.32675327  0.10019379
   0.68020225  0.00267558  0.10017092
   0.00413742  0.67883907  0.10016504
Direct configuration=    24
   0.00417386  0.00272806  0.12177021
   0.35659942  0.00281024  0.09715727
   0.00420486  0.35514796  0.09718258
   0.65173227  0.65035550  0.09705942
   0.32809294  0.32669848  0.10017659
   0.68029958  0.00282389  0.10015280
   0.00419507  0.67887387  0.10014712
Direct configuration=    25
   0.00417973  0.00274435  0.12177038
   0.35659778  0.00280068  0.09715747
   0.00420381  0.35515849  0.09718517
   0.65174130  0.65035408  0.09704990
   0.32809987  0.32670525  0.10017871
   0.68028757  0.00280558  0.10015504
   0.00418795  0.67886957  0.10014933
Direct configuration=    26
   0.00415538  0.00270871  0.12176718
   0.35662355  0.00280664  0.09715146
   0.00419564  0.35519452  0.09717013
   0.65175350  0.65037846  0.09707946
   0.32810859  0.32670508  0.10017659
   0.68026793  0.00281472  0.10015349
   0.00419342  0.67882987  0.10014770
