 running  128 mpi-ranks, on    4 nodes
 distrk:  each k-point on  128 cores,    1 groups
 distr:  one band on    1 cores,  128 groups
 vasp.6.3.2 27Jun22 (build May 31 2023 12:07:17) complex                        
  
 POSCAR found type information on POSCAR C 
 POSCAR found :  1 types and       2 ions
 Reading from existing POTCAR
 scaLAPACK will be used
 -----------------------------------------------------------------------------
|                                                                             |
|           W    W    AA    RRRRR   N    N  II  N    N   GGGG   !!!           |
|           W    W   A  A   R    R  NN   N  II  NN   N  G    G  !!!           |
|           W    W  A    A  R    R  N N  N  II  N N  N  G       !!!           |
|           W WW W  AAAAAA  RRRRR   N  N N  II  N  N N  G  GGG   !            |
|           WW  WW  A    A  R   R   N   NN  II  N   NN  G    G                |
|           W    W  A    A  R    R  N    N  II  N    N   GGGG   !!!           |
|                                                                             |
|     For optimal performance we recommend to set                             |
|       NCORE = 2 up to number-of-cores-per-socket                            |
|     NCORE specifies how many cores store one orbital (NPAR=cpu/NCORE).      |
|     This setting can greatly improve the performance of VASP for DFT.       |
|     The default, NCORE=1 might be grossly inefficient on modern             |
|     multi-core architectures or massively parallel machines. Do your        |
|     own testing! More info at https://www.vasp.at/wiki/index.php/NCORE      |
|     Unfortunately you need to use the default for GW and RPA                |
|     calculations (for HF NCORE is supported but not extensively tested      |
|     yet).                                                                   |
|                                                                             |
 -----------------------------------------------------------------------------

 Reading from existing POTCAR
 LDA part: xc-table for Pade appr. of Perdew
 found WAVECAR, reading the header
  number of bands has changed, file:    48 present:   128
  trying to continue reading WAVECAR, but it might fail
  number of k-points has changed, file:   289 present:   108
  trying to continue reading WAVECAR, but it might fail
 POSCAR, INCAR and KPOINTS ok, starting setup
 FFT: planning ... GRIDC
 FFT: planning ... GRID_SOFT
 FFT: planning ... GRID
 reading WAVECAR
 random initialization beyond band           48
 the WAVECAR file was read successfully
 initial charge from wavefunction
 entering main loop
       N       E                     dE             d eps       ncg     rms          ort
 gam= 0.000 g(H,U,f)=  0.578E+01 0.334E+02 0.140E-29 ort(H,U,f) = 0.000E+00 0.000E+00 0.000E+00
SDA:   1     0.198623238469E+02    0.19862E+02   -0.15667E+02 13824   0.392E+02 0.000E+00
 gam= 0.382 g(H,U,f)=  0.200E+01 0.230E+02 0.630E-34 ort(H,U,f) = 0.264E+01 0.267E+02 0.100E-33
DMP:   2     0.594503269558E+01   -0.13917E+02   -0.14462E+02 13824   0.250E+02 0.293E+02
 gam= 0.382 g(H,U,f)=  0.727E+00 0.130E+02 0.152E-20 ort(H,U,f) = 0.776E+00 0.238E+02 0.335E-20
DMP:   3    -0.625673735390E+01   -0.12202E+02   -0.92202E+01 13824   0.137E+02 0.245E+02
 gam= 0.382 g(H,U,f)=  0.390E+00 0.681E+01 0.259E-26 ort(H,U,f) = 0.112E+00 0.157E+02 0.449E-26
DMP:   4    -0.142902110254E+02   -0.80335E+01   -0.52996E+01 13824   0.720E+01 0.158E+02
 gam= 0.382 g(H,U,f)=  0.198E+00 0.254E+01 0.403E-26 ort(H,U,f) = 0.826E-01 0.673E+01 0.177E-25
DMP:   5    -0.183114982197E+02   -0.40213E+01   -0.21372E+01 13824   0.274E+01 0.681E+01
 gam= 0.382 g(H,U,f)=  0.825E-01 0.961E+00 0.575E-53 ort(H,U,f) = 0.490E-01 0.279E+01-0.481E-51
DMP:   6    -0.199226125693E+02   -0.16111E+01   -0.85184E+00 13824   0.104E+01 0.284E+01
 gam= 0.382 g(H,U,f)=  0.340E-01 0.411E+00 0.909-109 ort(H,U,f) = 0.168E-01 0.129E+01 0.201-108
DMP:   7    -0.206035329316E+02   -0.68092E+00   -0.37700E+00 13824   0.445E+00 0.130E+01
 gam= 0.382 g(H,U,f)=  0.140E-01 0.191E+00 0.854E-20 ort(H,U,f) = 0.640E-02 0.634E+00 0.284E-19
DMP:   8    -0.209200009055E+02   -0.31647E+00   -0.17990E+00 13824   0.205E+00 0.641E+00
 gam= 0.382 g(H,U,f)=  0.525E-02 0.903E-01 0.136E-71 ort(H,U,f) = 0.261E-02 0.317E+00 0.551E-71
DMP:   9    -0.210743463603E+02   -0.15435E+00   -0.86987E-01 13824   0.956E-01 0.319E+00
 gam= 0.382 g(H,U,f)=  0.199E-02 0.411E-01 0.587E-19 ort(H,U,f) = 0.748E-03 0.151E+00 0.285E-18
DMP:  10    -0.211486877614E+02   -0.74341E-01   -0.40492E-01 13824   0.431E-01 0.152E+00
 gam= 0.382 g(H,U,f)=  0.868E-03 0.174E-01 0.142-123 ort(H,U,f) = 0.346E-03 0.674E-01 0.847-123
DMP:  11    -0.211826157867E+02   -0.33928E-01   -0.17660E-01 13824   0.183E-01 0.677E-01
 gam= 0.382 g(H,U,f)=  0.363E-03 0.685E-02 0.000E+00 ort(H,U,f) = 0.279E-03 0.277E-01 0.000E+00
DMP:  12    -0.211970474978E+02   -0.14432E-01   -0.71686E-02 13824   0.722E-02 0.280E-01
 gam= 0.382 g(H,U,f)=  0.132E-03 0.254E-02 0.588E-51 ort(H,U,f) = 0.152E-03 0.107E-01 0.942E-50
DMP:  13    -0.212027698232E+02   -0.57223E-02   -0.27303E-02 13824   0.267E-02 0.109E-01
 gam= 0.382 g(H,U,f)=  0.458E-04 0.897E-03 0.383E-33 ort(H,U,f) = 0.535E-04 0.395E-02-0.913E-32
DMP:  14    -0.212048996091E+02   -0.21298E-02   -0.98854E-03 13824   0.943E-03 0.400E-02
 gam= 0.382 g(H,U,f)=  0.173E-04 0.305E-03 0.165E-14 ort(H,U,f) = 0.144E-04 0.140E-02 0.877E-14
DMP:  15    -0.212056465897E+02   -0.74698E-03   -0.34446E-03 13824   0.323E-03 0.141E-02
 gam= 0.382 g(H,U,f)=  0.716E-05 0.101E-03 0.197E-07 ort(H,U,f) = 0.428E-05 0.476E-03 0.105E-06
DMP:  16    -0.212058898575E+02   -0.24327E-03   -0.11669E-03 13824   0.108E-03 0.480E-03
 gam= 0.382 g(H,U,f)=  0.273E-05 0.330E-04 0.160E-05 ort(H,U,f) = 0.158E-05 0.158E-03 0.936E-05
DMP:  17    -0.212059476279E+02   -0.57770E-04   -0.40714E-04 13824   0.373E-04 0.169E-03
 final diagonalization
   1 F= -.21205948E+02 E0= -.21205944E+02  d E =-.735855E-05
 Start KPOINTS_OPT (optional k-point list driver)
k-point batch [1-108\1452]
       N       E                     dE             ncg
DAV:   1    -0.101416373065E+05   -0.24351E+05    41472
DAV:   2    -0.109370114441E+05   -0.79537E+03    55296
DAV:   3    -0.109374434870E+05   -0.43204E+00    41472
DAV:   4    -0.109374441702E+05   -0.68321E-03    55296
DAV:   5    -0.109374441705E+05   -0.31010E-06    41600
k-point batch [109-216\1452]
       N       E                     dE             ncg
DAV:   1    -0.101767010284E+05   -0.28131E+05    41472
DAV:   2    -0.109787495303E+05   -0.80205E+03    55296
DAV:   3    -0.109791898057E+05   -0.44028E+00    41472
DAV:   4    -0.109791905214E+05   -0.71571E-03    55296
DAV:   5    -0.109791905217E+05   -0.32511E-06    41472
k-point batch [217-324\1452]
       N       E                     dE             ncg
DAV:   1    -0.102550566073E+05   -0.30205E+05    41472
DAV:   2    -0.110470335907E+05   -0.79198E+03    55296
DAV:   3    -0.110474682430E+05   -0.43465E+00    41472
DAV:   4    -0.110474689514E+05   -0.70831E-03    55296
DAV:   5    -0.110474689517E+05   -0.32118E-06    41600
k-point batch [325-432\1452]
       N       E                     dE             ncg
DAV:   1    -0.102926057202E+05   -0.31397E+05    41472
DAV:   2    -0.110860491810E+05   -0.79344E+03    55296
DAV:   3    -0.110864821382E+05   -0.43296E+00    41472
DAV:   4    -0.110864828392E+05   -0.70099E-03    55296
DAV:   5    -0.110864828395E+05   -0.31730E-06    41600
k-point batch [433-540\1452]
       N       E                     dE             ncg
DAV:   1    -0.103196280320E+05   -0.31989E+05    41472
DAV:   2    -0.111100946905E+05   -0.79047E+03    55296
DAV:   3    -0.111105279929E+05   -0.43330E+00    41472
DAV:   4    -0.111105287019E+05   -0.70904E-03    55296
DAV:   5    -0.111105287022E+05   -0.32085E-06    41472
k-point batch [541-648\1452]
       N       E                     dE             ncg
DAV:   1    -0.103610512772E+05   -0.32229E+05    41472
DAV:   2    -0.111472487878E+05   -0.78620E+03    55296
DAV:   3    -0.111476813609E+05   -0.43257E+00    41472
DAV:   4    -0.111476820600E+05   -0.69906E-03    55296
DAV:   5    -0.111476820603E+05   -0.31497E-06    41472
k-point batch [649-756\1452]
       N       E                     dE             ncg
DAV:   1    -0.104264908081E+05   -0.33909E+05    41472
DAV:   2    -0.112092392157E+05   -0.78275E+03    55296
DAV:   3    -0.112096725806E+05   -0.43336E+00    41472
DAV:   4    -0.112096732877E+05   -0.70702E-03    55296
DAV:   5    -0.112096732880E+05   -0.31557E-06    41472
k-point batch [757-864\1452]
       N       E                     dE             ncg
DAV:   1    -0.104560697010E+05   -0.39573E+05    41472
DAV:   2    -0.112390751992E+05   -0.78301E+03    55296
DAV:   3    -0.112395173457E+05   -0.44215E+00    41472
DAV:   4    -0.112395180828E+05   -0.73711E-03    55296
DAV:   5    -0.112395180831E+05   -0.33037E-06    41472
k-point batch [865-972\1452]
       N       E                     dE             ncg
DAV:   1    -0.105094287463E+05   -0.38238E+05    41472
DAV:   2    -0.112808053710E+05   -0.77138E+03    55296
DAV:   3    -0.112812386049E+05   -0.43323E+00    41472
DAV:   4    -0.112812393202E+05   -0.71534E-03    55296
DAV:   5    -0.112812393206E+05   -0.32282E-06    41472
k-point batch [973-1080\1452]
       N       E                     dE             ncg
DAV:   1    -0.105263493613E+05   -0.42340E+05    41472
DAV:   2    -0.113041354837E+05   -0.77779E+03    55296
DAV:   3    -0.113045813853E+05   -0.44590E+00    41472
DAV:   4    -0.113045821331E+05   -0.74777E-03    55296
DAV:   5    -0.113045821334E+05   -0.33561E-06    41600
k-point batch [1081-1188\1452]
       N       E                     dE             ncg
DAV:   1    -0.105334046926E+05   -0.44871E+05    41472
DAV:   2    -0.113147364443E+05   -0.78133E+03    55296
DAV:   3    -0.113151909764E+05   -0.45453E+00    41472
DAV:   4    -0.113151917536E+05   -0.77718E-03    55296
DAV:   5    -0.113151917540E+05   -0.35035E-06    41728
k-point batch [1189-1296\1452]
       N       E                     dE             ncg
DAV:   1    -0.105326450076E+05   -0.47966E+05    41472
DAV:   2    -0.113082446735E+05   -0.77560E+03    55296
DAV:   3    -0.113086964646E+05   -0.45179E+00    41472
DAV:   4    -0.113086972298E+05   -0.76522E-03    55296
DAV:   5    -0.113086972302E+05   -0.33859E-06    41472
k-point batch [1297-1404\1452]
       N       E                     dE             ncg
DAV:   1    -0.104506408127E+05   -0.50873E+05    41472
DAV:   2    -0.112256517750E+05   -0.77501E+03    55296
DAV:   3    -0.112261027096E+05   -0.45093E+00    41472
DAV:   4    -0.112261034744E+05   -0.76485E-03    55296
DAV:   5    -0.112261034747E+05   -0.33464E-06    41600
k-point batch [1405-1452\1452]
       N       E                     dE             ncg
DAV:   1     0.183227766417E+05   -0.23486E+05    18432
DAV:   2     0.179747985844E+05   -0.34798E+03    24576
DAV:   3     0.179745909352E+05   -0.20765E+00    18432
DAV:   4     0.179745905729E+05   -0.36237E-03    24576
DAV:   5     0.179745905727E+05   -0.16362E-06    18432
 writing wavefunctions
 optical routines
 imaginary and real dielectric function
 recalculating local potential from charge density
 direction            1
 direction            2
 direction            3
 PROFILE, used timers:     652
