 running   96 mpi-ranks, with    1 threads/rank, on    2 nodes
 distrk:  each k-point on   96 cores,    1 groups
 distr:  one band on    1 cores,   96 groups
 vasp.6.4.2 20Jul23 (build Aug 23 2023 19:13:21) complex                        
  
 POSCAR found type information on POSCAR B C 
 POSCAR found :  2 types and      16 ions
 Reading from existing POTCAR
 scaLAPACK will be used
 Reading from existing POTCAR
 LDA part: xc-table for Pade appr. of Perdew
 POSCAR found type information on POSCAR B C 
 POSCAR found :  2 types and      16 ions
 found WAVECAR, reading the header
  number of bands has changed, file:    48 present:    96
  trying to continue reading WAVECAR, but it might fail
 POSCAR, INCAR and KPOINTS ok, starting setup
 FFT: planning ... GRIDC
 FFT: planning ... GRID_SOFT
 FFT: planning ... GRID
 reading WAVECAR
 random initialization beyond band           48
 the WAVECAR file was read successfully
 initial charge from wavefunction
 entering main loop
       N       E                     dE             d eps       ncg     rms          ort
 gam= 0.000 g(H,U,f)=  0.106E-05 0.923E-07 0.326E-11 ort(H,U,f) = 0.000E+00 0.000E+00 0.000E+00
SDA:   1    -0.140189789010E+03   -0.14019E+03   -0.46029E-06  1536   0.115E-05 0.000E+00
 gam= 0.382 g(H,U,f)=  0.639E-06 0.665E-07 0.222E-11 ort(H,U,f) = 0.827E-06 0.680E-07-0.141E-11
DMP:   2    -0.140189789418E+03   -0.40863E-06   -0.41887E-06  1536   0.705E-06 0.895E-06
 final diagonalization
   1 F= -.14018979E+03 E0= -.14018944E+03  d E =-.702046E-03
 Start KPOINTS_OPT (optional k-point list driver)
k-point batch [1-16\72]
       N       E                     dE             ncg
DAV:   1    -0.303690046901E+04   -0.98441E+04     4608
DAV:   2    -0.858031478331E+04   -0.55434E+04     6144
DAV:   3    -0.891032678868E+04   -0.33001E+03     6144
DAV:   4    -0.892454133688E+04   -0.14215E+02     6144
DAV:   5    -0.892532155433E+04   -0.78022E+00     6144
DAV:   6    -0.892537240624E+04   -0.50852E-01     6144
DAV:   7    -0.892537601443E+04   -0.36082E-02     6144
DAV:   8    -0.892537628923E+04   -0.27480E-03     6144
DAV:   9    -0.892537631116E+04   -0.21929E-04     6144
DAV:  10    -0.892537631298E+04   -0.18261E-05     6144
DAV:  11    -0.892537631314E+04   -0.15676E-06     6144
k-point batch [17-32\72]
       N       E                     dE             ncg
DAV:   1    -0.296857424271E+04   -0.24545E+05     4608
DAV:   2    -0.888214844118E+04   -0.59136E+04     6144
DAV:   3    -0.916295533474E+04   -0.28081E+03     6144
DAV:   4    -0.917381109833E+04   -0.10856E+02     6144
DAV:   5    -0.917435068629E+04   -0.53959E+00     6144
DAV:   6    -0.917438270090E+04   -0.32015E-01     6144
DAV:   7    -0.917438481197E+04   -0.21111E-02     6144
DAV:   8    -0.917438496510E+04   -0.15314E-03     6144
DAV:   9    -0.917438497704E+04   -0.11937E-04     6144
DAV:  10    -0.917438497804E+04   -0.99554E-06     6144
k-point batch [33-48\72]
       N       E                     dE             ncg
DAV:   1    -0.294884757651E+04   -0.23607E+05     4608
DAV:   2    -0.887559178884E+04   -0.59267E+04     6144
DAV:   3    -0.916405466475E+04   -0.28846E+03     6144
DAV:   4    -0.917504877047E+04   -0.10994E+02     6144
DAV:   5    -0.917559417062E+04   -0.54540E+00     6144
DAV:   6    -0.917562651322E+04   -0.32343E-01     6144
DAV:   7    -0.917562862418E+04   -0.21110E-02     6144
DAV:   8    -0.917562877347E+04   -0.14929E-03     6144
DAV:   9    -0.917562878466E+04   -0.11191E-04     6144
DAV:  10    -0.917562878554E+04   -0.88494E-06     6144
k-point batch [49-64\72]
       N       E                     dE             ncg
DAV:   1    -0.300904035685E+04   -0.16583E+05     4608
DAV:   2    -0.875201491825E+04   -0.57430E+04     6144
DAV:   3    -0.905631284704E+04   -0.30430E+03     6144
DAV:   4    -0.906870415338E+04   -0.12391E+02     6144
DAV:   5    -0.906935472731E+04   -0.65057E+00     6144
DAV:   6    -0.906939538359E+04   -0.40656E-01     6144
DAV:   7    -0.906939816969E+04   -0.27861E-02     6144
DAV:   8    -0.906939837590E+04   -0.20621E-03     6144
DAV:   9    -0.906939839206E+04   -0.16161E-04     6144
DAV:  10    -0.906939839339E+04   -0.13333E-05     6144
DAV:  11    -0.906939839351E+04   -0.11485E-06     6144
k-point batch [65-72\72]
       N       E                     dE             ncg
DAV:   1     0.297774689677E+04   -0.22977E+04     2304
DAV:   2     0.327494638004E+03   -0.26503E+04     3072
DAV:   3     0.150079373041E+03   -0.17742E+03     3072
DAV:   4     0.141652494154E+03   -0.84269E+01     3072
DAV:   5     0.141158831509E+03   -0.49366E+00     3072
DAV:   6     0.141124712119E+03   -0.34119E-01     3072
DAV:   7     0.141122164536E+03   -0.25476E-02     3072
DAV:   8     0.141121960485E+03   -0.20405E-03     3072
DAV:   9     0.141121943446E+03   -0.17039E-04     3072
DAV:  10     0.141121941962E+03   -0.14849E-05     3072
DAV:  11     0.141121941829E+03   -0.13294E-06     3072
 writing wavefunctions
