Lattice                                 
           1
     4.286826    2.475000    0.000000
    -4.286826    2.475000    0.000000
     0.000000    0.000000   15.000000
   B    C 
     8     8
Direct configuration=     1
   0.66888689  0.00000000  0.10000000
   0.33111211  0.00000000  0.10000000
   0.00000000  0.33111211  0.10000000
   0.00000000  0.66888689  0.10000000
   0.33111211  0.33111211  0.10000000
   0.66888689  0.66888689  0.10000000
   0.66666600  0.33333300  0.09922189
   0.33333300  0.66666600  0.10077811
   0.33333267  0.16666633  0.47060000
   0.49999967  0.99999933  0.47060000
   0.33333267  0.66666633  0.47060000
   0.49999967  0.49999933  0.47060000
   0.83333267  0.16666633  0.47060000
   0.99999967  0.99999933  0.47060000
   0.83333267  0.66666633  0.47060000
   0.99999967  0.49999933  0.47060000
Direct configuration=     2
   0.67134457  0.00000004  0.10002601
   0.32865447  0.00000004  0.10002601
  -0.00000004  0.32865443  0.10002601
  -0.00000004  0.67134453  0.10002601
   0.32865447  0.32865443  0.10002601
   0.67134457  0.67134453  0.10002601
   0.66666600  0.33333300  0.09923540
   0.33333300  0.66666600  0.10082155
   0.33332651  0.16666326  0.47057364
   0.50000086  0.00000172  0.47057311
   0.33333267  0.66666633  0.47057247
   0.50000086  0.49999814  0.47057311
   0.83333574  0.16666326  0.47057364
   0.99999967  0.99999933  0.47057425
   0.83333574  0.66667249  0.47057364
   0.99999728  0.49999814  0.47057311
Direct configuration=     3
   0.67008260  0.00000002  0.10001266
   0.32991642  0.00000002  0.10001266
  -0.00000002  0.32991640  0.10001266
  -0.00000002  0.67008258  0.10001266
   0.32991642  0.32991640  0.10001266
   0.67008260  0.67008258  0.10001266
   0.66666600  0.33333300  0.09922846
   0.33333300  0.66666600  0.10079925
   0.33332967  0.16666484  0.47058718
   0.50000025  0.00000050  0.47058692
   0.33333267  0.66666633  0.47058661
   0.50000025  0.49999875  0.47058692
   0.83333416  0.16666484  0.47058718
   0.99999967  0.99999933  0.47058747
   0.83333416  0.66666933  0.47058718
   0.99999850  0.49999875  0.47058692
Direct configuration=     4
   0.67008995  0.00000002  0.10001273
   0.32990907  0.00000002  0.10001273
  -0.00000002  0.32990905  0.10001273
  -0.00000002  0.67008993  0.10001273
   0.32990907  0.32990905  0.10001273
   0.67008995  0.67008993  0.10001273
   0.66666600  0.33333300  0.09922850
   0.33333300  0.66666600  0.10079938
   0.33332965  0.16666483  0.47058710
   0.50000025  0.00000050  0.47058684
   0.33333267  0.66666633  0.47058652
   0.50000025  0.49999875  0.47058684
   0.83333417  0.16666483  0.47058710
   0.99999967  0.99999933  0.47058739
   0.83333417  0.66666935  0.47058710
   0.99999850  0.49999875  0.47058684
Direct configuration=     5
   0.67008683  0.00000002  0.10001270
   0.32991219  0.00000002  0.10001270
  -0.00000002  0.32991217  0.10001270
  -0.00000002  0.67008681  0.10001270
   0.32991219  0.32991217  0.10001270
   0.67008683  0.67008681  0.10001270
   0.66666600  0.33333300  0.09922849
   0.33333300  0.66666600  0.10079932
   0.33332966  0.16666483  0.47058713
   0.50000025  0.00000050  0.47058687
   0.33333267  0.66666633  0.47058656
   0.50000025  0.49999875  0.47058687
   0.83333417  0.16666483  0.47058713
   0.99999967  0.99999933  0.47058743
   0.83333417  0.66666934  0.47058713
   0.99999850  0.49999875  0.47058687
Direct configuration=     6
   0.67008472  0.00000002  0.10001268
   0.32991430  0.00000002  0.10001268
  -0.00000002  0.32991428  0.10001268
  -0.00000002  0.67008470  0.10001268
   0.32991430  0.32991428  0.10001268
   0.67008472  0.67008470  0.10001268
   0.66666600  0.33333300  0.09922847
   0.33333300  0.66666600  0.10079928
   0.33332967  0.16666483  0.47058715
   0.50000025  0.00000050  0.47058690
   0.33333267  0.66666633  0.47058658
   0.50000025  0.49999875  0.47058690
   0.83333417  0.16666483  0.47058715
   0.99999967  0.99999933  0.47058745
   0.83333417  0.66666933  0.47058715
   0.99999850  0.49999875  0.47058690
Direct configuration=     7
   0.67008366  0.00000002  0.10001267
   0.32991536  0.00000002  0.10001267
  -0.00000002  0.32991534  0.10001267
  -0.00000002  0.67008364  0.10001267
   0.32991536  0.32991534  0.10001267
   0.67008366  0.67008364  0.10001267
   0.66666600  0.33333300  0.09922847
   0.33333300  0.66666600  0.10079926
   0.33332967  0.16666483  0.47058716
   0.50000025  0.00000050  0.47058691
   0.33333267  0.66666633  0.47058659
   0.50000025  0.49999875  0.47058691
   0.83333417  0.16666483  0.47058716
   0.99999967  0.99999933  0.47058746
   0.83333417  0.66666933  0.47058716
   0.99999850  0.49999875  0.47058691
Direct configuration=     8
   0.67008360 -0.00000000  0.10003620
   0.32991540 -0.00000000  0.10003620
   0.00000000  0.32991540  0.10003620
   0.00000000  0.67008360  0.10003620
   0.32991540  0.32991540  0.10003620
   0.67008360  0.67008360  0.10003620
   0.66666600  0.33333300  0.09924461
   0.33333300  0.66666600  0.10083359
   0.33333407  0.16666703  0.47056340
   0.49999941 -0.00000118  0.47056276
   0.33333267  0.66666633  0.47056202
   0.49999941  0.49999959  0.47056276
   0.83333197  0.16666703  0.47056340
   0.99999967  0.99999933  0.47056410
   0.83333197  0.66666493  0.47056340
   0.00000018  0.49999959  0.47056276
Direct configuration=     9
   0.67008342 -0.00000007  0.10010680
   0.32991551 -0.00000007  0.10010680
   0.00000007  0.32991558  0.10010680
   0.00000007  0.67008349  0.10010680
   0.32991551  0.32991558  0.10010680
   0.67008342  0.67008349  0.10010680
   0.66666600  0.33333300  0.09929302
   0.33333300  0.66666600  0.10093656
   0.33334727  0.16667363  0.47049212
   0.49999689 -0.00000622  0.47049032
   0.33333267  0.66666633  0.47048829
   0.49999689  0.50000211  0.47049032
   0.83332537  0.16667363  0.47049212
   0.99999967  0.99999933  0.47049402
   0.83332537  0.66665173  0.47049212
   0.00000522  0.50000211  0.47049032
Direct configuration=    10
   0.67008305 -0.00000021  0.10024800
   0.32991574 -0.00000021  0.10024800
   0.00000021  0.32991595  0.10024800
   0.00000021  0.67008326  0.10024800
   0.32991574  0.32991595  0.10024800
   0.67008305  0.67008326  0.10024800
   0.66666600  0.33333300  0.09938984
   0.33333300  0.66666600  0.10114249
   0.33337366  0.16668683  0.47034955
   0.49999185 -0.00001630  0.47034543
   0.33333267  0.66666633  0.47034084
   0.49999185  0.50000715  0.47034543
   0.83331217  0.16668683  0.47034955
   0.99999967  0.99999933  0.47035386
   0.83331217  0.66662534  0.47034955
   0.00001530  0.50000715  0.47034543
Direct configuration=    11
   0.67008233 -0.00000048  0.10053041
   0.32991620 -0.00000048  0.10053041
   0.00000048  0.32991667  0.10053041
   0.00000048  0.67008280  0.10053041
   0.32991620  0.32991667  0.10053041
   0.67008233  0.67008280  0.10053041
   0.66666600  0.33333300  0.09958349
   0.33333300  0.66666600  0.10155436
   0.33342645  0.16671323  0.47006442
   0.49998177 -0.00003646  0.47005565
   0.33333267  0.66666633  0.47004595
   0.49998177  0.50001723  0.47005565
   0.83328577  0.16671323  0.47006442
   0.99999967  0.99999933  0.47007354
   0.83328577  0.66657255  0.47006442
   0.00003546  0.50001723  0.47005565
Direct configuration=    12
   0.67008088 -0.00000101  0.10109522
   0.32991711 -0.00000101  0.10109522
   0.00000101  0.32991812  0.10109522
   0.00000101  0.67008189  0.10109522
   0.32991711  0.32991812  0.10109522
   0.67008088  0.67008189  0.10109522
   0.66666600  0.33333300  0.09997079
   0.33333300  0.66666600  0.10237811
   0.33353203  0.16676602  0.46949416
   0.49996161 -0.00007677  0.46947609
   0.33333267  0.66666633  0.46945615
   0.49996161  0.50003739  0.46947609
   0.83323298  0.16676602  0.46949416
   0.99999967  0.99999933  0.46951289
   0.83323298  0.66646697  0.46949416
   0.00007577  0.50003739  0.46947609
Direct configuration=    13
   0.67007798 -0.00000209  0.10222483
   0.32991893 -0.00000209  0.10222483
   0.00000209  0.32992102  0.10222483
   0.00000209  0.67008007  0.10222483
   0.32991893  0.32992102  0.10222483
   0.67007798  0.67008007  0.10222483
   0.66666600  0.33333300  0.10074539
   0.33333300  0.66666600  0.10402560
   0.33374319  0.16687160  0.46835363
   0.49992130 -0.00015741  0.46831699
   0.33333267  0.66666633  0.46827655
   0.49992130  0.50007770  0.46831699
   0.83312740  0.16687160  0.46835363
   0.99999967  0.99999933  0.46839161
   0.83312740  0.66625581  0.46835363
   0.00015641  0.50007770  0.46831699
Direct configuration=    14
   0.67007218 -0.00000425  0.10448406
   0.32992257 -0.00000425  0.10448406
   0.00000425  0.32992682  0.10448406
   0.00000425  0.67007643  0.10448406
   0.32992257  0.32992682  0.10448406
   0.67007218  0.67007643  0.10448406
   0.66666600  0.33333300  0.10229458
   0.33333300  0.66666600  0.10732059
   0.33416551  0.16708276  0.46607258
   0.49984066 -0.00031867  0.46599877
   0.33333267  0.66666633  0.46591736
   0.49984066  0.50015834  0.46599877
   0.83291624  0.16708276  0.46607258
   0.99999967  0.99999933  0.46614903
   0.83291624  0.66583349  0.46607258
   0.00031767  0.50015834  0.46599877
Direct configuration=    15
   0.67006058 -0.00000856  0.10900253
   0.32992986 -0.00000856  0.10900253
   0.00000856  0.32993842  0.10900253
   0.00000856  0.67006914  0.10900253
   0.32992986  0.32993842  0.10900253
   0.67006058  0.67006914  0.10900253
   0.66666600  0.33333300  0.10539298
   0.33333300  0.66666600  0.11391056
   0.33501015  0.16750508  0.46151048
   0.49967940 -0.00064120  0.46136233
   0.33333267  0.66666633  0.46119897
   0.49967940  0.50031960  0.46136233
   0.83249392  0.16750508  0.46151048
   0.99999967  0.99999933  0.46166389
   0.83249392  0.66498885  0.46151048
   0.00064020  0.50031960  0.46136233
Direct configuration=    16
   0.67003738 -0.00001719  0.11803946
   0.32994443 -0.00001719  0.11803946
   0.00001719  0.32996162  0.11803946
   0.00001719  0.67005457  0.11803946
   0.32994443  0.32996162  0.11803946
   0.67003738  0.67005457  0.11803946
   0.66666600  0.33333300  0.11158976
   0.33333300  0.66666600  0.12709049
   0.33669943  0.16834971  0.45238628
   0.49935687 -0.00128626  0.45208946
   0.33333267  0.66666633  0.45176219
   0.49935687  0.50064213  0.45208946
   0.83164929  0.16834971  0.45238628
   0.99999967  0.99999933  0.45269360
   0.83164929  0.66329957  0.45238628
   0.00128526  0.50064213  0.45208946
Direct configuration=    17
   0.67003737 -0.00001719  0.11804043
   0.32994444 -0.00001719  0.11804043
   0.00001719  0.32996163  0.11804043
   0.00001719  0.67005456  0.11804043
   0.32994444  0.32996163  0.11804043
   0.67003737  0.67005456  0.11804043
   0.66666600  0.33333300  0.11159042
   0.33333300  0.66666600  0.12709190
   0.33669949  0.16834974  0.45238530
   0.49935686 -0.00128628  0.45208847
   0.33333267  0.66666633  0.45176119
   0.49935686  0.50064214  0.45208847
   0.83164926  0.16834974  0.45238530
   0.99999967  0.99999933  0.45269264
   0.83164926  0.66329951  0.45238530
   0.00128528  0.50064214  0.45208847
Direct configuration=    18
   0.67003734 -0.00001720  0.11804333
   0.32994445 -0.00001720  0.11804333
   0.00001720  0.32996166  0.11804333
   0.00001720  0.67005455  0.11804333
   0.32994445  0.32996166  0.11804333
   0.67003734  0.67005455  0.11804333
   0.66666600  0.33333300  0.11159241
   0.33333300  0.66666600  0.12709613
   0.33669967  0.16834983  0.45238237
   0.49935683 -0.00128635  0.45208549
   0.33333267  0.66666633  0.45175816
   0.49935683  0.50064217  0.45208549
   0.83164917  0.16834983  0.45238237
   0.99999967  0.99999933  0.45268975
   0.83164917  0.66329933  0.45238237
   0.00128535  0.50064217  0.45208549
Direct configuration=    19
   0.67003729 -0.00001723  0.11804913
   0.32994448 -0.00001723  0.11804913
   0.00001723  0.32996171  0.11804913
   0.00001723  0.67005452  0.11804913
   0.32994448  0.32996171  0.11804913
   0.67003729  0.67005452  0.11804913
   0.66666600  0.33333300  0.11159638
   0.33333300  0.66666600  0.12710459
   0.33670002  0.16835001  0.45237651
   0.49935676 -0.00128648  0.45207954
   0.33333267  0.66666633  0.45175212
   0.49935676  0.50064224  0.45207954
   0.83164899  0.16835001  0.45237651
   0.99999967  0.99999933  0.45268398
   0.83164899  0.66329898  0.45237651
   0.00128548  0.50064224  0.45207954
Direct configuration=    20
   0.67003719 -0.00001727  0.11806074
   0.32994454 -0.00001727  0.11806074
   0.00001727  0.32996181  0.11806074
   0.00001727  0.67005446  0.11806074
   0.32994454  0.32996181  0.11806074
   0.67003719  0.67005446  0.11806074
   0.66666600  0.33333300  0.11160432
   0.33333300  0.66666600  0.12712150
   0.33670073  0.16835036  0.45236478
   0.49935663 -0.00128675  0.45206764
   0.33333267  0.66666633  0.45174003
   0.49935663  0.50064237  0.45206764
   0.83164864  0.16835036  0.45236478
   0.99999967  0.99999933  0.45267243
   0.83164864  0.66329827  0.45236478
   0.00128575  0.50064237  0.45206764
Direct configuration=    21
   0.67003698 -0.00001736  0.11808395
   0.32994466 -0.00001736  0.11808395
   0.00001736  0.32996202  0.11808395
   0.00001736  0.67005434  0.11808395
   0.32994466  0.32996202  0.11808395
   0.67003698  0.67005434  0.11808395
   0.66666600  0.33333300  0.11162021
   0.33333300  0.66666600  0.12715533
   0.33670214  0.16835107  0.45234134
   0.49935636 -0.00128728  0.45204384
   0.33333267  0.66666633  0.45171585
   0.49935636  0.50064264  0.45204384
   0.83164793  0.16835107  0.45234134
   0.99999967  0.99999933  0.45264934
   0.83164793  0.66329686  0.45234134
   0.00128628  0.50064264  0.45204384
Direct configuration=    22
   0.67003657 -0.00001754  0.11813039
   0.32994490 -0.00001754  0.11813039
   0.00001754  0.32996243  0.11813039
   0.00001754  0.67005410  0.11813039
   0.32994490  0.32996243  0.11813039
   0.67003657  0.67005410  0.11813039
   0.66666600  0.33333300  0.11165199
   0.33333300  0.66666600  0.12722298
   0.33670498  0.16835249  0.45229444
   0.49935583 -0.00128834  0.45199624
   0.33333267  0.66666633  0.45166748
   0.49935583  0.50064317  0.45199624
   0.83164651  0.16835249  0.45229444
   0.99999967  0.99999933  0.45260316
   0.83164651  0.66329402  0.45229444
   0.00128734  0.50064317  0.45199624
Direct configuration=    23
   0.67003574 -0.00001789  0.11822325
   0.32994537 -0.00001789  0.11822325
   0.00001789  0.32996326  0.11822325
   0.00001789  0.67005363  0.11822325
   0.32994537  0.32996326  0.11822325
   0.67003574  0.67005363  0.11822325
   0.66666600  0.33333300  0.11171554
   0.33333300  0.66666600  0.12735829
   0.33671064  0.16835532  0.45220066
   0.49935477 -0.00129047  0.45190105
   0.33333267  0.66666633  0.45157076
   0.49935477  0.50064423  0.45190105
   0.83164368  0.16835532  0.45220066
   0.99999967  0.99999933  0.45251081
   0.83164368  0.66328836  0.45220066
   0.00128947  0.50064423  0.45190105
Direct configuration=    24
   0.67003408 -0.00001859  0.11840897
   0.32994633 -0.00001859  0.11840897
   0.00001859  0.32996492  0.11840897
   0.00001859  0.67005267  0.11840897
   0.32994633  0.32996492  0.11840897
   0.67003408  0.67005267  0.11840897
   0.66666600  0.33333300  0.11184265
   0.33333300  0.66666600  0.12762891
   0.33672198  0.16836099  0.45201308
   0.49935264 -0.00129472  0.45171065
   0.33333267  0.66666633  0.45137731
   0.49935264  0.50064636  0.45171065
   0.83163801  0.16836099  0.45201308
   0.99999967  0.99999933  0.45232609
   0.83163801  0.66327702  0.45201308
   0.00129372  0.50064636  0.45171065
Direct configuration=    25
   0.67003076 -0.00002000  0.11878042
   0.32994824 -0.00002000  0.11878042
   0.00002000  0.32996824  0.11878042
   0.00002000  0.67005076  0.11878042
   0.32994824  0.32996824  0.11878042
   0.67003076  0.67005076  0.11878042
   0.66666600  0.33333300  0.11209687
   0.33333300  0.66666600  0.12817015
   0.33674464  0.16837232  0.45163794
   0.49934839 -0.00130322  0.45132987
   0.33333267  0.66666633  0.45099041
   0.49934839  0.50065061  0.45132987
   0.83162668  0.16837232  0.45163794
   0.99999967  0.99999933  0.45195665
   0.83162668  0.66325436  0.45163794
   0.00130222  0.50065061  0.45132987
Direct configuration=    26
   0.67002412 -0.00002283  0.11952331
   0.32995205 -0.00002283  0.11952331
   0.00002283  0.32997488  0.11952331
   0.00002283  0.67004695  0.11952331
   0.32995205  0.32997488  0.11952331
   0.67002412  0.67004695  0.11952331
   0.66666600  0.33333300  0.11260531
   0.33333300  0.66666600  0.12925262
   0.33678997  0.16839498  0.45088764
   0.49933989 -0.00132023  0.45056829
   0.33333267  0.66666633  0.45021661
   0.49933989  0.50065911  0.45056829
   0.83160402  0.16839498  0.45088764
   0.99999967  0.99999933  0.45121778
   0.83160402  0.66320903  0.45088764
   0.00131923  0.50065911  0.45056829
Direct configuration=    27
   0.67001084 -0.00002847  0.12100910
   0.32995969 -0.00002847  0.12100910
   0.00002847  0.32998816  0.12100910
   0.00002847  0.67003931  0.12100910
   0.32995969  0.32998816  0.12100910
   0.67001084  0.67003931  0.12100910
   0.66666600  0.33333300  0.11362219
   0.33333300  0.66666600  0.13141756
   0.33688062  0.16844031  0.44938706
   0.49932288 -0.00135424  0.44904514
   0.33333267  0.66666633  0.44866900
   0.49932288  0.50067612  0.44904514
   0.83155869  0.16844031  0.44938706
   0.99999967  0.99999933  0.44974003
   0.83155869  0.66311838  0.44938706
   0.00135324  0.50067612  0.44904514
Direct configuration=    28
   0.66998428 -0.00003976  0.12398069
   0.32997496 -0.00003976  0.12398069
   0.00003976  0.33001472  0.12398069
   0.00003976  0.67002404  0.12398069
   0.32997496  0.33001472  0.12398069
   0.66998428  0.67002404  0.12398069
   0.66666600  0.33333300  0.11565595
   0.33333300  0.66666600  0.13574745
   0.33706193  0.16853097  0.44638588
   0.49928887 -0.00142226  0.44599884
   0.33333267  0.66666633  0.44557379
   0.49928887  0.50071013  0.44599884
   0.83146803  0.16853097  0.44638588
   0.99999967  0.99999933  0.44678453
   0.83146803  0.66293707  0.44638588
   0.00142126  0.50071013  0.44599884
Direct configuration=    29
   0.66993117 -0.00006233  0.12992385
   0.33000550 -0.00006233  0.12992385
   0.00006233  0.33006783  0.12992385
   0.00006233  0.66999350  0.12992385
   0.33000550  0.33006783  0.12992385
   0.66993117  0.66999350  0.12992385
   0.66666600  0.33333300  0.11972346
   0.33333300  0.66666600  0.14440722
   0.33742455  0.16871228  0.44038353
   0.49922085 -0.00155830  0.43990624
   0.33333267  0.66666633  0.43938338
   0.49922085  0.50077815  0.43990624
   0.83128672  0.16871228  0.44038353
   0.99999967  0.99999933  0.44087354
   0.83128672  0.66257445  0.44038353
   0.00155730  0.50077815  0.43990624
Direct configuration=    30
   0.66982494 -0.00010749  0.14181017
   0.33006657 -0.00010749  0.14181017
   0.00010749  0.33017406  0.14181017
   0.00010749  0.66993243  0.14181017
   0.33006657  0.33017406  0.14181017
   0.66982494  0.66993243  0.14181017
   0.66666600  0.33333300  0.12785849
   0.33333300  0.66666600  0.16172676
   0.33814979  0.16907490  0.42837883
   0.49908481 -0.00183038  0.42772104
   0.33333267  0.66666633  0.42700254
   0.49908481  0.50091419  0.42772104
   0.83092410  0.16907490  0.42837883
   0.99999967  0.99999933  0.42905156
   0.83092410  0.66184921  0.42837883
   0.00182938  0.50091419  0.42772104
Direct configuration=    31
   0.66961249 -0.00019779  0.16558281
   0.33018872 -0.00019779  0.16558281
   0.00019779  0.33038651  0.16558281
   0.00019779  0.66981028  0.16558281
   0.33018872  0.33038651  0.16558281
   0.66961249  0.66981028  0.16558281
   0.66666600  0.33333300  0.14412854
   0.33333300  0.66666600  0.19636585
   0.33960027  0.16980014  0.40436944
   0.49881273 -0.00237455  0.40335065
   0.33333267  0.66666633  0.40224088
   0.49881273  0.50118627  0.40335065
   0.83019886  0.16980014  0.40436944
   0.99999967  0.99999933  0.40540759
   0.83019886  0.66039873  0.40436944
   0.00237355  0.50118627  0.40335065
Direct configuration=    32
   0.66978516 -0.00012440  0.14626182
   0.33008945 -0.00012440  0.14626182
   0.00012440  0.33021384  0.14626182
   0.00012440  0.66990955  0.14626182
   0.33008945  0.33021384  0.14626182
   0.66978516  0.66990955  0.14626182
   0.66666600  0.33333300  0.13090521
   0.33333300  0.66666600  0.16821325
   0.33842141  0.16921070  0.42388285
   0.49903386 -0.00193228  0.42315746
   0.33333267  0.66666633  0.42236569
   0.49903386  0.50096514  0.42315746
   0.83078830  0.16921070  0.42388285
   0.99999967  0.99999933  0.42462400
   0.83078830  0.66157759  0.42388285
   0.00193128  0.50096514  0.42315746
Direct configuration=    33
   0.66971590 -0.00015383  0.15401136
   0.33012927 -0.00015383  0.15401136
   0.00015383  0.33028310  0.15401136
   0.00015383  0.66986973  0.15401136
   0.33012927  0.33028310  0.15401136
   0.66971590  0.66986973  0.15401136
   0.66666600  0.33333300  0.13620901
   0.33333300  0.66666600  0.17950510
   0.33889424  0.16944712  0.41605613
   0.49894516 -0.00210967  0.41521306
   0.33333267  0.66666633  0.41429375
   0.49894516  0.50105384  0.41521306
   0.83055188  0.16944712  0.41605613
   0.99999967  0.99999933  0.41691641
   0.83055188  0.66110476  0.41605613
   0.00210867  0.50105384  0.41521306
Direct configuration=    34
   0.66974267 -0.00014245  0.15101575
   0.33011387 -0.00014245  0.15101575
   0.00014245  0.33025633  0.15101575
   0.00014245  0.66988513  0.15101575
   0.33011387  0.33025633  0.15101575
   0.66974267  0.66988513  0.15101575
   0.66666600  0.33333300  0.13415881
   0.33333300  0.66666600  0.17514020
   0.33871147  0.16935573  0.41908157
   0.49897945 -0.00204110  0.41828399
   0.33333267  0.66666633  0.41741398
   0.49897945  0.50101955  0.41828399
   0.83064327  0.16935573  0.41908157
   0.99999967  0.99999933  0.41989580
   0.83064327  0.66128753  0.41908157
   0.00204010  0.50101955  0.41828399
Direct configuration=    35
   0.66948488 -0.00025085  0.15668652
   0.33026328 -0.00025085  0.15668652
   0.00025085  0.33051412  0.15668652
   0.00025085  0.66973572  0.15668652
   0.33026328  0.33051412  0.15668652
   0.66948488  0.66973572  0.15668652
   0.66666600  0.33333300  0.13805833
   0.33333300  0.66666600  0.18330961
   0.33809374  0.16904687  0.41335531
   0.49910538 -0.00178925  0.41248948
   0.33333267  0.66666633  0.41154502
   0.49910538  0.50089362  0.41248948
   0.83095213  0.16904687  0.41335531
   0.99999967  0.99999933  0.41423356
   0.83095213  0.66190526  0.41335531
   0.00178825  0.50089362  0.41248948
Direct configuration=    36
   0.66935451 -0.00030566  0.15955418
   0.33033883 -0.00030566  0.15955418
   0.00030566  0.33064449  0.15955418
   0.00030566  0.66966017  0.15955418
   0.33033883  0.33064449  0.15955418
   0.66935451  0.66966017  0.15955418
   0.66666600  0.33333300  0.14003028
   0.33333300  0.66666600  0.18744082
   0.33778136  0.16889068  0.41045959
   0.49916906 -0.00166189  0.40955924
   0.33333267  0.66666633  0.40857713
   0.49916906  0.50082994  0.40955924
   0.83110832  0.16889068  0.41045959
   0.99999967  0.99999933  0.41137022
   0.83110832  0.66221764  0.41045959
   0.00166089  0.50082994  0.40955924
Direct configuration=    37
   0.66915650 -0.00039296  0.15893749
   0.33044954 -0.00039296  0.15893749
   0.00039296  0.33084250  0.15893749
   0.00039296  0.66954946  0.15893749
   0.33044954  0.33084250  0.15893749
   0.66915650  0.66954946  0.15893749
   0.66666600  0.33333300  0.13965698
   0.33333300  0.66666600  0.18639732
   0.33697362  0.16848681  0.41108415
   0.49933250 -0.00133499  0.41021613
   0.33333267  0.66666633  0.40926172
   0.49933250  0.50066650  0.41021613
   0.83151219  0.16848681  0.41108415
   0.99999967  0.99999933  0.41195819
   0.83151219  0.66302538  0.41108415
   0.00133399  0.50066650  0.41021613
Direct configuration=    38
   0.66856247 -0.00065487  0.15708744
   0.33078166 -0.00065487  0.15708744
   0.00065487  0.33143653  0.15708744
   0.00065487  0.66921734  0.15708744
   0.33078166  0.33143653  0.15708744
   0.66856247  0.66921734  0.15708744
   0.66666600  0.33333300  0.13853707
   0.33333300  0.66666600  0.18326684
   0.33455040  0.16727520  0.41295782
   0.49982285 -0.00035430  0.41218680
   0.33333267  0.66666633  0.41131549
   0.49982285  0.50017615  0.41218680
   0.83272380  0.16727520  0.41295782
   0.99999967  0.99999933  0.41372209
   0.83272380  0.66544860  0.41295782
   0.00035330  0.50017615  0.41218680
Direct configuration=    39
   0.66737441 -0.00117869  0.15338733
   0.33144590 -0.00117869  0.15338733
   0.00117869  0.33262459  0.15338733
   0.00117869  0.66855310  0.15338733
   0.33144590  0.33262459  0.15338733
   0.66737441  0.66855310  0.15338733
   0.66666600  0.33333300  0.13629726
   0.33333300  0.66666600  0.17700587
   0.32970396  0.16485198  0.41670517
   0.50080354  0.00160707  0.41612816
   0.33333267  0.66666633  0.41542301
   0.50080354  0.49919546  0.41612816
   0.83514702  0.16485198  0.41670517
   0.99999967  0.99999933  0.41724990
   0.83514702  0.67029504  0.41670517
  -0.00160807  0.49919546  0.41612816
Direct configuration=    40
   0.66817362 -0.00082631  0.15587641
   0.33099906 -0.00082631  0.15587641
   0.00082631  0.33182538  0.15587641
   0.00082631  0.66899994  0.15587641
   0.33099906  0.33182538  0.15587641
   0.66817362  0.66899994  0.15587641
   0.66666600  0.33333300  0.13780399
   0.33333300  0.66666600  0.18121765
   0.33296418  0.16648209  0.41418432
   0.50014382  0.00028765  0.41347679
   0.33333267  0.66666633  0.41265986
   0.50014382  0.49985518  0.41347679
   0.83351691  0.16648209  0.41418432
   0.99999967  0.99999933  0.41487673
   0.83351691  0.66703482  0.41418432
  -0.00028865  0.49985518  0.41347679
Direct configuration=    41
   0.66805044 -0.00083028  0.15584160
   0.33111828 -0.00083028  0.15584160
   0.00083028  0.33194856  0.15584160
   0.00083028  0.66888072  0.15584160
   0.33111828  0.33194856  0.15584160
   0.66805044  0.66888072  0.15584160
   0.66666600  0.33333300  0.13785591
   0.33333300  0.66666600  0.18094209
   0.33304264  0.16652132  0.41421827
   0.50011414  0.00022828  0.41355137
   0.33333267  0.66666633  0.41277618
   0.50011414  0.49988486  0.41355137
   0.83347768  0.16652132  0.41421827
   0.99999967  0.99999933  0.41486730
   0.83347768  0.66695636  0.41421827
  -0.00022928  0.49988486  0.41355137
Direct configuration=    42
   0.66768089 -0.00084217  0.15573717
   0.33147594 -0.00084217  0.15573717
   0.00084217  0.33231811  0.15573717
   0.00084217  0.66852306  0.15573717
   0.33147594  0.33231811  0.15573717
   0.66768089  0.66852306  0.15573717
   0.66666600  0.33333300  0.13801168
   0.33333300  0.66666600  0.18011544
   0.33327803  0.16663901  0.41432012
   0.50002509  0.00005018  0.41377511
   0.33333267  0.66666633  0.41312515
   0.50002509  0.49997391  0.41377511
   0.83335999  0.16663901  0.41432012
   0.99999967  0.99999933  0.41483903
   0.83335999  0.66672097  0.41432012
  -0.00005118  0.49997391  0.41377511
Direct configuration=    43
   0.66694179 -0.00086596  0.15552831
   0.33219125 -0.00086596  0.15552831
   0.00086596  0.33305721  0.15552831
   0.00086596  0.66780775  0.15552831
   0.33219125  0.33305721  0.15552831
   0.66694179  0.66780775  0.15552831
   0.66666600  0.33333300  0.13832321
   0.33333300  0.66666600  0.17846213
   0.33374881  0.16687440  0.41452383
   0.49984699 -0.00030602  0.41422259
   0.33333267  0.66666633  0.41382307
   0.49984699  0.50015201  0.41422259
   0.83312460  0.16687440  0.41452383
   0.99999967  0.99999933  0.41478247
   0.83312460  0.66625019  0.41452383
   0.00030502  0.50015201  0.41422259
Direct configuration=    44
   0.66726532 -0.00071780  0.15550523
   0.33201589 -0.00071780  0.15550523
   0.00071780  0.33273368  0.15550523
   0.00071780  0.66798311  0.15550523
   0.33201589  0.33273368  0.15550523
   0.66726532  0.66798311  0.15550523
   0.66666600  0.33333300  0.13855326
   0.33333300  0.66666600  0.17770950
   0.33352757  0.16676378  0.41454933
   0.49995521 -0.00008959  0.41436199
   0.33333267  0.66666633  0.41408056
   0.49995521  0.50004379  0.41436199
   0.83323522  0.16676378  0.41454933
   0.99999967  0.99999933  0.41469136
   0.83323522  0.66647143  0.41454933
   0.00008859  0.50004379  0.41436199
Direct configuration=    45
   0.66823591 -0.00027331  0.15543597
   0.33148979 -0.00027331  0.15543597
   0.00027331  0.33176309  0.15543597
   0.00027331  0.66850921  0.15543597
   0.33148979  0.33176309  0.15543597
   0.66823591  0.66850921  0.15543597
   0.66666600  0.33333300  0.13924339
   0.33333300  0.66666600  0.17545161
   0.33286384  0.16643192  0.41462583
   0.50027985  0.00055971  0.41478019
   0.33333267  0.66666633  0.41485304
   0.50027985  0.49971915  0.41478019
   0.83356708  0.16643192  0.41462583
   0.99999967  0.99999933  0.41441805
   0.83356708  0.66713516  0.41462583
  -0.00056071  0.49971915  0.41478019
Direct configuration=    46
   0.66848252 -0.00016037  0.15541838
   0.33135612 -0.00016037  0.15541838
   0.00016037  0.33151648  0.15541838
   0.00016037  0.66864288  0.15541838
   0.33135612  0.33151648  0.15541838
   0.66848252  0.66864288  0.15541838
   0.66666600  0.33333300  0.13941874
   0.33333300  0.66666600  0.17487792
   0.33269520  0.16634760  0.41464527
   0.50036234  0.00072469  0.41488645
   0.33333267  0.66666633  0.41504932
   0.50036234  0.49963666  0.41488645
   0.83365140  0.16634760  0.41464527
   0.99999967  0.99999933  0.41434861
   0.83365140  0.66730380  0.41464527
  -0.00072569  0.49963666  0.41488645
Direct configuration=    47
   0.66879723 -0.00014862  0.15543551
   0.33105315 -0.00014862  0.15543551
   0.00014862  0.33120177  0.15543551
   0.00014862  0.66894585  0.15543551
   0.33105315  0.33120177  0.15543551
   0.66879723  0.66894585  0.15543551
   0.66666600  0.33333300  0.13985083
   0.33333300  0.66666600  0.17362159
   0.33326315  0.16663157  0.41467055
   0.50005517  0.00011034  0.41503869
   0.33333267  0.66666633  0.41533293
   0.50005517  0.49994383  0.41503869
   0.83336743  0.16663157  0.41467055