 vasp.6.3.2 27Jun22 (build Dec 22 2022 13:13:19) complex                        
  
 executed on             LinuxIFC date 2023.10.19  05:11:32
 running   48 mpi-ranks, with    1 threads/rank
 distrk:  each k-point on   48 cores,    1 groups
 distr:  one band on NCORE=   1 cores,   48 groups


--------------------------------------------------------------------------------------------------------


 INCAR:
   SYSTEM = Graphene
   ISTART = 0
   ICHARG = 2
   PREC = Accurate
   ENCUT = 450
   LCHARG = .FALSE.
   LWAVE = .FALSE.
   ALGO = Normal
   EDIFF = 1E-6
   EDIFFG = -1E-2
   SIGMA = 0.1
   ISMEAR = 0
   ISPIN = 1
   NSW = 100
   IBRION = 2
   ISIF = 2
   GGA = PE
   IVDW = 12

 POTCAR:    PAW_PBE C 08Apr2002                   
 POTCAR:    PAW_PBE C 08Apr2002                   
   SHA256 =  253f7b50bb8d59471dbedb8285d89021f4a42ed1a2c5d38a03a736e69125dd95 C/POTCAR              
   COPYR  = (c) Copyright 08Apr2002 Georg Kresse                                                    
   COPYR  = This file is part of the software VASP. Any use, copying, and all other rights are regul
   COPYR  = If you do not have a valid VASP license, you may not use, copy or distribute this file. 
   VRHFIN =C: s2p2                                                                                  
   LEXCH  = PE                                                                                      
   EATOM  =   147.1560 eV,   10.8157 Ry                                                             
                                                                                                    
   TITEL  = PAW_PBE C 08Apr2002                                                                     
   LULTRA =        F    use ultrasoft PP ?                                                          
   IUNSCR =        1    unscreen: 0-lin 1-nonlin 2-no                                               
   RPACOR =    1.200    partial core radius                                                         
   POMASS =   12.011; ZVAL   =    4.000    mass and valenz                                          
   RCORE  =    1.500    outmost cutoff radius                                                       
   RWIGS  =    1.630; RWIGS  =    0.863    wigner-seitz radius (au A)                               
   ENMAX  =  400.000; ENMIN  =  300.000 eV                                                          
   ICORE  =        2    local potential                                                             
   LCOR   =        T    correct aug charges                                                         
   LPAW   =        T    paw PP                                                                      
   EAUG   =  644.873                                                                                
   DEXC   =    0.000                                                                                
   RMAX   =    1.529    core radius for proj-oper                                                   
   RAUG   =    1.300    factor for augmentation sphere                                              
   RDEP   =    1.501    radius for radial grids                                                     
   RDEPT  =    1.300    core radius for aug-charge                                                  
                                                                                                    
   Atomic configuration                                                                             
    4 entries                                                                                       
     n  l   j            E        occ.                                                              
     1  0  0.50      -273.3789   2.0000                                                             
     2  0  0.50       -13.7508   2.0000                                                             
     2  1  0.50        -5.2854   2.0000                                                             
     3  2  1.50        -5.4423   0.0000                                                             
   Description                                                                                      
     l       E           TYP  RCUT    TYP  RCUT                                                     
     0    -13.7508458     23  1.200                                                                 
     0     -8.2022199     23  1.200                                                                 
     1     -5.2854383     23  1.500                                                                 
     1     34.0145650     23  1.500                                                                 
     2     -5.4423304      7  1.500                                                                 
  local pseudopotential read in
  partial core-charges read in
  partial kinetic energy density read in
  atomic valenz-charges read in
  non local Contribution for L=           0  read in
    real space projection operators read in
  non local Contribution for L=           0  read in
    real space projection operators read in
  non local Contribution for L=           1  read in
    real space projection operators read in
  non local Contribution for L=           1  read in
    real space projection operators read in
    PAW grid and wavefunctions read in
 
   number of l-projection  operators is LMAX  =           4
   number of lm-projection operators is LMMAX =           8
 
  PAW_PBE C 08Apr2002                   :
 energy of atom  1       EATOM= -147.1560
 kinetic energy error for atom=    0.0116 (will be added to EATOM!!)
 
 
 POSCAR: Graphene with lattice parameter 2.467
  positions in direct lattice
  No initial velocities read in
 exchange correlation table for  LEXCH =        8
   RHO(1)=    0.500       N(1)  =     2000
   RHO(2)=  100.500       N(2)  =     4000

 VTST: version 4.2, (08/11/21)

 CHAIN: initializing optimizer
 
 OPT: Using VASP Conjugate-Gradient optimizer
 CHAIN: Read ICHAIN            0
 
 POSCAR: Graphene with lattice parameter 2.467
  positions in direct lattice
  No initial velocities read in
 


--------------------------------------------------------------------------------------------------------


 ion  position               nearest neighbor table
   1  0.333  0.667  0.100-   2 1.42   2 1.42   2 1.42
   2  0.667  0.333  0.100-   1 1.42   1 1.42   1 1.42
 
  LATTYP: Found a hexagonal cell.
 ALAT       =     2.4670002848
 C/A-ratio  =     6.0802587225
  
  Lattice vectors:
  
 A1 = (   2.1364850000,   1.2335000000,   0.0000000000)
 A2 = (  -2.1364850000,   1.2335000000,   0.0000000000)
 A3 = (   0.0000000000,   0.0000000000,  15.0000000000)


Analysis of symmetry for initial positions (statically):
=====================================================================
 Subroutine PRICEL returns:
 Original cell was already a primitive cell.
 

 Routine SETGRP: Setting up the symmetry group for a 
 hexagonal supercell.


 Subroutine GETGRP returns: Found 24 space group operations
 (whereof 12 operations were pure point group operations)
 out of a pool of 24 trial point group operations.


The static configuration has the point symmetry C_6v.
 The point group associated with its full space group is D_6h.


Analysis of symmetry for dynamics (positions and initial velocities):
=====================================================================
 Subroutine PRICEL returns:
 Original cell was already a primitive cell.
 

 Routine SETGRP: Setting up the symmetry group for a 
 hexagonal supercell.


 Subroutine GETGRP returns: Found 24 space group operations
 (whereof 12 operations were pure point group operations)
 out of a pool of 24 trial point group operations.


The dynamic configuration has the point symmetry C_6v.
 The point group associated with its full space group is D_6h.


 Subroutine INISYM returns: Found 24 space group operations
 (whereof 12 operations are pure point group operations),
 and found     1 'primitive' translations


----------------------------------------------------------------------------------------

                                     Primitive cell                                     

  volume of cell :      79.0606

  direct lattice vectors                    reciprocal lattice vectors
     2.136485000  1.233500000  0.000000000     0.234029258  0.405350628  0.000000000
    -2.136485000  1.233500000  0.000000000    -0.234029258  0.405350628  0.000000000
     0.000000000  0.000000000 15.000000000     0.000000000  0.000000000  0.066666667

  length of vectors
     2.467000285  2.467000285 15.000000000     0.468058571  0.468058571  0.066666667

  position of ions in fractional coordinates (direct lattice)
     0.333333000  0.666666000  0.100000000
     0.666666000  0.333333000  0.100000000

  ion indices of the primitive-cell ions
   primitive index   ion index
                 1           1
                 2           2

----------------------------------------------------------------------------------------

 
 
 KPOINTS: k-points                                

Automatic generation of k-mesh.
 Grid dimensions read from file:
 generate k-points for:   12   12    1

 Generating k-lattice:

  Cartesian coordinates                     Fractional coordinates (reciprocal lattice)
     0.019502438  0.033779219  0.000000000     0.083333333 -0.000000000  0.000000000
    -0.019502438  0.033779219  0.000000000    -0.000000000  0.083333333  0.000000000
     0.000000000  0.000000000  0.066666667     0.000000000  0.000000000  1.000000000

  Length of vectors
     0.039004881  0.039004881  0.066666667

  Shift w.r.t. Gamma in fractional coordinates (k-lattice)
     0.000000000  0.000000000  0.000000000

 
 Subroutine IBZKPT returns following result:
 ===========================================
 
 Found     19 irreducible k-points:
 
 Following reciprocal coordinates:
            Coordinates               Weight
  0.000000  0.000000  0.000000      1.000000
  0.083333 -0.000000  0.000000      6.000000
  0.166667  0.000000  0.000000      6.000000
  0.250000 -0.000000  0.000000      6.000000
  0.333333  0.000000  0.000000      6.000000
  0.416667  0.000000  0.000000      6.000000
  0.500000 -0.000000  0.000000      3.000000
  0.083333  0.083333  0.000000      6.000000
  0.166667  0.083333  0.000000     12.000000
  0.250000  0.083333  0.000000     12.000000
  0.333333  0.083333  0.000000     12.000000
  0.416667  0.083333  0.000000     12.000000
  0.166667  0.166667  0.000000      6.000000
  0.250000  0.166667  0.000000     12.000000
  0.333333  0.166667  0.000000     12.000000
  0.416667  0.166667  0.000000      6.000000
  0.250000  0.250000  0.000000      6.000000
  0.333333  0.250000  0.000000     12.000000
  0.333333  0.333333  0.000000      2.000000
 
 Following cartesian coordinates:
            Coordinates               Weight
  0.000000  0.000000  0.000000      1.000000
  0.019502  0.033779  0.000000      6.000000
  0.039005  0.067558  0.000000      6.000000
  0.058507  0.101338  0.000000      6.000000
  0.078010  0.135117  0.000000      6.000000
  0.097512  0.168896  0.000000      6.000000
  0.117015  0.202675  0.000000      3.000000
  0.000000  0.067558  0.000000      6.000000
  0.019502  0.101338  0.000000     12.000000
  0.039005  0.135117  0.000000     12.000000
  0.058507  0.168896  0.000000     12.000000
  0.078010  0.202675  0.000000     12.000000
  0.000000  0.135117  0.000000      6.000000
  0.019502  0.168896  0.000000     12.000000
  0.039005  0.202675  0.000000     12.000000
  0.058507  0.236455  0.000000      6.000000
  0.000000  0.202675  0.000000      6.000000
  0.019502  0.236455  0.000000     12.000000
  0.000000  0.270234  0.000000      2.000000
 


--------------------------------------------------------------------------------------------------------




 Dimension of arrays:
   k-points           NKPTS =     19   k-points in BZ     NKDIM =     19   number of bands    NBANDS=     48
   number of dos      NEDOS =    301   number of ions     NIONS =      2
   non local maximal  LDIM  =      4   non local SUM 2l+1 LMDIM =      8
   total plane-waves  NPLWV =  34992
   max r-space proj   IRMAX =      1   max aug-charges    IRDMAX=   5422
   dimension x,y,z NGX =    18 NGY =   18 NGZ =  108
   dimension x,y,z NGXF=    36 NGYF=   36 NGZF=  216
   support grid    NGXF=    36 NGYF=   36 NGZF=  216
   ions per type =               2
   NGX,Y,Z   is equivalent  to a cutoff of  12.13, 12.13, 11.97 a.u.
   NGXF,Y,Z  is equivalent  to a cutoff of  24.26, 24.26, 23.94 a.u.

 SYSTEM =  Graphene                                
 POSCAR =  Graphene with lattice parameter 2.467   

 Startparameter for this run:
   NWRITE =      2    write-flag & timer
   PREC   = accura    normal or accurate (medium, high low for compatibility)
   ISTART =      0    job   : 0-new  1-cont  2-samecut
   ICHARG =      2    charge: 1-file 2-atom 10-const
   ISPIN  =      1    spin polarized calculation?
   LNONCOLLINEAR =      F non collinear calculations
   LSORBIT =      F    spin-orbit coupling
   INIWAV =      1    electr: 0-lowe 1-rand  2-diag
   LASPH  =      F    aspherical Exc in radial PAW
 Electronic Relaxation 1
   ENCUT  =  450.0 eV  33.07 Ry    5.75 a.u.   4.27  4.27 25.95*2*pi/ulx,y,z
   ENINI  =  450.0     initial cutoff
   ENAUG  =  644.9 eV  augmentation charge cutoff
   NELM   =     60;   NELMIN=  2; NELMDL= -5     # of ELM steps 
   EDIFF  = 0.1E-05   stopping-criterion for ELM
   LREAL  =      F    real-space projection
   NLSPLINE    = F    spline interpolate recip. space projectors
   LCOMPAT=      F    compatible to vasp.4.4
   GGA_COMPAT  = T    GGA compatible to vasp.4.4-vasp.4.6
   LMAXPAW     = -100 max onsite density
   LMAXMIX     =    2 max onsite mixed and CHGCAR
   VOSKOWN=      0    Vosko Wilk Nusair interpolation
   ROPT   =    0.00000
 Ionic relaxation
   EDIFFG = -.1E-01   stopping-criterion for IOM
   NSW    =    100    number of steps for IOM
   NBLOCK =      1;   KBLOCK =    100    inner block; outer block 
   IBRION =      2    ionic relax: 0-MD 1-quasi-New 2-CG
   NFREE  =      1    steps in history (QN), initial steepest desc. (CG)
   ISIF   =      2    stress and relaxation
   IWAVPR =     11    prediction:  0-non 1-charg 2-wave 3-comb
   ISYM   =      2    0-nonsym 1-usesym 2-fastsym
   LCORR  =      T    Harris-Foulkes like correction to forces

   POTIM  = 0.5000    time-step for ionic-motion
   TEIN   =    0.0    initial temperature
   TEBEG  =    0.0;   TEEND  =   0.0 temperature during run
   SMASS  =  -3.00    Nose mass-parameter (am)
   estimated Nose-frequenzy (Omega)   =  0.10E-29 period in steps = 0.13E+47 mass=  -0.139E-27a.u.
   SCALEE = 1.0000    scale energy and forces
   NPACO  =    256;   APACO  = 10.0  distance and # of slots for P.C.
   PSTRESS=    0.0 pullay stress

  Mass of Ions in am
   POMASS =  12.01
  Ionic Valenz
   ZVAL   =   4.00
  Atomic Wigner-Seitz radii
   RWIGS  =  -1.00
  virtual crystal weights 
   VCA    =   1.00
   NELECT =       8.0000    total number of electrons
   NUPDOWN=      -1.0000    fix difference up-down

 DOS related values:
   EMIN   =  10.00;   EMAX   =-10.00  energy-range for DOS
   EFERMI =   0.00
   ISMEAR =     0;   SIGMA  =   0.10  broadening in eV -4-tet -1-fermi 0-gaus

 Electronic relaxation 2 (details)
   IALGO  =     38    algorithm
   LDIAG  =      T    sub-space diagonalisation (order eigenvalues)
   LSUBROT=      F    optimize rotation matrix (better conditioning)
   TURBO    =      0    0=normal 1=particle mesh
   IRESTART =      0    0=no restart 2=restart with 2 vectors
   NREBOOT  =      0    no. of reboots
   NMIN     =      0    reboot dimension
   EREF     =   0.00    reference energy to select bands
   IMIX   =      4    mixing-type and parameters
     AMIX     =   0.40;   BMIX     =  1.00
     AMIX_MAG =   1.60;   BMIX_MAG =  1.00
     AMIN     =   0.10
     WC   =   100.;   INIMIX=   1;  MIXPRE=   1;  MAXMIX= -45

 Intra band minimization:
   WEIMIN = 0.0010     energy-eigenvalue tresh-hold
   EBREAK =  0.52E-08  absolut break condition
   DEPER  =   0.30     relativ break condition  

   TIME   =   0.40     timestep for ELM

  volume/ion in A,a.u.               =      39.53       266.76
  Fermi-wavevector in a.u.,A,eV,Ry     =   0.762872  1.441618  7.918223  0.581973
  Thomas-Fermi vector in A             =   1.862428
 
 Write flags
   LWAVE        =      F    write WAVECAR
   LDOWNSAMPLE  =      F    k-point downsampling of WAVECAR
   LCHARG       =      F    write CHGCAR
   LVTOT        =      F    write LOCPOT, total local potential
   LVHAR        =      F    write LOCPOT, Hartree potential only
   LELF         =      F    write electronic localiz. function (ELF)
   LORBIT       =      0    0 simple, 1 ext, 2 COOP (PROOUT), +10 PAW based schemes


 Dipole corrections
   LMONO  =      F    monopole corrections only (constant potential shift)
   LDIPOL =      F    correct potential (dipole corrections)
   IDIPOL =      0    1-x, 2-y, 3-z, 4-all directions 
   EPSILON=  1.0000000 bulk dielectric constant

 Exchange correlation treatment:
   GGA     =    PE    GGA type
   LEXCH   =     8    internal setting for exchange type
   LIBXC   =     F    Libxc                    
   VOSKOWN =     0    Vosko Wilk Nusair interpolation
   LHFCALC =     F    Hartree Fock is set to
   LHFONE  =     F    Hartree Fock one center treatment
   AEXX    =    0.0000 exact exchange contribution

 Linear response parameters
   LEPSILON=     F    determine dielectric tensor
   LRPA    =     F    only Hartree local field effects (RPA)
   LNABLA  =     F    use nabla operator in PAW spheres
   LVEL    =     F    velocity operator in full k-point grid
   CSHIFT  =0.1000    complex shift for real part using Kramers Kronig
   OMEGAMAX=  -1.0    maximum frequency
   DEG_THRESHOLD= 0.2000000E-02 threshold for treating states as degnerate
   RTIME   =   -0.100 relaxation time in fs
  (WPLASMAI=    0.000 imaginary part of plasma frequency in eV, 0.658/RTIME)
   DFIELD  = 0.0000000 0.0000000 0.0000000 field for delta impulse in time
 
  Optional k-point grid parameters
   LKPOINTS_OPT  =     F    use optional k-point grid
   KPOINTS_OPT_MODE=     1    mode for optional k-point grid
 
 Orbital magnetization related:
   ORBITALMAG=     F  switch on orbital magnetization
   LCHIMAG   =     F  perturbation theory with respect to B field
   DQ        =  0.001000  dq finite difference perturbation B field
   LLRAUG    =     F  two centre corrections for induced B field



--------------------------------------------------------------------------------------------------------


 conjugate gradient relaxation of ions
 charge density and potential will be updated during run
 non-spin polarized calculation
 Variant of blocked Davidson
 Davidson routine will perform the subspace rotation
 perform sub-space diagonalisation
    after iterative eigenvector-optimisation
 modified Broyden-mixing scheme, WC =      100.0
 initial mixing is a Kerker type mixing with AMIX =  0.4000 and BMIX =      1.0000
 Hartree-type preconditioning will be used
 using additional bands           44
 reciprocal scheme for non local part
 use partial core corrections
 calculate Harris-corrections to forces 
   (improved forces if not selfconsistent)
 use gradient corrections 
 use of overlap-Matrix (Vanderbilt PP)
 Gauss-broadening in eV      SIGMA  =   0.10


--------------------------------------------------------------------------------------------------------


  energy-cutoff  :      450.00
  volume of cell :       79.06
      direct lattice vectors                 reciprocal lattice vectors
     2.136485000  1.233500000  0.000000000     0.234029258  0.405350628  0.000000000
    -2.136485000  1.233500000  0.000000000    -0.234029258  0.405350628  0.000000000
     0.000000000  0.000000000 15.000000000     0.000000000  0.000000000  0.066666667

  length of vectors
     2.467000285  2.467000285 15.000000000     0.468058571  0.468058571  0.066666667


 
 k-points in units of 2pi/SCALE and weight: k-points                                
   0.00000000  0.00000000  0.00000000       0.007
   0.01950244  0.03377922  0.00000000       0.042
   0.03900488  0.06755844  0.00000000       0.042
   0.05850731  0.10133766  0.00000000       0.042
   0.07800975  0.13511688  0.00000000       0.042
   0.09751219  0.16889610  0.00000000       0.042
   0.11701463  0.20267531  0.00000000       0.021
   0.00000000  0.06755844  0.00000000       0.042
   0.01950244  0.10133766  0.00000000       0.083
   0.03900488  0.13511688  0.00000000       0.083
   0.05850731  0.16889610  0.00000000       0.083
   0.07800975  0.20267531  0.00000000       0.083
   0.00000000  0.13511688  0.00000000       0.042
   0.01950244  0.16889610  0.00000000       0.083
   0.03900488  0.20267531  0.00000000       0.083
   0.05850731  0.23645453  0.00000000       0.042
   0.00000000  0.20267531  0.00000000       0.042
   0.01950244  0.23645453  0.00000000       0.083
   0.00000000  0.27023375  0.00000000       0.014
 
 k-points in reciprocal lattice and weights: k-points                                
   0.00000000  0.00000000  0.00000000       0.007
   0.08333333 -0.00000000  0.00000000       0.042
   0.16666667  0.00000000  0.00000000       0.042
   0.25000000 -0.00000000  0.00000000       0.042
   0.33333333  0.00000000  0.00000000       0.042
   0.41666667  0.00000000  0.00000000       0.042
   0.50000000 -0.00000000  0.00000000       0.021
   0.08333333  0.08333333  0.00000000       0.042
   0.16666667  0.08333333  0.00000000       0.083
   0.25000000  0.08333333  0.00000000       0.083
   0.33333333  0.08333333  0.00000000       0.083
   0.41666667  0.08333333  0.00000000       0.083
   0.16666667  0.16666667  0.00000000       0.042
   0.25000000  0.16666667  0.00000000       0.083
   0.33333333  0.16666667  0.00000000       0.083
   0.41666667  0.16666667  0.00000000       0.042
   0.25000000  0.25000000  0.00000000       0.042
   0.33333333  0.25000000  0.00000000       0.083
   0.33333333  0.33333333  0.00000000       0.014
 
 position of ions in fractional coordinates (direct lattice) 
   0.33333300  0.66666600  0.10000000
   0.66666600  0.33333300  0.10000000
 
 position of ions in cartesian coordinates  (Angst):
  -0.71216095  1.23349877  1.50000000
   0.71216095  1.23349877  1.50000000
 


--------------------------------------------------------------------------------------------------------


 k-point   1 :   0.0000 0.0000 0.0000  plane waves:    1749
 k-point   2 :   0.0833-0.0000 0.0000  plane waves:    1731
 k-point   3 :   0.1667 0.0000 0.0000  plane waves:    1715
 k-point   4 :   0.2500-0.0000 0.0000  plane waves:    1713
 k-point   5 :   0.3333 0.0000 0.0000  plane waves:    1704
 k-point   6 :   0.4167 0.0000 0.0000  plane waves:    1716
 k-point   7 :   0.5000-0.0000 0.0000  plane waves:    1712
 k-point   8 :   0.0833 0.0833 0.0000  plane waves:    1723
 k-point   9 :   0.1667 0.0833 0.0000  plane waves:    1708
 k-point  10 :   0.2500 0.0833 0.0000  plane waves:    1707
 k-point  11 :   0.3333 0.0833 0.0000  plane waves:    1721
 k-point  12 :   0.4167 0.0833 0.0000  plane waves:    1711
 k-point  13 :   0.1667 0.1667 0.0000  plane waves:    1710
 k-point  14 :   0.2500 0.1667 0.0000  plane waves:    1718
 k-point  15 :   0.3333 0.1667 0.0000  plane waves:    1722
 k-point  16 :   0.4167 0.1667 0.0000  plane waves:    1724
 k-point  17 :   0.2500 0.2500 0.0000  plane waves:    1700
 k-point  18 :   0.3333 0.2500 0.0000  plane waves:    1708
 k-point  19 :   0.3333 0.3333 0.0000  plane waves:    1710

 maximum and minimum number of plane-waves per node :      1749     1700

 maximum number of plane-waves:      1749
 maximum index in each direction: 
   IXMAX=    4   IYMAX=    4   IZMAX=   25
   IXMIN=   -4   IYMIN=   -4   IZMIN=  -25


 serial   3D FFT for wavefunctions
 parallel 3D FFT for charge:
    minimum data exchange during FFTs selected (reduces bandwidth)


 total amount of memory used by VASP MPI-rank0    34960. kBytes
=======================================================================

   base      :      30000. kBytes
   nonl-proj :       2216. kBytes
   fftplans  :        404. kBytes
   grid      :       1780. kBytes
   one-center:          6. kBytes
   wavefun   :        554. kBytes
 
     INWAV:  cpu time      0.0000: real time      0.0000
 Broyden mixing: mesh for mixing (old mesh)
   NGX =  9   NGY =  9   NGZ = 51
  (NGX  = 36   NGY  = 36   NGZ  =216)
  gives a total of   4131 points

 initial charge density was supplied:
 charge density of overlapping atoms calculated
 number of electron       8.0000000 magnetization 
 keeping initial charge density in first step


--------------------------------------------------------------------------------------------------------


 Maximum index for augmentation-charges            0 (set IRDMAX)


--------------------------------------------------------------------------------------------------------


 First call to EWALD:  gamma=   0.413
 Maximum number of real-space cells 5x 5x 1
 Maximum number of reciprocal cells 2x 2x 8

    FEWALD:  cpu time      0.0016: real time      0.0018


--------------------------------------- Iteration      1(   1)  ---------------------------------------


    POTLOK:  cpu time      0.0080: real time      0.0094
    SETDIJ:  cpu time      0.0013: real time      0.0015
     EDDAV:  cpu time      0.3140: real time      0.3397
       DOS:  cpu time      0.0014: real time      0.0016
    --------------------------------------------
      LOOP:  cpu time      0.3248: real time      0.3522

 eigenvalue-minimisations  :  1824
 total energy-change (2. order) :-0.1029217E+02  (-0.3807459E+03)
 number of electron       8.0000000 magnetization 
 augmentation part        8.0000000 magnetization 

 Free energy of the ion-electron system (eV)
  ---------------------------------------------------
  alpha Z        PSCENC =         4.15613782
  Ewald energy   TEWEN  =       835.74566894
  -Hartree energ DENC   =     -1054.63199152
  -exchange      EXHF   =         0.00000000
  -V(xc)+E(xc)   XCENC  =        26.35432633
  PAW double counting   =       217.04409276     -218.18290438
  entropy T*S    EENTRO =        -0.00004069
  eigenvalues    EBANDS =      -115.06621524
  atomic energy  EATOM  =       294.28875697
  Solvation  Ediel_sol  =         0.00000000
  ---------------------------------------------------
  free energy    TOTEN  =       -10.29216901 eV

  energy without entropy =      -10.29212832  energy(sigma->0) =      -10.29214867


--------------------------------------------------------------------------------------------------------




--------------------------------------- Iteration      1(   2)  ---------------------------------------


     EDDAV:  cpu time      0.5300: real time      0.5522
       DOS:  cpu time      0.0004: real time      0.0004
    --------------------------------------------
      LOOP:  cpu time      0.5304: real time      0.5525

 eigenvalue-minimisations  :  2736
 total energy-change (2. order) :-0.9415313E+01  (-0.9413795E+01)
 number of electron       8.0000000 magnetization 
 augmentation part        8.0000000 magnetization 

 Free energy of the ion-electron system (eV)
  ---------------------------------------------------
  alpha Z        PSCENC =         4.15613782
  Ewald energy   TEWEN  =       835.74566894
  -Hartree energ DENC   =     -1054.63199152
  -exchange      EXHF   =         0.00000000
  -V(xc)+E(xc)   XCENC  =        26.35432633
  PAW double counting   =       217.04409276     -218.18290438
  entropy T*S    EENTRO =        -0.00156718
  eigenvalues    EBANDS =      -124.48000175
  atomic energy  EATOM  =       294.28875697
  Solvation  Ediel_sol  =         0.00000000
  ---------------------------------------------------
  free energy    TOTEN  =       -19.70748201 eV

  energy without entropy =      -19.70591483  energy(sigma->0) =      -19.70669842


--------------------------------------------------------------------------------------------------------




--------------------------------------- Iteration      1(   3)  ---------------------------------------


     EDDAV:  cpu time      0.2848: real time      0.2926
       DOS:  cpu time      0.0004: real time      0.0004
    --------------------------------------------
      LOOP:  cpu time      0.2852: real time      0.2930

 eigenvalue-minimisations  :  1824
 total energy-change (2. order) :-0.8041846E-02  (-0.8041832E-02)
 number of electron       8.0000000 magnetization 
 augmentation part        8.0000000 magnetization 

 Free energy of the ion-electron system (eV)
  ---------------------------------------------------
  alpha Z        PSCENC =         4.15613782
  Ewald energy   TEWEN  =       835.74566894
  -Hartree energ DENC   =     -1054.63199152
  -exchange      EXHF   =         0.00000000
  -V(xc)+E(xc)   XCENC  =        26.35432633
  PAW double counting   =       217.04409276     -218.18290438
  entropy T*S    EENTRO =        -0.00156719
  eigenvalues    EBANDS =      -124.48804358
  atomic energy  EATOM  =       294.28875697
  Solvation  Ediel_sol  =         0.00000000
  ---------------------------------------------------
  free energy    TOTEN  =       -19.71552386 eV

  energy without entropy =      -19.71395666  energy(sigma->0) =      -19.71474026


--------------------------------------------------------------------------------------------------------




--------------------------------------- Iteration      1(   4)  ---------------------------------------


     EDDAV:  cpu time      0.8321: real time      0.8464
       DOS:  cpu time      0.0004: real time      0.0004
    --------------------------------------------
      LOOP:  cpu time      0.8324: real time      0.8468

 eigenvalue-minimisations  :  3552
 total energy-change (2. order) :-0.1113523E-04  (-0.1113513E-04)
 number of electron       8.0000000 magnetization 
 augmentation part        8.0000000 magnetization 

 Free energy of the ion-electron system (eV)
  ---------------------------------------------------
  alpha Z        PSCENC =         4.15613782
  Ewald energy   TEWEN  =       835.74566894
  -Hartree energ DENC   =     -1054.63199152
  -exchange      EXHF   =         0.00000000
  -V(xc)+E(xc)   XCENC  =        26.35432633
  PAW double counting   =       217.04409276     -218.18290438
  entropy T*S    EENTRO =        -0.00156719
  eigenvalues    EBANDS =      -124.48805472
  atomic energy  EATOM  =       294.28875697
  Solvation  Ediel_sol  =         0.00000000
  ---------------------------------------------------
  free energy    TOTEN  =       -19.71553499 eV

  energy without entropy =      -19.71396780  energy(sigma->0) =      -19.71475140


--------------------------------------------------------------------------------------------------------




--------------------------------------- Iteration      1(   5)  ---------------------------------------


     EDDAV:  cpu time      0.2823: real time      0.2860
       DOS:  cpu time      0.0003: real time      0.0003
    CHARGE:  cpu time      0.0119: real time      0.0130
    MIXING:  cpu time      0.0021: real time      0.0021
    --------------------------------------------
      LOOP:  cpu time      0.2966: real time      0.3014

 eigenvalue-minimisations  :  1824
 total energy-change (2. order) : 0.4483809E-09  (-0.1024367E-09)
 number of electron       7.9999997 magnetization 
 augmentation part        0.2130096 magnetization 

 Broyden mixing:
  rms(total) = 0.63323E+00    rms(broyden)= 0.63315E+00
  rms(prec ) = 0.70866E+00
  weight for this iteration     100.00

 Free energy of the ion-electron system (eV)
  ---------------------------------------------------
  alpha Z        PSCENC =         4.15613782
  Ewald energy   TEWEN  =       835.74566894
  -Hartree energ DENC   =     -1054.63199152
  -exchange      EXHF   =         0.00000000
  -V(xc)+E(xc)   XCENC  =        26.35432633
  PAW double counting   =       217.04409276     -218.18290438
  entropy T*S    EENTRO =        -0.00156719
  eigenvalues    EBANDS =      -124.48805472
  atomic energy  EATOM  =       294.28875697
  Solvation  Ediel_sol  =         0.00000000
  ---------------------------------------------------
  free energy    TOTEN  =       -19.71553499 eV

  energy without entropy =      -19.71396780  energy(sigma->0) =      -19.71475140


--------------------------------------------------------------------------------------------------------




--------------------------------------- Iteration      1(   6)  ---------------------------------------


    POTLOK:  cpu time      0.0051: real time      0.0052
    SETDIJ:  cpu time      0.0011: real time      0.0011
     EDDAV:  cpu time      0.5097: real time      0.5167
       DOS:  cpu time      0.0004: real time      0.0004
    CHARGE:  cpu time      0.0101: real time      0.0111
    MIXING:  cpu time      0.0005: real time      0.0008
    --------------------------------------------
      LOOP:  cpu time      0.5268: real time      0.5352

 eigenvalue-minimisations  :  2640
 total energy-change (2. order) : 0.9073694E+00  (-0.8850240E-01)
 number of electron       7.9999998 magnetization 
 augmentation part        0.2029279 magnetization 

 Broyden mixing:
  rms(total) = 0.37624E+00    rms(broyden)= 0.37623E+00
  rms(prec ) = 0.41371E+00
  weight for this iteration     100.00

 eigenvalues of (default mixing * dielectric matrix)
  average eigenvalue GAMMA=   2.2056
  2.2056

 Free energy of the ion-electron system (eV)
  ---------------------------------------------------
  alpha Z        PSCENC =         4.15613782
  Ewald energy   TEWEN  =       835.74566894
  -Hartree energ DENC   =     -1065.65688291
  -exchange      EXHF   =         0.00000000
  -V(xc)+E(xc)   XCENC  =        26.83306502
  PAW double counting   =       401.28426164     -402.57207133
  entropy T*S    EENTRO =        -0.00156719
  eigenvalues    EBANDS =      -112.88553456
  atomic energy  EATOM  =       294.28875697
  Solvation  Ediel_sol  =         0.00000000
  ---------------------------------------------------
  free energy    TOTEN  =       -18.80816561 eV

  energy without entropy =      -18.80659842  energy(sigma->0) =      -18.80738202


--------------------------------------------------------------------------------------------------------




--------------------------------------- Iteration      1(   7)  ---------------------------------------


    POTLOK:  cpu time      0.0046: real time      0.0048
    SETDIJ:  cpu time      0.0009: real time      0.0009
     EDDAV:  cpu time      0.5511: real time      0.5599
       DOS:  cpu time      0.0004: real time      0.0004
    CHARGE:  cpu time      0.0102: real time      0.0116
    MIXING:  cpu time      0.0007: real time      0.0007
    --------------------------------------------
      LOOP:  cpu time      0.5678: real time      0.5783

 eigenvalue-minimisations  :  2832
 total energy-change (2. order) : 0.3507269E+00  (-0.1152964E+00)
 number of electron       7.9999998 magnetization 
 augmentation part        0.1915987 magnetization 

 Broyden mixing:
  rms(total) = 0.93404E-01    rms(broyden)= 0.93329E-01
  rms(prec ) = 0.99817E-01
  weight for this iteration     100.00

 eigenvalues of (default mixing * dielectric matrix)
  average eigenvalue GAMMA=   2.1126
  2.1126  2.1126

 Free energy of the ion-electron system (eV)
  ---------------------------------------------------
  alpha Z        PSCENC =         4.15613782
  Ewald energy   TEWEN  =       835.74566894
  -Hartree energ DENC   =     -1080.38245340
  -exchange      EXHF   =         0.00000000
  -V(xc)+E(xc)   XCENC  =        27.46945395
  PAW double counting   =       764.30926450     -765.72804227
  entropy T*S    EENTRO =        -0.00156719
  eigenvalues    EBANDS =       -98.31465799
  atomic energy  EATOM  =       294.28875697
  Solvation  Ediel_sol  =         0.00000000
  ---------------------------------------------------
  free energy    TOTEN  =       -18.45743867 eV

  energy without entropy =      -18.45587148  energy(sigma->0) =      -18.45665508


--------------------------------------------------------------------------------------------------------




--------------------------------------- Iteration      1(   8)  ---------------------------------------


    POTLOK:  cpu time      0.0042: real time      0.0042
    SETDIJ:  cpu time      0.0009: real time      0.0009
     EDDAV:  cpu time      0.6505: real time      0.6552
       DOS:  cpu time      0.0004: real time      0.0004
    CHARGE:  cpu time      0.0099: real time      0.0122
    MIXING:  cpu time      0.0005: real time      0.0008
    --------------------------------------------
      LOOP:  cpu time      0.6664: real time      0.6738

 eigenvalue-minimisations  :  3024
 total energy-change (2. order) : 0.7314794E-02  (-0.5992905E-03)
 number of electron       7.9999998 magnetization 
 augmentation part        0.1921466 magnetization 

 Broyden mixing:
  rms(total) = 0.11505E-01    rms(broyden)= 0.11488E-01
  rms(prec ) = 0.23754E-01
  weight for this iteration     100.00

 eigenvalues of (default mixing * dielectric matrix)
  average eigenvalue GAMMA=   2.0694
  1.5258  2.6686  2.0139

 Free energy of the ion-electron system (eV)
  ---------------------------------------------------
  alpha Z        PSCENC =         4.15613782
  Ewald energy   TEWEN  =       835.74566894
  -Hartree energ DENC   =     -1082.16158544
  -exchange      EXHF   =         0.00000000
  -V(xc)+E(xc)   XCENC  =        27.47748140
  PAW double counting   =       841.17819882     -842.54815875
  entropy T*S    EENTRO =        -0.00156719
  eigenvalues    EBANDS =       -96.58505643
  atomic energy  EATOM  =       294.28875697
  Solvation  Ediel_sol  =         0.00000000
  ---------------------------------------------------
  free energy    TOTEN  =       -18.45012388 eV

  energy without entropy =      -18.44855669  energy(sigma->0) =      -18.44934028


--------------------------------------------------------------------------------------------------------




--------------------------------------- Iteration      1(   9)  ---------------------------------------


    POTLOK:  cpu time      0.0044: real time      0.0050
    SETDIJ:  cpu time      0.0008: real time      0.0021
     EDDAV:  cpu time      0.5618: real time      0.5709
       DOS:  cpu time      0.0004: real time      0.0004
    CHARGE:  cpu time      0.0098: real time      0.0103
    MIXING:  cpu time      0.0003: real time      0.0003
    --------------------------------------------
      LOOP:  cpu time      0.5775: real time      0.5889

 eigenvalue-minimisations  :  2880
 total energy-change (2. order) : 0.2831935E-02  (-0.2222873E-03)
 number of electron       7.9999998 magnetization 
 augmentation part        0.1918152 magnetization 

 Broyden mixing:
  rms(total) = 0.93613E-02    rms(broyden)= 0.93580E-02
  rms(prec ) = 0.16504E-01
  weight for this iteration     100.00

 eigenvalues of (default mixing * dielectric matrix)
  average eigenvalue GAMMA=   2.1916
  3.4202  0.9684  2.4089  1.9687

 Free energy of the ion-electron system (eV)
  ---------------------------------------------------
  alpha Z        PSCENC =         4.15613782
  Ewald energy   TEWEN  =       835.74566894
  -Hartree energ DENC   =     -1084.03310481
  -exchange      EXHF   =         0.00000000
  -V(xc)+E(xc)   XCENC  =        27.51144811
  PAW double counting   =       857.68863684     -859.05351481
  entropy T*S    EENTRO =        -0.00156719
  eigenvalues    EBANDS =       -94.74975382
  atomic energy  EATOM  =       294.28875697
  Solvation  Ediel_sol  =         0.00000000
  ---------------------------------------------------
  free energy    TOTEN  =       -18.44729194 eV

  energy without entropy =      -18.44572475  energy(sigma->0) =      -18.44650835


--------------------------------------------------------------------------------------------------------




--------------------------------------- Iteration      1(  10)  ---------------------------------------


    POTLOK:  cpu time      0.0041: real time      0.0042
    SETDIJ:  cpu time      0.0009: real time      0.0009
     EDDAV:  cpu time      0.5161: real time      0.5194
       DOS:  cpu time      0.0004: real time      0.0004
    CHARGE:  cpu time      0.0103: real time      0.0106
    MIXING:  cpu time      0.0004: real time      0.0004
    --------------------------------------------
      LOOP:  cpu time      0.5322: real time      0.5359

 eigenvalue-minimisations  :  2688
 total energy-change (2. order) : 0.1063164E-02  (-0.1411962E-03)
 number of electron       7.9999998 magnetization 
 augmentation part        0.1916188 magnetization 

 Broyden mixing:
  rms(total) = 0.32808E-02    rms(broyden)= 0.32774E-02
  rms(prec ) = 0.69713E-02
  weight for this iteration     100.00

 eigenvalues of (default mixing * dielectric matrix)
  average eigenvalue GAMMA=   2.6070
  4.7729  0.9892  2.8564  1.9934  2.4232

 Free energy of the ion-electron system (eV)
  ---------------------------------------------------
  alpha Z        PSCENC =         4.15613782
  Ewald energy   TEWEN  =       835.74566894
  -Hartree energ DENC   =     -1086.25068988
  -exchange      EXHF   =         0.00000000
  -V(xc)+E(xc)   XCENC  =        27.53471786
  PAW double counting   =       843.24055209     -844.60463601
  entropy T*S    EENTRO =        -0.00156719
  eigenvalues    EBANDS =       -92.55516938
  atomic energy  EATOM  =       294.28875697
  Solvation  Ediel_sol  =         0.00000000
  ---------------------------------------------------
  free energy    TOTEN  =       -18.44622878 eV

  energy without entropy =      -18.44466159  energy(sigma->0) =      -18.44544518


--------------------------------------------------------------------------------------------------------




--------------------------------------- Iteration      1(  11)  ---------------------------------------


    POTLOK:  cpu time      0.0046: real time      0.0047
    SETDIJ:  cpu time      0.0009: real time      0.0009
     EDDAV:  cpu time      0.4413: real time      0.4453
       DOS:  cpu time      0.0004: real time      0.0004
    CHARGE:  cpu time      0.0094: real time      0.0095
    MIXING:  cpu time      0.0004: real time      0.0004
    --------------------------------------------
      LOOP:  cpu time      0.4570: real time      0.4611

 eigenvalue-minimisations  :  2400
 total energy-change (2. order) :-0.1488715E-03  (-0.3008228E-04)
 number of electron       7.9999998 magnetization 
 augmentation part        0.1915606 magnetization 

 Broyden mixing:
  rms(total) = 0.11712E-02    rms(broyden)= 0.11700E-02
  rms(prec ) = 0.29036E-02
  weight for this iteration     100.00

 eigenvalues of (default mixing * dielectric matrix)
  average eigenvalue GAMMA=   2.5086
  5.5320  2.9272  2.4668  1.9748  0.9818  1.1691

 Free energy of the ion-electron system (eV)
  ---------------------------------------------------
  alpha Z        PSCENC =         4.15613782
  Ewald energy   TEWEN  =       835.74566894
  -Hartree energ DENC   =     -1087.33295549
  -exchange      EXHF   =         0.00000000
  -V(xc)+E(xc)   XCENC  =        27.53760716
  PAW double counting   =       845.56412112     -846.92835007
  entropy T*S    EENTRO =        -0.00156719
  eigenvalues    EBANDS =       -91.47579691
  atomic energy  EATOM  =       294.28875697
  Solvation  Ediel_sol  =         0.00000000
  ---------------------------------------------------
  free energy    TOTEN  =       -18.44637765 eV

  energy without entropy =      -18.44481046  energy(sigma->0) =      -18.44559406


--------------------------------------------------------------------------------------------------------




--------------------------------------- Iteration      1(  12)  ---------------------------------------


    POTLOK:  cpu time      0.0039: real time      0.0040
    SETDIJ:  cpu time      0.0009: real time      0.0009
     EDDAV:  cpu time      0.3919: real time      0.3939
       DOS:  cpu time      0.0004: real time      0.0004
    CHARGE:  cpu time      0.0103: real time      0.0106
    MIXING:  cpu time      0.0004: real time      0.0004
    --------------------------------------------
      LOOP:  cpu time      0.4078: real time      0.4102

 eigenvalue-minimisations  :  2256
 total energy-change (2. order) :-0.3757933E-03  (-0.3007720E-05)
 number of electron       7.9999998 magnetization 
 augmentation part        0.1915567 magnetization 

 Broyden mixing:
  rms(total) = 0.89079E-03    rms(broyden)= 0.89070E-03
  rms(prec ) = 0.21108E-02
  weight for this iteration     100.00

 eigenvalues of (default mixing * dielectric matrix)
  average eigenvalue GAMMA=   2.8393
  6.5997  4.1003  2.7340  2.4297  1.9714  0.9961  1.0440

 Free energy of the ion-electron system (eV)
  ---------------------------------------------------
  alpha Z        PSCENC =         4.15613782
  Ewald energy   TEWEN  =       835.74566894
  -Hartree energ DENC   =     -1087.46713652
  -exchange      EXHF   =         0.00000000
  -V(xc)+E(xc)   XCENC  =        27.53666646
  PAW double counting   =       845.07808595     -846.44265683
  entropy T*S    EENTRO =        -0.00156719
  eigenvalues    EBANDS =       -91.34070904
  atomic energy  EATOM  =       294.28875697
  Solvation  Ediel_sol  =         0.00000000
  ---------------------------------------------------
  free energy    TOTEN  =       -18.44675345 eV

  energy without entropy =      -18.44518625  energy(sigma->0) =      -18.44596985


--------------------------------------------------------------------------------------------------------




--------------------------------------- Iteration      1(  13)  ---------------------------------------


    POTLOK:  cpu time      0.0043: real time      0.0043
    SETDIJ:  cpu time      0.0009: real time      0.0009
     EDDAV:  cpu time      0.5297: real time      0.5355
       DOS:  cpu time      0.0004: real time      0.0004
    CHARGE:  cpu time      0.0095: real time      0.0096
    MIXING:  cpu time      0.0004: real time      0.0004
    --------------------------------------------
      LOOP:  cpu time      0.5450: real time      0.5511

 eigenvalue-minimisations  :  2736
 total energy-change (2. order) :-0.6601277E-03  (-0.1756209E-04)
 number of electron       7.9999998 magnetization 
 augmentation part        0.1915573 magnetization 

 Broyden mixing:
  rms(total) = 0.40255E-03    rms(broyden)= 0.40253E-03
  rms(prec ) = 0.67855E-03
  weight for this iteration     100.00

 eigenvalues of (default mixing * dielectric matrix)
  average eigenvalue GAMMA=   3.1092
  7.7204  4.8516  3.2935  2.6368  2.3993  1.9675  1.0108  0.9935

 Free energy of the ion-electron system (eV)
  ---------------------------------------------------
  alpha Z        PSCENC =         4.15613782
  Ewald energy   TEWEN  =       835.74566894
  -Hartree energ DENC   =     -1087.68295013
  -exchange      EXHF   =         0.00000000
  -V(xc)+E(xc)   XCENC  =        27.53614435
  PAW double counting   =       845.37056901     -846.73476280
  entropy T*S    EENTRO =        -0.00156719
  eigenvalues    EBANDS =       -91.12541054
  atomic energy  EATOM  =       294.28875697
  Solvation  Ediel_sol  =         0.00000000
  ---------------------------------------------------
  free energy    TOTEN  =       -18.44741357 eV

  energy without entropy =      -18.44584638  energy(sigma->0) =      -18.44662998


--------------------------------------------------------------------------------------------------------




--------------------------------------- Iteration      1(  14)  ---------------------------------------


    POTLOK:  cpu time      0.0037: real time      0.0038
    SETDIJ:  cpu time      0.0009: real time      0.0009
     EDDAV:  cpu time      0.5253: real time      0.5281
       DOS:  cpu time      0.0004: real time      0.0004
    CHARGE:  cpu time      0.0102: real time      0.0103
    MIXING:  cpu time      0.0004: real time      0.0004
    --------------------------------------------
      LOOP:  cpu time      0.5409: real time      0.5439

 eigenvalue-minimisations  :  2736
 total energy-change (2. order) :-0.1258864E-03  (-0.6935756E-06)
 number of electron       7.9999998 magnetization 
 augmentation part        0.1915476 magnetization 

 Broyden mixing:
  rms(total) = 0.30309E-03    rms(broyden)= 0.30306E-03
  rms(prec ) = 0.34394E-03
  weight for this iteration     100.00

 eigenvalues of (default mixing * dielectric matrix)
  average eigenvalue GAMMA=   3.0992
  8.7766  5.5636  3.2242  2.6725  2.4845  1.9815  0.9951  0.9951  1.1997

 Free energy of the ion-electron system (eV)
  ---------------------------------------------------
  alpha Z        PSCENC =         4.15613782
  Ewald energy   TEWEN  =       835.74566894
  -Hartree energ DENC   =     -1087.75531050
  -exchange      EXHF   =         0.00000000
  -V(xc)+E(xc)   XCENC  =        27.53666260
  PAW double counting   =       844.76991083     -846.13430694
  entropy T*S    EENTRO =        -0.00156719
  eigenvalues    EBANDS =       -91.05349198
  atomic energy  EATOM  =       294.28875697
  Solvation  Ediel_sol  =         0.00000000
  ---------------------------------------------------
  free energy    TOTEN  =       -18.44753946 eV

  energy without entropy =      -18.44597227  energy(sigma->0) =      -18.44675586


--------------------------------------------------------------------------------------------------------




--------------------------------------- Iteration      1(  15)  ---------------------------------------


    POTLOK:  cpu time      0.0044: real time      0.0045
    SETDIJ:  cpu time      0.0010: real time      0.0010
     EDDAV:  cpu time      0.4875: real time      0.4923
       DOS:  cpu time      0.0004: real time      0.0004
    CHARGE:  cpu time      0.0098: real time      0.0101
    MIXING:  cpu time      0.0005: real time      0.0005
    --------------------------------------------
      LOOP:  cpu time      0.5035: real time      0.5088

 eigenvalue-minimisations  :  2640
 total energy-change (2. order) :-0.2054596E-04  (-0.1962970E-06)
 number of electron       7.9999998 magnetization 
 augmentation part        0.1915540 magnetization 

 Broyden mixing:
  rms(total) = 0.70315E-04    rms(broyden)= 0.70300E-04
  rms(prec ) = 0.92840E-04
  weight for this iteration     100.00

 eigenvalues of (default mixing * dielectric matrix)
  average eigenvalue GAMMA=   3.2075
  9.5400  5.8982  3.7967  2.8574  2.4946  2.4946  1.9787  0.9921  0.9921  1.0304

 Free energy of the ion-electron system (eV)
  ---------------------------------------------------
  alpha Z        PSCENC =         4.15613782
  Ewald energy   TEWEN  =       835.74566894
  -Hartree energ DENC   =     -1087.73005803
  -exchange      EXHF   =         0.00000000
  -V(xc)+E(xc)   XCENC  =        27.53609871
  PAW double counting   =       845.10453023     -846.46881981
  entropy T*S    EENTRO =        -0.00156719
  eigenvalues    EBANDS =       -91.07830764
  atomic energy  EATOM  =       294.28875697
  Solvation  Ediel_sol  =         0.00000000
  ---------------------------------------------------
  free energy    TOTEN  =       -18.44756001 eV

  energy without entropy =      -18.44599281  energy(sigma->0) =      -18.44677641


--------------------------------------------------------------------------------------------------------




--------------------------------------- Iteration      1(  16)  ---------------------------------------


    POTLOK:  cpu time      0.0040: real time      0.0041
    SETDIJ:  cpu time      0.0009: real time      0.0009
     EDDAV:  cpu time      0.4731: real time      0.4774
       DOS:  cpu time      0.0004: real time      0.0004
    CHARGE:  cpu time      0.0095: real time      0.0097
    MIXING:  cpu time      0.0006: real time      0.0009
    --------------------------------------------
      LOOP:  cpu time      0.4885: real time      0.4933

 eigenvalue-minimisations  :  2592
 total energy-change (2. order) :-0.6799636E-05  (-0.2064024E-07)
 number of electron       7.9999998 magnetization 
 augmentation part        0.1915529 magnetization 

 Broyden mixing:
  rms(total) = 0.76808E-05    rms(broyden)= 0.76794E-05
  rms(prec ) = 0.10747E-04
  weight for this iteration     100.00

 eigenvalues of (default mixing * dielectric matrix)
  average eigenvalue GAMMA=   3.1375
  9.6459  5.8192  3.9771  2.9732  2.6792  2.4324  1.9744  2.0056  0.9932  0.9932
  1.0194

 Free energy of the ion-electron system (eV)
  ---------------------------------------------------
  alpha Z        PSCENC =         4.15613782
  Ewald energy   TEWEN  =       835.74566894
  -Hartree energ DENC   =     -1087.73751533
  -exchange      EXHF   =         0.00000000
  -V(xc)+E(xc)   XCENC  =        27.53619674
  PAW double counting   =       845.09403618     -846.45834252
  entropy T*S    EENTRO =        -0.00156719
  eigenvalues    EBANDS =       -91.07093842
  atomic energy  EATOM  =       294.28875697
  Solvation  Ediel_sol  =         0.00000000
  ---------------------------------------------------
  free energy    TOTEN  =       -18.44756681 eV

  energy without entropy =      -18.44599961  energy(sigma->0) =      -18.44678321


--------------------------------------------------------------------------------------------------------




--------------------------------------- Iteration      1(  17)  ---------------------------------------


    POTLOK:  cpu time      0.0040: real time      0.0041
    SETDIJ:  cpu time      0.0008: real time      0.0008
     EDDAV:  cpu time      0.4608: real time      0.4632
       DOS:  cpu time      0.0003: real time      0.0003
    --------------------------------------------
      LOOP:  cpu time      0.4660: real time      0.4684

 eigenvalue-minimisations  :  2448
 total energy-change (2. order) :-0.3464183E-06  (-0.9193922E-09)
 number of electron       7.9999998 magnetization 
 augmentation part        0.1915529 magnetization 

 Free energy of the ion-electron system (eV)
  ---------------------------------------------------
  alpha Z        PSCENC =         4.15613782
  Ewald energy   TEWEN  =       835.74566894
  -Hartree energ DENC   =     -1087.73914791
  -exchange      EXHF   =         0.00000000
  -V(xc)+E(xc)   XCENC  =        27.53621242
  PAW double counting   =       845.09344413     -846.45774886
  entropy T*S    EENTRO =        -0.00156719
  eigenvalues    EBANDS =       -91.06932347
  atomic energy  EATOM  =       294.28875697
  Solvation  Ediel_sol  =         0.00000000
  ---------------------------------------------------
  free energy    TOTEN  =       -18.44756715 eV

  energy without entropy =      -18.44599996  energy(sigma->0) =      -18.44678356


--------------------------------------------------------------------------------------------------------




 average (electrostatic) potential at core
  the test charge radii are     0.6991
  (the norm of the test charge is              1.0000)
       1 -57.6936       2 -57.6936
 
 
 
 E-fermi :  -2.2528     XC(G=0):  -2.8675     alpha+bet : -2.5354

 Fermi energy:        -2.2527930513

 k-point     1 :       0.0000    0.0000    0.0000
  band No.  band energies     occupation 
      1     -21.7569      2.00000
      2      -9.8604      2.00000
      3      -5.2823      2.00000
      4      -5.2823      2.00000
      5       1.0084      0.00000
      6       1.9135      0.00000
      7       2.4482      0.00000
      8       4.3407      0.00000
      9       5.0990      0.00000
     10       6.0632      0.00000
     11       6.0633      0.00000
     12       8.2378      0.00000
     13       9.1615      0.00000
     14       9.3516      0.00000
     15      10.2181      0.00000
     16      13.5628      0.00000
     17      15.0720      0.00000
     18      20.1263      0.00000
     19      20.2260      0.00000
     20      22.2220      0.00000
     21      25.9181      0.00000
     22      25.9182      0.00000
     23      27.1171      0.00000
     24      29.3326      0.00000
     25      29.3326      0.00000
     26      30.7215      0.00000
     27      31.4540      0.00000
     28      32.9459      0.00000
     29      32.9459      0.00000
     30      33.4523      0.00000
     31      33.4523      0.00000
     32      33.9408      0.00000
     33      34.1977      0.00000
     34      34.4798      0.00000
     35      35.1285      0.00000
     36      35.1285      0.00000
     37      35.2198      0.00000
     38      35.2198      0.00000
     39      35.2726      0.00000
     40      35.2727      0.00000
     41      35.3030      0.00000
     42      35.4023      0.00000
     43      35.4158      0.00000
     44      35.4158      0.00000
     45      35.6362      0.00000
     46      36.7429      0.00000
     47      37.3411      0.00000
     48      37.4547      0.00000

 k-point     2 :       0.0833   -0.0000    0.0000
  band No.  band energies     occupation 
      1     -21.5929      2.00000
      2      -9.6649      2.00000
      3      -5.9335      2.00000
      4      -5.6203      2.00000
      5       1.2311      0.00000
      6       2.1380      0.00000
      7       2.6749      0.00000
      8       4.5637      0.00000
      9       5.3158      0.00000
     10       6.1372      0.00000
     11       6.7590      0.00000
     12       8.4531      0.00000
     13       8.6002      0.00000
     14       9.5763      0.00000
     15      10.5239      0.00000
     16      13.7615      0.00000
     17      15.2926      0.00000
     18      20.2249      0.00000
     19      20.7397      0.00000
     20      22.4387      0.00000
     21      24.2304      0.00000
     22      24.6468      0.00000
     23      27.0134      0.00000
     24      28.5398      0.00000
     25      29.4665      0.00000
     26      30.0780      0.00000
     27      30.1147      0.00000
     28      30.7314      0.00000
     29      30.9221      0.00000
     30      30.9613      0.00000
     31      31.5823      0.00000
     32      32.2703      0.00000
     33      32.5767      0.00000
     34      32.7340      0.00000
     35      32.8372      0.00000
     36      32.9353      0.00000
     37      32.9537      0.00000
     38      34.1079      0.00000
     39      34.9768      0.00000
     40      35.0232      0.00000
     41      35.3405      0.00000
     42      35.5581      0.00000
     43      36.0878      0.00000
     44      36.2584      0.00000
     45      36.4097      0.00000
     46      37.2846      0.00000
     47      37.8928      0.00000
     48      38.3635      0.00000

 k-point     3 :       0.1667    0.0000    0.0000
  band No.  band energies     occupation 
      1     -21.1027      2.00000
      2      -9.0835      2.00000
      3      -7.5727      2.00000
      4      -6.4117      2.00000
      5       1.8990      0.00000
      6       2.8098      0.00000
      7       3.3553      0.00000
      8       5.2295      0.00000
      9       5.9010      0.00000
     10       6.1675      0.00000
     11       7.0909      0.00000
     12       8.6015      0.00000
     13       9.1006      0.00000
     14      10.2414      0.00000
     15      11.5036      0.00000
     16      14.3321      0.00000
     17      15.9453      0.00000
     18      19.9054      0.00000
     19      21.7318      0.00000
     20      22.1146      0.00000
     21      22.8335      0.00000
     22      23.1143      0.00000
     23      24.2233      0.00000
     24      25.3136      0.00000
     25      25.3924      0.00000
     26      27.2097      0.00000
     27      27.9833      0.00000
     28      28.4964      0.00000
     29      28.7059      0.00000
     30      29.5910      0.00000
     31      29.6858      0.00000
     32      30.6279      0.00000
     33      30.6803      0.00000
     34      30.9053      0.00000
     35      31.3825      0.00000
     36      31.5546      0.00000
     37      32.0618      0.00000
     38      32.1560      0.00000
     39      32.9946      0.00000
     40      33.0436      0.00000
     41      33.5812      0.00000
     42      33.7148      0.00000
     43      34.4786      0.00000
     44      36.5749      0.00000
     45      37.0131      0.00000
     46      37.3154      0.00000
     47      37.5200      0.00000
     48      37.5434      0.00000

 k-point     4 :       0.2500   -0.0000    0.0000
  band No.  band energies     occupation 
      1     -20.2922      2.00000
      2      -9.6712      2.00000
      3      -8.1354      2.00000
      4      -7.2904      2.00000
      5       3.0100      0.00000
      6       3.9083      0.00000
      7       4.4878      0.00000
      8       4.9992      0.00000
      9       5.7766      0.00000
     10       6.3575      0.00000
     11       7.1257      0.00000
     12      10.1602      0.00000
     13      11.1482      0.00000
     14      11.3366      0.00000
     15      12.8811      0.00000
     16      15.1288      0.00000
     17      17.0088      0.00000
     18      18.1102      0.00000
     19      19.5939      0.00000
     20      20.8914      0.00000
     21      20.9546      0.00000
     22      21.3231      0.00000
     23      22.3948      0.00000
     24      22.9685      0.00000
     25      23.9893      0.00000
     26      24.0170      0.00000
     27      24.9386      0.00000
     28      26.9356      0.00000
     29      27.1097      0.00000
     30      27.8386      0.00000
     31      28.4588      0.00000
     32      28.5469      0.00000
     33      29.0597      0.00000
     34      29.0790      0.00000
     35      29.3972      0.00000
     36      30.1067      0.00000
     37      30.6383      0.00000
     38      31.3924      0.00000
     39      31.5993      0.00000
     40      32.0590      0.00000
     41      32.7095      0.00000
     42      33.0321      0.00000
     43      33.7110      0.00000
     44      33.9698      0.00000
     45      35.3935      0.00000
     46      35.7252      0.00000
     47      36.2290      0.00000
     48      36.4588      0.00000

 k-point     5 :       0.3333    0.0000    0.0000
  band No.  band energies     occupation 
      1     -19.1737      2.00000
      2     -11.8737      2.00000
      3      -8.0223      2.00000
      4      -6.8707      2.00000
      5       2.6500      0.00000
      6       4.5518      0.00000
      7       5.4500      0.00000
      8       5.5117      0.00000
      9       6.0881      0.00000
     10       7.8943      0.00000
     11       8.6713      0.00000
     12      11.5795      0.00000
     13      12.8483      0.00000
     14      13.5435      0.00000
     15      13.9801      0.00000
     16      15.0043      0.00000
     17      16.4752      0.00000
     18      16.7120      0.00000
     19      17.4569      0.00000
     20      18.0977      0.00000
     21      18.4532      0.00000
     22      20.0519      0.00000
     23      20.1087      0.00000
     24      20.2227      0.00000
     25      23.0637      0.00000
     26      23.5092      0.00000
     27      24.9015      0.00000
     28      24.9671      0.00000
     29      25.9416      0.00000
     30      26.2480      0.00000
     31      27.1053      0.00000
     32      27.3703      0.00000
     33      27.9242      0.00000
     34      27.9299      0.00000
     35      28.2462      0.00000
     36      28.7462      0.00000
     37      30.0524      0.00000
     38      30.0920      0.00000
     39      30.2211      0.00000
     40      30.4738      0.00000
     41      31.0455      0.00000
     42      32.4012      0.00000
     43      33.0391      0.00000
     44      34.1399      0.00000
     45      34.2580      0.00000
     46      34.6722      0.00000
     47      35.3238      0.00000
     48      36.1530      0.00000

 k-point     6 :       0.4167    0.0000    0.0000
  band No.  band energies     occupation 
      1     -17.7788      2.00000
      2     -13.9722      2.00000
      3      -8.4944      2.00000
      4      -5.4523      2.00000
      5       0.5201      0.00000
      6       5.1906      0.00000
      7       6.5597      0.00000
      8       7.4928      0.00000
      9       8.1195      0.00000
     10       9.8380      0.00000
     11      10.6490      0.00000
     12      11.5908      0.00000
     13      12.4041      0.00000
     14      13.4473      0.00000
     15      13.4958      0.00000
     16      14.7566      0.00000
     17      14.8984      0.00000
     18      15.5373      0.00000
     19      16.5129      0.00000
     20      16.9431      0.00000
     21      18.2143      0.00000
     22      19.1374      0.00000
     23      19.5572      0.00000
     24      20.0431      0.00000
     25      21.2139      0.00000
     26      21.3210      0.00000
     27      24.4242      0.00000
     28      24.9429      0.00000
     29      25.1887      0.00000
     30      26.0721      0.00000
     31      26.2391      0.00000
     32      26.9306      0.00000
     33      27.2312      0.00000
     34      27.2411      0.00000
     35      27.4160      0.00000
     36      27.5564      0.00000
     37      28.8689      0.00000
     38      29.1823      0.00000
     39      29.4660      0.00000
     40      29.7937      0.00000
     41      30.2475      0.00000
     42      31.7239      0.00000
     43      33.0315      0.00000
     44      33.1101      0.00000
     45      33.7460      0.00000
     46      34.0022      0.00000
     47      34.4402      0.00000
     48      35.2861      0.00000

 k-point     7 :       0.5000   -0.0000    0.0000
  band No.  band energies     occupation 
      1     -16.5208      2.00000
      2     -15.4726      2.00000
      3      -8.6565      2.00000
      4      -4.6104      2.00000
      5      -0.5743      0.00000
      6       5.1107      0.00000
      7       8.8596      0.00000
      8       9.0112      0.00000
      9       9.7438      0.00000
     10       9.9815      0.00000
     11      10.5898      0.00000
     12      10.6135      0.00000
     13      11.9305      0.00000
     14      12.4153      0.00000
     15      12.9857      0.00000
     16      13.0549      0.00000
     17      14.7435      0.00000
     18      16.2467      0.00000
     19      16.7664      0.00000
     20      16.9908      0.00000
     21      17.6506      0.00000
     22      18.5202      0.00000
     23      19.3347      0.00000
     24      19.9719      0.00000
     25      21.5627      0.00000
     26      21.7198      0.00000
     27      23.5004      0.00000
     28      23.7920      0.00000
     29      24.9015      0.00000
     30      25.5042      0.00000
     31      26.1190      0.00000
     32      26.4638      0.00000
     33      26.9922      0.00000
     34      27.0132      0.00000
     35      27.2125      0.00000
     36      28.2497      0.00000
     37      28.5831      0.00000
     38      29.1772      0.00000
     39      29.5665      0.00000
     40      29.8580      0.00000
     41      30.5376      0.00000
     42      30.5826      0.00000
     43      31.5323      0.00000
     44      32.5305      0.00000
     45      32.9089      0.00000
     46      33.7772      0.00000
     47      34.1860      0.00000
     48      34.7592      0.00000

 k-point     8 :       0.0833    0.0833    0.0000
  band No.  band energies     occupation 
      1     -21.2658      2.00000
      2      -9.2764      2.00000
      3      -6.9684      2.00000
      4      -6.2972      2.00000
      5       1.6766      0.00000
      6       2.5863      0.00000
      7       3.1286      0.00000
      8       5.0087      0.00000
      9       5.7498      0.00000
     10       6.4482      0.00000
     11       7.5767      0.00000
     12       7.6337      0.00000
     13       8.8831      0.00000
     14      10.0226      0.00000
     15      11.2764      0.00000
     16      14.1419      0.00000
     17      15.7289      0.00000
     18      20.0192      0.00000
     19      21.5304      0.00000
     20      22.1524      0.00000
     21      22.8934      0.00000
     22      23.9876      0.00000
     23      26.1620      0.00000
     24      26.6646      0.00000
     25      27.2939      0.00000
     26      27.6913      0.00000
     27      27.7834      0.00000
     28      27.8070      0.00000
     29      27.9036      0.00000
     30      29.6563      0.00000
     31      30.1419      0.00000
     32      30.2789      0.00000
     33      30.4944      0.00000
     34      31.0685      0.00000
     35      31.3362      0.00000
     36      32.8568      0.00000
     37      33.9148      0.00000
     38      34.0506      0.00000
     39      34.3678      0.00000
     40      34.6379      0.00000
     41      34.6497      0.00000
     42      35.1087      0.00000
     43      35.8640      0.00000
     44      35.9956      0.00000
     45      36.0644      0.00000
     46      36.1537      0.00000
     47      37.1679      0.00000
     48      38.2475      0.00000

 k-point     9 :       0.1667    0.0833    0.0000
  band No.  band energies     occupation 
      1     -20.6155      2.00000
      2      -8.6789      2.00000
      3      -8.5104      2.00000
      4      -7.2943      2.00000
      5       2.5669      0.00000
      6       3.4787      0.00000
      7       4.0360      0.00000
      8       5.7912      0.00000
      9       5.9343      0.00000
     10       6.4665      0.00000
     11       6.7667      0.00000
     12       9.1574      0.00000
     13       9.7277      0.00000
     14      10.9057      0.00000
     15      12.8775      0.00000
     16      14.7870      0.00000
     17      16.5867      0.00000
     18      18.2909      0.00000
     19      21.3734      0.00000
     20      21.9529      0.00000
     21      22.2255      0.00000
     22      22.8183      0.00000
     23      23.4376      0.00000
     24      23.8158      0.00000
     25      23.8869      0.00000
     26      24.9415      0.00000
     27      25.8760      0.00000
     28      25.9429      0.00000
     29      26.0897      0.00000
     30      26.3567      0.00000
     31      27.8857      0.00000
     32      28.6255      0.00000
     33      28.7411      0.00000
     34      30.2221      0.00000
     35      30.2610      0.00000
     36      31.0126      0.00000
     37      32.0875      0.00000
     38      32.2490      0.00000
     39      33.0957      0.00000
     40      33.1993      0.00000
     41      33.8320      0.00000
     42      34.2237      0.00000
     43      35.0643      0.00000
     44      35.6662      0.00000
     45      36.2552      0.00000
     46      36.5843      0.00000
     47      37.4812      0.00000
     48      37.8369      0.00000

 k-point    10 :       0.2500    0.0833    0.0000
  band No.  band energies     occupation 
      1     -19.6508      2.00000
      2     -10.7514      2.00000
      3      -8.1796      2.00000
      4      -7.3975      2.00000
      5       3.6598      0.00000
      6       3.8979      0.00000
      7       4.8387      0.00000
      8       5.3939      0.00000
      9       6.3148      0.00000
     10       7.2212      0.00000
     11       8.0109      0.00000
     12      10.9409      0.00000
     13      11.2784      0.00000
     14      12.2206      0.00000
     15      14.6594      0.00000
     16      14.9618      0.00000
     17      17.1790      0.00000
     18      17.8044      0.00000
     19      18.1084      0.00000
     20      19.0142      0.00000
     21      19.2353      0.00000
     22      20.8133      0.00000
     23      21.7171      0.00000
     24      22.3415      0.00000
     25      22.8396      0.00000
     26      23.6760      0.00000
     27      24.1048      0.00000
     28      24.5446      0.00000
     29      24.6560      0.00000
     30      25.5819      0.00000
     31      26.2062      0.00000
     32      26.6958      0.00000
     33      26.8820      0.00000
     34      27.5312      0.00000
     35      29.6020      0.00000
     36      30.7778      0.00000
     37      30.7936      0.00000
     38      31.6033      0.00000
     39      32.0885      0.00000
     40      32.2353      0.00000
     41      32.6328      0.00000
     42      32.8213      0.00000
     43      33.6861      0.00000
     44      33.7840      0.00000
     45      35.1917      0.00000
     46      35.3794      0.00000
     47      36.9823      0.00000
     48      37.0460      0.00000

 k-point    11 :       0.3333    0.0833    0.0000
  band No.  band energies     occupation 
      1     -18.3909      2.00000
      2     -12.8731      2.00000
      3      -8.8134      2.00000
      4      -6.0220      2.00000
      5       1.4643      0.00000
      6       5.6387      0.00000
      7       6.0529      0.00000
      8       6.5940      0.00000
      9       7.2161      0.00000
     10       8.9482      0.00000
     11       9.7715      0.00000
     12      12.2320      0.00000
     13      12.5053      0.00000
     14      13.9190      0.00000
     15      13.9245      0.00000
     16      14.7312      0.00000
     17      15.5043      0.00000
     18      15.6980      0.00000
     19      17.1285      0.00000
     20      17.5023      0.00000
     21      18.8915      0.00000
     22      18.9686      0.00000
     23      19.4823      0.00000
     24      20.6533      0.00000
     25      21.9779      0.00000
     26      22.5602      0.00000
     27      22.7972      0.00000
     28      23.6436      0.00000
     29      23.6440      0.00000
     30      24.6203      0.00000
     31      25.4045      0.00000
     32      25.9005      0.00000
     33      26.2342      0.00000
     34      27.5438      0.00000
     35      27.8141      0.00000
     36      28.7887      0.00000
     37      29.8020      0.00000
     38      29.8285      0.00000
     39      30.8370      0.00000
     40      31.5696      0.00000
     41      31.8982      0.00000
     42      32.6076      0.00000
     43      33.5007      0.00000
     44      34.1120      0.00000
     45      34.8966      0.00000
     46      35.2228      0.00000
     47      35.4559      0.00000
     48      35.9320      0.00000

 k-point    12 :       0.4167    0.0833    0.0000
  band No.  band energies     occupation 
      1     -16.9137      2.00000
      2     -14.8118      2.00000
      3      -9.1411      2.00000
      4      -4.7166      2.00000
      5      -0.2993      0.00000
      6       5.8509      0.00000
      7       7.8561      0.00000
      8       8.7383      0.00000
      9       9.4723      0.00000
     10      10.3756      0.00000
     11      10.7916      0.00000
     12      11.4330      0.00000
     13      11.9437      0.00000
     14      12.1628      0.00000
     15      13.1590      0.00000
     16      14.3535      0.00000
     17      14.4978      0.00000
     18      15.8616      0.00000
     19      16.1754      0.00000
     20      16.7431      0.00000
     21      18.3677      0.00000
     22      18.4376      0.00000
     23      20.2571      0.00000
     24      20.3191      0.00000
     25      21.3151      0.00000
     26      21.6699      0.00000
     27      21.8957      0.00000
     28      23.1814      0.00000
     29      23.1902      0.00000
     30      23.9843      0.00000
     31      24.5364      0.00000
     32      25.5188      0.00000
     33      25.5740      0.00000
     34      26.0964      0.00000
     35      27.9139      0.00000
     36      29.1700      0.00000
     37      29.2542      0.00000
     38      29.6915      0.00000
     39      30.3555      0.00000
     40      30.8666      0.00000
     41      31.4217      0.00000
     42      31.5392      0.00000
     43      32.3669      0.00000
     44      33.4740      0.00000
     45      33.5116      0.00000
     46      34.7859      0.00000
     47      35.1100      0.00000
     48      35.9067      0.00000

 k-point    13 :       0.1667    0.1667    0.0000
  band No.  band energies     occupation 
      1     -19.8109      2.00000
      2     -10.0098      2.00000
      3      -8.6553      2.00000
      4      -7.5758      2.00000
      5       3.6782      0.00000
      6       4.1154      0.00000
      7       4.5872      0.00000
      8       5.1704      0.00000
      9       6.9847      0.00000
     10       7.6104      0.00000
     11       7.9327      0.00000
     12       9.2660      0.00000
     13      10.6994      0.00000
     14      11.9989      0.00000
     15      14.6495      0.00000
     16      15.0700      0.00000
     17      17.1259      0.00000
     18      17.6256      0.00000
     19      19.9882      0.00000
     20      20.3817      0.00000
     21      20.4150      0.00000
     22      21.5253      0.00000
     23      21.5600      0.00000
     24      21.6983      0.00000
     25      22.7869      0.00000
     26      22.9942      0.00000
     27      23.3964      0.00000
     28      24.3183      0.00000
     29      24.4229      0.00000
     30      24.5917      0.00000
     31      25.6035      0.00000
     32      26.0589      0.00000
     33      28.3419      0.00000
     34      28.4602      0.00000
     35      28.9827      0.00000
     36      29.0098      0.00000
     37      29.2840      0.00000
     38      32.2544      0.00000
     39      33.2953      0.00000
     40      33.3970      0.00000
     41      33.9516      0.00000
     42      34.2349      0.00000
     43      34.5752      0.00000
     44      36.2048      0.00000
     45      36.5074      0.00000
     46      37.2350      0.00000
     47      37.9311      0.00000
     48      37.9934      0.00000

 k-point    14 :       0.2500    0.1667    0.0000
  band No.  band energies     occupation 
      1     -18.7034      2.00000
      2     -11.7364      2.00000
      3      -9.7108      2.00000
      4      -6.3263      2.00000
      5       2.1708      0.00000
      6       5.2249      0.00000
      7       6.1149      0.00000
      8       6.7552      0.00000
      9       7.9638      0.00000
     10       8.4605      0.00000
     11       9.3360      0.00000
     12      10.7240      0.00000
     13      11.6295      0.00000
     14      13.5030      0.00000
     15      13.8088      0.00000
     16      15.9738      0.00000
     17      17.1988      0.00000
     18      17.4465      0.00000
     19      18.1668      0.00000
     20      18.2117      0.00000
     21      18.9669      0.00000
     22      19.2957      0.00000
     23      19.3217      0.00000
     24      20.4559      0.00000
     25      20.4912      0.00000
     26      20.7242      0.00000
     27      22.1345      0.00000
     28      22.8801      0.00000
     29      23.5450      0.00000
     30      23.9060      0.00000
     31      24.5444      0.00000
     32      25.1478      0.00000
     33      26.2368      0.00000
     34      26.9555      0.00000
     35      27.6707      0.00000
     36      27.8232      0.00000
     37      29.9235      0.00000
     38      30.5590      0.00000
     39      31.7121      0.00000
     40      32.4147      0.00000
     41      32.9053      0.00000
     42      34.7703      0.00000
     43      34.8824      0.00000
     44      35.4249      0.00000
     45      36.3872      0.00000
     46      36.8468      0.00000
     47      37.1081      0.00000
     48      37.2900      0.00000

 k-point    15 :       0.3333    0.1667    0.0000
  band No.  band energies     occupation 
      1     -17.3284      2.00000
      2     -13.6454      2.00000
      3     -10.2864      2.00000
      4      -4.9037      2.00000
      5       0.2631      0.00000
      6       7.1790      0.00000
      7       7.7710      0.00000
      8       7.9787      0.00000
      9       8.7962      0.00000
     10      10.0563      0.00000
     11      11.2602      0.00000
     12      11.6256      0.00000
     13      11.7148      0.00000
     14      13.8574      0.00000
     15      13.9033      0.00000
     16      14.7185      0.00000
     17      15.0664      0.00000
     18      15.3902      0.00000
     19      16.4926      0.00000
     20      17.0502      0.00000
     21      18.2821      0.00000
     22      19.0649      0.00000
     23      19.7265      0.00000
     24      19.7858      0.00000
     25      19.8629      0.00000
     26      20.3559      0.00000
     27      20.5524      0.00000
     28      21.8361      0.00000
     29      22.1821      0.00000
     30      22.3726      0.00000
     31      23.6809      0.00000
     32      24.3112      0.00000
     33      25.8375      0.00000
     34      26.6299      0.00000
     35      26.9110      0.00000
     36      27.2825      0.00000
     37      28.5244      0.00000
     38      29.1050      0.00000
     39      31.3318      0.00000
     40      32.1276      0.00000
     41      32.7269      0.00000
     42      34.1528      0.00000
     43      34.3396      0.00000
     44      35.2798      0.00000
     45      35.9315      0.00000
     46      36.1404      0.00000
     47      36.9701      0.00000
     48      37.1161      0.00000

 k-point    16 :       0.4167    0.1667    0.0000
  band No.  band energies     occupation 
      1     -16.0989      2.00000
      2     -15.0752      2.00000
      3     -10.4712      2.00000
      4      -4.0138      2.00000
      5      -0.8018      0.00000
      6       7.6626      0.00000
      7       9.3579      0.00000
      8       9.4204      0.00000
      9       9.6176      0.00000
     10      10.6572      0.00000
     11      11.2407      0.00000
     12      11.2773      0.00000
     13      11.7706      0.00000
     14      13.0896      0.00000
     15      13.3986      0.00000
     16      13.6242      0.00000
     17      14.1373      0.00000
     18      15.7637      0.00000
     19      16.9086      0.00000
     20      17.2464      0.00000
     21      17.5687      0.00000
     22      18.1290      0.00000
     23      18.4459      0.00000
     24      19.3502      0.00000
     25      19.5726      0.00000
     26      20.8676      0.00000
     27      21.2037      0.00000
     28      21.2883      0.00000
     29      22.2010      0.00000
     30      22.2395      0.00000
     31      23.0669      0.00000
     32      24.2738      0.00000
     33      24.9859      0.00000
     34      25.5660      0.00000
     35      26.4680      0.00000
     36      26.8930      0.00000
     37      28.8262      0.00000
     38      30.8033      0.00000
     39      31.1339      0.00000
     40      31.3255      0.00000
     41      31.9331      0.00000
     42      32.0986      0.00000
     43      34.1022      0.00000
     44      35.5467      0.00000
     45      35.8972      0.00000
     46      36.3573      0.00000
     47      37.0732      0.00000
     48      37.2508      0.00000

 k-point    17 :       0.2500    0.2500    0.0000
  band No.  band energies     occupation 
      1     -17.4757      2.00000
      2     -12.7733      2.00000
      3     -11.1914      2.00000
      4      -4.9873      2.00000
      5       0.5596      0.00000
      6       6.9712      0.00000
      7       7.6864      0.00000
      8       8.5623      0.00000
      9       9.7093      0.00000
     10       9.9572      0.00000
     11      10.3620      0.00000
     12      11.1021      0.00000
     13      11.4645      0.00000
     14      14.5953      0.00000
     15      15.1008      0.00000
     16      15.4249      0.00000
     17      15.6915      0.00000
     18      16.0066      0.00000
     19      16.8293      0.00000
     20      16.8432      0.00000
     21      16.9122      0.00000
     22      18.4198      0.00000
     23      18.9935      0.00000
     24      19.1276      0.00000
     25      19.2935      0.00000
     26      20.2359      0.00000
     27      20.2664      0.00000
     28      20.8318      0.00000
     29      22.0232      0.00000
     30      22.7301      0.00000
     31      23.5869      0.00000
     32      23.8766      0.00000
     33      24.4075      0.00000
     34      26.4044      0.00000
     35      26.7115      0.00000
     36      28.6433      0.00000
     37      29.3369      0.00000
     38      29.4810      0.00000
     39      29.8469      0.00000
     40      31.1457      0.00000
     41      32.4980      0.00000
     42      35.1672      0.00000
     43      35.7948      0.00000
     44      36.0693      0.00000
     45      36.4874      0.00000
     46      37.1133      0.00000
     47      37.3381      0.00000
     48      39.0800      0.00000

 k-point    18 :       0.3333    0.2500    0.0000
  band No.  band energies     occupation 
      1     -16.0554      2.00000
      2     -14.1927      2.00000
      3     -11.8988      2.00000
      4      -3.6054      2.00000
      5      -0.9573      0.00000
      6       8.6243      0.00000
      7       9.0617      0.00000
      8       9.9374      0.00000
      9      10.7573      0.00000
     10      10.7889      0.00000
     11      11.0558      0.00000
     12      12.7426      0.00000
     13      13.0436      0.00000
     14      13.3179      0.00000
     15      13.5015      0.00000
     16      14.2566      0.00000
     17      15.1656      0.00000
     18      15.4133      0.00000
     19      15.9718      0.00000
     20      16.2358      0.00000
     21      16.4451      0.00000
     22      17.0410      0.00000
     23      17.0862      0.00000
     24      18.3500      0.00000
     25      18.9438      0.00000
     26      19.5601      0.00000
     27      19.7530      0.00000
     28      20.9427      0.00000
     29      21.6815      0.00000
     30      22.0650      0.00000
     31      22.8681      0.00000
     32      23.2991      0.00000
     33      24.1545      0.00000
     34      24.9885      0.00000
     35      26.4949      0.00000
     36      27.2777      0.00000
     37      28.9713      0.00000
     38      29.1690      0.00000
     39      30.5376      0.00000
     40      30.8724      0.00000
     41      33.1587      0.00000
     42      33.4160      0.00000
     43      35.0785      0.00000
     44      35.8542      0.00000
     45      35.8852      0.00000
     46      38.7187      0.00000
     47      38.9398      0.00000
     48      39.1251      0.00000

 k-point    19 :       0.3333    0.3333    0.0000
  band No.  band energies     occupation 
      1     -14.8395      2.00000
      2     -14.8395      2.00000
      3     -12.7894      2.00000
      4      -2.2528      1.00013
      5      -2.2528      0.99987
      6       8.3638      0.00000
      7      10.6295      0.00000
      8      10.6295      0.00000
      9      11.2356      0.00000
     10      12.6777      0.00000
     11      12.6777      0.00000
     12      12.9631      0.00000
     13      12.9631      0.00000
     14      13.2030      0.00000
     15      13.5524      0.00000
     16      13.9169      0.00000
     17      13.9170      0.00000
     18      14.8824      0.00000
     19      15.1050      0.00000
     20      15.1050      0.00000
     21      16.2229      0.00000
     22      16.3829      0.00000
     23      16.3829      0.00000
     24      17.5089      0.00000
     25      18.8744      0.00000
     26      18.8744      0.00000
     27      20.4080      0.00000
     28      20.4080      0.00000
     29      20.5550      0.00000
     30      21.2572      0.00000
     31      22.5013      0.00000
     32      24.0600      0.00000
     33      24.0600      0.00000
     34      25.9751      0.00000
     35      25.9752      0.00000
     36      26.3296      0.00000
     37      26.6425      0.00000
     38      30.3074      0.00000
     39      30.3074      0.00000
     40      32.9739      0.00000
     41      32.9740      0.00000
     42      33.3648      0.00000
     43      33.5935      0.00000
     44      35.7241      0.00000
     45      35.7241      0.00000
     46      38.7598      0.00000
     47      40.6388      0.00000
     48      40.6388      0.00000


--------------------------------------------------------------------------------------------------------


 soft charge-density along one line, spin component           1
         0         1         2         3         4         5         6         7         8         9
 total charge-density along one line
 
 pseudopotential strength for first ion, spin component:           1
 10.188  13.548  -0.000  -0.000   0.000   0.000   0.000  -0.000
 13.548  18.015  -0.000  -0.000   0.000   0.000   0.000  -0.000
 -0.000  -0.000  -4.321  -0.000   0.000   8.452   0.000  -0.000
 -0.000  -0.000  -0.000  -4.314   0.000   0.000   8.443  -0.000
  0.000   0.000   0.000   0.000  -4.321  -0.000  -0.000   8.452
  0.000   0.000   8.452   0.000  -0.000 -18.668  -0.000   0.000
  0.000   0.000   0.000   8.443  -0.000  -0.000 -18.660   0.000
 -0.000  -0.000  -0.000  -0.000   8.452   0.000   0.000 -18.668
 total augmentation occupancy for first ion, spin component:           1
  8.182  -3.639   0.000  -0.000   0.000   0.000   0.000  -0.000
 -3.639   1.676   0.000  -0.000  -0.000   0.000   0.000  -0.000
  0.000   0.000   1.815   0.000   0.000   0.167  -0.000   0.000
  0.000  -0.000   0.000   1.195   0.000   0.000   0.072  -0.000
 -0.000   0.000   0.000   0.000   1.815   0.000  -0.000   0.167
  0.000   0.000   0.167   0.000   0.000   0.017  -0.000   0.000
  0.000   0.000   0.000   0.072   0.000  -0.000   0.005   0.000
 -0.000  -0.000   0.000   0.000   0.167   0.000  -0.000   0.017


------------------------ aborting loop because EDIFF is reached ----------------------------------------


    CHARGE:  cpu time      0.0093: real time      0.0093
    FORLOC:  cpu time      0.0003: real time      0.0003
    FORNL :  cpu time      0.0057: real time      0.0057
    STRESS:  cpu time      0.0636: real time      0.0640
    FORCOR:  cpu time      0.0037: real time      0.0037
    FORHAR:  cpu time      0.0013: real time      0.0013
    MIXING:  cpu time      0.0005: real time      0.0005
    OFIELD:  cpu time      0.0003: real time      0.0003

 ---------------------------------------------------------------------------------------------

         DFTD3 V3.0 Rev 1        
 IVDW         = 12
 DF pbe       
 parameters
 VDW_S6       =    1.0000
 VDW_S8       =    0.7875
 VDW_A1       =    0.4289
 VDW_A2       =    4.4407
 k1-k3        =   16.0000    1.3333   -4.0000
 VDW_RADIUS   =   50.2022 A
 VDW_CNRADIUS =   21.1671 A
 Edisp (eV)   -0.17742

 E6    (eV) :    -0.1220
 E8    (eV) :    -0.0554
 % E8        : 31.25
    FORVDW:  cpu time      0.0098: real time      0.0098

  FORCE on cell =-STRESS in cart. coord.  units (eV):
  Direction    XX          YY          ZZ          XY          YZ          ZX
  --------------------------------------------------------------------------------------
  Alpha Z     4.15614     4.15614     4.15614
  Ewald    1104.50968  1104.50908 -1373.27312    -0.00000    -0.00000    -0.00000
  Hartree  1076.41081  1076.41080 -1065.08299     0.00000     0.00000     0.00000
  E(xc)     -29.70169   -29.70169   -30.81538    -0.00000    -0.00000    -0.00000
  Local   -2267.46560 -2267.46533  2334.80315     0.00000    -0.00000     0.00000
  n-local    -6.70815    -7.52044    -6.49816     0.06275    -0.00000    -0.00000
  augment    -0.77716    -0.77714    -0.71682     0.00000    -0.00000     0.00000
  Kinetic   116.34115   123.68204   137.36079    -0.14870    -0.00000     0.00000
  Fock        0.00000     0.00000     0.00000     0.00000     0.00000     0.00000
  vdW        -0.04476    -0.04475    -0.00146     0.00000    -0.00000     0.00000
  -------------------------------------------------------------------------------------
  Total      -0.01544    -0.01544    -0.06785    -0.00000     0.00000     0.00000
  in kB      -0.31281    -0.31281    -1.37495    -0.00000     0.00000     0.00000
  external pressure =       -0.67 kB  Pullay stress =        0.00 kB


 VOLUME and BASIS-vectors are now :
 -----------------------------------------------------------------------------
  energy-cutoff  :      450.00
  volume of cell :       79.06
      direct lattice vectors                 reciprocal lattice vectors
     2.136485000  1.233500000  0.000000000     0.234029258  0.405350628  0.000000000
    -2.136485000  1.233500000  0.000000000    -0.234029258  0.405350628  0.000000000
     0.000000000  0.000000000 15.000000000     0.000000000  0.000000000  0.066666667

  length of vectors
     2.467000285  2.467000285 15.000000000     0.468058571  0.468058571  0.066666667


 FORCES acting on ions
    electron-ion (+dipol)            ewald-force                    non-local-force                 convergence-correction
 -----------------------------------------------------------------------------------------------
   -.145E-03 0.233E-03 0.244E-06   -.219E-03 -.817E-14 0.939E-15   -.407E-17 0.211E-16 0.126E-20   0.755E-09 -.232E-09 -.530E-09
   0.145E-03 0.233E-03 0.244E-06   0.219E-03 0.102E-13 -.150E-20   0.233E-16 0.234E-16 -.655E-21   -.755E-09 -.232E-09 -.530E-09
 -----------------------------------------------------------------------------------------------
   0.435E-13 0.467E-03 0.488E-06   0.288E-14 0.198E-14 0.939E-15   0.193E-16 0.445E-16 0.609E-21   -.884E-15 -.464E-09 -.106E-08
 
 
 POSITION                                       TOTAL-FORCE (eV/Angst)
 -----------------------------------------------------------------------------------
     -0.71216      1.23350      1.50000         0.000000     -0.000000     -0.000000
      0.71216      1.23350      1.50000        -0.000000      0.000000      0.000000
 -----------------------------------------------------------------------------------
    total drift:                                0.000000      0.000467      0.000000


--------------------------------------------------------------------------------------------------------



  FREE ENERGIE OF THE ION-ELECTRON SYSTEM (eV)
  ---------------------------------------------------
  free  energy   TOTEN  =       -18.62498564 eV

  energy  without entropy=      -18.62341845  energy(sigma->0) =      -18.62420205
 


--------------------------------------------------------------------------------------------------------


    POTLOK:  cpu time      0.0061: real time      0.0067


--------------------------------------------------------------------------------------------------------


 stress matrix after NEB project (eV)
     -0.01544     -0.00000      0.00000
     -0.00000     -0.01544     -0.00000
     -0.00000      0.00000     -0.06785
  FORCES: max atom, RMS     0.000000    0.000000
  FORCE total and by dimension    0.000000    0.000000
  Stress total and by dimension    0.071273    0.067848


--------------------------------------------------------------------------------------------------------


  
 reached required accuracy - stopping structural energy minimisation
     LOOP+:  cpu time      8.6586: real time      8.8121
    4ORBIT:  cpu time      0.0000: real time      0.0000

 total amount of memory used by VASP MPI-rank0    34960. kBytes
=======================================================================

   base      :      30000. kBytes
   nonl-proj :       2216. kBytes
   fftplans  :        404. kBytes
   grid      :       1780. kBytes
   one-center:          6. kBytes
   wavefun   :        554. kBytes
 
  
  
 General timing and accounting informations for this job:
 ========================================================
  
                  Total CPU time used (sec):       12.039
                            User time (sec):        9.180
                          System time (sec):        2.859
                         Elapsed time (sec):       14.008
  
                   Maximum memory used (kb):      519928.
                   Average memory used (kb):          N/A
  
                          Minor page faults:        67158
                          Major page faults:         4183
                 Voluntary context switches:         7694
