  15  15   0  16
  0.2058163E+02  0.4875000E-09  0.4875000E-09  0.1500000E-08  0.5000000E-15
  1.000000000000000E-004
  CAR 
 Lattice                                 
     10.19307906    -21.58329796  301     -0.35822652      1.00000000
    -21.583  0.0000E+00  0.0000E+00  0.0000E+00  0.0000E+00
    -21.477  0.0000E+00  0.0000E+00  0.0000E+00  0.0000E+00
    -21.371  0.0000E+00  0.0000E+00  0.0000E+00  0.0000E+00
    -21.266  0.0000E+00  0.0000E+00  0.0000E+00  0.0000E+00
    -21.160  0.0000E+00  0.0000E+00  0.0000E+00  0.0000E+00
    -21.054  0.0000E+00  0.0000E+00  0.0000E+00  0.0000E+00
    -20.948  0.0000E+00  0.0000E+00  0.0000E+00  0.0000E+00
    -20.842  0.0000E+00  0.0000E+00  0.0000E+00  0.0000E+00
    -20.736  0.0000E+00  0.0000E+00  0.0000E+00  0.0000E+00
    -20.630  0.1042E-14  0.1042E-14  0.1104E-15  0.1104E-15
    -20.524  0.1548E-10  0.1548E-10  0.1640E-11  0.1640E-11
    -20.418  0.2866E-07  0.2866E-07  0.3037E-08  0.3037E-08
    -20.312  0.7246E-05  0.7246E-05  0.7705E-06  0.7705E-06
    -20.206  0.2787E-03  0.2787E-03  0.3029E-04  0.3029E-04
    -20.100  0.1994E-02  0.1994E-02  0.2415E-03  0.2415E-03
    -19.994  0.4182E-02  0.4182E-02  0.6845E-03  0.6845E-03
    -19.889  0.4570E-02  0.4570E-02  0.1169E-02  0.1169E-02
    -19.783  0.4971E-02  0.4971E-02  0.1695E-02  0.1695E-02
    -19.677  0.4214E-02  0.4214E-02  0.2141E-02  0.2141E-02
    -19.571  0.5423E-02  0.5423E-02  0.2716E-02  0.2716E-02
    -19.465  0.4243E-02  0.4243E-02  0.3165E-02  0.3165E-02
    -19.359  0.4339E-02  0.4339E-02  0.3625E-02  0.3625E-02
    -19.253  0.6036E-02  0.6036E-02  0.4264E-02  0.4264E-02
    -19.147  0.3818E-02  0.3818E-02  0.4668E-02  0.4668E-02
    -19.041  0.3986E-02  0.3986E-02  0.5091E-02  0.5091E-02
    -18.935  0.6169E-02  0.6169E-02  0.5744E-02  0.5744E-02
    -18.829  0.5202E-02  0.5202E-02  0.6295E-02  0.6295E-02
    -18.723  0.2963E-02  0.2963E-02  0.6609E-02  0.6609E-02
    -18.618  0.4555E-02  0.4555E-02  0.7091E-02  0.7091E-02
    -18.512  0.6927E-02  0.6927E-02  0.7825E-02  0.7825E-02
    -18.406  0.4552E-02  0.4552E-02  0.8307E-02  0.8307E-02
    -18.300  0.3789E-02  0.3789E-02  0.8709E-02  0.8709E-02
    -18.194  0.3097E-02  0.3097E-02  0.9037E-02  0.9037E-02
    -18.088  0.6819E-02  0.6819E-02  0.9759E-02  0.9759E-02
    -17.982  0.6527E-02  0.6527E-02  0.1045E-01  0.1045E-01
    -17.876  0.3468E-02  0.3468E-02  0.1082E-01  0.1082E-01
    -17.770  0.3399E-02  0.3399E-02  0.1118E-01  0.1118E-01
    -17.664  0.4194E-02  0.4194E-02  0.1162E-01  0.1162E-01
    -17.558  0.6429E-02  0.6429E-02  0.1230E-01  0.1230E-01
    -17.452  0.6856E-02  0.6856E-02  0.1303E-01  0.1303E-01
    -17.346  0.6696E-02  0.6696E-02  0.1374E-01  0.1374E-01
    -17.241  0.8095E-02  0.8095E-02  0.1460E-01  0.1460E-01
    -17.135  0.1116E-01  0.1116E-01  0.1578E-01  0.1578E-01
    -17.029  0.1532E-01  0.1532E-01  0.1740E-01  0.1740E-01
    -16.923  0.1662E-01  0.1662E-01  0.1916E-01  0.1916E-01
    -16.817  0.1953E-01  0.1953E-01  0.2123E-01  0.2123E-01
    -16.711  0.2101E-01  0.2101E-01  0.2346E-01  0.2346E-01
    -16.605  0.1109E-01  0.1109E-01  0.2463E-01  0.2463E-01
    -16.499  0.3189E-02  0.3189E-02  0.2497E-01  0.2497E-01
    -16.393  0.7736E-02  0.7736E-02  0.2579E-01  0.2579E-01
    -16.287  0.7777E-02  0.7777E-02  0.2661E-01  0.2661E-01
    -16.181  0.4545E-02  0.4545E-02  0.2709E-01  0.2709E-01
    -16.075  0.4124E-02  0.4124E-02  0.2753E-01  0.2753E-01
    -15.969  0.4000E-02  0.4000E-02  0.2795E-01  0.2795E-01
    -15.864  0.3654E-02  0.3654E-02  0.2834E-01  0.2834E-01
    -15.758  0.4135E-02  0.4135E-02  0.2878E-01  0.2878E-01
    -15.652  0.8638E-02  0.8638E-02  0.2969E-01  0.2969E-01
    -15.546  0.7538E-02  0.7538E-02  0.3049E-01  0.3049E-01
    -15.440  0.3849E-02  0.3849E-02  0.3090E-01  0.3090E-01
    -15.334  0.3883E-02  0.3883E-02  0.3131E-01  0.3131E-01
    -15.228  0.3589E-02  0.3589E-02  0.3169E-01  0.3169E-01
    -15.122  0.4863E-02  0.4863E-02  0.3221E-01  0.3221E-01
    -15.016  0.7145E-02  0.7145E-02  0.3296E-01  0.3296E-01
    -14.910  0.1391E-01  0.1391E-01  0.3444E-01  0.3444E-01
    -14.804  0.1884E-01  0.1884E-01  0.3643E-01  0.3643E-01
    -14.698  0.1901E-01  0.1901E-01  0.3844E-01  0.3844E-01
    -14.592  0.1555E-01  0.1555E-01  0.4009E-01  0.4009E-01
    -14.487  0.8769E-02  0.8769E-02  0.4102E-01  0.4102E-01
    -14.381  0.9480E-02  0.9480E-02  0.4202E-01  0.4202E-01
    -14.275  0.1614E-01  0.1614E-01  0.4373E-01  0.4373E-01
    -14.169  0.1445E-01  0.1445E-01  0.4526E-01  0.4526E-01
    -14.063  0.1162E-01  0.1162E-01  0.4649E-01  0.4649E-01
    -13.957  0.1071E-01  0.1071E-01  0.4763E-01  0.4763E-01
    -13.851  0.1547E-01  0.1547E-01  0.4927E-01  0.4927E-01
    -13.745  0.1963E-01  0.1963E-01  0.5135E-01  0.5135E-01
    -13.639  0.1816E-01  0.1816E-01  0.5327E-01  0.5327E-01
    -13.533  0.1632E-01  0.1632E-01  0.5500E-01  0.5500E-01
    -13.427  0.7840E-02  0.7840E-02  0.5583E-01  0.5583E-01
    -13.321  0.5663E-02  0.5663E-02  0.5643E-01  0.5643E-01
    -13.216  0.3573E-02  0.3573E-02  0.5681E-01  0.5681E-01
    -13.110  0.4273E-02  0.4273E-02  0.5726E-01  0.5726E-01
    -13.004  0.7172E-02  0.7172E-02  0.5802E-01  0.5802E-01
    -12.898  0.6716E-02  0.6716E-02  0.5873E-01  0.5873E-01
    -12.792  0.4946E-02  0.4946E-02  0.5925E-01  0.5925E-01
    -12.686  0.7446E-02  0.7446E-02  0.6004E-01  0.6004E-01
    -12.580  0.6962E-02  0.6962E-02  0.6078E-01  0.6078E-01
    -12.474  0.5450E-02  0.5450E-02  0.6136E-01  0.6136E-01
    -12.368  0.5422E-02  0.5422E-02  0.6193E-01  0.6193E-01
    -12.262  0.3170E-02  0.3170E-02  0.6227E-01  0.6227E-01
    -12.156  0.6992E-02  0.6992E-02  0.6301E-01  0.6301E-01
    -12.050  0.7916E-02  0.7916E-02  0.6385E-01  0.6385E-01
    -11.944  0.2945E-02  0.2945E-02  0.6416E-01  0.6416E-01
    -11.839  0.3419E-02  0.3419E-02  0.6452E-01  0.6452E-01
    -11.733  0.3588E-02  0.3588E-02  0.6490E-01  0.6490E-01
    -11.627  0.6687E-02  0.6687E-02  0.6561E-01  0.6561E-01
    -11.521  0.6272E-02  0.6272E-02  0.6627E-01  0.6627E-01
    -11.415  0.3382E-02  0.3382E-02  0.6663E-01  0.6663E-01
    -11.309  0.2168E-02  0.2168E-02  0.6686E-01  0.6686E-01
    -11.203  0.4676E-02  0.4676E-02  0.6736E-01  0.6736E-01
    -11.097  0.5771E-02  0.5771E-02  0.6797E-01  0.6797E-01
    -10.991  0.5065E-02  0.5065E-02  0.6850E-01  0.6850E-01
    -10.885  0.6988E-02  0.6988E-02  0.6924E-01  0.6924E-01
    -10.779  0.6413E-02  0.6413E-02  0.6992E-01  0.6992E-01
    -10.673  0.3246E-02  0.3246E-02  0.7027E-01  0.7027E-01
    -10.567  0.8815E-02  0.8815E-02  0.7120E-01  0.7120E-01
    -10.462  0.1483E-01  0.1483E-01  0.7277E-01  0.7277E-01
    -10.356  0.1530E-01  0.1530E-01  0.7439E-01  0.7439E-01
    -10.250  0.1349E-01  0.1349E-01  0.7582E-01  0.7582E-01
    -10.144  0.1585E-01  0.1585E-01  0.7750E-01  0.7750E-01
    -10.038  0.1892E-01  0.1892E-01  0.7950E-01  0.7950E-01
     -9.932  0.1651E-01  0.1651E-01  0.8125E-01  0.8125E-01
     -9.826  0.9725E-02  0.9725E-02  0.8228E-01  0.8228E-01
     -9.720  0.9583E-02  0.9583E-02  0.8330E-01  0.8330E-01
     -9.614  0.1429E-01  0.1429E-01  0.8481E-01  0.8481E-01
     -9.508  0.1285E-01  0.1285E-01  0.8617E-01  0.8617E-01
     -9.402  0.1705E-01  0.1705E-01  0.8798E-01  0.8798E-01
     -9.296  0.1762E-01  0.1762E-01  0.8984E-01  0.8984E-01
     -9.191  0.1321E-01  0.1321E-01  0.9124E-01  0.9124E-01
     -9.085  0.9088E-02  0.9088E-02  0.9221E-01  0.9221E-01
     -8.979  0.9089E-02  0.9089E-02  0.9317E-01  0.9317E-01
     -8.873  0.1782E-01  0.1782E-01  0.9506E-01  0.9506E-01
     -8.767  0.1877E-01  0.1877E-01  0.9704E-01  0.9704E-01
     -8.661  0.1240E-01  0.1240E-01  0.9836E-01  0.9836E-01
     -8.555  0.8323E-02  0.8323E-02  0.9924E-01  0.9924E-01
     -8.449  0.1406E-01  0.1406E-01  0.1007E+00  0.1007E+00
     -8.343  0.1947E-01  0.1947E-01  0.1028E+00  0.1028E+00
     -8.237  0.1454E-01  0.1454E-01  0.1043E+00  0.1043E+00
     -8.131  0.1366E-01  0.1366E-01  0.1058E+00  0.1058E+00
     -8.025  0.1874E-01  0.1874E-01  0.1078E+00  0.1078E+00
     -7.919  0.2395E-01  0.2395E-01  0.1103E+00  0.1103E+00
     -7.814  0.2600E-01  0.2600E-01  0.1131E+00  0.1131E+00
     -7.708  0.1583E-01  0.1583E-01  0.1147E+00  0.1147E+00
     -7.602  0.9967E-02  0.9967E-02  0.1158E+00  0.1158E+00
     -7.496  0.8674E-02  0.8674E-02  0.1167E+00  0.1167E+00
     -7.390  0.1748E-01  0.1748E-01  0.1186E+00  0.1186E+00
     -7.284  0.1834E-01  0.1834E-01  0.1205E+00  0.1205E+00
     -7.178  0.1348E-01  0.1348E-01  0.1219E+00  0.1219E+00
     -7.072  0.1017E-01  0.1017E-01  0.1230E+00  0.1230E+00
     -6.966  0.1533E-01  0.1533E-01  0.1246E+00  0.1246E+00
     -6.860  0.1928E-01  0.1928E-01  0.1267E+00  0.1267E+00
     -6.754  0.2125E-01  0.2125E-01  0.1289E+00  0.1289E+00
     -6.648  0.2153E-01  0.2153E-01  0.1312E+00  0.1312E+00
     -6.542  0.1679E-01  0.1679E-01  0.1330E+00  0.1330E+00
     -6.437  0.2060E-01  0.2060E-01  0.1352E+00  0.1352E+00
     -6.331  0.1923E-01  0.1923E-01  0.1372E+00  0.1372E+00
     -6.225  0.2031E-01  0.2031E-01  0.1393E+00  0.1393E+00
     -6.119  0.2713E-01  0.2713E-01  0.1422E+00  0.1422E+00
     -6.013  0.2321E-01  0.2321E-01  0.1447E+00  0.1447E+00
     -5.907  0.2985E-01  0.2985E-01  0.1478E+00  0.1478E+00
     -5.801  0.2940E-01  0.2940E-01  0.1510E+00  0.1510E+00
     -5.695  0.1864E-01  0.1864E-01  0.1529E+00  0.1529E+00
     -5.589  0.1915E-01  0.1915E-01  0.1550E+00  0.1550E+00
     -5.483  0.3380E-01  0.3380E-01  0.1585E+00  0.1585E+00
     -5.377  0.3708E-01  0.3708E-01  0.1625E+00  0.1625E+00
     -5.271  0.1971E-01  0.1971E-01  0.1646E+00  0.1646E+00
     -5.166  0.1421E-01  0.1421E-01  0.1661E+00  0.1661E+00
     -5.060  0.1142E-01  0.1142E-01  0.1673E+00  0.1673E+00
     -4.954  0.1334E-01  0.1334E-01  0.1687E+00  0.1687E+00
     -4.848  0.1349E-01  0.1349E-01  0.1701E+00  0.1701E+00
     -4.742  0.8972E-02  0.8972E-02  0.1711E+00  0.1711E+00
     -4.636  0.6840E-02  0.6840E-02  0.1718E+00  0.1718E+00
     -4.530  0.1029E-01  0.1029E-01  0.1729E+00  0.1729E+00
     -4.424  0.2022E-01  0.2022E-01  0.1750E+00  0.1750E+00
     -4.318  0.2342E-01  0.2342E-01  0.1775E+00  0.1775E+00
     -4.212  0.2115E-01  0.2115E-01  0.1797E+00  0.1797E+00
     -4.106  0.1662E-01  0.1662E-01  0.1815E+00  0.1815E+00
     -4.000  0.1975E-01  0.1975E-01  0.1836E+00  0.1836E+00
     -3.894  0.2265E-01  0.2265E-01  0.1860E+00  0.1860E+00
     -3.789  0.1877E-01  0.1877E-01  0.1880E+00  0.1880E+00
     -3.683  0.1973E-01  0.1973E-01  0.1901E+00  0.1901E+00
     -3.577  0.2053E-01  0.2053E-01  0.1922E+00  0.1922E+00
     -3.471  0.1596E-01  0.1596E-01  0.1939E+00  0.1939E+00
     -3.365  0.1295E-01  0.1295E-01  0.1953E+00  0.1953E+00
     -3.259  0.1181E-01  0.1181E-01  0.1966E+00  0.1966E+00
     -3.153  0.1726E-01  0.1726E-01  0.1984E+00  0.1984E+00
     -3.047  0.1822E-01  0.1822E-01  0.2003E+00  0.2003E+00
     -2.941  0.1209E-01  0.1209E-01  0.2016E+00  0.2016E+00
     -2.835  0.1213E-01  0.1213E-01  0.2029E+00  0.2029E+00
     -2.729  0.8426E-02  0.8426E-02  0.2038E+00  0.2038E+00
     -2.623  0.9482E-02  0.9482E-02  0.2048E+00  0.2048E+00
     -2.517  0.1782E-01  0.1782E-01  0.2067E+00  0.2067E+00
     -2.412  0.1702E-01  0.1702E-01  0.2085E+00  0.2085E+00
     -2.306  0.5171E-02  0.5171E-02  0.2090E+00  0.2090E+00
     -2.200  0.5079E-02  0.5079E-02  0.2096E+00  0.2096E+00
     -2.094  0.9438E-02  0.9438E-02  0.2106E+00  0.2106E+00
     -1.988  0.9690E-02  0.9690E-02  0.2116E+00  0.2116E+00
     -1.882  0.1112E-01  0.1112E-01  0.2128E+00  0.2128E+00
     -1.776  0.1134E-01  0.1134E-01  0.2140E+00  0.2140E+00
     -1.670  0.1029E-01  0.1029E-01  0.2150E+00  0.2150E+00
     -1.564  0.8053E-02  0.8053E-02  0.2159E+00  0.2159E+00
     -1.458  0.3970E-02  0.3970E-02  0.2163E+00  0.2163E+00
     -1.352  0.4184E-02  0.4184E-02  0.2168E+00  0.2168E+00
     -1.246  0.4271E-02  0.4271E-02  0.2172E+00  0.2172E+00
     -1.140  0.3455E-02  0.3455E-02  0.2176E+00  0.2176E+00
     -1.035  0.5557E-02  0.5557E-02  0.2182E+00  0.2182E+00
     -0.929  0.3599E-02  0.3599E-02  0.2186E+00  0.2186E+00
     -0.823  0.7528E-03  0.7528E-03  0.2186E+00  0.2186E+00
     -0.717  0.7117E-04  0.7116E-04  0.2186E+00  0.2186E+00
     -0.611  0.1755E-05  0.1755E-05  0.2186E+00  0.2186E+00
     -0.505  0.3853E-04  0.3853E-04  0.2186E+00  0.2186E+00
     -0.399  0.5386E-03  0.5386E-03  0.2187E+00  0.2187E+00
     -0.293  0.1105E-02  0.1105E-02  0.2188E+00  0.2188E+00
     -0.187  0.3500E-03  0.3500E-03  0.2189E+00  0.2189E+00
     -0.081  0.1587E-04  0.1587E-04  0.2189E+00  0.2189E+00
      0.025  0.1956E-06  0.1956E-06  0.2189E+00  0.2189E+00
      0.131  0.2473E-04  0.2473E-04  0.2189E+00  0.2189E+00
      0.236  0.7429E-03  0.7429E-03  0.2189E+00  0.2189E+00
      0.342  0.3141E-02  0.3141E-02  0.2193E+00  0.2193E+00
      0.448  0.2102E-02  0.2102E-02  0.2195E+00  0.2195E+00
      0.554  0.1315E-02  0.1315E-02  0.2196E+00  0.2196E+00
      0.660  0.4446E-02  0.4446E-02  0.2201E+00  0.2201E+00
      0.766  0.7465E-02  0.7465E-02  0.2209E+00  0.2209E+00
      0.872  0.1529E-01  0.1529E-01  0.2225E+00  0.2225E+00
      0.978  0.2630E-01  0.2630E-01  0.2253E+00  0.2253E+00
      1.084  0.1346E-01  0.1346E-01  0.2267E+00  0.2267E+00
      1.190  0.2221E-02  0.2221E-02  0.2270E+00  0.2270E+00
      1.296  0.1305E-02  0.1305E-02  0.2271E+00  0.2271E+00
      1.402  0.6851E-02  0.6851E-02  0.2278E+00  0.2278E+00
      1.508  0.1703E-01  0.1703E-01  0.2296E+00  0.2296E+00
      1.613  0.2048E-01  0.2048E-01  0.2318E+00  0.2318E+00
      1.719  0.1371E-01  0.1371E-01  0.2333E+00  0.2333E+00
      1.825  0.8351E-02  0.8351E-02  0.2341E+00  0.2341E+00
      1.931  0.9195E-02  0.9195E-02  0.2351E+00  0.2351E+00
      2.037  0.8889E-02  0.8889E-02  0.2361E+00  0.2361E+00
      2.143  0.7440E-02  0.7440E-02  0.2368E+00  0.2368E+00
      2.249  0.9352E-02  0.9352E-02  0.2378E+00  0.2378E+00
      2.355  0.4994E-02  0.4994E-02  0.2384E+00  0.2384E+00
      2.461  0.1016E-01  0.1016E-01  0.2394E+00  0.2394E+00
      2.567  0.1344E-01  0.1344E-01  0.2409E+00  0.2409E+00
      2.673  0.6519E-02  0.6519E-02  0.2415E+00  0.2415E+00
      2.779  0.4208E-02  0.4209E-02  0.2420E+00  0.2420E+00
      2.885  0.6875E-02  0.6877E-02  0.2427E+00  0.2427E+00
      2.990  0.1151E-01  0.1151E-01  0.2439E+00  0.2439E+00
      3.096  0.1104E-01  0.1104E-01  0.2451E+00  0.2451E+00
      3.202  0.9895E-02  0.9896E-02  0.2462E+00  0.2462E+00
      3.308  0.1042E-01  0.1042E-01  0.2473E+00  0.2473E+00
      3.414  0.1239E-01  0.1239E-01  0.2486E+00  0.2486E+00
      3.520  0.2228E-01  0.2228E-01  0.2509E+00  0.2509E+00
      3.626  0.2732E-01  0.2732E-01  0.2538E+00  0.2538E+00
      3.732  0.2392E-01  0.2392E-01  0.2564E+00  0.2564E+00
      3.838  0.2278E-01  0.2278E-01  0.2588E+00  0.2588E+00
      3.944  0.2429E-01  0.2429E-01  0.2613E+00  0.2613E+00
      4.050  0.2714E-01  0.2714E-01  0.2642E+00  0.2642E+00
      4.156  0.2208E-01  0.2208E-01  0.2666E+00  0.2666E+00
      4.261  0.2160E-01  0.2160E-01  0.2688E+00  0.2688E+00
      4.367  0.2338E-01  0.2338E-01  0.2713E+00  0.2713E+00
      4.473  0.2024E-01  0.2024E-01  0.2735E+00  0.2735E+00
      4.579  0.2070E-01  0.2071E-01  0.2757E+00  0.2757E+00
      4.685  0.2906E-01  0.2907E-01  0.2787E+00  0.2787E+00
      4.791  0.2566E-01  0.2566E-01  0.2815E+00  0.2815E+00
      4.897  0.1896E-01  0.1896E-01  0.2835E+00  0.2835E+00
      5.003  0.2457E-01  0.2458E-01  0.2861E+00  0.2861E+00
      5.109  0.2981E-01  0.2980E-01  0.2892E+00  0.2892E+00
      5.215  0.2370E-01  0.2370E-01  0.2917E+00  0.2917E+00
      5.321  0.2052E-01  0.2052E-01  0.2939E+00  0.2939E+00
      5.427  0.2401E-01  0.2401E-01  0.2965E+00  0.2965E+00
      5.533  0.2362E-01  0.2361E-01  0.2990E+00  0.2990E+00
      5.638  0.1984E-01  0.1985E-01  0.3011E+00  0.3011E+00
      5.744  0.2421E-01  0.2420E-01  0.3036E+00  0.3036E+00
      5.850  0.2168E-01  0.2168E-01  0.3059E+00  0.3059E+00
      5.956  0.1975E-01  0.1975E-01  0.3080E+00  0.3080E+00
      6.062  0.1661E-01  0.1661E-01  0.3098E+00  0.3098E+00
      6.168  0.2065E-01  0.2066E-01  0.3120E+00  0.3120E+00
      6.274  0.2061E-01  0.2061E-01  0.3141E+00  0.3141E+00
      6.380  0.2324E-01  0.2325E-01  0.3166E+00  0.3166E+00
      6.486  0.2905E-01  0.2905E-01  0.3197E+00  0.3197E+00
      6.592  0.3014E-01  0.3015E-01  0.3229E+00  0.3229E+00
      6.698  0.2999E-01  0.3000E-01  0.3260E+00  0.3260E+00
      6.804  0.2329E-01  0.2330E-01  0.3285E+00  0.3285E+00
      6.910  0.2630E-01  0.2630E-01  0.3313E+00  0.3313E+00
      7.015  0.2549E-01  0.2547E-01  0.3340E+00  0.3340E+00
      7.121  0.2165E-01  0.2164E-01  0.3363E+00  0.3363E+00
      7.227  0.2031E-01  0.2030E-01  0.3384E+00  0.3384E+00
      7.333  0.1989E-01  0.1991E-01  0.3405E+00  0.3406E+00
      7.439  0.2608E-01  0.2607E-01  0.3433E+00  0.3433E+00
      7.545  0.2684E-01  0.2683E-01  0.3462E+00  0.3462E+00
      7.651  0.3328E-01  0.3328E-01  0.3497E+00  0.3497E+00
      7.757  0.2934E-01  0.2934E-01  0.3528E+00  0.3528E+00
      7.863  0.2406E-01  0.2407E-01  0.3553E+00  0.3553E+00
      7.969  0.3378E-01  0.3380E-01  0.3589E+00  0.3589E+00
      8.075  0.3903E-01  0.3901E-01  0.3630E+00  0.3631E+00
      8.181  0.3710E-01  0.3710E-01  0.3670E+00  0.3670E+00
      8.286  0.3353E-01  0.3353E-01  0.3705E+00  0.3705E+00
      8.392  0.2177E-01  0.2176E-01  0.3728E+00  0.3728E+00
      8.498  0.1042E-01  0.1042E-01  0.3739E+00  0.3739E+00
      8.604  0.4579E-02  0.4576E-02  0.3744E+00  0.3744E+00
      8.710  0.2847E-02  0.2847E-02  0.3747E+00  0.3747E+00
      8.816  0.2048E-02  0.2048E-02  0.3749E+00  0.3749E+00
      8.922  0.5155E-03  0.5152E-03  0.3750E+00  0.3750E+00
      9.028  0.2183E-04  0.2181E-04  0.3750E+00  0.3750E+00
      9.134  0.1204E-06  0.1202E-06  0.3750E+00  0.3750E+00
      9.240  0.7860E-10  0.7845E-10  0.3750E+00  0.3750E+00
      9.346  0.5807E-14  0.5793E-14  0.3750E+00  0.3750E+00
      9.452  0.0000E+00  0.0000E+00  0.3750E+00  0.3750E+00
      9.558  0.0000E+00  0.0000E+00  0.3750E+00  0.3750E+00
      9.663  0.0000E+00  0.0000E+00  0.3750E+00  0.3750E+00
      9.769  0.0000E+00  0.0000E+00  0.3750E+00  0.3750E+00
      9.875  0.0000E+00  0.0000E+00  0.3750E+00  0.3750E+00
      9.981  0.0000E+00  0.0000E+00  0.3750E+00  0.3750E+00
     10.087  0.0000E+00  0.0000E+00  0.3750E+00  0.3750E+00
     10.193  0.0000E+00  0.0000E+00  0.3750E+00  0.3750E+00
