Lattice                                 
           1
     4.373428    2.525000    0.000000
    -4.373428    2.525000    0.000000
     0.000000    0.000000   15.000000
   B    C 
     2    14
Direct configuration=     1
   0.33833034  0.66916432  0.10000000
   0.67165522  0.33584146  0.10000000
   0.16373946  0.31999962  0.10000000
   0.32250218  0.16126397  0.10000000
   0.16376430  0.84376384  0.10000000
   0.84623863  0.16123684  0.10000000
   0.68749850  0.84373000  0.10000000
   0.84626736  0.68499594  0.10000000
   0.16666600  0.33333300  0.32880000
   0.33333300  0.16666600  0.32880000
   0.16666600  0.83333300  0.32880000
   0.33333300  0.66666600  0.32880000
   0.66666600  0.33333300  0.32880000
   0.83333300  0.16666600  0.32880000
   0.66666600  0.83333300  0.32880000
   0.83333300  0.66666600  0.32880000
Direct configuration=     2
   0.33832807  0.66916284  0.10014687
   0.67167570  0.33581272  0.10014687
   0.16679693  0.32612387  0.09994541
   0.32861984  0.16431898  0.09994506
   0.16682723  0.84069099  0.09994542
   0.84316794  0.16429705  0.09994577
   0.68139875  0.84069947  0.09994595
   0.84319249  0.67889542  0.09994575
   0.16636016  0.33271777  0.32887244
   0.33271712  0.16635912  0.32887304
   0.16636020  0.83364034  0.32887243
   0.33332702  0.66666408  0.32860125
   0.66666154  0.33332977  0.32860125
   0.83363991  0.16636109  0.32887107
   0.66727922  0.83363860  0.32887033
   0.83363988  0.66727987  0.32887109
Direct configuration=     3
   0.33832972  0.66916392  0.10004033
   0.67166084  0.33583357  0.10004033
   0.16457905  0.32168135  0.09998501
   0.32418210  0.16210288  0.09998491
   0.16460538  0.84292003  0.09998501
   0.84539542  0.16207718  0.09998511
   0.68582350  0.84289782  0.09998516
   0.84542299  0.68332073  0.09998510
   0.16658202  0.33316406  0.32881989
   0.33316388  0.16658173  0.32882006
   0.16658203  0.83341740  0.32881989
   0.33333136  0.66666547  0.32874542
   0.66666477  0.33333211  0.32874542
   0.83341728  0.16658227  0.32881952
   0.66683439  0.83341692  0.32881931
   0.83341727  0.66683457  0.32881952
Direct configuration=     4
   0.33833481  0.66916457  0.10014043
   0.67166450  0.33583037  0.10014041
   0.16457230  0.32166644  0.09994763
   0.32416958  0.16209073  0.09994730
   0.16459034  0.84292372  0.09994763
   0.84541382  0.16207833  0.09994807
   0.68583323  0.84291266  0.09994821
   0.84542998  0.68333536  0.09994807
   0.16654500  0.33309188  0.32886673
   0.33309107  0.16654522  0.32886731
   0.16654500  0.83345280  0.32886673
   0.33333003  0.66666471  0.32861797
   0.66666335  0.33333150  0.32861797
   0.83345207  0.16654587  0.32886542
   0.66690482  0.83345224  0.32886469
   0.83345209  0.66690561  0.32886542
Direct configuration=     5
   0.33833653  0.66916479  0.10017434
   0.67166574  0.33582929  0.10017432
   0.16457002  0.32166139  0.09993496
   0.32416534  0.16208662  0.09993455
   0.16458524  0.84292497  0.09993497
   0.84542005  0.16207872  0.09993553
   0.68583653  0.84291769  0.09993569
   0.84543235  0.68334031  0.09993552
   0.16653246  0.33306743  0.32888260
   0.33306640  0.16653285  0.32888332
   0.16653245  0.83346480  0.32888260
   0.33332958  0.66666445  0.32857479
   0.66666286  0.33333129  0.32857479
   0.83346386  0.16653354  0.32888097
   0.66692868  0.83346421  0.32888007
   0.83346388  0.66692968  0.32888097
Direct configuration=     6
   0.33832005  0.66916561  0.10023803
   0.67166825  0.33583692  0.10023801
   0.16461096  0.32167887  0.09990974
   0.32417022  0.16209401  0.09990902
   0.16460543  0.84291655  0.09990974
   0.84539847  0.16207497  0.09991076
   0.68585384  0.84291164  0.09991105
   0.84539737  0.68333142  0.09991072
   0.16662173  0.33324802  0.32889730
   0.33324623  0.16662318  0.32889835
   0.16662174  0.83337273  0.32889730
   0.33332832  0.66666423  0.32854313
   0.66666197  0.33333051  0.32854312
   0.83337095  0.16662364  0.32889500
   0.66674553  0.83337228  0.32889374
   0.83337093  0.66674740  0.32889499
Direct configuration=     7
   0.33832962  0.66916513  0.10020106
   0.67166679  0.33583249  0.10020104
   0.16458719  0.32166872  0.09992438
   0.32416739  0.16208972  0.09992384
   0.16459371  0.84292144  0.09992439
   0.84541100  0.16207714  0.09992514
   0.68584379  0.84291515  0.09992536
   0.84541768  0.68333658  0.09992512
   0.16656991  0.33314318  0.32888877
   0.33314183  0.16657075  0.32888963
   0.16656991  0.83342617  0.32888877
   0.33332905  0.66666436  0.32856151
   0.66666249  0.33333096  0.32856151
   0.83342489  0.16657133  0.32888685
   0.66685185  0.83342565  0.32888580
   0.83342489  0.66685322  0.32888685
Direct configuration=     8
   0.33832988  0.66916512  0.10020007
   0.67166676  0.33583237  0.10020005
   0.16458656  0.32166845  0.09992477
   0.32416731  0.16208961  0.09992424
   0.16459340  0.84292157  0.09992478
   0.84541133  0.16207720  0.09992552
   0.68584352  0.84291525  0.09992574
   0.84541822  0.68333672  0.09992550
   0.16656853  0.33314039  0.32888854
   0.33313905  0.16656935  0.32888940
   0.16656853  0.83342760  0.32888854
   0.33332907  0.66666436  0.32856200
   0.66666250  0.33333098  0.32856199
   0.83342632  0.16656994  0.32888664
   0.66685469  0.83342707  0.32888559
   0.83342633  0.66685603  0.32888664
Direct configuration=     9
   0.33834059  0.66916791  0.10021980
   0.67166003  0.33583338  0.10021978
   0.16456925  0.32166627  0.09991533
   0.32417987  0.16208417  0.09991461
   0.16457572  0.84291798  0.09991533
   0.84543373  0.16208690  0.09991640
   0.68582679  0.84291804  0.09991679
   0.84544050  0.68333630  0.09991639
   0.16656760  0.33314052  0.32888654
   0.33313857  0.16656900  0.32888754
   0.16656761  0.83342679  0.32888654
   0.33332789  0.66666366  0.32857656
   0.66666121  0.33333046  0.32857656
   0.83342491  0.16656958  0.32888435
   0.66685285  0.83342628  0.32888316
   0.83342490  0.66685474  0.32888434
Direct configuration=    10
   0.33833987  0.66916773  0.10021846
   0.67166049  0.33583331  0.10021844
   0.16457042  0.32166642  0.09991597
   0.32417902  0.16208454  0.09991526
   0.16457692  0.84291822  0.09991597
   0.84543221  0.16208625  0.09991702
   0.68582792  0.84291785  0.09991740
   0.84543899  0.68333633  0.09991701
   0.16656766  0.33314051  0.32888667
   0.33313860  0.16656903  0.32888766
   0.16656767  0.83342685  0.32888667
   0.33332797  0.66666371  0.32857557
   0.66666129  0.33333050  0.32857557
   0.83342501  0.16656960  0.32888450
   0.66685297  0.83342633  0.32888332
   0.83342500  0.66685483  0.32888450
Direct configuration=    11
   0.33833683  0.66916781  0.10022794
   0.67166471  0.33583368  0.10022792
   0.16458046  0.32166724  0.09991101
   0.32417422  0.16208490  0.09991018
   0.16458379  0.84291928  0.09991101
   0.84542657  0.16208527  0.09991227
   0.68583510  0.84291869  0.09991274
   0.84543024  0.68333678  0.09991226
   0.16656531  0.33313694  0.32888577
   0.33313465  0.16656706  0.32888684
   0.16656531  0.83342806  0.32888577
   0.33332720  0.66666334  0.32858359
   0.66666053  0.33333011  0.32858359
   0.83342585  0.16656765  0.32888345
   0.66685540  0.83342755  0.32888220
   0.83342584  0.66685765  0.32888345
Direct configuration=    12
   0.33833479  0.66916786  0.10023428
   0.67166753  0.33583392  0.10023427
   0.16458717  0.32166779  0.09990770
   0.32417101  0.16208514  0.09990678
   0.16458838  0.84291998  0.09990769
   0.84542280  0.16208461  0.09990909
   0.68583990  0.84291925  0.09990963
   0.84542439  0.68333708  0.09990909
   0.16656373  0.33313455  0.32888517
   0.33313202  0.16656575  0.32888629
   0.16656374  0.83342887  0.32888517
   0.33332669  0.66666309  0.32858896
   0.66666001  0.33332985  0.32858895
   0.83342642  0.16656634  0.32888275
   0.66685702  0.83342836  0.32888146
   0.83342641  0.66685954  0.32888275
Direct configuration=    13
   0.33833486  0.66916786  0.10023407
   0.67166743  0.33583392  0.10023405
   0.16458695  0.32166777  0.09990781
   0.32417111  0.16208513  0.09990689
   0.16458822  0.84291996  0.09990780
   0.84542292  0.16208463  0.09990919
   0.68583974  0.84291923  0.09990973
   0.84542459  0.68333707  0.09990919
   0.16656378  0.33313463  0.32888519
   0.33313210  0.16656579  0.32888631
   0.16656379  0.83342885  0.32888519
   0.33332671  0.66666310  0.32858878
   0.66666003  0.33332986  0.32858878
   0.83342640  0.16656639  0.32888277
   0.66685697  0.83342833  0.32888148
   0.83342639  0.66685948  0.32888277
Direct configuration=    14
   0.33833584  0.66916783  0.10023100
   0.67166607  0.33583380  0.10023099
   0.16458370  0.32166751  0.09990941
   0.32417267  0.16208501  0.09990853
   0.16458600  0.84291962  0.09990940
   0.84542475  0.16208495  0.09991073
   0.68583742  0.84291896  0.09991124
   0.84542741  0.68333693  0.09991073
   0.16656455  0.33313578  0.32888548
   0.33313338  0.16656643  0.32888657
   0.16656455  0.83342845  0.32888548
   0.33332695  0.66666322  0.32858618
   0.66666028  0.33332999  0.32858618
   0.83342613  0.16656702  0.32888311
   0.66685618  0.83342794  0.32888184
   0.83342612  0.66685856  0.32888311
Direct configuration=    15
   0.33833493  0.66916786  0.10023386
   0.67166734  0.33583391  0.10023384
   0.16458672  0.32166775  0.09990792
   0.32417122  0.16208512  0.09990700
   0.16458807  0.84291994  0.09990791
   0.84542305  0.16208465  0.09990930
   0.68583958  0.84291921  0.09990984
   0.84542478  0.68333706  0.09990930
   0.16656384  0.33313471  0.32888521
   0.33313219  0.16656584  0.32888632
   0.16656385  0.83342882  0.32888521
   0.33332672  0.66666311  0.32858860
   0.66666005  0.33332987  0.32858860
   0.83342638  0.16656643  0.32888280
   0.66685692  0.83342831  0.32888151
   0.83342637  0.66685941  0.32888280
Direct configuration=    16
   0.33833490  0.66916786  0.10023394
   0.67166738  0.33583391  0.10023392
   0.16458680  0.32166776  0.09990788
   0.32417118  0.16208513  0.09990696
   0.16458813  0.84291995  0.09990787
   0.84542300  0.16208465  0.09990926
   0.68583964  0.84291922  0.09990980
   0.84542471  0.68333707  0.09990926
   0.16656382  0.33313468  0.32888520
   0.33313216  0.16656582  0.32888632
   0.16656383  0.83342883  0.32888520
   0.33332672  0.66666311  0.32858866
   0.66666004  0.33332987  0.32858866
   0.83342639  0.16656641  0.32888279
   0.66685694  0.83342832  0.32888150
   0.83342638  0.66685944  0.32888279
Direct configuration=    17
   0.33833464  0.66916731  0.10023279
   0.67166770  0.33583366  0.10023277
   0.16458759  0.32166867  0.09990761
   0.32417209  0.16208619  0.09990666
   0.16458863  0.84291938  0.09990760
   0.84542218  0.16208365  0.09990907
   0.68584175  0.84291993  0.09990964
   0.84542342  0.68333785  0.09990907
   0.16656358  0.33313453  0.32888589
   0.33313186  0.16656573  0.32888701
   0.16656358  0.83342864  0.32888589
   0.33332643  0.66666301  0.32858844
   0.66665981  0.33332970  0.32858844
   0.83342605  0.16656632  0.32888347
   0.66685665  0.83342812  0.32888218
   0.83342604  0.66685931  0.32888347
