  15  15   0   4
  0.1978729E+02  0.4780000E-09  0.4780000E-09  0.1500000E-08  0.5000000E-15
  1.000000000000000E-004
  CAR 
 Lattice                                 
     10.58422390    -21.85809806  301     -0.12374948      1.00000000
    -21.858  0.0000E+00  0.0000E+00  0.0000E+00  0.0000E+00
    -21.750  0.0000E+00  0.0000E+00  0.0000E+00  0.0000E+00
    -21.642  0.0000E+00  0.0000E+00  0.0000E+00  0.0000E+00
    -21.534  0.0000E+00  0.0000E+00  0.0000E+00  0.0000E+00
    -21.426  0.0000E+00  0.0000E+00  0.0000E+00  0.0000E+00
    -21.317  0.0000E+00  0.0000E+00  0.0000E+00  0.0000E+00
    -21.209  0.0000E+00  0.0000E+00  0.0000E+00  0.0000E+00
    -21.101  0.0000E+00  0.0000E+00  0.0000E+00  0.0000E+00
    -20.993  0.0000E+00  0.0000E+00  0.0000E+00  0.0000E+00
    -20.885  0.3548E-15  0.3548E-15  0.3837E-16  0.3837E-16
    -20.777  0.7717E-11  0.7717E-11  0.8345E-12  0.8346E-12
    -20.669  0.1899E-07  0.1899E-07  0.2054E-08  0.2055E-08
    -20.560  0.5857E-05  0.5857E-05  0.6354E-06  0.6354E-06
    -20.452  0.2549E-03  0.2549E-03  0.2820E-04  0.2820E-04
    -20.344  0.1921E-02  0.1921E-02  0.2359E-03  0.2359E-03
    -20.236  0.4067E-02  0.4067E-02  0.6757E-03  0.6757E-03
    -20.128  0.4395E-02  0.4395E-02  0.1151E-02  0.1151E-02
    -20.020  0.4852E-02  0.4852E-02  0.1676E-02  0.1676E-02
    -19.912  0.4016E-02  0.4016E-02  0.2110E-02  0.2110E-02
    -19.803  0.5248E-02  0.5248E-02  0.2678E-02  0.2678E-02
    -19.695  0.4220E-02  0.4220E-02  0.3134E-02  0.3134E-02
    -19.587  0.3969E-02  0.3969E-02  0.3563E-02  0.3563E-02
    -19.479  0.5917E-02  0.5917E-02  0.4203E-02  0.4203E-02
    -19.371  0.3950E-02  0.3950E-02  0.4630E-02  0.4630E-02
    -19.263  0.3495E-02  0.3495E-02  0.5008E-02  0.5008E-02
    -19.155  0.5904E-02  0.5904E-02  0.5647E-02  0.5647E-02
    -19.046  0.5319E-02  0.5319E-02  0.6222E-02  0.6222E-02
    -18.938  0.3138E-02  0.3138E-02  0.6561E-02  0.6561E-02
    -18.830  0.3626E-02  0.3626E-02  0.6953E-02  0.6953E-02
    -18.722  0.6823E-02  0.6823E-02  0.7691E-02  0.7691E-02
    -18.614  0.4847E-02  0.4847E-02  0.8215E-02  0.8215E-02
    -18.506  0.3814E-02  0.3814E-02  0.8628E-02  0.8628E-02
    -18.398  0.2766E-02  0.2766E-02  0.8927E-02  0.8927E-02
    -18.289  0.5622E-02  0.5622E-02  0.9535E-02  0.9535E-02
    -18.181  0.7027E-02  0.7027E-02  0.1029E-01  0.1029E-01
    -18.073  0.4082E-02  0.4082E-02  0.1074E-01  0.1074E-01
    -17.965  0.2849E-02  0.2849E-02  0.1104E-01  0.1104E-01
    -17.857  0.3901E-02  0.3901E-02  0.1147E-01  0.1147E-01
    -17.749  0.5262E-02  0.5262E-02  0.1204E-01  0.1204E-01
    -17.641  0.7067E-02  0.7067E-02  0.1280E-01  0.1280E-01
    -17.532  0.6510E-02  0.6510E-02  0.1350E-01  0.1350E-01
    -17.424  0.8076E-02  0.8076E-02  0.1438E-01  0.1438E-01
    -17.316  0.9286E-02  0.9286E-02  0.1538E-01  0.1538E-01
    -17.208  0.1355E-01  0.1355E-01  0.1685E-01  0.1685E-01
    -17.100  0.1593E-01  0.1593E-01  0.1857E-01  0.1857E-01
    -16.992  0.1769E-01  0.1769E-01  0.2048E-01  0.2048E-01
    -16.884  0.2086E-01  0.2086E-01  0.2274E-01  0.2274E-01
    -16.775  0.1508E-01  0.1508E-01  0.2437E-01  0.2437E-01
    -16.667  0.4054E-02  0.4054E-02  0.2481E-01  0.2481E-01
    -16.559  0.4233E-02  0.4233E-02  0.2526E-01  0.2526E-01
    -16.451  0.9010E-02  0.9010E-02  0.2624E-01  0.2624E-01
    -16.343  0.5455E-02  0.5455E-02  0.2683E-01  0.2683E-01
    -16.235  0.4212E-02  0.4212E-02  0.2728E-01  0.2728E-01
    -16.127  0.3630E-02  0.3630E-02  0.2768E-01  0.2768E-01
    -16.018  0.4054E-02  0.4054E-02  0.2811E-01  0.2811E-01
    -15.910  0.3081E-02  0.3081E-02  0.2845E-01  0.2845E-01
    -15.802  0.5362E-02  0.5362E-02  0.2903E-01  0.2903E-01
    -15.694  0.8828E-02  0.8828E-02  0.2998E-01  0.2998E-01
    -15.586  0.5855E-02  0.5855E-02  0.3062E-01  0.3062E-01
    -15.478  0.3487E-02  0.3487E-02  0.3099E-01  0.3099E-01
    -15.370  0.3417E-02  0.3417E-02  0.3136E-01  0.3136E-01
    -15.261  0.3406E-02  0.3406E-02  0.3173E-01  0.3173E-01
    -15.153  0.5482E-02  0.5482E-02  0.3232E-01  0.3232E-01
    -15.045  0.1028E-01  0.1028E-01  0.3343E-01  0.3343E-01
    -14.937  0.1660E-01  0.1660E-01  0.3523E-01  0.3523E-01
    -14.829  0.2016E-01  0.2016E-01  0.3741E-01  0.3741E-01
    -14.721  0.1545E-01  0.1545E-01  0.3908E-01  0.3908E-01
    -14.613  0.1287E-01  0.1287E-01  0.4047E-01  0.4047E-01
    -14.505  0.9292E-02  0.9292E-02  0.4148E-01  0.4148E-01
    -14.396  0.9706E-02  0.9706E-02  0.4253E-01  0.4253E-01
    -14.288  0.1331E-01  0.1331E-01  0.4397E-01  0.4397E-01
    -14.180  0.1678E-01  0.1678E-01  0.4578E-01  0.4578E-01
    -14.072  0.1228E-01  0.1228E-01  0.4711E-01  0.4711E-01
    -13.964  0.1203E-01  0.1203E-01  0.4841E-01  0.4841E-01
    -13.856  0.1819E-01  0.1819E-01  0.5038E-01  0.5038E-01
    -13.748  0.1751E-01  0.1751E-01  0.5227E-01  0.5227E-01
    -13.639  0.1698E-01  0.1698E-01  0.5411E-01  0.5411E-01
    -13.531  0.1333E-01  0.1333E-01  0.5555E-01  0.5555E-01
    -13.423  0.7811E-02  0.7811E-02  0.5639E-01  0.5639E-01
    -13.315  0.3201E-02  0.3201E-02  0.5674E-01  0.5674E-01
    -13.207  0.2969E-02  0.2969E-02  0.5706E-01  0.5706E-01
    -13.099  0.5276E-02  0.5276E-02  0.5763E-01  0.5763E-01
    -12.991  0.6904E-02  0.6904E-02  0.5838E-01  0.5838E-01
    -12.882  0.5488E-02  0.5488E-02  0.5897E-01  0.5897E-01
    -12.774  0.5338E-02  0.5338E-02  0.5955E-01  0.5955E-01
    -12.666  0.5881E-02  0.5881E-02  0.6018E-01  0.6018E-01
    -12.558  0.6349E-02  0.6349E-02  0.6087E-01  0.6087E-01
    -12.450  0.5794E-02  0.5794E-02  0.6150E-01  0.6150E-01
    -12.342  0.4468E-02  0.4468E-02  0.6198E-01  0.6198E-01
    -12.234  0.3890E-02  0.3890E-02  0.6240E-01  0.6240E-01
    -12.125  0.7518E-02  0.7518E-02  0.6321E-01  0.6321E-01
    -12.017  0.5774E-02  0.5774E-02  0.6384E-01  0.6384E-01
    -11.909  0.3263E-02  0.3263E-02  0.6419E-01  0.6419E-01
    -11.801  0.3795E-02  0.3795E-02  0.6460E-01  0.6460E-01
    -11.693  0.3378E-02  0.3378E-02  0.6497E-01  0.6497E-01
    -11.585  0.5730E-02  0.5730E-02  0.6559E-01  0.6559E-01
    -11.477  0.6789E-02  0.6789E-02  0.6632E-01  0.6632E-01
    -11.368  0.3486E-02  0.3486E-02  0.6670E-01  0.6670E-01
    -11.260  0.2135E-02  0.2135E-02  0.6693E-01  0.6693E-01
    -11.152  0.5135E-02  0.5135E-02  0.6748E-01  0.6748E-01
    -11.044  0.7379E-02  0.7379E-02  0.6828E-01  0.6828E-01
    -10.936  0.6707E-02  0.6707E-02  0.6901E-01  0.6901E-01
    -10.828  0.5491E-02  0.5491E-02  0.6960E-01  0.6960E-01
    -10.720  0.5868E-02  0.5868E-02  0.7024E-01  0.7024E-01
    -10.611  0.7214E-02  0.7214E-02  0.7102E-01  0.7102E-01
    -10.503  0.1221E-01  0.1221E-01  0.7234E-01  0.7234E-01
    -10.395  0.1410E-01  0.1410E-01  0.7386E-01  0.7386E-01
    -10.287  0.1692E-01  0.1692E-01  0.7569E-01  0.7569E-01
    -10.179  0.1744E-01  0.1744E-01  0.7758E-01  0.7758E-01
    -10.071  0.1559E-01  0.1559E-01  0.7926E-01  0.7926E-01
     -9.963  0.1400E-01  0.1400E-01  0.8078E-01  0.8078E-01
     -9.854  0.9424E-02  0.9424E-02  0.8180E-01  0.8180E-01
     -9.746  0.1171E-01  0.1171E-01  0.8306E-01  0.8306E-01
     -9.638  0.1361E-01  0.1361E-01  0.8453E-01  0.8453E-01
     -9.530  0.9288E-02  0.9288E-02  0.8554E-01  0.8554E-01
     -9.422  0.1413E-01  0.1413E-01  0.8707E-01  0.8707E-01
     -9.314  0.2058E-01  0.2058E-01  0.8929E-01  0.8929E-01
     -9.206  0.1566E-01  0.1566E-01  0.9099E-01  0.9099E-01
     -9.097  0.9101E-02  0.9101E-02  0.9197E-01  0.9197E-01
     -8.989  0.6061E-02  0.6061E-02  0.9263E-01  0.9263E-01
     -8.881  0.1165E-01  0.1165E-01  0.9389E-01  0.9389E-01
     -8.773  0.2370E-01  0.2370E-01  0.9645E-01  0.9645E-01
     -8.665  0.1611E-01  0.1611E-01  0.9819E-01  0.9819E-01
     -8.557  0.8647E-02  0.8647E-02  0.9913E-01  0.9913E-01
     -8.449  0.1158E-01  0.1158E-01  0.1004E+00  0.1004E+00
     -8.340  0.1770E-01  0.1770E-01  0.1023E+00  0.1023E+00
     -8.232  0.1896E-01  0.1896E-01  0.1043E+00  0.1043E+00
     -8.124  0.1416E-01  0.1416E-01  0.1059E+00  0.1059E+00
     -8.016  0.1427E-01  0.1427E-01  0.1074E+00  0.1074E+00
     -7.908  0.2151E-01  0.2151E-01  0.1097E+00  0.1097E+00
     -7.800  0.2437E-01  0.2437E-01  0.1124E+00  0.1124E+00
     -7.692  0.2043E-01  0.2043E-01  0.1146E+00  0.1146E+00
     -7.583  0.1380E-01  0.1380E-01  0.1161E+00  0.1161E+00
     -7.475  0.8977E-02  0.8977E-02  0.1171E+00  0.1171E+00
     -7.367  0.1440E-01  0.1440E-01  0.1186E+00  0.1186E+00
     -7.259  0.1504E-01  0.1504E-01  0.1202E+00  0.1202E+00
     -7.151  0.1267E-01  0.1267E-01  0.1216E+00  0.1216E+00
     -7.043  0.1531E-01  0.1531E-01  0.1233E+00  0.1233E+00
     -6.935  0.1615E-01  0.1615E-01  0.1250E+00  0.1250E+00
     -6.826  0.1750E-01  0.1750E-01  0.1269E+00  0.1269E+00
     -6.718  0.1603E-01  0.1603E-01  0.1286E+00  0.1286E+00
     -6.610  0.2168E-01  0.2168E-01  0.1310E+00  0.1310E+00
     -6.502  0.2618E-01  0.2618E-01  0.1338E+00  0.1338E+00
     -6.394  0.1979E-01  0.1979E-01  0.1360E+00  0.1360E+00
     -6.286  0.1691E-01  0.1691E-01  0.1378E+00  0.1378E+00
     -6.178  0.1664E-01  0.1664E-01  0.1396E+00  0.1396E+00
     -6.070  0.1917E-01  0.1917E-01  0.1417E+00  0.1417E+00
     -5.961  0.3206E-01  0.3206E-01  0.1451E+00  0.1451E+00
     -5.853  0.2852E-01  0.2852E-01  0.1482E+00  0.1482E+00
     -5.745  0.2091E-01  0.2091E-01  0.1505E+00  0.1505E+00
     -5.637  0.2049E-01  0.2049E-01  0.1527E+00  0.1527E+00
     -5.529  0.2619E-01  0.2619E-01  0.1555E+00  0.1555E+00
     -5.421  0.2735E-01  0.2735E-01  0.1585E+00  0.1585E+00
     -5.313  0.2875E-01  0.2875E-01  0.1616E+00  0.1616E+00
     -5.204  0.2587E-01  0.2587E-01  0.1644E+00  0.1644E+00
     -5.096  0.1544E-01  0.1544E-01  0.1660E+00  0.1660E+00
     -4.988  0.1002E-01  0.1002E-01  0.1671E+00  0.1671E+00
     -4.880  0.6094E-02  0.6094E-02  0.1678E+00  0.1678E+00
     -4.772  0.1228E-01  0.1228E-01  0.1691E+00  0.1691E+00
     -4.664  0.1589E-01  0.1589E-01  0.1708E+00  0.1708E+00
     -4.556  0.1067E-01  0.1067E-01  0.1720E+00  0.1720E+00
     -4.447  0.8421E-02  0.8421E-02  0.1729E+00  0.1729E+00
     -4.339  0.9622E-02  0.9622E-02  0.1739E+00  0.1739E+00
     -4.231  0.1929E-01  0.1929E-01  0.1760E+00  0.1760E+00
     -4.123  0.2334E-01  0.2334E-01  0.1786E+00  0.1786E+00
     -4.015  0.2104E-01  0.2104E-01  0.1808E+00  0.1808E+00
     -3.907  0.2226E-01  0.2226E-01  0.1832E+00  0.1832E+00
     -3.799  0.2371E-01  0.2371E-01  0.1858E+00  0.1858E+00
     -3.690  0.2066E-01  0.2066E-01  0.1880E+00  0.1880E+00
     -3.582  0.1918E-01  0.1918E-01  0.1901E+00  0.1901E+00
     -3.474  0.1735E-01  0.1735E-01  0.1920E+00  0.1920E+00
     -3.366  0.1616E-01  0.1616E-01  0.1937E+00  0.1937E+00
     -3.258  0.1052E-01  0.1052E-01  0.1949E+00  0.1949E+00
     -3.150  0.1644E-01  0.1644E-01  0.1966E+00  0.1966E+00
     -3.042  0.1985E-01  0.1985E-01  0.1988E+00  0.1988E+00
     -2.933  0.1522E-01  0.1522E-01  0.2004E+00  0.2004E+00
     -2.825  0.1306E-01  0.1306E-01  0.2018E+00  0.2018E+00
     -2.717  0.1191E-01  0.1191E-01  0.2031E+00  0.2031E+00
     -2.609  0.8145E-02  0.8145E-02  0.2040E+00  0.2040E+00
     -2.501  0.1045E-01  0.1045E-01  0.2051E+00  0.2051E+00
     -2.393  0.1632E-01  0.1632E-01  0.2069E+00  0.2069E+00
     -2.285  0.1557E-01  0.1557E-01  0.2086E+00  0.2086E+00
     -2.176  0.4118E-02  0.4118E-02  0.2090E+00  0.2090E+00
     -2.068  0.6906E-02  0.6905E-02  0.2098E+00  0.2098E+00
     -1.960  0.1053E-01  0.1053E-01  0.2109E+00  0.2109E+00
     -1.852  0.8352E-02  0.8352E-02  0.2118E+00  0.2118E+00
     -1.744  0.1020E-01  0.1020E-01  0.2129E+00  0.2129E+00
     -1.636  0.1001E-01  0.1001E-01  0.2140E+00  0.2140E+00
     -1.528  0.1024E-01  0.1024E-01  0.2151E+00  0.2151E+00
     -1.419  0.8003E-02  0.8003E-02  0.2160E+00  0.2160E+00
     -1.311  0.2948E-02  0.2948E-02  0.2163E+00  0.2163E+00
     -1.203  0.4185E-02  0.4185E-02  0.2168E+00  0.2168E+00
     -1.095  0.4426E-02  0.4427E-02  0.2172E+00  0.2172E+00
     -0.987  0.2832E-02  0.2832E-02  0.2175E+00  0.2175E+00
     -0.879  0.4421E-02  0.4421E-02  0.2180E+00  0.2180E+00
     -0.771  0.4443E-02  0.4443E-02  0.2185E+00  0.2185E+00
     -0.662  0.1174E-02  0.1174E-02  0.2186E+00  0.2186E+00
     -0.554  0.9542E-04  0.9543E-04  0.2186E+00  0.2186E+00
     -0.446  0.1992E-05  0.1992E-05  0.2186E+00  0.2186E+00
     -0.338  0.2480E-05  0.2481E-05  0.2186E+00  0.2186E+00
     -0.230  0.1318E-03  0.1318E-03  0.2187E+00  0.2187E+00
     -0.122  0.8918E-03  0.8918E-03  0.2188E+00  0.2188E+00
     -0.014  0.8606E-03  0.8606E-03  0.2188E+00  0.2188E+00
      0.095  0.1181E-03  0.1181E-03  0.2189E+00  0.2189E+00
      0.203  0.2049E-05  0.2049E-05  0.2189E+00  0.2189E+00
      0.311  0.3090E-06  0.3090E-06  0.2189E+00  0.2189E+00
      0.419  0.5489E-04  0.5489E-04  0.2189E+00  0.2189E+00
      0.527  0.1168E-02  0.1168E-02  0.2190E+00  0.2190E+00
      0.635  0.3341E-02  0.3341E-02  0.2194E+00  0.2194E+00
      0.743  0.1686E-02  0.1686E-02  0.2195E+00  0.2195E+00
      0.852  0.3262E-02  0.3262E-02  0.2199E+00  0.2199E+00
      0.960  0.6415E-02  0.6414E-02  0.2206E+00  0.2206E+00
      1.068  0.8124E-02  0.8123E-02  0.2215E+00  0.2215E+00
      1.176  0.1783E-01  0.1783E-01  0.2234E+00  0.2234E+00
      1.284  0.2159E-01  0.2159E-01  0.2257E+00  0.2257E+00
      1.392  0.1007E-01  0.1007E-01  0.2268E+00  0.2268E+00
      1.500  0.2757E-02  0.2757E-02  0.2271E+00  0.2271E+00
      1.609  0.4295E-02  0.4295E-02  0.2276E+00  0.2276E+00
      1.717  0.1071E-01  0.1071E-01  0.2287E+00  0.2287E+00
      1.825  0.1867E-01  0.1867E-01  0.2308E+00  0.2308E+00
      1.933  0.1524E-01  0.1525E-01  0.2324E+00  0.2324E+00
      2.041  0.9403E-02  0.9403E-02  0.2334E+00  0.2334E+00
      2.149  0.7171E-02  0.7171E-02  0.2342E+00  0.2342E+00
      2.257  0.9910E-02  0.9910E-02  0.2353E+00  0.2353E+00
      2.366  0.9062E-02  0.9062E-02  0.2362E+00  0.2362E+00
      2.474  0.6495E-02  0.6495E-02  0.2369E+00  0.2369E+00
      2.582  0.8343E-02  0.8343E-02  0.2378E+00  0.2378E+00
      2.690  0.5438E-02  0.5438E-02  0.2384E+00  0.2384E+00
      2.798  0.8981E-02  0.8981E-02  0.2394E+00  0.2394E+00
      2.906  0.1240E-01  0.1240E-01  0.2407E+00  0.2407E+00
      3.014  0.9437E-02  0.9439E-02  0.2418E+00  0.2418E+00
      3.122  0.7715E-02  0.7717E-02  0.2426E+00  0.2426E+00
      3.231  0.8100E-02  0.8099E-02  0.2435E+00  0.2435E+00
      3.339  0.1209E-01  0.1209E-01  0.2448E+00  0.2448E+00
      3.447  0.1058E-01  0.1058E-01  0.2459E+00  0.2459E+00
      3.555  0.8252E-02  0.8252E-02  0.2468E+00  0.2468E+00
      3.663  0.1073E-01  0.1073E-01  0.2480E+00  0.2480E+00
      3.771  0.1066E-01  0.1065E-01  0.2491E+00  0.2491E+00
      3.879  0.1838E-01  0.1838E-01  0.2511E+00  0.2511E+00
      3.988  0.2483E-01  0.2483E-01  0.2538E+00  0.2538E+00
      4.096  0.1777E-01  0.1777E-01  0.2557E+00  0.2557E+00
      4.204  0.1217E-01  0.1217E-01  0.2570E+00  0.2570E+00
      4.312  0.1988E-01  0.1988E-01  0.2592E+00  0.2592E+00
      4.420  0.2672E-01  0.2672E-01  0.2621E+00  0.2621E+00
      4.528  0.2275E-01  0.2275E-01  0.2645E+00  0.2645E+00
      4.636  0.2492E-01  0.2493E-01  0.2672E+00  0.2672E+00
      4.745  0.2960E-01  0.2961E-01  0.2704E+00  0.2704E+00
      4.853  0.2720E-01  0.2721E-01  0.2734E+00  0.2734E+00
      4.961  0.2293E-01  0.2292E-01  0.2759E+00  0.2759E+00
      5.069  0.2371E-01  0.2371E-01  0.2784E+00  0.2784E+00
      5.177  0.2996E-01  0.2996E-01  0.2817E+00  0.2817E+00
      5.285  0.2528E-01  0.2527E-01  0.2844E+00  0.2844E+00
      5.393  0.2207E-01  0.2209E-01  0.2868E+00  0.2868E+00
      5.502  0.2279E-01  0.2278E-01  0.2893E+00  0.2893E+00
      5.610  0.1530E-01  0.1528E-01  0.2909E+00  0.2909E+00
      5.718  0.1480E-01  0.1480E-01  0.2925E+00  0.2925E+00
      5.826  0.3335E-01  0.3336E-01  0.2961E+00  0.2961E+00
      5.934  0.3750E-01  0.3751E-01  0.3002E+00  0.3002E+00
      6.042  0.2065E-01  0.2063E-01  0.3024E+00  0.3024E+00
      6.150  0.1502E-01  0.1502E-01  0.3040E+00  0.3040E+00
      6.259  0.1913E-01  0.1914E-01  0.3061E+00  0.3061E+00
      6.367  0.1677E-01  0.1677E-01  0.3079E+00  0.3079E+00
      6.475  0.1874E-01  0.1875E-01  0.3099E+00  0.3099E+00
      6.583  0.1926E-01  0.1925E-01  0.3120E+00  0.3120E+00
      6.691  0.2191E-01  0.2190E-01  0.3144E+00  0.3144E+00
      6.799  0.2512E-01  0.2514E-01  0.3171E+00  0.3171E+00
      6.907  0.2793E-01  0.2795E-01  0.3201E+00  0.3201E+00
      7.016  0.2904E-01  0.2903E-01  0.3233E+00  0.3233E+00
      7.124  0.3093E-01  0.3094E-01  0.3266E+00  0.3266E+00
      7.232  0.2966E-01  0.2965E-01  0.3298E+00  0.3298E+00
      7.340  0.2743E-01  0.2742E-01  0.3328E+00  0.3328E+00
      7.448  0.2128E-01  0.2126E-01  0.3351E+00  0.3351E+00
      7.556  0.1416E-01  0.1417E-01  0.3366E+00  0.3366E+00
      7.664  0.2186E-01  0.2188E-01  0.3390E+00  0.3390E+00
      7.773  0.2344E-01  0.2342E-01  0.3415E+00  0.3415E+00
      7.881  0.1994E-01  0.1993E-01  0.3437E+00  0.3437E+00
      7.989  0.2512E-01  0.2512E-01  0.3464E+00  0.3464E+00
      8.097  0.2243E-01  0.2242E-01  0.3488E+00  0.3488E+00
      8.205  0.2459E-01  0.2462E-01  0.3515E+00  0.3515E+00
      8.313  0.3478E-01  0.3478E-01  0.3552E+00  0.3552E+00
      8.421  0.2989E-01  0.2987E-01  0.3585E+00  0.3585E+00
      8.530  0.2939E-01  0.2941E-01  0.3616E+00  0.3616E+00
      8.638  0.3397E-01  0.3398E-01  0.3653E+00  0.3653E+00
      8.746  0.2405E-01  0.2402E-01  0.3679E+00  0.3679E+00
      8.854  0.1884E-01  0.1882E-01  0.3700E+00  0.3700E+00
      8.962  0.2136E-01  0.2136E-01  0.3723E+00  0.3723E+00
      9.070  0.1771E-01  0.1771E-01  0.3742E+00  0.3742E+00
      9.178  0.6746E-02  0.6743E-02  0.3749E+00  0.3749E+00
      9.287  0.8513E-03  0.8508E-03  0.3750E+00  0.3750E+00
      9.395  0.2145E-04  0.2143E-04  0.3750E+00  0.3750E+00
      9.503  0.7667E-07  0.7654E-07  0.3750E+00  0.3750E+00
      9.611  0.3240E-10  0.3232E-10  0.3750E+00  0.3750E+00
      9.719  0.1473E-14  0.1469E-14  0.3750E+00  0.3750E+00
      9.827  0.0000E+00  0.0000E+00  0.3750E+00  0.3750E+00
      9.935  0.0000E+00  0.0000E+00  0.3750E+00  0.3750E+00
     10.044  0.0000E+00  0.0000E+00  0.3750E+00  0.3750E+00
     10.152  0.0000E+00  0.0000E+00  0.3750E+00  0.3750E+00
     10.260  0.0000E+00  0.0000E+00  0.3750E+00  0.3750E+00
     10.368  0.0000E+00  0.0000E+00  0.3750E+00  0.3750E+00
     10.476  0.0000E+00  0.0000E+00  0.3750E+00  0.3750E+00
     10.584  0.0000E+00  0.0000E+00  0.3750E+00  0.3750E+00
