  15  15   0   4
  0.1995323E+02  0.4800000E-09  0.4800000E-09  0.1500000E-08  0.5000000E-15
  1.000000000000000E-004
  CAR 
 Lattice                                 
     10.83739483    -21.23529902  301      0.14977092      1.00000000
    -21.235  0.0000E+00  0.0000E+00  0.0000E+00  0.0000E+00
    -21.128  0.0000E+00  0.0000E+00  0.0000E+00  0.0000E+00
    -21.021  0.0000E+00  0.0000E+00  0.0000E+00  0.0000E+00
    -20.915  0.0000E+00  0.0000E+00  0.0000E+00  0.0000E+00
    -20.808  0.0000E+00  0.0000E+00  0.0000E+00  0.0000E+00
    -20.701  0.0000E+00  0.0000E+00  0.0000E+00  0.0000E+00
    -20.594  0.0000E+00  0.0000E+00  0.0000E+00  0.0000E+00
    -20.487  0.0000E+00  0.0000E+00  0.0000E+00  0.0000E+00
    -20.380  0.0000E+00  0.0000E+00  0.0000E+00  0.0000E+00
    -20.273  0.6474E-15  0.6474E-15  0.6921E-16  0.6921E-16
    -20.166  0.1139E-10  0.1139E-10  0.1218E-11  0.1218E-11
    -20.059  0.2395E-07  0.2395E-07  0.2561E-08  0.2561E-08
    -19.952  0.6617E-05  0.6617E-05  0.7100E-06  0.7100E-06
    -19.845  0.2688E-03  0.2688E-03  0.2945E-04  0.2945E-04
    -19.739  0.1969E-02  0.1969E-02  0.2399E-03  0.2399E-03
    -19.632  0.4145E-02  0.4145E-02  0.6831E-03  0.6831E-03
    -19.525  0.4512E-02  0.4512E-02  0.1165E-02  0.1165E-02
    -19.418  0.4930E-02  0.4930E-02  0.1692E-02  0.1692E-02
    -19.311  0.4145E-02  0.4145E-02  0.2136E-02  0.2136E-02
    -19.204  0.5376E-02  0.5376E-02  0.2710E-02  0.2710E-02
    -19.097  0.4206E-02  0.4206E-02  0.3160E-02  0.3160E-02
    -18.990  0.4245E-02  0.4245E-02  0.3614E-02  0.3614E-02
    -18.883  0.6002E-02  0.6002E-02  0.4255E-02  0.4255E-02
    -18.776  0.3803E-02  0.3803E-02  0.4662E-02  0.4662E-02
    -18.669  0.3873E-02  0.3873E-02  0.5076E-02  0.5076E-02
    -18.563  0.6107E-02  0.6107E-02  0.5729E-02  0.5729E-02
    -18.456  0.5198E-02  0.5198E-02  0.6285E-02  0.6285E-02
    -18.349  0.2951E-02  0.2951E-02  0.6600E-02  0.6600E-02
    -18.242  0.4369E-02  0.4369E-02  0.7067E-02  0.7067E-02
    -18.135  0.6902E-02  0.6902E-02  0.7805E-02  0.7805E-02
    -18.028  0.4549E-02  0.4549E-02  0.8291E-02  0.8291E-02
    -17.921  0.3790E-02  0.3790E-02  0.8697E-02  0.8697E-02
    -17.814  0.2971E-02  0.2971E-02  0.9014E-02  0.9014E-02
    -17.707  0.6621E-02  0.6621E-02  0.9722E-02  0.9722E-02
    -17.600  0.6594E-02  0.6594E-02  0.1043E-01  0.1043E-01
    -17.493  0.3523E-02  0.3523E-02  0.1080E-01  0.1080E-01
    -17.387  0.3284E-02  0.3284E-02  0.1115E-01  0.1115E-01
    -17.280  0.4094E-02  0.4094E-02  0.1159E-01  0.1159E-01
    -17.173  0.6210E-02  0.6210E-02  0.1226E-01  0.1226E-01
    -17.066  0.6736E-02  0.6736E-02  0.1298E-01  0.1298E-01
    -16.959  0.5316E-02  0.5316E-02  0.1354E-01  0.1354E-01
    -16.852  0.5957E-02  0.5957E-02  0.1418E-01  0.1418E-01
    -16.745  0.9952E-02  0.9952E-02  0.1525E-01  0.1525E-01
    -16.638  0.1447E-01  0.1447E-01  0.1679E-01  0.1679E-01
    -16.531  0.1538E-01  0.1538E-01  0.1844E-01  0.1844E-01
    -16.424  0.1648E-01  0.1648E-01  0.2020E-01  0.2020E-01
    -16.317  0.2029E-01  0.2029E-01  0.2237E-01  0.2237E-01
    -16.211  0.1760E-01  0.1760E-01  0.2425E-01  0.2425E-01
    -16.104  0.6057E-02  0.6057E-02  0.2490E-01  0.2490E-01
    -15.997  0.7360E-02  0.7360E-02  0.2568E-01  0.2568E-01
    -15.890  0.8139E-02  0.8139E-02  0.2655E-01  0.2655E-01
    -15.783  0.4553E-02  0.4553E-02  0.2704E-01  0.2704E-01
    -15.676  0.4139E-02  0.4139E-02  0.2748E-01  0.2748E-01
    -15.569  0.3862E-02  0.3862E-02  0.2790E-01  0.2790E-01
    -15.462  0.3801E-02  0.3801E-02  0.2830E-01  0.2830E-01
    -15.355  0.3656E-02  0.3656E-02  0.2869E-01  0.2869E-01
    -15.248  0.8055E-02  0.8055E-02  0.2955E-01  0.2955E-01
    -15.141  0.8055E-02  0.8055E-02  0.3042E-01  0.3042E-01
    -15.035  0.3921E-02  0.3921E-02  0.3083E-01  0.3083E-01
    -14.928  0.3856E-02  0.3856E-02  0.3125E-01  0.3125E-01
    -14.821  0.3353E-02  0.3353E-02  0.3161E-01  0.3161E-01
    -14.714  0.4613E-02  0.4613E-02  0.3210E-01  0.3210E-01
    -14.607  0.6098E-02  0.6098E-02  0.3275E-01  0.3275E-01
    -14.500  0.1006E-01  0.1006E-01  0.3383E-01  0.3383E-01
    -14.393  0.1612E-01  0.1612E-01  0.3555E-01  0.3555E-01
    -14.286  0.1790E-01  0.1790E-01  0.3746E-01  0.3746E-01
    -14.179  0.1778E-01  0.1778E-01  0.3936E-01  0.3936E-01
    -14.072  0.1154E-01  0.1154E-01  0.4060E-01  0.4060E-01
    -13.965  0.7595E-02  0.7595E-02  0.4141E-01  0.4141E-01
    -13.859  0.1467E-01  0.1467E-01  0.4298E-01  0.4298E-01
    -13.752  0.1560E-01  0.1560E-01  0.4464E-01  0.4464E-01
    -13.645  0.1063E-01  0.1063E-01  0.4578E-01  0.4578E-01
    -13.538  0.1082E-01  0.1082E-01  0.4694E-01  0.4694E-01
    -13.431  0.1187E-01  0.1187E-01  0.4821E-01  0.4821E-01
    -13.324  0.1936E-01  0.1936E-01  0.5028E-01  0.5028E-01
    -13.217  0.2051E-01  0.2051E-01  0.5247E-01  0.5247E-01
    -13.110  0.1841E-01  0.1841E-01  0.5444E-01  0.5444E-01
    -13.003  0.1185E-01  0.1185E-01  0.5570E-01  0.5570E-01
    -12.896  0.7220E-02  0.7220E-02  0.5648E-01  0.5648E-01
    -12.789  0.3262E-02  0.3262E-02  0.5682E-01  0.5682E-01
    -12.683  0.4105E-02  0.4105E-02  0.5726E-01  0.5726E-01
    -12.576  0.6857E-02  0.6857E-02  0.5800E-01  0.5800E-01
    -12.469  0.6844E-02  0.6844E-02  0.5873E-01  0.5873E-01
    -12.362  0.4827E-02  0.4827E-02  0.5924E-01  0.5924E-01
    -12.255  0.6722E-02  0.6722E-02  0.5996E-01  0.5996E-01
    -12.148  0.6991E-02  0.6991E-02  0.6071E-01  0.6071E-01
    -12.041  0.5610E-02  0.5610E-02  0.6131E-01  0.6131E-01
    -11.934  0.5326E-02  0.5326E-02  0.6188E-01  0.6188E-01
    -11.827  0.3349E-02  0.3349E-02  0.6224E-01  0.6224E-01
    -11.720  0.6437E-02  0.6437E-02  0.6293E-01  0.6293E-01
    -11.613  0.7915E-02  0.7915E-02  0.6377E-01  0.6377E-01
    -11.507  0.3334E-02  0.3334E-02  0.6413E-01  0.6413E-01
    -11.400  0.3390E-02  0.3390E-02  0.6449E-01  0.6449E-01
    -11.293  0.3383E-02  0.3383E-02  0.6485E-01  0.6485E-01
    -11.186  0.5982E-02  0.5982E-02  0.6549E-01  0.6549E-01
    -11.079  0.6732E-02  0.6732E-02  0.6621E-01  0.6621E-01
    -10.972  0.3766E-02  0.3766E-02  0.6661E-01  0.6661E-01
    -10.865  0.1878E-02  0.1878E-02  0.6682E-01  0.6682E-01
    -10.758  0.4804E-02  0.4804E-02  0.6733E-01  0.6733E-01
    -10.651  0.5802E-02  0.5802E-02  0.6795E-01  0.6795E-01
    -10.544  0.5216E-02  0.5216E-02  0.6851E-01  0.6851E-01
    -10.437  0.7882E-02  0.7882E-02  0.6935E-01  0.6935E-01
    -10.331  0.5785E-02  0.5785E-02  0.6997E-01  0.6997E-01
    -10.224  0.2406E-02  0.2406E-02  0.7022E-01  0.7022E-01
    -10.117  0.7820E-02  0.7820E-02  0.7106E-01  0.7106E-01
    -10.010  0.1220E-01  0.1220E-01  0.7236E-01  0.7236E-01
     -9.903  0.1535E-01  0.1535E-01  0.7401E-01  0.7401E-01
     -9.796  0.1500E-01  0.1500E-01  0.7561E-01  0.7561E-01
     -9.689  0.1422E-01  0.1422E-01  0.7713E-01  0.7713E-01
     -9.582  0.1795E-01  0.1795E-01  0.7905E-01  0.7905E-01
     -9.475  0.1919E-01  0.1919E-01  0.8110E-01  0.8110E-01
     -9.368  0.9734E-02  0.9734E-02  0.8214E-01  0.8214E-01
     -9.261  0.6177E-02  0.6177E-02  0.8280E-01  0.8280E-01
     -9.155  0.1403E-01  0.1403E-01  0.8430E-01  0.8430E-01
     -9.048  0.1643E-01  0.1643E-01  0.8606E-01  0.8606E-01
     -8.941  0.1631E-01  0.1631E-01  0.8780E-01  0.8780E-01
     -8.834  0.1458E-01  0.1458E-01  0.8936E-01  0.8936E-01
     -8.727  0.1428E-01  0.1428E-01  0.9089E-01  0.9089E-01
     -8.620  0.1087E-01  0.1087E-01  0.9205E-01  0.9205E-01
     -8.513  0.7768E-02  0.7768E-02  0.9288E-01  0.9288E-01
     -8.406  0.1503E-01  0.1503E-01  0.9449E-01  0.9449E-01
     -8.299  0.2046E-01  0.2046E-01  0.9667E-01  0.9667E-01
     -8.192  0.1601E-01  0.1601E-01  0.9839E-01  0.9839E-01
     -8.085  0.7650E-02  0.7650E-02  0.9920E-01  0.9920E-01
     -7.979  0.1040E-01  0.1040E-01  0.1003E+00  0.1003E+00
     -7.872  0.2124E-01  0.2124E-01  0.1026E+00  0.1026E+00
     -7.765  0.1940E-01  0.1940E-01  0.1047E+00  0.1047E+00
     -7.658  0.1122E-01  0.1122E-01  0.1059E+00  0.1059E+00
     -7.551  0.1598E-01  0.1598E-01  0.1076E+00  0.1076E+00
     -7.444  0.2504E-01  0.2504E-01  0.1102E+00  0.1102E+00
     -7.337  0.2446E-01  0.2446E-01  0.1129E+00  0.1129E+00
     -7.230  0.2073E-01  0.2073E-01  0.1151E+00  0.1151E+00
     -7.123  0.9817E-02  0.9817E-02  0.1161E+00  0.1161E+00
     -7.016  0.9024E-02  0.9024E-02  0.1171E+00  0.1171E+00
     -6.909  0.1938E-01  0.1938E-01  0.1192E+00  0.1192E+00
     -6.803  0.1726E-01  0.1726E-01  0.1210E+00  0.1210E+00
     -6.696  0.1130E-01  0.1130E-01  0.1222E+00  0.1222E+00
     -6.589  0.1175E-01  0.1175E-01  0.1235E+00  0.1235E+00
     -6.482  0.1734E-01  0.1734E-01  0.1253E+00  0.1253E+00
     -6.375  0.1778E-01  0.1778E-01  0.1272E+00  0.1272E+00
     -6.268  0.1949E-01  0.1949E-01  0.1293E+00  0.1293E+00
     -6.161  0.2058E-01  0.2058E-01  0.1315E+00  0.1315E+00
     -6.054  0.1880E-01  0.1880E-01  0.1335E+00  0.1335E+00
     -5.947  0.1944E-01  0.1944E-01  0.1356E+00  0.1356E+00
     -5.840  0.1690E-01  0.1690E-01  0.1374E+00  0.1374E+00
     -5.733  0.1842E-01  0.1842E-01  0.1394E+00  0.1394E+00
     -5.627  0.2577E-01  0.2577E-01  0.1421E+00  0.1421E+00
     -5.520  0.2300E-01  0.2300E-01  0.1446E+00  0.1446E+00
     -5.413  0.3129E-01  0.3129E-01  0.1479E+00  0.1479E+00
     -5.306  0.2863E-01  0.2863E-01  0.1510E+00  0.1510E+00
     -5.199  0.1533E-01  0.1533E-01  0.1526E+00  0.1526E+00
     -5.092  0.1762E-01  0.1762E-01  0.1545E+00  0.1545E+00
     -4.985  0.3274E-01  0.3274E-01  0.1580E+00  0.1580E+00
     -4.878  0.3633E-01  0.3633E-01  0.1619E+00  0.1619E+00
     -4.771  0.2442E-01  0.2442E-01  0.1645E+00  0.1645E+00
     -4.664  0.1707E-01  0.1707E-01  0.1663E+00  0.1663E+00
     -4.557  0.1074E-01  0.1074E-01  0.1675E+00  0.1675E+00
     -4.451  0.1016E-01  0.1016E-01  0.1686E+00  0.1686E+00
     -4.344  0.1455E-01  0.1455E-01  0.1701E+00  0.1701E+00
     -4.237  0.1125E-01  0.1125E-01  0.1713E+00  0.1713E+00
     -4.130  0.8319E-02  0.8319E-02  0.1722E+00  0.1722E+00
     -4.023  0.9128E-02  0.9128E-02  0.1732E+00  0.1732E+00
     -3.916  0.1582E-01  0.1582E-01  0.1749E+00  0.1749E+00
     -3.809  0.2151E-01  0.2151E-01  0.1772E+00  0.1772E+00
     -3.702  0.1755E-01  0.1755E-01  0.1791E+00  0.1791E+00
     -3.595  0.1988E-01  0.1988E-01  0.1812E+00  0.1812E+00
     -3.488  0.2302E-01  0.2302E-01  0.1836E+00  0.1836E+00
     -3.381  0.2351E-01  0.2351E-01  0.1862E+00  0.1862E+00
     -3.275  0.1824E-01  0.1824E-01  0.1881E+00  0.1881E+00
     -3.168  0.1747E-01  0.1747E-01  0.1900E+00  0.1900E+00
     -3.061  0.2034E-01  0.2034E-01  0.1921E+00  0.1921E+00
     -2.954  0.1562E-01  0.1562E-01  0.1938E+00  0.1938E+00
     -2.847  0.1462E-01  0.1462E-01  0.1954E+00  0.1954E+00
     -2.740  0.1358E-01  0.1358E-01  0.1968E+00  0.1968E+00
     -2.633  0.1678E-01  0.1678E-01  0.1986E+00  0.1986E+00
     -2.526  0.1824E-01  0.1824E-01  0.2006E+00  0.2006E+00
     -2.419  0.1194E-01  0.1194E-01  0.2019E+00  0.2019E+00
     -2.312  0.1147E-01  0.1147E-01  0.2031E+00  0.2031E+00
     -2.206  0.7315E-02  0.7315E-02  0.2039E+00  0.2039E+00
     -2.099  0.1087E-01  0.1087E-01  0.2050E+00  0.2050E+00
     -1.992  0.2044E-01  0.2044E-01  0.2072E+00  0.2072E+00
     -1.885  0.1268E-01  0.1268E-01  0.2086E+00  0.2086E+00
     -1.778  0.3833E-02  0.3833E-02  0.2090E+00  0.2090E+00
     -1.671  0.4379E-02  0.4379E-02  0.2094E+00  0.2094E+00
     -1.564  0.9827E-02  0.9827E-02  0.2105E+00  0.2105E+00
     -1.457  0.1080E-01  0.1080E-01  0.2116E+00  0.2116E+00
     -1.350  0.1132E-01  0.1132E-01  0.2129E+00  0.2129E+00
     -1.243  0.1190E-01  0.1190E-01  0.2141E+00  0.2141E+00
     -1.136  0.9123E-02  0.9123E-02  0.2151E+00  0.2151E+00
     -1.030  0.6949E-02  0.6949E-02  0.2158E+00  0.2158E+00
     -0.923  0.4922E-02  0.4922E-02  0.2164E+00  0.2164E+00
     -0.816  0.3749E-02  0.3749E-02  0.2168E+00  0.2168E+00
     -0.709  0.3996E-02  0.3996E-02  0.2172E+00  0.2172E+00
     -0.602  0.4343E-02  0.4343E-02  0.2177E+00  0.2177E+00
     -0.495  0.5872E-02  0.5872E-02  0.2183E+00  0.2183E+00
     -0.388  0.2589E-02  0.2589E-02  0.2186E+00  0.2186E+00
     -0.281  0.5828E-03  0.5828E-03  0.2186E+00  0.2186E+00
     -0.174  0.6699E-04  0.6699E-04  0.2186E+00  0.2186E+00
     -0.067  0.3615E-05  0.3615E-05  0.2186E+00  0.2186E+00
      0.040  0.1213E-03  0.1213E-03  0.2187E+00  0.2187E+00
      0.146  0.8541E-03  0.8541E-03  0.2187E+00  0.2187E+00
      0.253  0.9044E-03  0.9044E-03  0.2188E+00  0.2188E+00
      0.360  0.1446E-03  0.1446E-03  0.2189E+00  0.2189E+00
      0.467  0.3147E-05  0.3147E-05  0.2189E+00  0.2189E+00
      0.574  0.6505E-06  0.6505E-06  0.2189E+00  0.2189E+00
      0.681  0.8528E-04  0.8528E-04  0.2189E+00  0.2189E+00
      0.788  0.1420E-02  0.1420E-02  0.2190E+00  0.2190E+00
      0.895  0.3345E-02  0.3345E-02  0.2194E+00  0.2194E+00
      1.002  0.1324E-02  0.1324E-02  0.2195E+00  0.2195E+00
      1.109  0.1352E-02  0.1352E-02  0.2197E+00  0.2197E+00
      1.216  0.3102E-02  0.3102E-02  0.2200E+00  0.2200E+00
      1.322  0.5179E-02  0.5179E-02  0.2205E+00  0.2205E+00
      1.429  0.1094E-01  0.1094E-01  0.2217E+00  0.2217E+00
      1.536  0.2656E-01  0.2656E-01  0.2246E+00  0.2246E+00
      1.643  0.1910E-01  0.1910E-01  0.2266E+00  0.2266E+00
      1.750  0.4446E-02  0.4446E-02  0.2271E+00  0.2271E+00
      1.857  0.4379E-02  0.4379E-02  0.2275E+00  0.2275E+00
      1.964  0.8765E-02  0.8765E-02  0.2285E+00  0.2285E+00
      2.071  0.1188E-01  0.1188E-01  0.2298E+00  0.2298E+00
      2.178  0.1925E-01  0.1925E-01  0.2318E+00  0.2318E+00
      2.285  0.1593E-01  0.1593E-01  0.2335E+00  0.2335E+00
      2.392  0.6386E-02  0.6386E-02  0.2342E+00  0.2342E+00
      2.498  0.6478E-02  0.6478E-02  0.2349E+00  0.2349E+00
      2.605  0.9699E-02  0.9699E-02  0.2359E+00  0.2359E+00
      2.712  0.7526E-02  0.7526E-02  0.2367E+00  0.2367E+00
      2.819  0.8033E-02  0.8033E-02  0.2376E+00  0.2376E+00
      2.926  0.7747E-02  0.7747E-02  0.2384E+00  0.2384E+00
      3.033  0.1104E-01  0.1104E-01  0.2396E+00  0.2396E+00
      3.140  0.1043E-01  0.1043E-01  0.2407E+00  0.2407E+00
      3.247  0.6612E-02  0.6612E-02  0.2414E+00  0.2414E+00
      3.354  0.5474E-02  0.5474E-02  0.2420E+00  0.2420E+00
      3.461  0.1086E-01  0.1086E-01  0.2432E+00  0.2432E+00
      3.568  0.1152E-01  0.1152E-01  0.2444E+00  0.2444E+00
      3.674  0.9575E-02  0.9575E-02  0.2454E+00  0.2454E+00
      3.781  0.1046E-01  0.1046E-01  0.2465E+00  0.2465E+00
      3.888  0.8990E-02  0.8990E-02  0.2475E+00  0.2475E+00
      3.995  0.1242E-01  0.1242E-01  0.2488E+00  0.2488E+00
      4.102  0.1493E-01  0.1493E-01  0.2504E+00  0.2504E+00
      4.209  0.1771E-01  0.1771E-01  0.2523E+00  0.2523E+00
      4.316  0.2113E-01  0.2113E-01  0.2546E+00  0.2546E+00
      4.423  0.2158E-01  0.2158E-01  0.2569E+00  0.2569E+00
      4.530  0.2575E-01  0.2575E-01  0.2596E+00  0.2596E+00
      4.637  0.2409E-01  0.2409E-01  0.2622E+00  0.2622E+00
      4.744  0.2397E-01  0.2397E-01  0.2648E+00  0.2648E+00
      4.850  0.2358E-01  0.2358E-01  0.2673E+00  0.2673E+00
      4.957  0.2534E-01  0.2534E-01  0.2700E+00  0.2700E+00
      5.064  0.2394E-01  0.2394E-01  0.2726E+00  0.2726E+00
      5.171  0.1771E-01  0.1771E-01  0.2745E+00  0.2745E+00
      5.278  0.1936E-01  0.1936E-01  0.2765E+00  0.2765E+00
      5.385  0.2401E-01  0.2401E-01  0.2791E+00  0.2791E+00
      5.492  0.2384E-01  0.2384E-01  0.2816E+00  0.2816E+00
      5.599  0.2434E-01  0.2434E-01  0.2842E+00  0.2842E+00
      5.706  0.2431E-01  0.2431E-01  0.2868E+00  0.2868E+00
      5.813  0.2912E-01  0.2912E-01  0.2900E+00  0.2900E+00
      5.920  0.2505E-01  0.2505E-01  0.2926E+00  0.2926E+00
      6.026  0.1522E-01  0.1522E-01  0.2943E+00  0.2943E+00
      6.133  0.2361E-01  0.2361E-01  0.2968E+00  0.2968E+00
      6.240  0.2647E-01  0.2647E-01  0.2996E+00  0.2996E+00
      6.347  0.1931E-01  0.1931E-01  0.3017E+00  0.3017E+00
      6.454  0.2293E-01  0.2293E-01  0.3041E+00  0.3041E+00
      6.561  0.2253E-01  0.2253E-01  0.3065E+00  0.3065E+00
      6.668  0.1668E-01  0.1668E-01  0.3083E+00  0.3083E+00
      6.775  0.1855E-01  0.1855E-01  0.3103E+00  0.3103E+00
      6.882  0.2094E-01  0.2094E-01  0.3125E+00  0.3125E+00
      6.989  0.1801E-01  0.1801E-01  0.3145E+00  0.3145E+00
      7.096  0.1989E-01  0.1989E-01  0.3166E+00  0.3166E+00
      7.202  0.2997E-01  0.2997E-01  0.3198E+00  0.3198E+00
      7.309  0.2873E-01  0.2873E-01  0.3229E+00  0.3229E+00
      7.416  0.2551E-01  0.2551E-01  0.3256E+00  0.3256E+00
      7.523  0.1639E-01  0.1639E-01  0.3273E+00  0.3273E+00
      7.630  0.1818E-01  0.1818E-01  0.3293E+00  0.3293E+00
      7.737  0.2065E-01  0.2065E-01  0.3315E+00  0.3315E+00
      7.844  0.2785E-01  0.2785E-01  0.3345E+00  0.3345E+00
      7.951  0.2520E-01  0.2520E-01  0.3372E+00  0.3372E+00
      8.058  0.2275E-01  0.2275E-01  0.3396E+00  0.3396E+00
      8.165  0.2834E-01  0.2834E-01  0.3426E+00  0.3426E+00
      8.272  0.2784E-01  0.2784E-01  0.3456E+00  0.3456E+00
      8.378  0.2789E-01  0.2789E-01  0.3486E+00  0.3486E+00
      8.485  0.1971E-01  0.1971E-01  0.3507E+00  0.3507E+00
      8.592  0.1903E-01  0.1903E-01  0.3527E+00  0.3527E+00
      8.699  0.2650E-01  0.2650E-01  0.3556E+00  0.3556E+00
      8.806  0.3505E-01  0.3505E-01  0.3593E+00  0.3593E+00
      8.913  0.3966E-01  0.3966E-01  0.3636E+00  0.3636E+00
      9.020  0.3593E-01  0.3593E-01  0.3674E+00  0.3674E+00
      9.127  0.3480E-01  0.3480E-01  0.3711E+00  0.3711E+00
      9.234  0.2073E-01  0.2073E-01  0.3733E+00  0.3733E+00
      9.341  0.1051E-01  0.1051E-01  0.3745E+00  0.3745E+00
      9.448  0.4389E-02  0.4389E-02  0.3749E+00  0.3749E+00
      9.554  0.6720E-03  0.6720E-03  0.3750E+00  0.3750E+00
      9.661  0.2177E-04  0.2177E-04  0.3750E+00  0.3750E+00
      9.768  0.1020E-06  0.1020E-06  0.3750E+00  0.3750E+00
      9.875  0.5686E-10  0.5686E-10  0.3750E+00  0.3750E+00
      9.982  0.3483E-14  0.3483E-14  0.3750E+00  0.3750E+00
     10.089  0.0000E+00  0.0000E+00  0.3750E+00  0.3750E+00
     10.196  0.0000E+00  0.0000E+00  0.3750E+00  0.3750E+00
     10.303  0.0000E+00  0.0000E+00  0.3750E+00  0.3750E+00
     10.410  0.0000E+00  0.0000E+00  0.3750E+00  0.3750E+00
     10.517  0.0000E+00  0.0000E+00  0.3750E+00  0.3750E+00
     10.624  0.0000E+00  0.0000E+00  0.3750E+00  0.3750E+00
     10.730  0.0000E+00  0.0000E+00  0.3750E+00  0.3750E+00
     10.837  0.0000E+00  0.0000E+00  0.3750E+00  0.3750E+00
