Lattice                                 
           1
     4.156922    2.400000    0.000000
    -4.156922    2.400000    0.000000
     0.000000    0.000000   15.000000
   B    C 
     4    11
Direct configuration=     1
   0.00415361  0.00267210  0.12034134
   0.35695335  0.00285503  0.09748893
   0.00423858  0.35550699  0.09749256
   0.65142295  0.65006557  0.09747688
   0.32808646  0.32671938  0.10030508
   0.68027775  0.00278085  0.10027562
   0.00416530  0.67883808  0.10026559
   0.99999933  0.49999967  0.33333333
   0.16666633  0.33333267  0.33333333
   0.99999933  0.99999967  0.33333333
   0.16666633  0.83333267  0.33333333
   0.49999933  0.49999967  0.33333333
   0.66666633  0.33333267  0.33333333
   0.49999933  0.99999967  0.33333333
   0.66666633  0.83333267  0.33333333
Lattice                                 
           1
     4.264246    2.462011    0.000030
    -4.264201    2.461933    0.000045
    -0.000029    0.000234   14.981280
   B    C 
     4    11
Direct configuration=     2
   0.00418369  0.00276195  0.11951443
   0.35616511  0.00302551  0.09772394
   0.00395634  0.35449879  0.09772618
   0.65242413  0.65080527  0.09771516
   0.32563860  0.32392633  0.10030970
   0.68303044  0.00310507  0.10028741
   0.00389008  0.68130899  0.10027962
   0.00012436  0.49997556  0.33334308
   0.16687741  0.33395153  0.33340010
   0.99999896  0.99999347  0.33323638
   0.16706643  0.83312015  0.33340291
   0.50003957  0.50016117  0.33334593
   0.66666629  0.33333795  0.33328542
   0.49985315  0.99987359  0.33334265
   0.66604612  0.83292199  0.33339976
Lattice                                 
           1
     4.192674    2.420658    0.000010
    -4.192659    2.420631    0.000015
    -0.000010    0.000078   14.993764
   B    C 
     4    11
Direct configuration=     3
   0.00416411  0.00270351  0.12006656
   0.35667754  0.00291468  0.09756702
   0.00413982  0.35515423  0.09757019
   0.65177329  0.65032441  0.09755606
   0.32722992  0.32574207  0.10030661
   0.68124096  0.00289431  0.10027954
   0.00406900  0.67970266  0.10027025
   0.00004308  0.49999123  0.33333657
   0.16674019  0.33354921  0.33335552
   0.99999920  0.99999750  0.33330112
   0.16680634  0.83325831  0.33335645
   0.50001341  0.50005618  0.33333752
   0.66666632  0.33333451  0.33331741
   0.49994818  0.99995555  0.33333643
   0.66644931  0.83318897  0.33335541
Lattice                                 
           1
     4.192169    2.420366    0.000010
    -4.192154    2.420340    0.000015
    -0.000009    0.000077   14.993852
   B    C 
     4    11
Direct configuration=     4
   0.00416397  0.00270309  0.12007046
   0.35668122  0.00291389  0.09756592
   0.00414114  0.35515893  0.09756909
   0.65176861  0.65032095  0.09755494
   0.32724135  0.32575511  0.10030658
   0.68122811  0.00289280  0.10027949
   0.00407028  0.67969112  0.10027019
   0.00004250  0.49999134  0.33333653
   0.16673921  0.33354632  0.33335521
   0.99999920  0.99999752  0.33330157
   0.16680447  0.83325930  0.33335613
   0.50001322  0.50005542  0.33333746
   0.66666632  0.33333449  0.33331764
   0.49994886  0.99995614  0.33333639
   0.66645221  0.83319089  0.33335509
Lattice                                 
           1
     4.191797    2.420156    0.000038
    -4.191779    2.420125    0.000042
    -0.000007    0.000251   14.976678
   B    C 
     4    11
Direct configuration=     5
   0.00417523  0.00274835  0.11927767
   0.35662436  0.00302026  0.09782494
   0.00396645  0.35497334  0.09782677
   0.65196698  0.65035394  0.09781672
   0.32637447  0.32469162  0.10027457
   0.68227250  0.00306874  0.10025384
   0.00390589  0.68057410  0.10024634
  -0.00004240  0.50000349  0.33335298
   0.16665653  0.33327254  0.33339970
   0.99999906  0.00000093  0.33324709
   0.16662336  0.83334867  0.33340256
   0.49999351  0.49995426  0.33335582
   0.66666950  0.33333336  0.33328192
   0.50004266  0.00004093  0.33335245
   0.66673258  0.83338283  0.33339930
Lattice                                 
           1
     4.191739    2.420124    0.000043
    -4.191721    2.420092    0.000047
    -0.000007    0.000278   14.974020
   B    C 
     4    11
Direct configuration=     6
   0.00417697  0.00275535  0.11915482
   0.35661555  0.00303673  0.09786507
   0.00393940  0.35494461  0.09786670
   0.65199768  0.65035904  0.09785729
   0.32624028  0.32452700  0.10026962
   0.68243417  0.00309597  0.10024986
   0.00388045  0.68071078  0.10024265
  -0.00005554  0.50000537  0.33335553
   0.16664373  0.33323015  0.33340659
   0.99999904  0.00000146  0.33323864
   0.16659532  0.83336250  0.33340976
   0.49999046  0.49993860  0.33335867
   0.66667000  0.33333318  0.33327638
   0.50005718  0.00005405  0.33335494
   0.66677598  0.83341254  0.33340615
Lattice                                 
           1
     4.191968    2.420262    0.000063
    -4.191947    2.420226    0.000061
     0.000003    0.000385   14.962882
   B    C 
     4    11
Direct configuration=     7
   0.00418151  0.00277641  0.11867270
   0.35683889  0.00307915  0.09801144
   0.00386509  0.35511692  0.09801231
   0.65183499  0.65012414  0.09800519
   0.32635065  0.32456311  0.10025754
   0.68239007  0.00315800  0.10024165
   0.00381728  0.68060794  0.10023539
   0.00000328  0.50000036  0.33336902
   0.16667222  0.33336500  0.33342750
   0.00000212  0.00000097  0.33322133
   0.16669573  0.83333100  0.33343157
   0.50000308  0.50000446  0.33337304
   0.66666847  0.33333439  0.33325888
   0.49999878 -0.00000136  0.33336821
   0.66663850  0.83330684  0.33342689
Lattice                                 
           1
     4.192653    2.420676    0.000123
    -4.192625    2.420628    0.000105
     0.000033    0.000709   14.929470
   B    C 
     4    11
Direct configuration=     8
   0.00419514  0.00283961  0.11722528
   0.35750886  0.00320640  0.09845087
   0.00364217  0.35563378  0.09844947
   0.65134695  0.64941945  0.09844924
   0.32668174  0.32467143  0.10022129
   0.68225777  0.00334410  0.10021698
   0.00362779  0.68029946  0.10021360
   0.00017971  0.49998535  0.33340953
   0.16675770  0.33376953  0.33349026
   0.00001139 -0.00000049  0.33316937
   0.16699694  0.83323649  0.33349706
   0.50004092  0.50020205  0.33341620
   0.66666390  0.33333801  0.33320634
   0.49982359 -0.00016759  0.33340804
   0.66622610  0.83298976  0.33348913
Lattice                                 
           1
     4.194023    2.421505    0.000244
    -4.193981    2.421433    0.000193
     0.000093    0.001355   14.862646
   B    C 
     4    11
Direct configuration=     9
   0.00422262  0.00296617  0.11432395
   0.35884850  0.00346080  0.09933169
   0.00319632  0.35666730  0.09932574
   0.65037097  0.64801026  0.09933933
   0.32734381  0.32488803  0.10014863
   0.68199324  0.00371623  0.10016755
   0.00324887  0.67968259  0.10016992
   0.00053250  0.49995533  0.33349073
   0.16692862  0.33457843  0.33361607
   0.00002991 -0.00000340  0.33306520
   0.16759925  0.83304750  0.33362832
   0.50011660  0.50059714  0.33350270
   0.66665477  0.33334526  0.33310103
   0.49947326 -0.00049999  0.33348789
   0.66540143  0.83235569  0.33361391
Lattice                                 
           1
     4.193541    2.421213    0.000202
    -4.193504    2.421150    0.000162
     0.000072    0.001128   14.886156
   B    C 
     4    11
Direct configuration=    10
   0.00421281  0.00292153  0.11534928
   0.35837739  0.00337137  0.09902041
   0.00335317  0.35630385  0.09901606
   0.65071427  0.64850591  0.09902476
   0.32711095  0.32481185  0.10017431
   0.68208627  0.00358535  0.10018502
   0.00338213  0.67989954  0.10018535
   0.00040843  0.49996589  0.33346203
   0.16686851  0.33429394  0.33357161
   0.00002339 -0.00000238  0.33310202
   0.16738743  0.83311398  0.33358193
   0.50008999  0.50045819  0.33347213
   0.66665797  0.33334270  0.33313825
   0.49959647 -0.00038308  0.33345967
   0.66569147  0.83257870  0.33356981
Lattice                                 
           1
     4.193660    2.421262    0.000221
    -4.193636    2.421220    0.000171
     0.000089    0.001214   14.876786
   B    C 
     4    11
Direct configuration=    11
   0.00421452  0.00293024  0.11493202
   0.35852663  0.00338414  0.09912048
   0.00332729  0.35643852  0.09911568
   0.65058561  0.64835030  0.09912575
   0.32725092  0.32493644  0.10018812
   0.68195838  0.00359325  0.10020159
   0.00336830  0.67976313  0.10020254
   0.00032533  0.49997890  0.33347415
   0.16684949  0.33413690  0.33358307
   0.00001885 -0.00000133  0.33310489
   0.16726362  0.83314264  0.33359377
   0.50006737  0.50036148  0.33348458
   0.66666358  0.33334263  0.33313324
   0.49968326 -0.00030480  0.33347163
   0.66585752  0.83271488  0.33358116
Lattice                                 
           1
     4.193926    2.421370    0.000262
    -4.193930    2.421377    0.000191
     0.000127    0.001407   14.855829
   B    C 
     4    11
Direct configuration=    12
   0.00421836  0.00294973  0.11399812
   0.35886043  0.00341270  0.09934445
   0.00326939  0.35673972  0.09933865
   0.65029783  0.64800226  0.09935177
   0.32756399  0.32521510  0.10021901
   0.68167231  0.00361094  0.10023869
   0.00333735  0.67945802  0.10024100
   0.00013946  0.50000801  0.33350127
   0.16680693  0.33378565  0.33360870
   0.00000870  0.00000103  0.33311134
   0.16698670  0.83320676  0.33362026
   0.50001678  0.50014517  0.33351244
   0.66667613  0.33334247  0.33312202
   0.49987738 -0.00012970  0.33349839
   0.66622890  0.83301948  0.33360657
Lattice                                 
           1
     4.194459    2.421588    0.000346
    -4.194517    2.421690    0.000232
     0.000202    0.001792   14.813914
   B    C 
     4    11
Direct configuration=    13
   0.00422614  0.00298879  0.11212769
   0.35952797  0.00346981  0.09979301
   0.00315358  0.35734207  0.09978521
   0.64972228  0.64730619  0.09980445
   0.32819010  0.32577240  0.10028087
   0.68110021  0.00364629  0.10031299
   0.00327547  0.67884784  0.10031804
  -0.00023225  0.50006621  0.33355559
   0.16672183  0.33308319  0.33366004
  -0.00001159  0.00000574  0.33312425
   0.16643290  0.83333499  0.33367331
   0.49991560  0.49971257  0.33356824
   0.66670121  0.33334214  0.33309956
   0.50026560  0.00022047  0.33355198
   0.66697163  0.83362863  0.33365745
Lattice                                 
           1
     4.194289    2.421518    0.000319
    -4.194330    2.421590    0.000219
     0.000178    0.001669   14.827293
   B    C 
     4    11
Direct configuration=    14
   0.00422360  0.00297629  0.11272639
   0.35931494  0.00345159  0.09964943
   0.00319056  0.35714985  0.09964227
   0.64990598  0.64752834  0.09965955
   0.32799028  0.32559454  0.10026107
   0.68128280  0.00363501  0.10028920
   0.00329522  0.67904258  0.10029338
  -0.00011361  0.50004764  0.33353820
   0.16674899  0.33330738  0.33364360
  -0.00000512  0.00000424  0.33312012
   0.16660965  0.83329407  0.33365633
   0.49994789  0.49985063  0.33355038
   0.66669321  0.33334224  0.33310675
   0.50014170  0.00010871  0.33353483
   0.66673459  0.83343422  0.33364116
Lattice                                 
           1
     4.194070    2.421410    0.000340
    -4.194098    2.421457    0.000222
     0.000211    0.001741   14.819006
   B    C 
     4    11
Direct configuration=    15
   0.00422039  0.00296327  0.11231331
   0.35923943  0.00341557  0.09968463
   0.00324705  0.35711920  0.09967766
   0.64993283  0.64760647  0.09969453
   0.32795983  0.32564576  0.10033162
   0.68123553  0.00355600  0.10036071
   0.00336274  0.67906848  0.10036492
  -0.00008021  0.50002777  0.33354864
   0.16668547  0.33326180  0.33364285
   0.00000648  0.00000762  0.33316252
   0.16660867  0.83334460  0.33365493
   0.49998139  0.49989801  0.33356003
   0.66668405  0.33334046  0.33313067
   0.50010911  0.00008985  0.33354519
   0.66676792  0.83342248  0.33364047
Lattice                                 
           1
     4.193416    2.421084    0.000402
    -4.193401    2.421058    0.000229
     0.000308    0.001957   14.794146
   B    C 
     4    11
Direct configuration=    16
   0.00421078  0.00292424  0.11107338
   0.35901290  0.00330751  0.09979026
   0.00341655  0.35702724  0.09978388
   0.65001338  0.64784088  0.09979953
   0.32786847  0.32579942  0.10054338
   0.68109370  0.00331894  0.10057536
   0.00356532  0.67914621  0.10057967
   0.00002001  0.49996814  0.33357998
   0.16649488  0.33312505  0.33364058
   0.00004125  0.00001775  0.33328979
   0.16660572  0.83349619  0.33365072
   0.50008190  0.50004014  0.33358901
   0.66665656  0.33333511  0.33320245
   0.50001133  0.00003326  0.33357629
   0.66686792  0.83338725  0.33363839
Lattice                                 
           1
     4.192107    2.420433    0.000527
    -4.192008    2.420261    0.000244
     0.000502    0.002390   14.744425
   B    C 
     4    11
Direct configuration=    17
   0.00419170  0.00284624  0.10858935
   0.35855976  0.00309135  0.10000190
   0.00375558  0.35684328  0.09999667
   0.65017448  0.64830975  0.10000988
   0.32768571  0.32610679  0.10096762
   0.68080999  0.00284474  0.10100537
   0.00397050  0.67930167  0.10100988
   0.00022047  0.49984886  0.33364277
   0.16611364  0.33285152  0.33363604
   0.00011080  0.00003802  0.33354476
   0.16659983  0.83379942  0.33364229
   0.50028294  0.50032445  0.33364706
   0.66660158  0.33332439  0.33334625
   0.49981575 -0.00007994  0.33363860
   0.66706794  0.83331678  0.33363423
Lattice                                 
           1
     4.192908    2.420765    0.000564
    -4.192890    2.420733    0.000248
     0.000560    0.002519   14.730934
   B    C 
     4    11
Direct configuration=    18
   0.00418415  0.00282145  0.10788231
   0.35855238  0.00303447  0.10006147
   0.00385501  0.35690263  0.10005699
   0.65009908  0.64833310  0.10006844
   0.32770284  0.32623021  0.10107453
   0.68068766  0.00275663  0.10111206
   0.00405633  0.67925901  0.10111618
   0.00015342  0.49993808  0.33365531
   0.16642924  0.33315777  0.33364826
   0.00004842  0.00002001  0.33361884
   0.16670112  0.83356312  0.33365328
   0.50012720  0.50020460  0.33365812
   0.66666136  0.33334047  0.33340901
   0.49986308 -0.00008763  0.33365121
   0.66683938  0.83329342  0.33364665
Lattice                                 
           1
     4.193283    2.420920    0.000581
    -4.193302    2.420954    0.000250
     0.000588    0.002579   14.724632
   B    C 
     4    11
Direct configuration=    19
   0.00418064  0.00280987  0.10755173
   0.35854894  0.00300790  0.10008932
   0.00390144  0.35693034  0.10008519
   0.65006386  0.64834400  0.10009582
   0.32771084  0.32628785  0.10112452
   0.68063052  0.00271548  0.10116194
   0.00409641  0.67923909  0.10116588
   0.00012211  0.49997975  0.33366117
   0.16657664  0.33330080  0.33365398
   0.00001928  0.00001160  0.33365347
   0.16674843  0.83345276  0.33365842
   0.50005446  0.50014862  0.33366329
   0.66668927  0.33334798  0.33343836
   0.49988519 -0.00009123  0.33365711
   0.66673262  0.83328251  0.33365246
Lattice                                 
           1
     4.194031    2.421231    0.000616
    -4.194126    2.421395    0.000254
     0.000642    0.002699   14.712028
   B    C 
     4    11
Direct configuration=    20
   0.00417362  0.00278673  0.10689028
   0.35854204  0.00295477  0.10014505
   0.00399431  0.35698577  0.10014161
   0.64999343  0.64836581  0.10015061
   0.32772685  0.32640312  0.10122454
   0.68051624  0.00263318  0.10126176
   0.00417658  0.67919924  0.10126533
   0.00005949  0.50006307  0.33367290
   0.16687142  0.33358683  0.33366541
  -0.00003899 -0.00000522  0.33372277
   0.16684304  0.83323207  0.33366870
   0.49990899  0.50003668  0.33367364
   0.66674510  0.33336300  0.33349707
   0.49992940 -0.00009842  0.33366892
   0.66651914  0.83326069  0.33366409
Lattice                                 
           1
     4.193587    2.421047    0.000595
    -4.193637    2.421133    0.000252
     0.000610    0.002627   14.719508
   B    C 
     4    11
Direct configuration=    21
   0.00417777  0.00280046  0.10728315
   0.35854614  0.00298630  0.10011195
   0.00393921  0.35695289  0.10010810
   0.65003522  0.64835287  0.10011807
   0.32771735  0.32633473  0.10116513
   0.68058405  0.00268202  0.10120247
   0.00412902  0.67922288  0.10120626
   0.00009665  0.50001363  0.33366593
   0.16669651  0.33341711  0.33365862
  -0.00000441  0.00000476  0.33368161
   0.16678691  0.83336301  0.33366259
   0.49999531  0.50010310  0.33366750
   0.66671197  0.33335409  0.33346219
   0.49990316 -0.00009415  0.33366191
   0.66664581  0.83327364  0.33365718
Lattice                                 
           1
     4.194168    2.421461    0.000600
    -4.194177    2.421477    0.000252
     0.000617    0.002643   14.719789
   B    C 
     4    11
Direct configuration=    22
   0.00417554  0.00279983  0.10726177
   0.35870712  0.00300561  0.10013194
   0.00391740  0.35708533  0.10012850
   0.64989149  0.64819861  0.10013740
   0.32778363  0.32633079  0.10113096
   0.68058382  0.00276408  0.10116620
   0.00406836  0.67914704  0.10116956
   0.00006307  0.50000751  0.33366404
   0.16669528  0.33342067  0.33367908
   0.00002082  0.00001135  0.33367564
   0.16675212  0.83333763  0.33368315
   0.50002930  0.50006274  0.33366571
   0.66668779  0.33334767  0.33348080
   0.49997245 -0.00003042  0.33366018
   0.66661246  0.83327889  0.33367773
Lattice                                 
           1
     4.195292    2.422263    0.000608
    -4.195223    2.422143    0.000254
     0.000630    0.002673   14.720333
   B    C 
     4    11
Direct configuration=    23
   0.00417123  0.00279861  0.10722039
   0.35901861  0.00304297  0.10017064
   0.00387520  0.35734162  0.10016798
   0.64961337  0.64790011  0.10017481
   0.32791188  0.32632318  0.10106483
   0.68058338  0.00292288  0.10109600
   0.00395100  0.67900029  0.10109854
  -0.00000189  0.49999566  0.33366038
   0.16669291  0.33342757  0.33371866
   0.00006963  0.00002410  0.33366407
   0.16668482  0.83328852  0.33372293
   0.50009507  0.49998463  0.33366227
   0.66664100  0.33333524  0.33351680
   0.50010653  0.00009290  0.33365685
   0.66654793  0.83328906  0.33371750
Lattice                                 
           1
     4.195081    2.422041    0.000616
    -4.195079    2.422038    0.000254
     0.000644    0.002697   14.721195
   B    C 
     4    11
Direct configuration=    24
   0.00416604  0.00278918  0.10718225
   0.35914120  0.00307192  0.10019463
   0.00384141  0.35742908  0.10019255
   0.64951378  0.64778149  0.10019771
   0.32789282  0.32620949  0.10101190
   0.68069824  0.00302941  0.10103932
   0.00386869  0.67901758  0.10104110
   0.00001107  0.49998799  0.33366877
   0.16670799  0.33342911  0.33374633
   0.00001752  0.00001150  0.33366463
   0.16675914  0.83333359  0.33375081
   0.50004248  0.50003293  0.33367089
   0.66669292  0.33334844  0.33354086
   0.49999666  0.00001698  0.33366556
   0.66661071  0.83327866  0.33374534
Lattice                                 
           1
     4.194878    2.421829    0.000624
    -4.194941    2.421937    0.000254
     0.000657    0.002719   14.722022
   B    C 
     4    11
Direct configuration=    25
   0.00416106  0.00278014  0.10714567
   0.35925878  0.00309969  0.10021764
   0.00380900  0.35751295  0.10021610
   0.64941827  0.64766772  0.10021966
   0.32787453  0.32610045  0.10096115
   0.68080840  0.00313157  0.10098497
   0.00378975  0.67903416  0.10098602
   0.00002350  0.49998063  0.33367682
   0.16672245  0.33343058  0.33377286
  -0.00003246 -0.00000058  0.33366518
   0.16683042  0.83337681  0.33377755
   0.49999204  0.50007924  0.33367916
   0.66674271  0.33336110  0.33356394
   0.49989129 -0.00005582  0.33367392
   0.66667093  0.83326869  0.33377203
Lattice                                 
           1
     4.194406    2.421687    0.000635
    -4.194388    2.421655    0.000253
     0.000677    0.002752   14.723267
   B    C 
     4    11
Direct configuration=    26
   0.00415533  0.00276583  0.10708450
   0.35927305  0.00312424  0.10022852
   0.00378118  0.35750097  0.10022759
   0.64942068  0.64765200  0.10022918
   0.32782366  0.32598696  0.10091076
   0.68092855  0.00320011  0.10092994
   0.00373372  0.67909441  0.10093009
   0.00008505  0.50001274  0.33370204
   0.16667657  0.33340912  0.33379783
   0.00002659  0.00001392  0.33368225
   0.16675303  0.83335140  0.33380271
   0.50003259  0.50007856  0.33370461
   0.66668484  0.33334721  0.33358608
   0.49996519 -0.00004423  0.33369941
   0.66662064  0.83327410  0.33379717
Lattice                                 
           1
     4.193976    2.421557    0.000645
    -4.193883    2.421396    0.000253
     0.000695    0.002781   14.724404
   B    C 
     4    11
Direct configuration=    27
   0.00415010  0.00275275  0.10702865
   0.35928608  0.00314665  0.10023845
   0.00375577  0.35749003  0.10023807
   0.64942288  0.64763764  0.10023786
   0.32777721  0.32588332  0.10086475
   0.68103826  0.00326269  0.10087970
   0.00368256  0.67914944  0.10087902
   0.00014126  0.50004206  0.33372507
   0.16663467  0.33338952  0.33382063
   0.00008051  0.00002716  0.33369783
   0.16668235  0.83332820  0.33382568
   0.50006963  0.50007794  0.33372785
   0.66663201  0.33333453  0.33360629
   0.50003267 -0.00003365  0.33372269
   0.66657471  0.83327904  0.33382012
Lattice                                 
           1
     4.194199    2.421625    0.000640
    -4.194145    2.421530    0.000253
     0.000686    0.002766   14.723814
   B    C 
     4    11
Direct configuration=    28
   0.00415282  0.00275953  0.10705761
   0.35927932  0.00313502  0.10023330
   0.00376895  0.35749570  0.10023263
   0.64942174  0.64764509  0.10023336
   0.32780130  0.32593707  0.10088861
   0.68098136  0.00323023  0.10090575
   0.00370909  0.67912090  0.10090550
   0.00011211  0.50002686  0.33371313
   0.16665640  0.33339969  0.33380881
   0.00005254  0.00002029  0.33368975
   0.16671901  0.83334024  0.33381377
   0.50005042  0.50007827  0.33371580
   0.66665941  0.33334111  0.33359581
   0.49999767 -0.00003914  0.33371062
   0.66659853  0.83327648  0.33380822
Lattice                                 
           1
     4.194294    2.421624    0.000654
    -4.194267    2.421577    0.000254
     0.000710    0.002811   14.725270
   B    C 
     4    11
Direct configuration=    29
   0.00414911  0.00274848  0.10697316
   0.35923849  0.00315120  0.10022455
   0.00375586  0.35744150  0.10022444
   0.64947231  0.64768571  0.10022322
   0.32780508  0.32592742  0.10084765
   0.68099492  0.00324545  0.10085977
   0.00369415  0.67912096  0.10085850
   0.00005141  0.50001364  0.33375199
   0.16669101  0.33341220  0.33383292
   0.00003840  0.00001691  0.33372214
   0.16672735  0.83332908  0.33383804
   0.50004335  0.50003814  0.33375490
   0.66667508  0.33334466  0.33361914
   0.50001779  0.00000283  0.33374976
   0.66660636  0.83328917  0.33383249
Lattice                                 
           1
     4.194580    2.421621    0.000697
    -4.194635    2.421715    0.000255
     0.000783    0.002945   14.729637
   B    C 
     4    11
Direct configuration=    30
   0.00413798  0.00271532  0.10671982
   0.35911601  0.00319973  0.10019830
   0.00371661  0.35727888  0.10019987
   0.64962402  0.64780756  0.10019279
   0.32781645  0.32589850  0.10072481
   0.68103558  0.00329111  0.10072182
   0.00364934  0.67912114  0.10071753
  -0.00013066  0.49997398  0.33386855
   0.16679484  0.33344973  0.33390524
  -0.00000405  0.00000677  0.33381930
   0.16675238  0.83329560  0.33391084
   0.50002211  0.49991776  0.33387220
   0.66672207  0.33335530  0.33368911
   0.50007814  0.00012873  0.33386716
   0.66662987  0.83332723  0.33390530
Lattice                                 
           1
     4.194645    2.421664    0.000705
    -4.194694    2.421749    0.000256
     0.000796    0.002972   14.730426
   B    C 
     4    11
Direct configuration=    31
   0.00413727  0.00271333  0.10667042
   0.35910634  0.00320455  0.10018821
   0.00371436  0.35726482  0.10019004
   0.64963629  0.64781810  0.10018204
   0.32783160  0.32591693  0.10070659
   0.68101687  0.00328888  0.10070113
   0.00365056  0.67910397  0.10069635
  -0.00011188  0.49997432  0.33388874
   0.16678255  0.33344872  0.33392050
  -0.00000055  0.00000781  0.33383716
   0.16675699  0.83330276  0.33392615
   0.50002748  0.49993455  0.33389249
   0.66671896  0.33335499  0.33370474
   0.50006677  0.00011496  0.33388746
   0.66662706  0.83331864  0.33392063
Lattice                                 
           1
     4.194838    2.421792    0.000730
    -4.194872    2.421851    0.000258
     0.000834    0.003053   14.732792
   B    C 
     4    11
Direct configuration=    32
   0.00413514  0.00270738  0.10652222
   0.35907736  0.00321903  0.10015794
   0.00370761  0.35722264  0.10016057
   0.64967308  0.64784974  0.10014981
   0.32787706  0.32597222  0.10065194
   0.68096072  0.00328221  0.10063907
   0.00365423  0.67905247  0.10063281
  -0.00005554  0.49997535  0.33394929
   0.16674568  0.33344568  0.33396629
   0.00000995  0.00001093  0.33389074
   0.16677083  0.83332424  0.33397206
   0.50004361  0.49998493  0.33395335
   0.66670964  0.33335403  0.33375161
   0.50003266  0.00007363  0.33394836
   0.66661863  0.83329285  0.33396661
Lattice                                 
           1
     4.195225    2.422049    0.000778
    -4.195229    2.422055    0.000263
     0.000911    0.003215   14.737525
   B    C 
     4    11
Direct configuration=    33
   0.00413088  0.00269547  0.10622588
   0.35901939  0.00324798  0.10009742
   0.00369413  0.35713828  0.10010162
   0.64974668  0.64791301  0.10008534
   0.32796798  0.32608280  0.10054264
   0.68084843  0.00326888  0.10051496
   0.00366158  0.67894947  0.10050574
   0.00005714  0.49997741  0.33407038
   0.16667195  0.33343961  0.33405785
   0.00003096  0.00001716  0.33399788
   0.16679850  0.83336720  0.33406388
   0.50007586  0.50008570  0.33407507
   0.66669098  0.33335213  0.33384535
   0.49996443 -0.00000903  0.33407012
   0.66660177  0.83324127  0.33405856
Lattice                                 
           1
     4.195999    2.422562    0.000876
    -4.195942    2.422463    0.000273
     0.001065    0.003539   14.746989
   B    C 
     4    11
Direct configuration=    34
   0.00412240  0.00267166  0.10563337
   0.35890347  0.00330589  0.09997640
   0.00366716  0.35696958  0.09998378
   0.64989387  0.64803953  0.09995644
   0.32814981  0.32630394  0.10032411
   0.68062389  0.00324221  0.10026682
   0.00367628  0.67874349  0.10025168
   0.00028247  0.49998152  0.33431247
   0.16652448  0.33342747  0.33424091
   0.00007296  0.00002962  0.33421209
   0.16685384  0.83345312  0.33424744
   0.50014034  0.50028719  0.33431841
   0.66665367  0.33334831  0.33403276
   0.49982798 -0.00017433  0.33431358
   0.66656805  0.83313812  0.33424240
Lattice                                 
           1
     4.195627    2.422316    0.000829
    -4.195599    2.422267    0.000268
     0.000991    0.003383   14.742439
   B    C 
     4    11
Direct configuration=    35
   0.00412645  0.00268309  0.10591803
   0.35895918  0.00327805  0.10003454
   0.00368012  0.35705067  0.10004040
   0.64982312  0.64797871  0.10001837
   0.32806241  0.32619764  0.10042910
   0.68073181  0.00325502  0.10038603
   0.00366920  0.67884249  0.10037374
   0.00017417  0.49997955  0.33419616
   0.16659537  0.33343331  0.33415296
   0.00005278  0.00002363  0.33410917
   0.16682725  0.83341183  0.33415925
   0.50010935  0.50019035  0.33420150
   0.66667161  0.33335015  0.33394272
   0.49989358 -0.00009487  0.33419661
   0.66658426  0.83318771  0.33415408
Lattice                                 
           1
     4.195569    2.422284    0.000847
    -4.195543    2.422238    0.000270
     0.001018    0.003444   14.743937
   B    C 
     4    11
Direct configuration=    36
   0.00412635  0.00268382  0.10580498
   0.35896431  0.00327945  0.10000430
   0.00368241  0.35705413  0.10001057
   0.64981665  0.64797498  0.09998707
   0.32807279  0.32622413  0.10039591
   0.68070260  0.00324057  0.10034849
   0.00368112  0.67882492  0.10033533
   0.00017466  0.49999169  0.33423524
   0.16660627  0.33342637  0.33419219
   0.00005122  0.00002330  0.33414592
   0.16681525  0.83340616  0.33419847
   0.50009454  0.50018028  0.33424073
   0.66667520  0.33335102  0.33398423
   0.49990159 -0.00009749  0.33423585
   0.66659570  0.83320400  0.33419339
Lattice                                 
           1
     4.195396    2.422191    0.000900
    -4.195373    2.422152    0.000278
     0.001098    0.003628   14.748429
   B    C 
     4    11
Direct configuration=    37
   0.00412607  0.00268602  0.10546584
   0.35897967  0.00328362  0.09991360
   0.00368930  0.35706452  0.09992111
   0.64979725  0.64796379  0.09989318
   0.32810395  0.32630360  0.10029635
   0.68061497  0.00319721  0.10023588
   0.00371688  0.67877220  0.10022011
   0.00017611  0.50002808  0.33435246
   0.16663896  0.33340557  0.33430986
   0.00004654  0.00002231  0.33425616
   0.16677927  0.83338915  0.33431612
   0.50005011  0.50015009  0.33435840
   0.66668597  0.33335362  0.33410874
   0.49992562 -0.00010534  0.33435356
   0.66663000  0.83325289  0.33431131
Lattice                                 
           1
     4.195049    2.422003    0.001007
    -4.195034    2.421978    0.000292
     0.001259    0.003995   14.757414
   B    C 
     4    11
Direct configuration=    38
   0.00412553  0.00269042  0.10478777
   0.35901042  0.00329198  0.09973224
   0.00370308  0.35708531  0.09974223
   0.64975845  0.64794141  0.09970547
   0.32816629  0.32646256  0.10009729
   0.68043973  0.00311050  0.10001072
   0.00378840  0.67866677  0.09998974
   0.00017901  0.50010086  0.33458684
   0.16670433  0.33336394  0.33454513
   0.00003716  0.00002032  0.33447657
   0.16670729  0.83335514  0.33455135
   0.49996122  0.50008970  0.33459366
   0.66670750  0.33335882  0.33435768
   0.49997367 -0.00012106  0.33458890