 ----------------------------------------------------
    OOO  PPPP  EEEEE N   N M   M PPPP
   O   O P   P E     NN  N MM MM P   P
   O   O PPPP  EEEEE N N N M M M PPPP   -- VERSION
   O   O P     E     N  NN M   M P
    OOO  P     EEEEE N   N M   M P
 ----------------------------------------------------
 running   48 mpi-ranks, with    1 threads/rank
 distrk:  each k-point on   48 cores,    1 groups
 distr:  one band on    1 cores,   48 groups
 vasp.6.3.2 27Jun22 (build Dec 22 2022 13:13:19) complex                        
  
 POSCAR found type information on POSCAR B C 
 POSCAR found :  2 types and      15 ions
 Reading from existing POTCAR
 -----------------------------------------------------------------------------
|                                                                             |
|           W    W    AA    RRRRR   N    N  II  N    N   GGGG   !!!           |
|           W    W   A  A   R    R  NN   N  II  NN   N  G    G  !!!           |
|           W    W  A    A  R    R  N N  N  II  N N  N  G       !!!           |
|           W WW W  AAAAAA  RRRRR   N  N N  II  N  N N  G  GGG   !            |
|           WW  WW  A    A  R   R   N   NN  II  N   NN  G    G                |
|           W    W  A    A  R    R  N    N  II  N    N   GGGG   !!!           |
|                                                                             |
|     You use a magnetic or noncollinear calculation, but did not specify     |
|     the initial magnetic moment with the MAGMOM tag. Note that a            |
|     default of 1 will be used for all atoms. This ferromagnetic setup       |
|     may break the symmetry of the crystal, in particular it may rule        |
|     out finding an antiferromagnetic solution. Thence, we recommend         |
|     setting the initial magnetic moment manually or verifying carefully     |
|     that this magnetic setup is desired.                                    |
|                                                                             |
 -----------------------------------------------------------------------------

 scaLAPACK will be used
 Reading from existing POTCAR
 LDA part: xc-table for Pade appr. of Perdew
 POSCAR found type information on POSCAR B C 
 POSCAR found :  2 types and      15 ions
 POSCAR, INCAR and KPOINTS ok, starting setup
 FFT: planning ... GRIDC
 FFT: planning ... GRID_SOFT
 FFT: planning ... GRID
 WAVECAR not read
 entering main loop
       N       E                     dE             d eps       ncg     rms          rms(c)
DAV:   1     0.202547280181E+03    0.20255E+03   -0.25746E+04 14208   0.860E+02
DAV:   2    -0.116399015887E+03   -0.31895E+03   -0.31744E+03 20304   0.162E+02
DAV:   3    -0.129285401057E+03   -0.12886E+02   -0.12867E+02 26544   0.429E+01
DAV:   4    -0.129312105320E+03   -0.26704E-01   -0.26698E-01 19824   0.186E+00
DAV:   5    -0.129312171210E+03   -0.65890E-04   -0.65890E-04 25632   0.944E-02    0.244E+01
DAV:   6    -0.919788536300E+02    0.37333E+02   -0.72565E+01 25680   0.255E+01    0.138E+01
DAV:   7    -0.100432252423E+03   -0.84534E+01   -0.98730E+00 21696   0.101E+01    0.808E+00
DAV:   8    -0.110419185840E+03   -0.99869E+01   -0.87985E+00 24384   0.896E+00    0.434E+00
DAV:   9    -0.117165152689E+03   -0.67460E+01   -0.39005E+00 18336   0.611E+00    0.277E+00
DAV:  10    -0.123494420066E+03   -0.63293E+01   -0.81466E+00 23712   0.708E+00    0.159E+00
DAV:  11    -0.125273057459E+03   -0.17786E+01   -0.27922E+00 25296   0.383E+00    0.992E-01
DAV:  12    -0.125436642040E+03   -0.16358E+00   -0.22943E-01 19536   0.138E+00    0.464E-01
DAV:  13    -0.125463848976E+03   -0.27207E-01   -0.23157E-02 17664   0.557E-01    0.187E-01
DAV:  14    -0.125486279815E+03   -0.22431E-01   -0.60583E-03 20688   0.285E-01    0.839E-02
DAV:  15    -0.125493730428E+03   -0.74506E-02   -0.31168E-03 19008   0.157E-01    0.439E-02
DAV:  16    -0.125495695462E+03   -0.19650E-02   -0.62913E-04 16416   0.808E-02    0.221E-02
DAV:  17    -0.125496943605E+03   -0.12481E-02   -0.17149E-04 14736   0.521E-02    0.170E-02
DAV:  18    -0.125497665343E+03   -0.72174E-03   -0.84410E-05 15840   0.383E-02    0.122E-02
DAV:  19    -0.125498091967E+03   -0.42662E-03   -0.40668E-05 19728   0.247E-02    0.718E-03
DAV:  20    -0.125498146448E+03   -0.54480E-04   -0.21457E-05 21840   0.178E-02    0.436E-03
DAV:  21    -0.125498167632E+03   -0.21184E-04   -0.59089E-06 20640   0.960E-03    0.218E-03
DAV:  22    -0.125498188617E+03   -0.20985E-04   -0.21803E-06 22128   0.553E-03    0.138E-03
DAV:  23    -0.125498203455E+03   -0.14838E-04   -0.16717E-06 21648   0.396E-03    0.718E-04
DAV:  24    -0.125498206455E+03   -0.30001E-05   -0.31537E-07 22896   0.209E-03    0.376E-04
DAV:  25    -0.125498207411E+03   -0.95638E-06   -0.11426E-07 22416   0.112E-03
   1 F= -.12708839E+03 E0= -.12708761E+03  d E =-.127088E+03  mag=    -0.0000
 curvature:   0.00 expect dE= 0.000E+00 dE for cont linesearch  0.000E+00
 trial: gam= 0.00000 g(F)=  0.301E-01 g(S)=  0.000E+00 ort = 0.000E+00 (trialstep = 0.100E+01)
 search vector abs. value=  0.301E-01
 bond charge predicted
       N       E                     dE             d eps       ncg     rms          rms(c)
DAV:   1    -0.125508212221E+03   -0.10006E-01   -0.33183E+00 14208   0.562E+00    0.495E-01
DAV:   2    -0.125499437252E+03    0.87750E-02   -0.66500E-02 26112   0.729E-01    0.218E-01
DAV:   3    -0.125498450604E+03    0.98665E-03   -0.55047E-03 20880   0.207E-01    0.854E-02
DAV:   4    -0.125498407575E+03    0.43029E-04   -0.63944E-04 26736   0.718E-02    0.226E-02
DAV:   5    -0.125498410785E+03   -0.32094E-05   -0.18454E-05 24336   0.136E-02    0.750E-03
DAV:   6    -0.125498410760E+03    0.24679E-07   -0.37759E-06 22896   0.572E-03
   2 F= -.12708801E+03 E0= -.12708723E+03  d E =0.380421E-03  mag=    -0.0000
 trial-energy change:    0.000380  1 .order    0.000320   -0.030146    0.030787
 step:   0.4933(harm=  0.4947)  dis= 0.00767  next Energy=  -127.095816 (dE=-0.743E-02)
 bond charge predicted
       N       E                     dE             d eps       ncg     rms          rms(c)
DAV:   1    -0.125508484205E+03   -0.10073E-01   -0.85224E-01 14208   0.284E+00    0.251E-01
DAV:   2    -0.125506176039E+03    0.23082E-02   -0.17011E-02 26352   0.368E-01    0.110E-01
DAV:   3    -0.125505930814E+03    0.24523E-03   -0.13846E-03 23664   0.105E-01    0.437E-02
DAV:   4    -0.125505919943E+03    0.10872E-04   -0.15645E-04 22416   0.356E-02    0.112E-02
DAV:   5    -0.125505920707E+03   -0.76474E-06   -0.52633E-06 22896   0.723E-03
   3 F= -.12709581E+03 E0= -.12709503E+03  d E =-.742148E-02  mag=    -0.0000
 curvature:  -0.25 expect dE=-0.189E-02 dE for cont linesearch -0.541E-07
 trial: gam= 0.25053 g(F)=  0.763E-02 g(S)=  0.000E+00 ort = 0.812E-04 (trialstep = 0.899E+00)
 search vector abs. value=  0.957E-02
 bond charge predicted
       N       E                     dE             d eps       ncg     rms          rms(c)
DAV:   1    -0.125511927715E+03   -0.60078E-02   -0.29461E-01 14208   0.193E+00    0.114E-01
DAV:   2    -0.125511977363E+03   -0.49648E-04   -0.19415E-03 27888   0.179E-01    0.662E-02
DAV:   3    -0.125511974051E+03    0.33121E-05   -0.19114E-04 22896   0.497E-02    0.172E-02
DAV:   4    -0.125511974962E+03   -0.91089E-06   -0.30223E-05 26592   0.201E-02    0.651E-03
DAV:   5    -0.125511975408E+03   -0.44685E-06   -0.11655E-06 22224   0.454E-03
   4 F= -.12710175E+03 E0= -.12710097E+03  d E =-.594245E-02  mag=    -0.0000
 trial-energy change:   -0.005942  1 .order   -0.005947   -0.006878   -0.005016
 step:   3.3199(harm=  3.3199)  dis= 0.02034  next Energy=  -127.108515 (dE=-0.127E-01)
 bond charge predicted
       N       E                     dE             d eps       ncg     rms          rms(c)
DAV:   1    -0.125518959976E+03   -0.69850E-02   -0.21498E+00 14208   0.519E+00    0.305E-01
DAV:   2    -0.125519417014E+03   -0.45704E-03   -0.14344E-02 26880   0.487E-01    0.178E-01
DAV:   3    -0.125519385554E+03    0.31460E-04   -0.14149E-03 21744   0.135E-01    0.458E-02
DAV:   4    -0.125519392645E+03   -0.70918E-05   -0.22046E-04 27072   0.541E-02    0.177E-02
DAV:   5    -0.125519395997E+03   -0.33518E-05   -0.80700E-06 22944   0.119E-02    0.765E-03
DAV:   6    -0.125519396150E+03   -0.15236E-06   -0.43775E-06 24624   0.742E-03
   5 F= -.12710885E+03 E0= -.12710807E+03  d E =-.130371E-01  mag=     0.0000
 curvature:  -2.07 expect dE=-0.784E-01 dE for cont linesearch -0.295E-04
 trial: gam= 4.95683 g(F)=  0.378E-01 g(S)=  0.000E+00 ort = 0.369E-03 (trialstep = 0.478E-01)
 search vector abs. value=  0.276E+00
 bond charge predicted
       N       E                     dE             d eps       ncg     rms          rms(c)
DAV:   1    -0.125521216407E+03   -0.18204E-02   -0.26933E-02 14448   0.611E-01    0.357E-02
DAV:   2    -0.125521220204E+03   -0.37969E-05   -0.22162E-04 27216   0.635E-02    0.201E-02
DAV:   3    -0.125521218682E+03    0.15214E-05   -0.22256E-05 22032   0.178E-02    0.601E-03
DAV:   4    -0.125521219135E+03   -0.45269E-06   -0.37481E-06 25104   0.718E-03
   6 F= -.12711064E+03 E0= -.12710986E+03  d E =-.179509E-02  mag=     0.0000
 ZBRENT: can't locate minimum, use default step
 trial-energy change:   -0.001795  1 .order   -0.001794   -0.001895   -0.001694
 step:   0.1914(harm=  0.4506)  dis= 0.00540  next Energy=  -127.117770 (dE=-0.892E-02)
 bond charge predicted
       N       E                     dE             d eps       ncg     rms          rms(c)
DAV:   1    -0.125525479579E+03   -0.42609E-02   -0.24267E-01 14208   0.183E+00    0.107E-01
DAV:   2    -0.125525510033E+03   -0.30454E-04   -0.19376E-03 26736   0.188E-01    0.602E-02
DAV:   3    -0.125525495877E+03    0.14156E-04   -0.19377E-04 19968   0.525E-02    0.178E-02
DAV:   4    -0.125525496753E+03   -0.87573E-06   -0.32492E-05 26496   0.208E-02    0.726E-03
DAV:   5    -0.125525497525E+03   -0.77196E-06   -0.11126E-06 21456   0.443E-03
   7 F= -.12711483E+03 E0= -.12711405E+03  d E =-.598245E-02  mag=     0.0000
 curvature:  -0.92 expect dE=-0.114E-01 dE for cont linesearch -0.175E-02
 ZBRENT: increasing intervall
 opt :   0.4785  next Energy=  -127.117840 (dE=-0.899E-02)
 bond charge predicted
       N       E                     dE             d eps       ncg     rms          rms(c)
DAV:   1    -0.125528728426E+03   -0.32317E-02   -0.97443E-01 14208   0.367E+00    0.213E-01
DAV:   2    -0.125528850856E+03   -0.12243E-03   -0.78709E-03 26688   0.379E-01    0.120E-01
DAV:   3    -0.125528791621E+03    0.59234E-04   -0.78054E-04 22224   0.105E-01    0.355E-02
DAV:   4    -0.125528794798E+03   -0.31766E-05   -0.12639E-04 25728   0.411E-02    0.144E-02
DAV:   5    -0.125528797180E+03   -0.23820E-05   -0.42683E-06 22896   0.876E-03    0.593E-03
DAV:   6    -0.125528796810E+03    0.36992E-06   -0.21187E-06 24912   0.559E-03
   8 F= -.12711791E+03 E0= -.12711714E+03  d E =-.906652E-02  mag=     0.0000
 curvature:  -1.58 expect dE=-0.226E-01 dE for cont linesearch -0.114E-04
 trial: gam= 0.56657 g(F)=  0.143E-01 g(S)=  0.000E+00 ort =-0.141E-02 (trialstep = 0.134E+00)
 search vector abs. value=  0.101E+00
 bond charge predicted
       N       E                     dE             d eps       ncg     rms          rms(c)
DAV:   1    -0.125530572947E+03   -0.17758E-02   -0.74445E-02 14208   0.905E-01    0.520E-02
DAV:   2    -0.125530588740E+03   -0.15794E-04   -0.41181E-04 23280   0.748E-02    0.311E-02
DAV:   3    -0.125530586485E+03    0.22553E-05   -0.48901E-05 21552   0.221E-02    0.505E-03
DAV:   4    -0.125530586647E+03   -0.16247E-06   -0.33159E-06 25200   0.714E-03
   9 F= -.12711960E+03 E0= -.12711882E+03  d E =-.168419E-02  mag=     0.0000
 ZBRENT: can't locate minimum, use default step
 trial-energy change:   -0.001684  1 .order   -0.001687   -0.001805   -0.001569
 step:   0.5359(harm=  1.0272)  dis= 0.00596  next Energy=  -127.124831 (dE=-0.692E-02)
 bond charge predicted
       N       E                     dE             d eps       ncg     rms          rms(c)
DAV:   1    -0.125534471664E+03   -0.38852E-02   -0.67076E-01 14208   0.272E+00    0.155E-01
DAV:   2    -0.125534629754E+03   -0.15809E-03   -0.36115E-03 26352   0.222E-01    0.927E-02
DAV:   3    -0.125534607892E+03    0.21862E-04   -0.43079E-04 20784   0.648E-02    0.143E-02
DAV:   4    -0.125534608589E+03   -0.69725E-06   -0.26775E-05 24192   0.204E-02    0.747E-03
DAV:   5    -0.125534607097E+03    0.14924E-05   -0.35930E-06 22080   0.728E-03    0.266E-03
DAV:   6    -0.125534606638E+03    0.45875E-06   -0.11392E-06 24720   0.389E-03
  10 F= -.12712330E+03 E0= -.12712252E+03  d E =-.539062E-02  mag=    -0.0000
 curvature:  -2.70 expect dE=-0.255E-01 dE for cont linesearch -0.125E-02
 ZBRENT: increasing intervall
 opt :   1.3398  next Energy=  -127.124930 (dE=-0.702E-02)
 bond charge predicted
       N       E                     dE             d eps       ncg     rms          rms(c)
DAV:   1    -0.125536690255E+03   -0.20832E-02   -0.26843E+00 14208   0.542E+00    0.306E-01
DAV:   2    -0.125537348147E+03   -0.65789E-03   -0.13854E-02 26784   0.438E-01    0.184E-01
DAV:   3    -0.125537264314E+03    0.83833E-04   -0.17529E-03 21984   0.130E-01    0.261E-02
DAV:   4    -0.125537264388E+03   -0.73741E-07   -0.10018E-04 23184   0.399E-02    0.147E-02
DAV:   5    -0.125537259786E+03    0.46018E-05   -0.13670E-05 23760   0.143E-02    0.465E-03
DAV:   6    -0.125537258767E+03    0.10189E-05   -0.40538E-06 25248   0.734E-03    0.216E-03
DAV:   7    -0.125537259992E+03   -0.12251E-05   -0.13243E-06 22944   0.380E-03    0.168E-03
DAV:   8    -0.125537263326E+03   -0.33336E-05   -0.20546E-06 19488   0.435E-03    0.861E-04
DAV:   9    -0.125537266832E+03   -0.35063E-05   -0.41443E-07 20352   0.194E-03    0.442E-04
DAV:  10    -0.125537269546E+03   -0.27143E-05   -0.15742E-07 19488   0.103E-03    0.261E-04
DAV:  11    -0.125537270817E+03   -0.12704E-05   -0.38676E-08 21936   0.496E-04    0.174E-04
DAV:  12    -0.125537271904E+03   -0.10877E-05   -0.40918E-08 19392   0.375E-04    0.874E-05
DAV:  13    -0.125537272241E+03   -0.33648E-06   -0.86923E-09 22368   0.184E-04
  11 F= -.12712536E+03 E0= -.12712461E+03  d E =-.744495E-02  mag=     0.0000
 curvature:  -3.50 expect dE=-0.110E+00 dE for cont linesearch -0.782E-04
 trial: gam= 2.24846 g(F)=  0.315E-01 g(S)=  0.000E+00 ort =-0.151E-02 (trialstep = 0.708E-01)
 search vector abs. value=  0.538E+00
 bond charge predicted
       N       E                     dE             d eps       ncg     rms          rms(c)
DAV:   1    -0.125539125864E+03   -0.18540E-02   -0.11575E-01 14208   0.120E+00    0.644E-02
DAV:   2    -0.125539154496E+03   -0.28631E-04   -0.72171E-04 26544   0.108E-01    0.389E-02
DAV:   3    -0.125539149817E+03    0.46790E-05   -0.84840E-05 17424   0.320E-02    0.737E-03
DAV:   4    -0.125539149974E+03   -0.15711E-06   -0.89056E-06 22416   0.116E-02
  12 F= -.12712711E+03 E0= -.12712635E+03  d E =-.175602E-02  mag=     0.0000
 ZBRENT: can't locate minimum, use default step
 trial-energy change:   -0.001756  1 .order   -0.001758   -0.001993   -0.001523
 step:   0.2831(harm=  0.3006)  dis= 0.00654  next Energy=  -127.129590 (dE=-0.423E-02)
 bond charge predicted
       N       E                     dE             d eps       ncg     rms          rms(c)
DAV:   1    -0.125541803411E+03   -0.26536E-02   -0.10422E+00 14208   0.361E+00    0.193E-01
DAV:   2    -0.125542066417E+03   -0.26301E-03   -0.62309E-03 25632   0.318E-01    0.116E-01
DAV:   3    -0.125542017004E+03    0.49412E-04   -0.77257E-04 21504   0.964E-02    0.218E-02
DAV:   4    -0.125542016615E+03    0.38926E-06   -0.77504E-05 22656   0.345E-02    0.110E-02
DAV:   5    -0.125542016354E+03    0.26051E-06   -0.39843E-06 24432   0.850E-03
  13 F= -.12712961E+03 E0= -.12712883E+03  d E =-.425450E-02  mag=    -0.0000
 curvature:  -2.85 expect dE=-0.581E-02 dE for cont linesearch -0.265E-04
 ZBRENT: extrapolating
 opt :   0.3078  next Energy=  -127.129640 (dE=-0.428E-02)
 bond charge predicted
       N       E                     dE             d eps       ncg     rms          rms(c)
DAV:   1    -0.125542082638E+03   -0.66023E-04   -0.14106E-02 14208   0.421E-01    0.223E-02
DAV:   2    -0.125542087282E+03   -0.46440E-05   -0.93243E-05 27456   0.387E-02    0.136E-02
DAV:   3    -0.125542087348E+03   -0.65696E-07   -0.11936E-05 21936   0.120E-02    0.267E-03
DAV:   4    -0.125542088004E+03   -0.65595E-06   -0.11633E-06 23184   0.438E-03
  14 F= -.12712964E+03 E0= -.12712886E+03  d E =-.428331E-02  mag=    -0.0000
 curvature:  -2.96 expect dE=-0.620E-02 dE for cont linesearch -0.663E-08
 trial: gam= 0.04844 g(F)=  0.210E-02 g(S)=  0.000E+00 ort = 0.347E-04 (trialstep = 0.118E+00)
 search vector abs. value=  0.336E-02
 bond charge predicted
       N       E                     dE             d eps       ncg     rms          rms(c)
DAV:   1    -0.125542319669E+03   -0.23232E-03   -0.41315E-03 17280   0.269E-01    0.162E-02
DAV:   2    -0.125542315967E+03    0.37015E-05   -0.62178E-05 26640   0.323E-02    0.818E-03
DAV:   3    -0.125542315677E+03    0.29001E-06   -0.62066E-06 20784   0.973E-03
  15 F= -.12712985E+03 E0= -.12712907E+03  d E =-.207633E-03  mag=    -0.0000
 trial-energy change:   -0.000208  1 .order   -0.000205   -0.000248   -0.000162
 step:   0.3425(harm=  0.3425)  dis= 0.00118  next Energy=  -127.130001 (dE=-0.359E-03)
 bond charge predicted
       N       E                     dE             d eps       ncg     rms          rms(c)
DAV:   1    -0.125542531873E+03   -0.21591E-03   -0.14905E-02 16512   0.511E-01    0.316E-02
DAV:   2    -0.125542516884E+03    0.14989E-04   -0.22357E-04 27120   0.614E-02    0.159E-02
DAV:   3    -0.125542513493E+03    0.33911E-05   -0.22808E-05 21552   0.186E-02    0.558E-03
DAV:   4    -0.125542513859E+03   -0.36643E-06   -0.31919E-06 22704   0.678E-03
  16 F= -.12713001E+03 E0= -.12712923E+03  d E =-.366655E-03  mag=     0.0000
 curvature:  -0.27 expect dE=-0.168E-03 dE for cont linesearch -0.446E-07
 trial: gam= 0.29077 g(F)=  0.614E-03 g(S)=  0.000E+00 ort = 0.234E-04 (trialstep = 0.163E+00)
 search vector abs. value=  0.912E-03
 bond charge predicted
       N       E                     dE             d eps       ncg     rms          rms(c)
DAV:   1    -0.125542615205E+03   -0.10171E-03   -0.18450E-03 14592   0.177E-01    0.932E-03
DAV:   2    -0.125542614173E+03    0.10324E-05   -0.19976E-05 28320   0.178E-02    0.491E-03
DAV:   3    -0.125542614102E+03    0.70499E-07   -0.17662E-06 21216   0.503E-03
  17 F= -.12713010E+03 E0= -.12712931E+03  d E =-.870524E-04  mag=    -0.0000
 trial-energy change:   -0.000087  1 .order   -0.000086   -0.000101   -0.000071
 step:   0.5518(harm=  0.5518)  dis= 0.00164  next Energy=  -127.130179 (dE=-0.171E-03)
 bond charge predicted
       N       E                     dE             d eps       ncg     rms          rms(c)
DAV:   1    -0.125542739414E+03   -0.12524E-03   -0.10477E-02 14304   0.421E-01    0.224E-02
DAV:   2    -0.125542732474E+03    0.69391E-05   -0.11187E-04 27408   0.419E-02    0.116E-02
DAV:   3    -0.125542730987E+03    0.14870E-05   -0.98742E-06 20544   0.118E-02    0.412E-03
DAV:   4    -0.125542731269E+03   -0.28172E-06   -0.13066E-06 21792   0.458E-03
  18 F= -.12713018E+03 E0= -.12712940E+03  d E =-.172646E-03  mag=    -0.0000
 curvature:  -0.41 expect dE=-0.123E-03 dE for cont linesearch -0.188E-09
 trial: gam= 0.50849 g(F)=  0.304E-03 g(S)=  0.000E+00 ort = 0.651E-06 (trialstep = 0.241E+00)
 search vector abs. value=  0.540E-03
 bond charge predicted
       N       E                     dE             d eps       ncg     rms          rms(c)
DAV:   1    -0.125542802630E+03   -0.71642E-04   -0.23340E-03 14208   0.190E-01    0.103E-02
DAV:   2    -0.125542801264E+03    0.13655E-05   -0.27402E-05 27648   0.208E-02    0.576E-03
DAV:   3    -0.125542800858E+03    0.40672E-06   -0.29052E-06 20448   0.635E-03
  19 F= -.12713024E+03 E0= -.12712946E+03  d E =-.564887E-04  mag=     0.0000
 trial-energy change:   -0.000056  1 .order   -0.000056   -0.000073   -0.000039
 step:   0.5218(harm=  0.5218)  dis= 0.00137  next Energy=  -127.130260 (dE=-0.793E-04)
 bond charge predicted
       N       E                     dE             d eps       ncg     rms          rms(c)
DAV:   1    -0.125542842132E+03   -0.40868E-04   -0.31819E-03 14208   0.222E-01    0.124E-02
DAV:   2    -0.125542840278E+03    0.18541E-05   -0.36918E-05 27600   0.242E-02    0.689E-03
DAV:   3    -0.125542839700E+03    0.57870E-06   -0.40965E-06 20640   0.754E-03
  20 F= -.12713026E+03 E0= -.12712948E+03  d E =-.800225E-04  mag=    -0.0000
 curvature:  -0.46 expect dE=-0.679E-04 dE for cont linesearch -0.164E-08
 trial: gam= 0.47499 g(F)=  0.147E-03 g(S)=  0.000E+00 ort = 0.138E-05 (trialstep = 0.297E+00)
 search vector abs. value=  0.270E-03
 bond charge predicted
       N       E                     dE             d eps       ncg     rms          rms(c)
DAV:   1    -0.125542893157E+03   -0.52879E-04   -0.20388E-03 16896   0.186E-01    0.974E-03
DAV:   2    -0.125542892095E+03    0.10617E-05   -0.22711E-05 18816   0.201E-02    0.530E-03
DAV:   3    -0.125542891789E+03    0.30670E-06   -0.27640E-06 22176   0.670E-03
  21 F= -.12713029E+03 E0= -.12712951E+03  d E =-.277213E-04  mag=    -0.0000
 trial-energy change:   -0.000028  1 .order   -0.000027   -0.000044   -0.000011
 step:   0.4001(harm=  0.4001)  dis= 0.00065  next Energy=  -127.130290 (dE=-0.294E-04)
 bond charge predicted
       N       E                     dE             d eps       ncg     rms          rms(c)
DAV:   1    -0.125542902557E+03   -0.10461E-04   -0.24758E-04 19776   0.650E-02    0.390E-03
DAV:   2    -0.125542902421E+03    0.13567E-06   -0.26619E-06 15024   0.720E-03
  22 F= -.12713029E+03 E0= -.12712951E+03  d E =-.298716E-04  mag=    -0.0000
 curvature:  -0.37 expect dE=-0.284E-04 dE for cont linesearch -0.198E-07
 trial: gam= 0.51994 g(F)=  0.775E-04 g(S)=  0.000E+00 ort = 0.382E-05 (trialstep = 0.318E+00)
 search vector abs. value=  0.154E-03
 bond charge predicted
       N       E                     dE             d eps       ncg     rms          rms(c)
DAV:   1    -0.125542961036E+03   -0.58480E-04   -0.10735E-03 14208   0.131E-01    0.630E-03
DAV:   2    -0.125542961098E+03   -0.61234E-07   -0.92381E-06 15216   0.129E-02
  23 F= -.12713031E+03 E0= -.12712953E+03  d E =-.212023E-04  mag=    -0.0000
 trial-energy change:   -0.000021  1 .order   -0.000021   -0.000025   -0.000017
 step:   1.0045(harm=  1.0045)  dis= 0.00092  next Energy=  -127.130331 (dE=-0.399E-04)
 bond charge predicted
       N       E                     dE             d eps       ncg     rms          rms(c)
DAV:   1    -0.125543059750E+03   -0.98714E-04   -0.49866E-03 14208   0.282E-01    0.139E-02
DAV:   2    -0.125543059518E+03    0.23214E-06   -0.40871E-05 21168   0.268E-02    0.816E-03
DAV:   3    -0.125543059082E+03    0.43593E-06   -0.40643E-06 17328   0.804E-03
  24 F= -.12713033E+03 E0= -.12712955E+03  d E =-.381626E-04  mag=    -0.0000
 curvature:  -0.98 expect dE=-0.108E-03 dE for cont linesearch -0.144E-06
 trial: gam= 1.51941 g(F)=  0.111E-03 g(S)=  0.000E+00 ort =-0.477E-05 (trialstep = 0.155E+00)
 search vector abs. value=  0.453E-03
 bond charge predicted
       N       E                     dE             d eps       ncg     rms          rms(c)
DAV:   1    -0.125543108891E+03   -0.49373E-04   -0.79989E-04 14880   0.114E-01    0.560E-03
DAV:   2    -0.125543108935E+03   -0.44291E-07   -0.78346E-06 18768   0.125E-02
  25 F= -.12713034E+03 E0= -.12712956E+03  d E =-.132704E-04  mag=    -0.0000
 trial-energy change:   -0.000013  1 .order   -0.000013   -0.000016   -0.000011
 step:   0.4764(harm=  0.4764)  dis= 0.00058  next Energy=  -127.130354 (dE=-0.246E-04)
 bond charge predicted
       N       E                     dE             d eps       ncg     rms          rms(c)
DAV:   1    -0.125543193641E+03   -0.84750E-04   -0.33752E-03 14208   0.235E-01    0.116E-02
DAV:   2    -0.125543193571E+03    0.69950E-07   -0.31291E-05 17856   0.245E-02    0.700E-03
DAV:   3    -0.125543193328E+03    0.24358E-06   -0.43858E-06 15216   0.935E-03
  26 F= -.12713035E+03 E0= -.12712957E+03  d E =-.219707E-04  mag=    -0.0000
 curvature:  -1.04 expect dE=-0.782E-04 dE for cont linesearch -0.448E-06
 trial: gam= 0.68118 g(F)=  0.750E-04 g(S)=  0.000E+00 ort =-0.139E-04 (trialstep = 0.219E+00)
 search vector abs. value=  0.266E-03
 bond charge predicted
       N       E                     dE             d eps       ncg     rms          rms(c)
DAV:   1    -0.125543250808E+03   -0.57237E-04   -0.82661E-04 14208   0.116E-01    0.530E-03
DAV:   2    -0.125543250925E+03   -0.11653E-06   -0.75729E-06 19824   0.124E-02
  27 F= -.12713036E+03 E0= -.12712958E+03  d E =-.132700E-04  mag=     0.0000
 ZBRENT: can't locate minimum, use default step
 trial-energy change:   -0.000013  1 .order   -0.000013   -0.000014   -0.000013
 step:   0.8778(harm=  1.7040)  dis= 0.00071  next Energy=  -127.130407 (dE=-0.558E-04)
 bond charge predicted
       N       E                     dE             d eps       ncg     rms          rms(c)
DAV:   1    -0.125543409557E+03   -0.15875E-03   -0.73730E-03 14208   0.347E-01    0.155E-02
DAV:   2    -0.125543411053E+03   -0.14954E-05   -0.60781E-05 14688   0.336E-02    0.979E-03
DAV:   3    -0.125543411387E+03   -0.33376E-06   -0.66197E-06 15168   0.116E-02
  28 F= -.12713039E+03 E0= -.12712961E+03  d E =-.407817E-04  mag=     0.0000
 curvature:  -2.39 expect dE=-0.118E-03 dE for cont linesearch -0.521E-05
 ZBRENT: increasing intervall
 opt :   2.1946  next Energy=  -127.130380 (dE=-0.290E-04)
 bond charge predicted
       N       E                     dE             d eps       ncg     rms          rms(c)
DAV:   1    -0.125543665311E+03   -0.25426E-03   -0.29709E-02 14208   0.695E-01    0.301E-02
DAV:   2    -0.125543672905E+03   -0.75940E-05   -0.24107E-04 23472   0.660E-02    0.190E-02
DAV:   3    -0.125543671925E+03    0.98023E-06   -0.19862E-05 15456   0.183E-02    0.461E-03
DAV:   4    -0.125543672091E+03   -0.16682E-06   -0.67198E-06 14592   0.131E-02
  29 F= -.12713039E+03 E0= -.12712960E+03  d E =-.357431E-04  mag=    -0.0000
 curvature:   5.38 expect dE= 0.998E-03 dE for cont linesearch  0.248E-04
 ZBRENT: bracketing found
 ZBRENT: interpolating
 opt :   1.4145  next Energy=  -127.130398 (dE=-0.472E-04)
 bond charge predicted
       N       E                     dE             d eps       ncg     rms          rms(c)
DAV:   1    -0.125543524687E+03    0.14724E-03   -0.10394E-02 14208   0.411E-01    0.174E-02
DAV:   2    -0.125543526987E+03   -0.22995E-05   -0.86569E-05 14928   0.398E-02    0.109E-02
DAV:   3    -0.125543527003E+03   -0.16111E-07   -0.81743E-06 15984   0.123E-02
  30 F= -.12713040E+03 E0= -.12712962E+03  d E =-.480558E-04  mag=    -0.0000
 curvature:  -1.40 expect dE=-0.112E-03 dE for cont linesearch -0.613E-07
 trial: gam= 0.81470 g(F)=  0.795E-04 g(S)=  0.000E+00 ort = 0.341E-05 (trialstep = 0.458E+00)
 search vector abs. value=  0.262E-03
 bond charge predicted
       N       E                     dE             d eps       ncg     rms          rms(c)
DAV:   1    -0.125543642876E+03   -0.11589E-03   -0.39242E-03 14208   0.259E-01    0.123E-02
DAV:   2    -0.125543643343E+03   -0.46654E-06   -0.46900E-05 16416   0.305E-02    0.761E-03
DAV:   3    -0.125543643315E+03    0.27596E-07   -0.60156E-06 16464   0.123E-02
  31 F= -.12713042E+03 E0= -.12712964E+03  d E =-.195878E-04  mag=    -0.0000
 trial-energy change:   -0.000020  1 .order   -0.000019   -0.000038   -0.000001
 step:   0.4676(harm=  0.4676)  dis= 0.00039  next Energy=  -127.130418 (dE=-0.192E-04)
 bond charge predicted
       N       E                     dE             d eps       ncg     rms          rms(c)
DAV:   1    -0.125543645074E+03   -0.17309E-05   -0.49493E-06 14208   0.117E-02    0.120E-03
DAV:   2    -0.125543644715E+03    0.35898E-06   -0.16826E-06 14208   0.651E-03
  32 F= -.12713042E+03 E0= -.12712964E+03  d E =-.190543E-04  mag=     0.0000
 curvature:  -0.74 expect dE=-0.726E-04 dE for cont linesearch -0.549E-08
 trial: gam= 1.25219 g(F)=  0.976E-04 g(S)=  0.000E+00 ort = 0.139E-05 (trialstep = 0.236E+00)
 search vector abs. value=  0.511E-03
 bond charge predicted
       N       E                     dE             d eps       ncg     rms          rms(c)
DAV:   1    -0.125543738669E+03   -0.93596E-04   -0.17978E-03 15312   0.173E-01    0.764E-03
DAV:   2    -0.125543739307E+03   -0.63753E-06   -0.18303E-05 17760   0.179E-02    0.495E-03
DAV:   3    -0.125543739415E+03   -0.10781E-06   -0.13605E-06 14928   0.489E-03
  33 F= -.12713044E+03 E0= -.12712966E+03  d E =-.216972E-04  mag=     0.0000
 ZBRENT: can't locate minimum, use default step
 trial-energy change:   -0.000022  1 .order   -0.000022   -0.000023   -0.000020
 step:   0.9421(harm=  1.6827)  dis= 0.00099  next Energy=  -127.130502 (dE=-0.836E-04)
 bond charge predicted
       N       E                     dE             d eps       ncg     rms          rms(c)
DAV:   1    -0.125543999930E+03   -0.26062E-03   -0.16193E-02 14208   0.520E-01    0.224E-02
DAV:   2    -0.125544006269E+03   -0.63393E-05   -0.15925E-04 15888   0.531E-02    0.145E-02
DAV:   3    -0.125544006073E+03    0.19635E-06   -0.11141E-05 16896   0.131E-02    0.391E-03
DAV:   4    -0.125544006348E+03   -0.27486E-06   -0.18726E-06 14304   0.615E-03
  34 F= -.12713049E+03 E0= -.12712971E+03  d E =-.696434E-04  mag=     0.0000
 curvature:  -3.20 expect dE=-0.284E-03 dE for cont linesearch -0.149E-04
 ZBRENT: increasing intervall
 opt :   2.3552  next Energy=  -127.130505 (dE=-0.867E-04)
 bond charge predicted
       N       E                     dE             d eps       ncg     rms          rms(c)
DAV:   1    -0.125544436531E+03   -0.43046E-03   -0.64765E-02 14208   0.104E+00    0.445E-02
DAV:   2    -0.125544462818E+03   -0.26288E-04   -0.63446E-04 16896   0.106E-01    0.287E-02
DAV:   3    -0.125544460224E+03    0.25948E-05   -0.44033E-05 22512   0.255E-02    0.775E-03
DAV:   4    -0.125544461024E+03   -0.80005E-06   -0.61340E-06 14256   0.110E-02
  35 F= -.12713050E+03 E0= -.12712972E+03  d E =-.869370E-04  mag=     0.0000
 curvature:  -3.66 expect dE=-0.152E-02 dE for cont linesearch -0.500E-05
 ZBRENT: bracketing found
 ZBRENT: interpolating
 opt :   1.8586  next Energy=  -127.130512 (dE=-0.935E-04)
 bond charge predicted
       N       E                     dE             d eps       ncg     rms          rms(c)
DAV:   1    -0.125544310891E+03    0.14933E-03   -0.79646E-03 14208   0.365E-01    0.154E-02
DAV:   2    -0.125544313762E+03   -0.28716E-05   -0.83642E-05 21552   0.386E-02    0.100E-02
DAV:   3    -0.125544313799E+03   -0.36845E-07   -0.62943E-06 18480   0.112E-02
  36 F= -.12713051E+03 E0= -.12712973E+03  d E =-.933775E-04  mag=     0.0000
 curvature:  -4.81 expect dE=-0.121E-02 dE for cont linesearch -0.631E-07
 trial: gam= 2.56743 g(F)=  0.252E-03 g(S)=  0.000E+00 ort = 0.259E-05 (trialstep = 0.788E-01)
 search vector abs. value=  0.364E-02
 bond charge predicted
       N       E                     dE             d eps       ncg     rms          rms(c)
DAV:   1    -0.125544399569E+03   -0.85806E-04   -0.14840E-03 14208   0.158E-01    0.645E-03
DAV:   2    -0.125544399777E+03   -0.20791E-06   -0.18446E-05 17136   0.196E-02    0.415E-03
DAV:   3    -0.125544400082E+03   -0.30506E-06   -0.28964E-06 14880   0.879E-03
  37 F= -.12713053E+03 E0= -.12712975E+03  d E =-.187495E-04  mag=    -0.0000
 ZBRENT: can't locate minimum, use default step
 trial-energy change:   -0.000019  1 .order   -0.000019   -0.000020   -0.000017
 step:   0.3151(harm=  0.4549)  dis= 0.00075  next Energy=  -127.130570 (dE=-0.587E-04)
 bond charge predicted
       N       E                     dE             d eps       ncg     rms          rms(c)
DAV:   1    -0.125544634096E+03   -0.23432E-03   -0.13343E-02 14208   0.474E-01    0.208E-02
DAV:   2    -0.125544639265E+03   -0.51692E-05   -0.13787E-04 17040   0.502E-02    0.134E-02
DAV:   3    -0.125544639246E+03    0.19011E-07   -0.11713E-05 14928   0.148E-02    0.375E-03
DAV:   4    -0.125544639389E+03   -0.14299E-06   -0.36154E-06 14208   0.962E-03
  38 F= -.12713057E+03 E0= -.12712978E+03  d E =-.554350E-04  mag=     0.0000
 curvature:  -2.76 expect dE=-0.301E-03 dE for cont linesearch -0.702E-05
 ZBRENT: increasing intervall
 opt :   0.7878  next Energy=  -127.130557 (dE=-0.454E-04)
 bond charge predicted
       N       E                     dE             d eps       ncg     rms          rms(c)
DAV:   1    -0.125545016463E+03   -0.37722E-03   -0.53438E-02 14208   0.948E-01    0.413E-02
DAV:   2    -0.125545037657E+03   -0.21194E-04   -0.54189E-04 20736   0.990E-02    0.266E-02
DAV:   3    -0.125545034766E+03    0.28910E-05   -0.40791E-05 19008   0.251E-02    0.715E-03
DAV:   4    -0.125545035260E+03   -0.49392E-06   -0.76337E-06 14400   0.126E-02
  39 F= -.12713056E+03 E0= -.12712978E+03  d E =-.459435E-04  mag=     0.0000
 curvature:   3.94 expect dE= 0.209E-02 dE for cont linesearch  0.208E-04
 ZBRENT: bracketing found
 ZBRENT: interpolating
 opt :   0.5089  next Energy=  -127.130576 (dE=-0.647E-04)
 bond charge predicted
       N       E                     dE             d eps       ncg     rms          rms(c)
DAV:   1    -0.125544809056E+03    0.22571E-03   -0.18574E-02 14208   0.559E-01    0.239E-02
DAV:   2    -0.125544815552E+03   -0.64966E-05   -0.19152E-04 20832   0.590E-02    0.154E-02
DAV:   3    -0.125544814662E+03    0.89007E-06   -0.15165E-05 21120   0.164E-02    0.429E-03
DAV:   4    -0.125544814917E+03   -0.25498E-06   -0.44967E-06 14208   0.108E-02
  40 F= -.12713058E+03 E0= -.12712979E+03  d E =-.648520E-04  mag=     0.0000
 curvature:  -1.77 expect dE=-0.330E-03 dE for cont linesearch -0.533E-08
 trial: gam= 0.74189 g(F)=  0.187E-03 g(S)=  0.000E+00 ort = 0.331E-05 (trialstep = 0.165E+00)
 search vector abs. value=  0.219E-02
 bond charge predicted
       N       E                     dE             d eps       ncg     rms          rms(c)
DAV:   1    -0.125544954459E+03   -0.13980E-03   -0.38252E-03 14208   0.254E-01    0.106E-02
DAV:   2    -0.125544955881E+03   -0.14226E-05   -0.40472E-05 21360   0.271E-02    0.685E-03
DAV:   3    -0.125544955907E+03   -0.25557E-07   -0.29797E-06 16272   0.788E-03
  41 F= -.12713060E+03 E0= -.12712982E+03  d E =-.279645E-04  mag=     0.0000
 ZBRENT: can't locate minimum, use default step
 trial-energy change:   -0.000028  1 .order   -0.000028   -0.000031   -0.000025
 step:   0.6592(harm=  0.8558)  dis= 0.00135  next Energy=  -127.130657 (dE=-0.810E-04)
 bond charge predicted
       N       E                     dE             d eps       ncg     rms          rms(c)
DAV:   1    -0.125545333710E+03   -0.37783E-03   -0.34498E-02 14208   0.763E-01    0.331E-02
DAV:   2    -0.125545347299E+03   -0.13589E-04   -0.33074E-04 16272   0.776E-02    0.213E-02
DAV:   3    -0.125545346152E+03    0.11477E-05   -0.23324E-05 15360   0.199E-02    0.553E-03
DAV:   4    -0.125545346581E+03   -0.42967E-06   -0.53763E-06 14208   0.112E-02
  42 F= -.12713066E+03 E0= -.12712987E+03  d E =-.797821E-04  mag=     0.0000
 curvature:  -4.55 expect dE=-0.437E-03 dE for cont linesearch -0.540E-05
 ZBRENT: increasing intervall
 opt :   1.6480  next Energy=  -127.130606 (dE=-0.294E-04)
 bond charge predicted
       N       E                     dE             d eps       ncg     rms          rms(c)
DAV:   1    -0.125545927353E+03   -0.58120E-03   -0.13807E-01 14208   0.153E+00    0.659E-02
DAV:   2    -0.125545984210E+03   -0.56857E-04   -0.13199E-03 21984   0.154E-01    0.424E-02
DAV:   3    -0.125545974641E+03    0.95686E-05   -0.84623E-05 21600   0.352E-02    0.106E-02
DAV:   4    -0.125545975719E+03   -0.10776E-05   -0.13394E-05 14784   0.164E-02    0.375E-03
DAV:   5    -0.125545975884E+03   -0.16528E-06   -0.42008E-06 14208   0.103E-02
  43 F= -.12713061E+03 E0= -.12712983E+03  d E =-.323874E-04  mag=    -0.0000
 curvature:  42.50 expect dE= 0.268E-01 dE for cont linesearch  0.426E-03
 ZBRENT: bracketing found
 ZBRENT: interpolating
 opt :   0.9123  next Energy=  -127.130663 (dE=-0.862E-04)
 bond charge predicted
       N       E                     dE             d eps       ncg     rms          rms(c)
DAV:   1    -0.125545499382E+03    0.47634E-03   -0.76320E-02 14208   0.113E+00    0.488E-02
DAV:   2    -0.125545530800E+03   -0.31418E-04   -0.74635E-04 22368   0.115E-01    0.315E-02
DAV:   3    -0.125545525830E+03    0.49702E-05   -0.44768E-05 21600   0.253E-02    0.799E-03
DAV:   4    -0.125545526579E+03   -0.74988E-06   -0.73021E-06 14208   0.121E-02
  44 F= -.12713066E+03 E0= -.12712988E+03  d E =-.864101E-04  mag=    -0.0000
 curvature:  -0.64 expect dE=-0.983E-04 dE for cont linesearch -0.187E-08
 trial: gam= 0.82165 g(F)=  0.153E-03 g(S)=  0.000E+00 ort = 0.252E-05 (trialstep = 0.314E+00)
 search vector abs. value=  0.164E-02
 bond charge predicted
       N       E                     dE             d eps       ncg     rms          rms(c)
DAV:   1    -0.125545742156E+03   -0.21633E-03   -0.10251E-02 14208   0.418E-01    0.180E-02
DAV:   2    -0.125545745647E+03   -0.34909E-05   -0.10709E-04 14496   0.448E-02    0.116E-02
DAV:   3    -0.125545745503E+03    0.14327E-06   -0.90657E-06 16608   0.138E-02
  45 F= -.12713070E+03 E0= -.12712991E+03  d E =-.345446E-04  mag=     0.0000
 trial-energy change:   -0.000035  1 .order   -0.000034   -0.000049   -0.000019
 step:   0.5100(harm=  0.5100)  dis= 0.00104  next Energy=  -127.130702 (dE=-0.394E-04)
 bond charge predicted
       N       E                     dE             d eps       ncg     rms          rms(c)
DAV:   1    -0.125545865871E+03   -0.12022E-03   -0.39963E-03 14208   0.262E-01    0.121E-02
DAV:   2    -0.125545867354E+03   -0.14830E-05   -0.43605E-05 14208   0.296E-02    0.789E-03
DAV:   3    -0.125545868149E+03   -0.79505E-06   -0.55467E-06 16080   0.121E-02
  46 F= -.12713071E+03 E0= -.12712992E+03  d E =-.423906E-04  mag=     0.0000
 curvature:  -2.70 expect dE=-0.307E-03 dE for cont linesearch -0.377E-07
 trial: gam= 0.70699 g(F)=  0.114E-03 g(S)=  0.000E+00 ort = 0.478E-05 (trialstep = 0.353E+00)
 search vector abs. value=  0.939E-03
 bond charge predicted
       N       E                     dE             d eps       ncg     rms          rms(c)
DAV:   1    -0.125546047963E+03   -0.18061E-03   -0.72364E-03 14208   0.352E-01    0.158E-02
DAV:   2    -0.125546051000E+03   -0.30368E-05   -0.78890E-05 17088   0.387E-02    0.103E-02
DAV:   3    -0.125546051618E+03   -0.61812E-06   -0.71235E-06 14832   0.134E-02
  47 F= -.12713074E+03 E0= -.12712995E+03  d E =-.318025E-04  mag=    -0.0000
 trial-energy change:   -0.000032  1 .order   -0.000031   -0.000041   -0.000021
 step:   0.7179(harm=  0.7179)  dis= 0.00113  next Energy=  -127.130747 (dE=-0.420E-04)
 bond charge predicted
       N       E                     dE             d eps       ncg     rms          rms(c)
DAV:   1    -0.125546216067E+03   -0.16507E-03   -0.76979E-03 14208   0.363E-01    0.164E-02
DAV:   2    -0.125546219045E+03   -0.29780E-05   -0.83431E-05 16512   0.403E-02    0.107E-02
DAV:   3    -0.125546220345E+03   -0.13000E-05   -0.88626E-06 14928   0.152E-02    0.332E-03
DAV:   4    -0.125546220094E+03    0.25064E-06   -0.72490E-06 14208   0.138E-02
  48 F= -.12713075E+03 E0= -.12712997E+03  d E =-.438658E-04  mag=     0.0000
 curvature:  -2.88 expect dE=-0.291E-03 dE for cont linesearch -0.679E-08
 trial: gam= 0.95051 g(F)=  0.101E-03 g(S)=  0.000E+00 ort = 0.149E-05 (trialstep = 0.420E+00)
 search vector abs. value=  0.952E-03
 bond charge predicted
       N       E                     dE             d eps       ncg     rms          rms(c)
DAV:   1    -0.125546420390E+03   -0.20004E-03   -0.11293E-02 14976   0.445E-01    0.191E-02
DAV:   2    -0.125546425009E+03   -0.46194E-05   -0.10970E-04 22416   0.445E-02    0.124E-02
DAV:   3    -0.125546424459E+03    0.55049E-06   -0.67125E-06 22080   0.106E-02
  49 F= -.12713077E+03 E0= -.12712999E+03  d E =-.254559E-04  mag=     0.0000
 trial-energy change:   -0.000025  1 .order   -0.000027   -0.000043   -0.000011
 step:   0.5655(harm=  0.5655)  dis= 0.00094  next Energy=  -127.130778 (dE=-0.289E-04)
 bond charge predicted
       N       E                     dE             d eps       ncg     rms          rms(c)
DAV:   1    -0.125546487625E+03   -0.62616E-04   -0.13443E-03 14208   0.154E-01    0.703E-03
DAV:   2    -0.125546488136E+03   -0.51142E-06   -0.13693E-05 15552   0.166E-02    0.463E-03
DAV:   3    -0.125546488561E+03   -0.42527E-06   -0.16481E-06 15360   0.659E-03
  50 F= -.12713078E+03 E0= -.12712999E+03  d E =-.278742E-04  mag=    -0.0000
 curvature:  -2.63 expect dE=-0.191E-03 dE for cont linesearch -0.560E-10
 trial: gam= 0.71068 g(F)=  0.727E-04 g(S)=  0.000E+00 ort = 0.142E-06 (trialstep = 0.449E+00)
 search vector abs. value=  0.554E-03
 bond charge predicted
       N       E                     dE             d eps       ncg     rms          rms(c)
DAV:   1    -0.125546643878E+03   -0.15574E-03   -0.85249E-03 14208   0.388E-01    0.170E-02
DAV:   2    -0.125546645844E+03   -0.19656E-05   -0.84998E-05 14832   0.401E-02    0.108E-02
DAV:   3    -0.125546645466E+03    0.37846E-06   -0.79246E-06 14304   0.124E-02
  51 F= -.12713079E+03 E0= -.12713001E+03  d E =-.168725E-04  mag=    -0.0000
 trial-energy change:   -0.000017  1 .order   -0.000016   -0.000033    0.000001
 step:   0.4386(harm=  0.4386)  dis= 0.00061  next Energy=  -127.130793 (dE=-0.160E-04)
 bond charge predicted
       N       E                     dE             d eps       ncg     rms          rms(c)
DAV:   1    -0.125546642198E+03    0.36456E-05   -0.71931E-06 14208   0.130E-02    0.123E-03
DAV:   2    -0.125546641943E+03    0.25536E-06   -0.12627E-06 14208   0.578E-03
  52 F= -.12713079E+03 E0= -.12713001E+03  d E =-.167454E-04  mag=    -0.0000
 curvature:  -1.67 expect dE=-0.680E-04 dE for cont linesearch -0.311E-07
 trial: gam= 0.52907 g(F)=  0.408E-04 g(S)=  0.000E+00 ort = 0.322E-05 (trialstep = 0.447E+00)
 search vector abs. value=  0.199E-03
 bond charge predicted
       N       E                     dE             d eps       ncg     rms          rms(c)
DAV:   1    -0.125546732237E+03   -0.90039E-04   -0.31099E-03 14208   0.235E-01    0.963E-03
DAV:   2    -0.125546733057E+03   -0.82003E-06   -0.29897E-05 16416   0.235E-02    0.633E-03
DAV:   3    -0.125546733107E+03   -0.49777E-07   -0.26014E-06 14784   0.698E-03
  53 F= -.12713081E+03 E0= -.12713003E+03  d E =-.154016E-04  mag=    -0.0000
 trial-energy change:   -0.000015  1 .order   -0.000015   -0.000019   -0.000011
 step:   1.0882(harm=  1.0882)  dis= 0.00102  next Energy=  -127.130817 (dE=-0.231E-04)
 bond charge predicted
       N       E                     dE             d eps       ncg     rms          rms(c)
DAV:   1    -0.125546849717E+03   -0.11666E-03   -0.63900E-03 14208   0.337E-01    0.141E-02
DAV:   2    -0.125546851369E+03   -0.16520E-05   -0.60124E-05 14496   0.334E-02    0.919E-03
DAV:   3    -0.125546851359E+03    0.10862E-07   -0.54842E-06 18384   0.100E-02
  54 F= -.12713082E+03 E0= -.12713004E+03  d E =-.251590E-04  mag=    -0.0000
 curvature:  -2.55 expect dE=-0.964E-04 dE for cont linesearch -0.244E-07
 trial: gam= 0.94416 g(F)=  0.378E-04 g(S)=  0.000E+00 ort = 0.138E-05 (trialstep = 0.526E+00)
 search vector abs. value=  0.218E-03
 bond charge predicted
       N       E                     dE             d eps       ncg     rms          rms(c)
DAV:   1    -0.125546943746E+03   -0.92376E-04   -0.49335E-03 14208   0.299E-01    0.133E-02
DAV:   2    -0.125546944826E+03   -0.10806E-05   -0.54234E-05 14208   0.323E-02    0.854E-03
DAV:   3    -0.125546944803E+03    0.23005E-07   -0.55137E-06 16944   0.107E-02
  55 F= -.12713083E+03 E0= -.12713005E+03  d E =-.877690E-05  mag=     0.0000
 trial-energy change:   -0.000009  1 .order   -0.000008   -0.000021    0.000005
 step:   0.4247(harm=  0.4247)  dis= 0.00040  next Energy=  -127.130827 (dE=-0.830E-05)
 bond charge predicted
       N       E                     dE             d eps       ncg     rms          rms(c)
DAV:   1    -0.125546928813E+03    0.16014E-04   -0.18227E-04 14640   0.578E-02    0.206E-03
DAV:   2    -0.125546928722E+03    0.90956E-07   -0.31686E-06 14208   0.896E-03
  56 F= -.12713083E+03 E0= -.12713005E+03  d E =-.900506E-05  mag=     0.0000
 curvature:  -1.18 expect dE=-0.222E-04 dE for cont linesearch -0.257E-07
 trial: gam= 0.54113 g(F)=  0.187E-04 g(S)=  0.000E+00 ort = 0.217E-05 (trialstep = 0.506E+00)
 search vector abs. value=  0.849E-04
 bond charge predicted
       N       E                     dE             d eps       ncg     rms          rms(c)
DAV:   1    -0.125546986046E+03   -0.57233E-04   -0.17664E-03 14208   0.178E-01    0.680E-03
DAV:   2    -0.125546986631E+03   -0.58488E-06   -0.15823E-05 14448   0.175E-02    0.462E-03
DAV:   3    -0.125546986622E+03    0.86930E-08   -0.14970E-06 15600   0.587E-03
  57 F= -.12713084E+03 E0= -.12713005E+03  d E =-.862413E-05  mag=    -0.0000
 trial-energy change:   -0.000009  1 .order   -0.000009   -0.000010   -0.000007
 step:   1.7753(harm=  1.7753)  dis= 0.00120  next Energy=  -127.130845 (dE=-0.177E-04)
 bond charge predicted
       N       E                     dE             d eps       ncg     rms          rms(c)
DAV:   1    -0.125547118621E+03   -0.13199E-03   -0.11121E-02 14208   0.448E-01    0.183E-02
DAV:   2    -0.125547122003E+03   -0.33817E-05   -0.94157E-05 14448   0.418E-02    0.123E-02
DAV:   3    -0.125547121340E+03    0.66313E-06   -0.77397E-06 14304   0.119E-02
  58 F= -.12713085E+03 E0= -.12713007E+03  d E =-.196845E-04  mag=     0.0000
 curvature:  -3.79 expect dE=-0.245E-03 dE for cont linesearch -0.602E-07
 trial: gam= 3.29120 g(F)=  0.647E-04 g(S)=  0.000E+00 ort = 0.116E-05 (trialstep = 0.650E-01)
 search vector abs. value=  0.992E-03
 bond charge predicted
       N       E                     dE             d eps       ncg     rms          rms(c)
DAV:   1    -0.125547146741E+03   -0.24739E-04   -0.35986E-04 14208   0.810E-02    0.390E-03
DAV:   2    -0.125547146806E+03   -0.64543E-07   -0.38283E-06 14208   0.966E-03
  59 F= -.12713085E+03 E0= -.12713007E+03  d E =-.442438E-05  mag=    -0.0000
 ZBRENT: can't locate minimum, use default step
 trial-energy change:   -0.000004  1 .order   -0.000004   -0.000004   -0.000004
 step:   0.2600(harm=  0.8185)  dis= 0.00055  next Energy=  -127.130875 (dE=-0.281E-04)
 bond charge predicted
       N       E                     dE             d eps       ncg     rms          rms(c)
DAV:   1    -0.125547220172E+03   -0.73431E-04   -0.31991E-03 16320   0.241E-01    0.105E-02
DAV:   2    -0.125547220538E+03   -0.36556E-06   -0.24471E-05 14448   0.223E-02    0.684E-03
DAV:   3    -0.125547220981E+03   -0.44277E-06   -0.43016E-06 15936   0.104E-02
  60 F= -.12713086E+03 E0= -.12713008E+03  d E =-.154763E-04  mag=     0.0000
 curvature:  -2.67 expect dE=-0.676E-04 dE for cont linesearch -0.380E-05
 ZBRENT: increasing intervall
 opt :   0.6501  next Energy=  -127.130868 (dE=-0.202E-04)
 bond charge predicted
       N       E                     dE             d eps       ncg     rms          rms(c)
DAV:   1    -0.125547349690E+03   -0.12915E-03   -0.12836E-02 14208   0.482E-01    0.197E-02
DAV:   2    -0.125547353839E+03   -0.41490E-05   -0.11068E-04 17280   0.457E-02    0.133E-02
DAV:   3    -0.125547353263E+03    0.57523E-06   -0.98218E-06 15216   0.143E-02
  61 F= -.12713087E+03 E0= -.12713009E+03  d E =-.215269E-04  mag=     0.0000
 curvature:  -3.30 expect dE=-0.297E-03 dE for cont linesearch -0.498E-06
 ZBRENT: bracketing found
 ZBRENT: interpolating
 opt :   0.5542  next Energy=  -127.130870 (dE=-0.221E-04)
 bond charge predicted
       N       E                     dE             d eps       ncg     rms          rms(c)
DAV:   1    -0.125547322221E+03    0.31617E-04   -0.77670E-04 14208   0.119E-01    0.454E-03
DAV:   2    -0.125547322022E+03    0.19909E-06   -0.91035E-06 14208   0.149E-02
  62 F= -.12713087E+03 E0= -.12713009E+03  d E =-.213189E-04  mag=     0.0000
 curvature:  -3.88 expect dE=-0.238E-03 dE for cont linesearch -0.166E-06
 trial: gam= 1.12607 g(F)=  0.612E-04 g(S)=  0.000E+00 ort = 0.651E-05 (trialstep = 0.121E+00)
 search vector abs. value=  0.133E-02
 bond charge predicted
       N       E                     dE             d eps       ncg     rms          rms(c)
DAV:   1    -0.125547373374E+03   -0.51152E-04   -0.16769E-03 14208   0.175E-01    0.603E-03
DAV:   2    -0.125547373819E+03   -0.44529E-06   -0.15915E-05 14256   0.190E-02    0.416E-03
DAV:   3    -0.125547374051E+03   -0.23158E-06   -0.25991E-06 14256   0.840E-03
  63 F= -.12713088E+03 E0= -.12713009E+03  d E =-.761192E-05  mag=    -0.0000
 ZBRENT: can't locate minimum, use default step
 trial-energy change:   -0.000008  1 .order   -0.000008   -0.000008   -0.000007
 step:   0.4845(harm=  0.6785)  dis= 0.00122  next Energy=  -127.130892 (dE=-0.233E-04)
 bond charge predicted
       N       E                     dE             d eps       ncg     rms          rms(c)
