  15  15   0  16
  0.2033749E+02  0.4846000E-09  0.4846000E-09  0.1500000E-08  0.5000000E-15
  1.000000000000000E-004
  CAR 
 Lattice                                 
     10.33481657    -21.69740867  301     -0.32348478      1.00000000
    -21.697  0.0000E+00  0.0000E+00
    -21.591  0.0000E+00  0.0000E+00
    -21.484  0.0000E+00  0.0000E+00
    -21.377  0.0000E+00  0.0000E+00
    -21.270  0.0000E+00  0.0000E+00
    -21.164  0.0000E+00  0.0000E+00
    -21.057  0.0000E+00  0.0000E+00
    -20.950  0.0000E+00  0.0000E+00
    -20.843  0.0000E+00  0.0000E+00
    -20.736  0.1382E-14  0.1476E-15
    -20.630  0.2376E-10  0.2537E-11
    -20.523  0.4907E-07  0.5242E-08
    -20.416  0.1340E-04  0.1436E-05
    -20.309  0.5401E-03  0.5911E-04
    -20.203  0.3943E-02  0.4801E-03
    -20.096  0.8296E-02  0.1366E-02
    -19.989  0.9032E-02  0.2330E-02
    -19.882  0.9867E-02  0.3384E-02
    -19.775  0.8302E-02  0.4270E-02
    -19.669  0.1076E-01  0.5419E-02
    -19.562  0.8428E-02  0.6319E-02
    -19.455  0.8494E-02  0.7226E-02
    -19.348  0.1201E-01  0.8508E-02
    -19.242  0.7626E-02  0.9323E-02
    -19.135  0.7743E-02  0.1015E-01
    -19.028  0.1222E-01  0.1145E-01
    -18.921  0.1042E-01  0.1257E-01
    -18.815  0.5922E-02  0.1320E-01
    -18.708  0.8717E-02  0.1413E-01
    -18.601  0.1382E-01  0.1561E-01
    -18.494  0.9132E-02  0.1658E-01
    -18.387  0.7588E-02  0.1739E-01
    -18.281  0.5940E-02  0.1802E-01
    -18.174  0.1322E-01  0.1944E-01
    -18.067  0.1322E-01  0.2085E-01
    -17.960  0.7080E-02  0.2160E-01
    -17.854  0.6559E-02  0.2230E-01
    -17.747  0.8192E-02  0.2318E-01
    -17.640  0.1240E-01  0.2450E-01
    -17.533  0.1354E-01  0.2595E-01
    -17.426  0.1112E-01  0.2714E-01
    -17.320  0.1303E-01  0.2853E-01
    -17.213  0.2035E-01  0.3070E-01
    -17.106  0.2915E-01  0.3381E-01
    -16.999  0.3123E-01  0.3715E-01
    -16.893  0.3414E-01  0.4079E-01
    -16.786  0.4156E-01  0.4523E-01
    -16.679  0.3276E-01  0.4873E-01
    -16.572  0.1015E-01  0.4981E-01
    -16.465  0.1445E-01  0.5136E-01
    -16.359  0.1634E-01  0.5310E-01
    -16.252  0.9135E-02  0.5407E-01
    -16.145  0.8296E-02  0.5496E-01
    -16.038  0.7728E-02  0.5579E-01
    -15.932  0.7626E-02  0.5660E-01
    -15.825  0.7282E-02  0.5738E-01
    -15.718  0.1608E-01  0.5909E-01
    -15.611  0.1619E-01  0.6082E-01
    -15.505  0.7882E-02  0.6166E-01
    -15.398  0.7728E-02  0.6249E-01
    -15.291  0.6723E-02  0.6321E-01
    -15.184  0.9221E-02  0.6419E-01
    -15.077  0.1232E-01  0.6551E-01
    -14.971  0.2135E-01  0.6779E-01
    -14.864  0.3374E-01  0.7139E-01
    -14.757  0.3661E-01  0.7530E-01
    -14.650  0.3473E-01  0.7901E-01
    -14.544  0.2227E-01  0.8138E-01
    -14.437  0.1534E-01  0.8302E-01
    -14.330  0.2946E-01  0.8617E-01
    -14.223  0.3103E-01  0.8948E-01
    -14.116  0.2228E-01  0.9186E-01
    -14.010  0.2154E-01  0.9416E-01
    -13.903  0.2482E-01  0.9681E-01
    -13.796  0.3932E-01  0.1010E+00
    -13.689  0.3970E-01  0.1052E+00
    -13.583  0.3618E-01  0.1091E+00
    -13.476  0.2223E-01  0.1115E+00
    -13.369  0.1354E-01  0.1129E+00
    -13.262  0.6561E-02  0.1136E+00
    -13.155  0.8078E-02  0.1145E+00
    -13.049  0.1364E-01  0.1159E+00
    -12.942  0.1382E-01  0.1174E+00
    -12.835  0.9639E-02  0.1185E+00
    -12.728  0.1343E-01  0.1199E+00
    -12.622  0.1411E-01  0.1214E+00
    -12.515  0.1118E-01  0.1226E+00
    -12.408  0.1077E-01  0.1237E+00
    -12.301  0.6699E-02  0.1245E+00
    -12.195  0.1262E-01  0.1258E+00
    -12.088  0.1607E-01  0.1275E+00
    -11.981  0.6794E-02  0.1282E+00
    -11.874  0.6704E-02  0.1290E+00
    -11.767  0.6771E-02  0.1297E+00
    -11.661  0.1186E-01  0.1309E+00
    -11.554  0.1353E-01  0.1324E+00
    -11.447  0.7706E-02  0.1332E+00
    -11.340  0.3710E-02  0.1336E+00
    -11.234  0.9400E-02  0.1346E+00
    -11.127  0.1163E-01  0.1359E+00
    -11.020  0.1033E-01  0.1370E+00
    -10.913  0.1546E-01  0.1386E+00
    -10.806  0.1220E-01  0.1399E+00
    -10.700  0.4943E-02  0.1404E+00
    -10.593  0.1591E-01  0.1421E+00
    -10.486  0.2533E-01  0.1448E+00
    -10.379  0.3072E-01  0.1481E+00
    -10.273  0.2985E-01  0.1513E+00
    -10.166  0.2909E-01  0.1544E+00
    -10.059  0.3597E-01  0.1583E+00
     -9.952  0.3717E-01  0.1622E+00
     -9.845  0.1949E-01  0.1643E+00
     -9.739  0.1383E-01  0.1658E+00
     -9.632  0.2824E-01  0.1688E+00
     -9.525  0.3070E-01  0.1721E+00
     -9.418  0.3272E-01  0.1756E+00
     -9.312  0.3122E-01  0.1789E+00
     -9.205  0.2821E-01  0.1819E+00
     -9.098  0.2099E-01  0.1842E+00
     -8.991  0.1509E-01  0.1858E+00
     -8.885  0.3112E-01  0.1891E+00
     -8.778  0.4129E-01  0.1935E+00
     -8.671  0.3048E-01  0.1968E+00
     -8.564  0.1527E-01  0.1984E+00
     -8.457  0.2162E-01  0.2007E+00
     -8.351  0.4164E-01  0.2051E+00
     -8.244  0.3729E-01  0.2091E+00
     -8.137  0.2326E-01  0.2116E+00
     -8.030  0.3256E-01  0.2151E+00
     -7.924  0.4990E-01  0.2204E+00
     -7.817  0.4894E-01  0.2256E+00
     -7.710  0.4043E-01  0.2300E+00
     -7.603  0.2026E-01  0.2321E+00
     -7.496  0.1672E-01  0.2339E+00
     -7.390  0.3749E-01  0.2379E+00
     -7.283  0.3585E-01  0.2417E+00
     -7.176  0.2341E-01  0.2442E+00
     -7.069  0.2238E-01  0.2466E+00
     -6.963  0.3401E-01  0.2503E+00
     -6.856  0.3603E-01  0.2541E+00
     -6.749  0.3969E-01  0.2583E+00
     -6.642  0.4180E-01  0.2628E+00
     -6.535  0.3706E-01  0.2668E+00
     -6.429  0.4075E-01  0.2711E+00
     -6.322  0.3404E-01  0.2747E+00
     -6.215  0.3688E-01  0.2787E+00
     -6.108  0.5234E-01  0.2843E+00
     -6.002  0.4542E-01  0.2891E+00
     -5.895  0.6292E-01  0.2958E+00
     -5.788  0.5699E-01  0.3019E+00
     -5.681  0.3230E-01  0.3054E+00
     -5.575  0.3714E-01  0.3093E+00
     -5.468  0.6583E-01  0.3164E+00
     -5.361  0.7164E-01  0.3240E+00
     -5.254  0.4667E-01  0.3290E+00
     -5.147  0.3358E-01  0.3326E+00
     -5.041  0.2087E-01  0.3348E+00
     -4.934  0.2089E-01  0.3370E+00
     -4.827  0.2865E-01  0.3401E+00
     -4.720  0.2217E-01  0.3425E+00
     -4.614  0.1610E-01  0.3442E+00
     -4.507  0.1817E-01  0.3461E+00
     -4.400  0.3253E-01  0.3496E+00
     -4.293  0.4456E-01  0.3544E+00
     -4.186  0.3698E-01  0.3583E+00
     -4.080  0.3785E-01  0.3623E+00
     -3.973  0.4433E-01  0.3671E+00
     -3.866  0.4794E-01  0.3722E+00
     -3.759  0.3654E-01  0.3761E+00
     -3.653  0.3615E-01  0.3800E+00
     -3.546  0.4069E-01  0.3843E+00
     -3.439  0.3161E-01  0.3877E+00
     -3.332  0.2764E-01  0.3906E+00
     -3.225  0.2621E-01  0.3934E+00
     -3.119  0.3455E-01  0.3971E+00
     -3.012  0.3646E-01  0.4010E+00
     -2.905  0.2370E-01  0.4035E+00
     -2.798  0.2379E-01  0.4061E+00
     -2.692  0.1493E-01  0.4077E+00
     -2.585  0.2021E-01  0.4098E+00
     -2.478  0.3927E-01  0.4140E+00
     -2.371  0.2861E-01  0.4171E+00
     -2.265  0.7975E-02  0.4179E+00
     -2.158  0.9434E-02  0.4189E+00
     -2.051  0.2067E-01  0.4211E+00
     -1.944  0.2049E-01  0.4233E+00
     -1.837  0.2235E-01  0.4257E+00
     -1.731  0.2308E-01  0.4282E+00
     -1.624  0.1905E-01  0.4302E+00
     -1.517  0.1428E-01  0.4317E+00
     -1.410  0.9053E-02  0.4327E+00
     -1.304  0.7884E-02  0.4336E+00
     -1.197  0.8054E-02  0.4344E+00
     -1.090  0.7876E-02  0.4353E+00
     -0.983  0.1173E-01  0.4365E+00
     -0.876  0.5861E-02  0.4371E+00
     -0.770  0.1248E-02  0.4373E+00
     -0.663  0.1387E-03  0.4373E+00
     -0.556  0.4870E-05  0.4373E+00
     -0.449  0.1531E-03  0.4373E+00
     -0.343  0.1446E-02  0.4375E+00
     -0.236  0.2022E-02  0.4377E+00
     -0.129  0.4288E-03  0.4377E+00
     -0.022  0.1254E-04  0.4377E+00
      0.085  0.5502E-06  0.4377E+00
      0.191  0.9260E-04  0.4377E+00
      0.298  0.2100E-02  0.4380E+00
      0.405  0.6635E-02  0.4387E+00
      0.512  0.3317E-02  0.4390E+00
      0.618  0.2365E-02  0.4393E+00
      0.725  0.6664E-02  0.4400E+00
      0.832  0.1042E-01  0.4411E+00
      0.939  0.1900E-01  0.4431E+00
      1.045  0.5061E-01  0.4485E+00
      1.152  0.4187E-01  0.4530E+00
      1.259  0.1030E-01  0.4541E+00
      1.366  0.8183E-02  0.4550E+00
      1.473  0.1652E-01  0.4567E+00
      1.579  0.2507E-01  0.4594E+00
      1.686  0.3821E-01  0.4635E+00
      1.793  0.3122E-01  0.4668E+00
      1.900  0.1326E-01  0.4682E+00
      2.006  0.1324E-01  0.4697E+00
      2.113  0.2000E-01  0.4718E+00
      2.220  0.1468E-01  0.4734E+00
      2.327  0.1637E-01  0.4751E+00
      2.434  0.1476E-01  0.4767E+00
      2.540  0.2062E-01  0.4789E+00
      2.647  0.2255E-01  0.4813E+00
      2.754  0.1357E-01  0.4827E+00
      2.861  0.8940E-02  0.4837E+00
      2.967  0.1779E-01  0.4856E+00
      3.074  0.2414E-01  0.4882E+00
      3.181  0.1947E-01  0.4902E+00
      3.288  0.1996E-01  0.4924E+00
      3.395  0.1987E-01  0.4945E+00
      3.501  0.2191E-01  0.4968E+00
      3.608  0.3328E-01  0.5004E+00
      3.715  0.4309E-01  0.5050E+00
      3.822  0.4915E-01  0.5102E+00
      3.928  0.4518E-01  0.5151E+00
      4.035  0.4684E-01  0.5201E+00
      4.142  0.4812E-01  0.5252E+00
      4.249  0.5221E-01  0.5308E+00
      4.355  0.4832E-01  0.5359E+00
      4.462  0.4659E-01  0.5409E+00
      4.569  0.4385E-01  0.5456E+00
      4.676  0.4339E-01  0.5502E+00
      4.783  0.5385E-01  0.5560E+00
      4.889  0.4811E-01  0.5611E+00
      4.996  0.4393E-01  0.5658E+00
      5.103  0.5121E-01  0.5713E+00
      5.210  0.5284E-01  0.5769E+00
      5.316  0.4735E-01  0.5820E+00
      5.423  0.4304E-01  0.5866E+00
      5.530  0.3975E-01  0.5908E+00
      5.637  0.5374E-01  0.5966E+00
      5.744  0.5105E-01  0.6020E+00
      5.850  0.4565E-01  0.6069E+00
      5.957  0.3799E-01  0.6109E+00
      6.064  0.3985E-01  0.6152E+00
      6.171  0.3051E-01  0.6184E+00
      6.277  0.3845E-01  0.6225E+00
      6.384  0.4650E-01  0.6275E+00
      6.491  0.4721E-01  0.6326E+00
      6.598  0.4844E-01  0.6377E+00
      6.704  0.5569E-01  0.6437E+00
      6.811  0.6565E-01  0.6507E+00
      6.918  0.5225E-01  0.6563E+00
      7.025  0.5116E-01  0.6617E+00
      7.132  0.5428E-01  0.6675E+00
      7.238  0.4219E-01  0.6720E+00
      7.345  0.3757E-01  0.6760E+00
      7.452  0.4236E-01  0.6806E+00
      7.559  0.4626E-01  0.6855E+00
      7.665  0.4827E-01  0.6907E+00
      7.772  0.6004E-01  0.6971E+00
      7.879  0.6770E-01  0.7043E+00
      7.986  0.5269E-01  0.7099E+00
      8.093  0.6411E-01  0.7168E+00
      8.199  0.6655E-01  0.7239E+00
      8.306  0.6409E-01  0.7307E+00
      8.413  0.7779E-01  0.7390E+00
      8.520  0.5311E-01  0.7447E+00
      8.626  0.2570E-01  0.7474E+00
      8.733  0.1130E-01  0.7486E+00
      8.840  0.6525E-02  0.7493E+00
      8.947  0.5075E-02  0.7499E+00
      9.054  0.1099E-02  0.7500E+00
      9.160  0.4175E-04  0.7500E+00
      9.267  0.2095E-06  0.7500E+00
      9.374  0.1215E-09  0.7500E+00
      9.481  0.7718E-14  0.7500E+00
      9.587  0.0000E+00  0.7500E+00
      9.694  0.0000E+00  0.7500E+00
      9.801  0.0000E+00  0.7500E+00
      9.908  0.0000E+00  0.7500E+00
     10.014  0.0000E+00  0.7500E+00
     10.121  0.0000E+00  0.7500E+00
     10.228  0.0000E+00  0.7500E+00
     10.335  0.0000E+00  0.7500E+00
