       N       E                     dE             d eps       ncg     rms          rms(c)
DAV:   1     0.195813531275E+03    0.19581E+03   -0.25899E+04  7104   0.863E+02
DAV:   2    -0.122326685328E+03   -0.31814E+03   -0.31714E+03  9984   0.163E+02
DAV:   3    -0.135498338244E+03   -0.13172E+02   -0.13170E+02 13680   0.431E+01
DAV:   4    -0.135515034082E+03   -0.16696E-01   -0.16696E-01  9312   0.162E+00
DAV:   5    -0.135515100358E+03   -0.66276E-04   -0.66276E-04 13248   0.985E-02    0.173E+01
DAV:   6    -0.127812111969E+03    0.77030E+01   -0.15654E+01 13200   0.104E+01    0.960E+00
DAV:   7    -0.125719375014E+03    0.20927E+01   -0.40673E+00 14160   0.614E+00    0.382E+00
DAV:   8    -0.125538837800E+03    0.18054E+00   -0.64310E-01 13824   0.243E+00    0.103E+00
DAV:   9    -0.125513456663E+03    0.25381E-01   -0.42188E-02 10416   0.681E-01    0.178E-01
DAV:  10    -0.125502759846E+03    0.10697E-01   -0.64064E-03 13536   0.222E-01    0.133E-01
DAV:  11    -0.125495785912E+03    0.69739E-02   -0.10746E-02 11520   0.223E-01    0.872E-02
DAV:  12    -0.125496606709E+03   -0.82080E-03   -0.96001E-04  7632   0.803E-02    0.452E-02
DAV:  13    -0.125498653826E+03   -0.20471E-02   -0.47966E-04 11232   0.606E-02    0.185E-02
DAV:  14    -0.125500378665E+03   -0.17248E-02   -0.15440E-04 11328   0.291E-02    0.105E-02
DAV:  15    -0.125501517439E+03   -0.11388E-02   -0.17285E-04 11088   0.241E-02    0.733E-03
DAV:  16    -0.125501702282E+03   -0.18484E-03   -0.24366E-05 10560   0.948E-03    0.238E-03
DAV:  17    -0.125501720248E+03   -0.17966E-04   -0.99579E-07 11088   0.248E-03    0.615E-04
DAV:  18    -0.125501727652E+03   -0.74035E-05   -0.46034E-07 10176   0.131E-03    0.155E-04
DAV:  19    -0.125501728085E+03   -0.43393E-06   -0.97725E-09 12384   0.269E-04
   1 F= -.12710348E+03 E0= -.12710271E+03  d E =-.127103E+03
       N       E                     dE             d eps       ncg     rms          rms(c)
DAV:   1    -0.125509725564E+03   -0.79979E-02   -0.32635E+00  7104   0.576E+00    0.490E-01
DAV:   2    -0.125501207385E+03    0.85182E-02   -0.65707E-02 13248   0.762E-01    0.219E-01
DAV:   3    -0.125500182176E+03    0.10252E-02   -0.56744E-03 10704   0.220E-01    0.849E-02
DAV:   4    -0.125500136343E+03    0.45833E-04   -0.64444E-04 13008   0.765E-02    0.241E-02
DAV:   5    -0.125500139141E+03   -0.27984E-05   -0.20095E-05 12384   0.152E-02    0.764E-03
DAV:   6    -0.125500139146E+03   -0.53014E-08   -0.48035E-06  9984   0.673E-03
   2 F= -.12710135E+03 E0= -.12710058E+03  d E =0.213203E-02
       N       E                     dE             d eps       ncg     rms          rms(c)
DAV:   1    -0.125511423755E+03   -0.11285E-01   -0.93592E-01  7104   0.309E+00    0.264E-01
DAV:   2    -0.125508891667E+03    0.25321E-02   -0.18606E-02 13200   0.404E-01    0.116E-01
DAV:   3    -0.125508611004E+03    0.28066E-03   -0.15806E-03 11760   0.117E-01    0.460E-02
DAV:   4    -0.125508598381E+03    0.12623E-04   -0.17816E-04 12144   0.401E-02    0.125E-02
DAV:   5    -0.125508599136E+03   -0.75512E-06   -0.58127E-06 11328   0.818E-03
   3 F= -.12711010E+03 E0= -.12710933E+03  d E =-.661733E-02
       N       E                     dE             d eps       ncg     rms          rms(c)
DAV:   1    -0.125512948585E+03   -0.43502E-02   -0.24382E-01  7200   0.188E+00    0.107E-01
DAV:   2    -0.125512960711E+03   -0.12126E-04   -0.21565E-03 13776   0.198E-01    0.620E-02
DAV:   3    -0.125512948233E+03    0.12478E-04   -0.23073E-04 11664   0.563E-02    0.208E-02
DAV:   4    -0.125512948531E+03   -0.29785E-06   -0.44652E-05 12960   0.237E-02    0.866E-03
DAV:   5    -0.125512949204E+03   -0.67303E-06   -0.20798E-06 11760   0.603E-03
   4 F= -.12711437E+03 E0= -.12711360E+03  d E =-.427076E-02
       N       E                     dE             d eps       ncg     rms          rms(c)
DAV:   1    -0.125515352057E+03   -0.24035E-02   -0.49101E-01  7104   0.267E+00    0.152E-01
DAV:   2    -0.125515393101E+03   -0.41044E-04   -0.43711E-03 13200   0.282E-01    0.879E-02
DAV:   3    -0.125515368289E+03    0.24811E-04   -0.46774E-04 10896   0.802E-02    0.294E-02
DAV:   4    -0.125515368724E+03   -0.43452E-06   -0.92113E-05 13104   0.340E-02    0.125E-02
DAV:   5    -0.125515370048E+03   -0.13244E-05   -0.41051E-06 11184   0.851E-03    0.441E-03
DAV:   6    -0.125515370253E+03   -0.20470E-06   -0.12442E-06 12144   0.419E-03
   5 F= -.12711666E+03 E0= -.12711588E+03  d E =-.655567E-02
       N       E                     dE             d eps       ncg     rms          rms(c)
DAV:   1    -0.125516606318E+03   -0.12363E-02   -0.14778E-02  7392   0.435E-01    0.256E-02
DAV:   2    -0.125516608670E+03   -0.23525E-05   -0.11196E-04 13632   0.436E-02    0.150E-02
DAV:   3    -0.125516608038E+03    0.63249E-06   -0.12219E-05 10416   0.130E-02    0.394E-03
DAV:   4    -0.125516608265E+03   -0.22707E-06   -0.20738E-06 12288   0.533E-03
   6 F= -.12711788E+03 E0= -.12711710E+03  d E =-.122088E-02
       N       E                     dE             d eps       ncg     rms          rms(c)
DAV:   1    -0.125519765289E+03   -0.31573E-02   -0.13312E-01  7104   0.131E+00    0.771E-02
DAV:   2    -0.125519786086E+03   -0.20798E-04   -0.97596E-04 12336   0.130E-01    0.450E-02
DAV:   3    -0.125519780150E+03    0.59359E-05   -0.11137E-04 10224   0.392E-02    0.119E-02
DAV:   4    -0.125519780287E+03   -0.13701E-06   -0.18868E-05 13440   0.159E-02    0.509E-03
DAV:   5    -0.125519780607E+03   -0.31952E-06   -0.65149E-07  9936   0.344E-03
   7 F= -.12712100E+03 E0= -.12712022E+03  d E =-.433956E-02
       N       E                     dE             d eps       ncg     rms          rms(c)
DAV:   1    -0.125523687804E+03   -0.39075E-02   -0.53455E-01  7104   0.262E+00    0.154E-01
DAV:   2    -0.125523770963E+03   -0.83159E-04   -0.39551E-03 12768   0.260E-01    0.896E-02
DAV:   3    -0.125523744767E+03    0.26197E-04   -0.44526E-04 11280   0.781E-02    0.237E-02
DAV:   4    -0.125523744909E+03   -0.14222E-06   -0.72586E-05 12624   0.312E-02    0.101E-02
DAV:   5    -0.125523745878E+03   -0.96864E-06   -0.26392E-06 11760   0.688E-03
   8 F= -.12712484E+03 E0= -.12712407E+03  d E =-.818716E-02
       N       E                     dE             d eps       ncg     rms          rms(c)
DAV:   1    -0.125522171528E+03    0.15734E-02   -0.21504E+00  7104   0.522E+00    0.307E-01
DAV:   2    -0.125522544661E+03   -0.37313E-03   -0.16502E-02 13296   0.528E-01    0.178E-01
DAV:   3    -0.125522438044E+03    0.10662E-03   -0.17421E-03 11808   0.154E-01    0.485E-02
DAV:   4    -0.125522441720E+03   -0.36755E-05   -0.27760E-04 12768   0.609E-02    0.201E-02
DAV:   5    -0.125522446075E+03   -0.43546E-05   -0.95684E-06 12096   0.132E-02    0.839E-03
DAV:   6    -0.125522445590E+03    0.48425E-06   -0.44725E-06 12000   0.761E-03
   9 F= -.12712327E+03 E0= -.12712249E+03  d E =-.661063E-02
       N       E                     dE             d eps       ncg     rms          rms(c)
DAV:   1    -0.125524576329E+03   -0.21303E-02   -0.84401E-01  7104   0.327E+00    0.192E-01
DAV:   2    -0.125524722900E+03   -0.14657E-03   -0.66044E-03 13824   0.333E-01    0.112E-01
DAV:   3    -0.125524679067E+03    0.43833E-04   -0.65905E-04  9744   0.951E-02    0.307E-02
DAV:   4    -0.125524682307E+03   -0.32404E-05   -0.11122E-04 12480   0.386E-02    0.125E-02
DAV:   5    -0.125524684269E+03   -0.19615E-05   -0.33524E-06  8832   0.782E-03    0.533E-03
DAV:   6    -0.125524684432E+03   -0.16270E-06   -0.15053E-06 12192   0.441E-03
  10 F= -.12712569E+03 E0= -.12712491E+03  d E =-.902890E-02
       N       E                     dE             d eps       ncg     rms          rms(c)
DAV:   1    -0.125526405877E+03   -0.17216E-02   -0.63439E-02  7104   0.830E-01    0.489E-02
DAV:   2    -0.125526416762E+03   -0.10886E-04   -0.39313E-04 11088   0.727E-02    0.291E-02
DAV:   3    -0.125526414549E+03    0.22131E-05   -0.45553E-05  8544   0.216E-02    0.556E-03
DAV:   4    -0.125526414826E+03   -0.27732E-06   -0.41402E-06 11424   0.770E-03
  11 F= -.12712732E+03 E0= -.12712655E+03  d E =-.163560E-02
       N       E                     dE             d eps       ncg     rms          rms(c)
DAV:   1    -0.125530390689E+03   -0.39761E-02   -0.57198E-01  7104   0.249E+00    0.146E-01
DAV:   2    -0.125530490751E+03   -0.10006E-03   -0.33633E-03 13872   0.214E-01    0.865E-02
DAV:   3    -0.125530462232E+03    0.28519E-04   -0.41141E-04 10608   0.637E-02    0.159E-02
DAV:   4    -0.125530462052E+03    0.18010E-06   -0.32146E-05 11424   0.222E-02    0.755E-03
DAV:   5    -0.125530460368E+03    0.16835E-05   -0.33035E-06 10896   0.695E-03    0.279E-03
DAV:   6    -0.125530459347E+03    0.10213E-05   -0.15993E-06 11904   0.430E-03    0.101E-03
DAV:   7    -0.125530459452E+03   -0.10511E-06   -0.11487E-06  9792   0.322E-03
  12 F= -.12713108E+03 E0= -.12713031E+03  d E =-.539647E-02
       N       E                     dE             d eps       ncg     rms          rms(c)
DAV:   1    -0.125533739784E+03   -0.32804E-02   -0.22895E+00  7104   0.498E+00    0.287E-01
DAV:   2    -0.125534181013E+03   -0.44123E-03   -0.12755E-02 13968   0.419E-01    0.171E-01
DAV:   3    -0.125534075032E+03    0.10598E-03   -0.16699E-03 11136   0.128E-01    0.290E-02
DAV:   4    -0.125534073017E+03    0.20156E-05   -0.12063E-04 11904   0.435E-02    0.149E-02
DAV:   5    -0.125534068357E+03    0.46602E-05   -0.11503E-05 11088   0.134E-02    0.549E-03
DAV:   6    -0.125534065690E+03    0.26666E-05   -0.50654E-06 12048   0.798E-03    0.186E-03
DAV:   7    -0.125534066484E+03   -0.79412E-06   -0.35652E-06 11472   0.581E-03
  13 F= -.12713413E+03 E0= -.12713335E+03  d E =-.843987E-02
       N       E                     dE             d eps       ncg     rms          rms(c)
DAV:   1    -0.125536233865E+03   -0.21682E-02   -0.23566E-01  7104   0.184E+00    0.960E-02
DAV:   2    -0.125536272229E+03   -0.38364E-04   -0.18068E-03 13296   0.181E-01    0.588E-02
DAV:   3    -0.125536240419E+03    0.31810E-04   -0.25770E-04 10752   0.595E-02    0.124E-02
DAV:   4    -0.125536240619E+03   -0.20007E-06   -0.28592E-05 12096   0.211E-02    0.734E-03
DAV:   5    -0.125536241118E+03   -0.49940E-06   -0.15231E-06 11952   0.505E-03
  14 F= -.12713612E+03 E0= -.12713534E+03  d E =-.199731E-02
       N       E                     dE             d eps       ncg     rms          rms(c)
DAV:   1    -0.125536828313E+03   -0.58769E-03   -0.13307E-01  7200   0.138E+00    0.719E-02
DAV:   2    -0.125536850139E+03   -0.21826E-04   -0.10063E-03 12960   0.135E-01    0.441E-02
DAV:   3    -0.125536832753E+03    0.17386E-04   -0.14784E-04 12288   0.449E-02    0.923E-03
DAV:   4    -0.125536832648E+03    0.10459E-06   -0.15531E-05 12336   0.157E-02    0.551E-03
DAV:   5    -0.125536832920E+03   -0.27135E-06   -0.90354E-07 12048   0.392E-03
  15 F= -.12713658E+03 E0= -.12713580E+03  d E =-.245156E-02
       N       E                     dE             d eps       ncg     rms          rms(c)
DAV:   1    -0.125537096629E+03   -0.26398E-03   -0.15121E-02  7104   0.468E-01    0.240E-02
DAV:   2    -0.125537099372E+03   -0.27429E-05   -0.11823E-04 13152   0.447E-02    0.145E-02
DAV:   3    -0.125537099214E+03    0.15788E-06   -0.12185E-05 11472   0.125E-02    0.372E-03
DAV:   4    -0.125537099582E+03   -0.36787E-06   -0.17468E-06 11136   0.494E-03
  16 F= -.12713678E+03 E0= -.12713600E+03  d E =-.199963E-03
       N       E                     dE             d eps       ncg     rms          rms(c)
DAV:   1    -0.125537345724E+03   -0.24651E-03   -0.46003E-02  7104   0.817E-01    0.420E-02
DAV:   2    -0.125537353499E+03   -0.77754E-05   -0.34882E-04 13440   0.770E-02    0.252E-02
DAV:   3    -0.125537351819E+03    0.16807E-05   -0.35061E-05 10368   0.212E-02    0.645E-03
DAV:   4    -0.125537352074E+03   -0.25554E-06   -0.51299E-06 12672   0.841E-03
  17 F= -.12713691E+03 E0= -.12713613E+03  d E =-.335642E-03
       N       E                     dE             d eps       ncg     rms          rms(c)
DAV:   1    -0.125537644252E+03   -0.29243E-03   -0.27535E-02  7104   0.652E-01    0.329E-02
DAV:   2    -0.125537651372E+03   -0.71201E-05   -0.23747E-04 13776   0.656E-02    0.199E-02
DAV:   3    -0.125537650785E+03    0.58694E-06   -0.21095E-05 10560   0.170E-02    0.601E-03
DAV:   4    -0.125537651107E+03   -0.32199E-06   -0.38160E-06 11760   0.709E-03
  18 F= -.12713711E+03 E0= -.12713633E+03  d E =-.197358E-03
       N       E                     dE             d eps       ncg     rms          rms(c)
DAV:   1    -0.125537709638E+03   -0.58853E-04   -0.45836E-03  7104   0.266E-01    0.136E-02
DAV:   2    -0.125537710984E+03   -0.13464E-05   -0.40411E-05 12768   0.271E-02    0.827E-03
DAV:   3    -0.125537711215E+03   -0.23113E-06   -0.36420E-06  9648   0.712E-03
  19 F= -.12713713E+03 E0= -.12713635E+03  d E =-.215586E-03
       N       E                     dE             d eps       ncg     rms          rms(c)
DAV:   1    -0.125537876320E+03   -0.16534E-03   -0.87760E-03  7104   0.365E-01    0.206E-02
DAV:   2    -0.125537877098E+03   -0.77812E-06   -0.94934E-05 13824   0.409E-02    0.121E-02
DAV:   3    -0.125537875910E+03    0.11876E-05   -0.95568E-06  9648   0.119E-02    0.320E-03
DAV:   4    -0.125537876189E+03   -0.27892E-06   -0.11340E-06 11712   0.412E-03
  20 F= -.12713722E+03 E0= -.12713644E+03  d E =-.939470E-04
       N       E                     dE             d eps       ncg     rms          rms(c)
DAV:   1    -0.125537939574E+03   -0.63664E-04   -0.36848E-03  7104   0.237E-01    0.131E-02
DAV:   2    -0.125537940073E+03   -0.49858E-06   -0.40153E-05 13824   0.265E-02    0.772E-03
DAV:   3    -0.125537939671E+03    0.40198E-06   -0.37535E-06  8448   0.750E-03
  21 F= -.12713724E+03 E0= -.12713646E+03  d E =-.111259E-03
       N       E                     dE             d eps       ncg     rms          rms(c)
DAV:   1    -0.125538121744E+03   -0.18167E-03   -0.80993E-03  7104   0.347E-01    0.174E-02
DAV:   2    -0.125538124332E+03   -0.25880E-05   -0.75606E-05 13728   0.354E-02    0.104E-02
DAV:   3    -0.125538124544E+03   -0.21159E-06   -0.67822E-06  7680   0.967E-03
  22 F= -.12713733E+03 E0= -.12713655E+03  d E =-.930306E-04
       N       E                     dE             d eps       ncg     rms          rms(c)
DAV:   1    -0.125538259721E+03   -0.13539E-03   -0.99079E-03  7104   0.384E-01    0.196E-02
DAV:   2    -0.125538263337E+03   -0.36160E-05   -0.92753E-05 13584   0.393E-02    0.117E-02
DAV:   3    -0.125538263688E+03   -0.35003E-06   -0.85290E-06  9120   0.108E-02
  23 F= -.12713737E+03 E0= -.12713659E+03  d E =-.130516E-03
       N       E                     dE             d eps       ncg     rms          rms(c)
DAV:   1    -0.125538439013E+03   -0.17568E-03   -0.77912E-03  7104   0.348E-01    0.190E-02
DAV:   2    -0.125538440263E+03   -0.12500E-05   -0.84706E-05 12864   0.380E-02    0.113E-02
DAV:   3    -0.125538439574E+03    0.68905E-06   -0.78515E-06 10224   0.109E-02
  24 F= -.12713743E+03 E0= -.12713665E+03  d E =-.598988E-04
       N       E                     dE             d eps       ncg     rms          rms(c)
DAV:   1    -0.125538471352E+03   -0.31089E-04   -0.49178E-04  7104   0.876E-02    0.528E-03
DAV:   2    -0.125538471569E+03   -0.21681E-06   -0.53912E-06 13728   0.972E-03
  25 F= -.12713743E+03 E0= -.12713665E+03  d E =-.628070E-04
       N       E                     dE             d eps       ncg     rms          rms(c)
DAV:   1    -0.125538641241E+03   -0.16989E-03   -0.51834E-03  7104   0.280E-01    0.154E-02
DAV:   2    -0.125538641365E+03   -0.12392E-06   -0.56727E-05 10848   0.314E-02    0.902E-03
DAV:   3    -0.125538641016E+03    0.34822E-06   -0.60682E-06 13248   0.931E-03
  26 F= -.12713748E+03 E0= -.12713670E+03  d E =-.485178E-04
       N       E                     dE             d eps       ncg     rms          rms(c)
DAV:   1    -0.125538728152E+03   -0.86787E-04   -0.21546E-03  7104   0.181E-01    0.103E-02
DAV:   2    -0.125538728327E+03   -0.17552E-06   -0.24099E-05 11232   0.205E-02    0.607E-03
DAV:   3    -0.125538728261E+03    0.66605E-07   -0.26382E-06 11712   0.616E-03
  27 F= -.12713749E+03 E0= -.12713671E+03  d E =-.580864E-04
       N       E                     dE             d eps       ncg     rms          rms(c)
DAV:   1    -0.125538904238E+03   -0.17591E-03   -0.47570E-03  7104   0.266E-01    0.133E-02
DAV:   2    -0.125538905174E+03   -0.93531E-06   -0.42078E-05 10224   0.275E-02    0.812E-03
DAV:   3    -0.125538905219E+03   -0.45110E-07   -0.47484E-06 12576   0.807E-03
  28 F= -.12713754E+03 E0= -.12713676E+03  d E =-.466561E-04
       N       E                     dE             d eps       ncg     rms          rms(c)
DAV:   1    -0.125539134347E+03   -0.22917E-03   -0.11480E-02  7104   0.414E-01    0.206E-02
DAV:   2    -0.125539137123E+03   -0.27768E-05   -0.10233E-04 12480   0.429E-02    0.127E-02
DAV:   3    -0.125539136819E+03    0.30421E-06   -0.11359E-05 12720   0.123E-02    0.317E-03
DAV:   4    -0.125539136810E+03    0.95752E-08   -0.16921E-06  9072   0.486E-03
  29 F= -.12713757E+03 E0= -.12713679E+03  d E =-.760789E-04
       N       E                     dE             d eps       ncg     rms          rms(c)
DAV:   1    -0.125539321796E+03   -0.18498E-03   -0.52745E-03  7104   0.278E-01    0.148E-02
DAV:   2    -0.125539322134E+03   -0.33759E-06   -0.50976E-05 11232   0.302E-02    0.895E-03
DAV:   3    -0.125539321528E+03    0.60628E-06   -0.55292E-06 11040   0.900E-03
  30 F= -.12713761E+03 E0= -.12713683E+03  d E =-.418533E-04
       N       E                     dE             d eps       ncg     rms          rms(c)
DAV:   1    -0.125539441849E+03   -0.11972E-03   -0.31392E-03  7104   0.214E-01    0.117E-02
DAV:   2    -0.125539442148E+03   -0.29886E-06   -0.30080E-05 12336   0.231E-02    0.712E-03
DAV:   3    -0.125539441893E+03    0.25530E-06   -0.32321E-06 10560   0.687E-03
  31 F= -.12713762E+03 E0= -.12713684E+03  d E =-.522165E-04
       N       E                     dE             d eps       ncg     rms          rms(c)
DAV:   1    -0.125539627929E+03   -0.18578E-03   -0.44829E-03  7104   0.253E-01    0.130E-02
DAV:   2    -0.125539628765E+03   -0.83587E-06   -0.39606E-05 10320   0.266E-02    0.802E-03
DAV:   3    -0.125539628743E+03    0.22358E-07   -0.44379E-06 10272   0.777E-03
  32 F= -.12713766E+03 E0= -.12713688E+03  d E =-.379466E-04
       N       E                     dE             d eps       ncg     rms          rms(c)
DAV:   1    -0.125539881158E+03   -0.25239E-03   -0.10742E-02  7104   0.391E-01    0.202E-02
DAV:   2    -0.125539883287E+03   -0.21295E-05   -0.95011E-05 11520   0.412E-02    0.125E-02
DAV:   3    -0.125539883065E+03    0.22259E-06   -0.10779E-05 12192   0.119E-02    0.332E-03
DAV:   4    -0.125539883103E+03   -0.38993E-07   -0.18473E-06 10992   0.489E-03
  33 F= -.12713768E+03 E0= -.12713690E+03  d E =-.617655E-04
       N       E                     dE             d eps       ncg     rms          rms(c)
DAV:   1    -0.125540064437E+03   -0.18137E-03   -0.39967E-03  7104   0.240E-01    0.119E-02
DAV:   2    -0.125540065038E+03   -0.60084E-06   -0.34965E-05 10032   0.248E-02    0.720E-03
DAV:   3    -0.125540065009E+03    0.28877E-07   -0.35459E-06 10128   0.696E-03
  34 F= -.12713772E+03 E0= -.12713694E+03  d E =-.372499E-04
       N       E                     dE             d eps       ncg     rms          rms(c)
DAV:   1    -0.125540470989E+03   -0.40595E-03   -0.25441E-02  7104   0.605E-01    0.301E-02
DAV:   2    -0.125540475010E+03   -0.40214E-05   -0.22147E-04 12144   0.618E-02    0.183E-02
DAV:   3    -0.125540474014E+03    0.99546E-06   -0.21952E-05 12864   0.169E-02    0.447E-03
DAV:   4    -0.125540474253E+03   -0.23862E-06   -0.28603E-06  9552   0.627E-03
  35 F= -.12713776E+03 E0= -.12713698E+03  d E =-.816857E-04
       N       E                     dE             d eps       ncg     rms          rms(c)
DAV:   1    -0.125540718580E+03   -0.24457E-03   -0.81672E-03  7104   0.347E-01    0.169E-02
DAV:   2    -0.125540719873E+03   -0.12927E-05   -0.77303E-05 11280   0.367E-02    0.105E-02
DAV:   3    -0.125540719489E+03    0.38362E-06   -0.86500E-06 10416   0.110E-02
  36 F= -.12713780E+03 E0= -.12713702E+03  d E =-.401484E-04
       N       E                     dE             d eps       ncg     rms          rms(c)
DAV:   1    -0.125540865464E+03   -0.14559E-03   -0.37055E-03  7104   0.234E-01    0.119E-02
DAV:   2    -0.125540866318E+03   -0.85485E-06   -0.35303E-05 13488   0.247E-02    0.744E-03
DAV:   3    -0.125540866343E+03   -0.25092E-07   -0.38144E-06  7728   0.729E-03
  37 F= -.12713781E+03 E0= -.12713703E+03  d E =-.493856E-04
       N       E                     dE             d eps       ncg     rms          rms(c)
DAV:   1    -0.125541124331E+03   -0.25801E-03   -0.88634E-03  7104   0.359E-01    0.172E-02
DAV:   2    -0.125541125752E+03   -0.14212E-05   -0.81147E-05 10128   0.367E-02    0.105E-02
DAV:   3    -0.125541125908E+03   -0.15545E-06   -0.81139E-06  9552   0.105E-02
  38 F= -.12713785E+03 E0= -.12713707E+03  d E =-.414935E-04
       N       E                     dE             d eps       ncg     rms          rms(c)
DAV:   1    -0.125541414319E+03   -0.28857E-03   -0.13603E-02  7104   0.445E-01    0.215E-02
DAV:   2    -0.125541416828E+03   -0.25097E-05   -0.12577E-04 11712   0.458E-02    0.132E-02
DAV:   3    -0.125541416885E+03   -0.56883E-07   -0.12451E-05 10512   0.128E-02    0.356E-03
DAV:   4    -0.125541417207E+03   -0.32143E-06   -0.18826E-06  9984   0.496E-03
  39 F= -.12713787E+03 E0= -.12713710E+03  d E =-.627462E-04
       N       E                     dE             d eps       ncg     rms          rms(c)
DAV:   1    -0.125541711966E+03   -0.29508E-03   -0.13064E-02  7104   0.444E-01    0.216E-02
DAV:   2    -0.125541712971E+03   -0.10044E-05   -0.12801E-04 11136   0.468E-02    0.133E-02
DAV:   3    -0.125541711936E+03    0.10349E-05   -0.15051E-05 11760   0.144E-02    0.291E-03
DAV:   4    -0.125541712164E+03   -0.22819E-06   -0.18544E-06  9696   0.497E-03
  40 F= -.12713791E+03 E0= -.12713713E+03  d E =-.307543E-04
       N       E                     dE             d eps       ncg     rms          rms(c)
DAV:   1    -0.125541722011E+03   -0.10075E-04   -0.18032E-05 11760   0.164E-02    0.957E-04
DAV:   2    -0.125541722055E+03   -0.44379E-07   -0.14829E-07 13488   0.161E-03
  41 F= -.12713791E+03 E0= -.12713713E+03  d E =-.309767E-04
       N       E                     dE             d eps       ncg     rms          rms(c)
DAV:   1    -0.125541934324E+03   -0.21231E-03   -0.56987E-03  7104   0.292E-01    0.139E-02
DAV:   2    -0.125541934261E+03    0.63334E-07   -0.52554E-05  7872   0.305E-02    0.848E-03
DAV:   3    -0.125541934148E+03    0.11253E-06   -0.66893E-06  8016   0.972E-03
  42 F= -.12713793E+03 E0= -.12713715E+03  d E =-.219338E-04
       N       E                     dE             d eps       ncg     rms          rms(c)
DAV:   1    -0.125542051067E+03   -0.11681E-03   -0.20177E-03  7104   0.174E-01    0.887E-03
DAV:   2    -0.125542051178E+03   -0.11122E-06   -0.19032E-05 12336   0.184E-02    0.548E-03
DAV:   3    -0.125542051286E+03   -0.10788E-06   -0.23222E-06  8640   0.565E-03
  43 F= -.12713793E+03 E0= -.12713715E+03  d E =-.267931E-04
       N       E                     dE             d eps       ncg     rms          rms(c)
DAV:   1    -0.125542278293E+03   -0.22712E-03   -0.64578E-03  7104   0.313E-01    0.156E-02
DAV:   2    -0.125542278236E+03    0.56962E-07   -0.61038E-05  9600   0.328E-02    0.950E-03
DAV:   3    -0.125542277974E+03    0.26276E-06   -0.80648E-06 11184   0.104E-02
  44 F= -.12713795E+03 E0= -.12713718E+03  d E =-.224916E-04
       N       E                     dE             d eps       ncg     rms          rms(c)
DAV:   1    -0.125542325589E+03   -0.47352E-04   -0.34596E-04  7104   0.726E-02    0.428E-03
DAV:   2    -0.125542325648E+03   -0.58997E-07   -0.35290E-06 13536   0.803E-03
  45 F= -.12713796E+03 E0= -.12713718E+03  d E =-.237537E-04
       N       E                     dE             d eps       ncg     rms          rms(c)
DAV:   1    -0.125542506838E+03   -0.18125E-03   -0.38209E-03  7104   0.239E-01    0.122E-02
DAV:   2    -0.125542506782E+03    0.55778E-07   -0.36034E-05  8352   0.256E-02    0.754E-03
DAV:   3    -0.125542506579E+03    0.20352E-06   -0.46896E-06 10656   0.820E-03
  46 F= -.12713797E+03 E0= -.12713719E+03  d E =-.137120E-04
       N       E                     dE             d eps       ncg     rms          rms(c)
DAV:   1    -0.125542539861E+03   -0.33078E-04   -0.15343E-04  7296   0.478E-02    0.290E-03
DAV:   2    -0.125542539895E+03   -0.34022E-07   -0.15314E-06 13728   0.528E-03
  47 F= -.12713797E+03 E0= -.12713719E+03  d E =-.143869E-04
       N       E                     dE             d eps       ncg     rms          rms(c)
DAV:   1    -0.125542677283E+03   -0.13742E-03   -0.20958E-03  7104   0.178E-01    0.893E-03
DAV:   2    -0.125542677119E+03    0.16349E-06   -0.22414E-05  7824   0.203E-02    0.557E-03
DAV:   3    -0.125542677088E+03    0.31641E-07   -0.33561E-06  8160   0.682E-03
  48 F= -.12713798E+03 E0= -.12713720E+03  d E =-.887329E-05
       N       E                     dE             d eps       ncg     rms          rms(c)
DAV:   1    -0.125542705140E+03   -0.28021E-04   -0.10370E-04  7392   0.396E-02    0.264E-03
DAV:   2    -0.125542705150E+03   -0.98426E-08   -0.12230E-06 13728   0.475E-03
  49 F= -.12713798E+03 E0= -.12713720E+03  d E =-.944699E-05
       N       E                     dE             d eps       ncg     rms          rms(c)
DAV:   1    -0.125542849002E+03   -0.14386E-03   -0.21813E-03  7104   0.184E-01    0.886E-03
DAV:   2    -0.125542848839E+03    0.16335E-06   -0.22616E-05  7536   0.201E-02    0.551E-03
DAV:   3    -0.125542848743E+03    0.95722E-07   -0.30179E-06  8112   0.660E-03
  50 F= -.12713799E+03 E0= -.12713721E+03  d E =-.951992E-05
       N       E                     dE             d eps       ncg     rms          rms(c)
DAV:   1    -0.125542894619E+03   -0.45780E-04   -0.25716E-04  7104   0.629E-02    0.337E-03
DAV:   2    -0.125542894629E+03   -0.10290E-07   -0.27924E-06 13056   0.703E-03
  51 F= -.12713799E+03 E0= -.12713721E+03  d E =-.103083E-04
       N       E                     dE             d eps       ncg     rms          rms(c)
DAV:   1    -0.125543031531E+03   -0.13691E-03   -0.19672E-03  7104   0.175E-01    0.832E-03
DAV:   2    -0.125543031314E+03    0.21675E-06   -0.20479E-05  7584   0.192E-02    0.521E-03
DAV:   3    -0.125543031318E+03   -0.40727E-08   -0.28630E-06  8496   0.638E-03
  52 F= -.12713800E+03 E0= -.12713722E+03  d E =-.787820E-05
       N       E                     dE             d eps       ncg     rms          rms(c)
DAV:   1    -0.125543078136E+03   -0.46822E-04   -0.26078E-04  7104   0.634E-02    0.343E-03
DAV:   2    -0.125543078123E+03    0.12876E-07   -0.29071E-06 13056   0.717E-03
  53 F= -.12713800E+03 E0= -.12713722E+03  d E =-.890089E-05
       N       E                     dE             d eps       ncg     rms          rms(c)
DAV:   1    -0.125543168850E+03   -0.90714E-04   -0.98404E-04  7104   0.124E-01    0.604E-03
DAV:   2    -0.125543168734E+03    0.11578E-06   -0.10045E-05  7392   0.135E-02    0.381E-03
DAV:   3    -0.125543168795E+03   -0.60621E-07   -0.14084E-06  7200   0.451E-03
  54 F= -.12713800E+03 E0= -.12713722E+03  d E =-.799998E-05
       N       E                     dE             d eps       ncg     rms          rms(c)
DAV:   1    -0.125543105019E+03    0.63715E-04   -0.49638E-04  7104   0.878E-02    0.382E-03
DAV:   2    -0.125543105068E+03   -0.49414E-07   -0.58925E-06 10800   0.991E-03
  55 F= -.12713800E+03 E0= -.12713722E+03  d E =-.922105E-05
       N       E                     dE             d eps       ncg     rms          rms(c)
DAV:   1    -0.125543259975E+03   -0.15496E-03   -0.25526E-03  7104   0.195E-01    0.854E-03
DAV:   2    -0.125543259598E+03    0.37744E-06   -0.25376E-05  7104   0.209E-02    0.531E-03
DAV:   3    -0.125543259476E+03    0.12181E-06   -0.35220E-06 10704   0.685E-03
  56 F= -.12713801E+03 E0= -.12713723E+03  d E =-.621234E-05
       N       E                     dE             d eps       ncg     rms          rms(c)
DAV:   1    -0.125543355970E+03   -0.96372E-04   -0.10428E-03  7104   0.125E-01    0.618E-03
DAV:   2    -0.125543355767E+03    0.20361E-06   -0.10114E-05  7200   0.133E-02    0.387E-03
DAV:   3    -0.125543355859E+03   -0.92158E-07   -0.15434E-06  7200   0.463E-03
  57 F= -.12713801E+03 E0= -.12713723E+03  d E =-.791937E-05
       N       E                     dE             d eps       ncg     rms          rms(c)
DAV:   1    -0.125543489447E+03   -0.13368E-03   -0.18642E-03  7104   0.168E-01    0.788E-03
DAV:   2    -0.125543489053E+03    0.39401E-06   -0.17869E-05  7104   0.175E-02    0.489E-03
DAV:   3    -0.125543489063E+03   -0.97170E-08   -0.26232E-06  9024   0.602E-03
  58 F= -.12713802E+03 E0= -.12713724E+03  d E =-.784833E-05
       N       E                     dE             d eps       ncg     rms          rms(c)
DAV:   1    -0.125543671685E+03   -0.18263E-03   -0.37108E-03  7104   0.237E-01    0.111E-02
DAV:   2    -0.125543670977E+03    0.70847E-06   -0.35417E-05  7200   0.247E-02    0.691E-03
DAV:   3    -0.125543670899E+03    0.77816E-07   -0.53632E-06 11568   0.852E-03
  59 F= -.12713802E+03 E0= -.12713724E+03  d E =-.127789E-04
       N       E                     dE             d eps       ncg     rms          rms(c)
DAV:   1    -0.125543830021E+03   -0.15904E-03   -0.26389E-03  7104   0.199E-01    0.954E-03
DAV:   2    -0.125543829526E+03    0.49488E-06   -0.25873E-05  7344   0.211E-02    0.591E-03
DAV:   3    -0.125543829579E+03   -0.52894E-07   -0.38592E-06  9504   0.724E-03
  60 F= -.12713803E+03 E0= -.12713725E+03  d E =-.767840E-05
       N       E                     dE             d eps       ncg     rms          rms(c)
DAV:   1    -0.125544006244E+03   -0.17672E-03   -0.34207E-03  7104   0.227E-01    0.108E-02
DAV:   2    -0.125544005541E+03    0.70282E-06   -0.33413E-05  7104   0.240E-02    0.670E-03
DAV:   3    -0.125544005552E+03   -0.11374E-07   -0.51716E-06 10896   0.833E-03
  61 F= -.12713803E+03 E0= -.12713725E+03  d E =-.116400E-04
       N       E                     dE             d eps       ncg     rms          rms(c)
DAV:   1    -0.125544181084E+03   -0.17554E-03   -0.30640E-03  7104   0.215E-01    0.104E-02
DAV:   2    -0.125544180608E+03    0.47588E-06   -0.30127E-05  7104   0.228E-02    0.647E-03
DAV:   3    -0.125544180628E+03   -0.20573E-07   -0.43631E-06  9984   0.773E-03
  62 F= -.12713804E+03 E0= -.12713726E+03  d E =-.696231E-05
       N       E                     dE             d eps       ncg     rms          rms(c)
DAV:   1    -0.125544263254E+03   -0.82647E-04   -0.72549E-04  7104   0.104E-01    0.529E-03
DAV:   2    -0.125544263167E+03    0.87030E-07   -0.72730E-06 10320   0.112E-02
  63 F= -.12713804E+03 E0= -.12713726E+03  d E =-.830167E-05
       N       E                     dE             d eps       ncg     rms          rms(c)
DAV:   1    -0.125544424411E+03   -0.16116E-03   -0.27655E-03  7104   0.205E-01    0.986E-03
DAV:   2    -0.125544424081E+03    0.33049E-06   -0.27069E-05  7104   0.218E-02    0.619E-03
DAV:   3    -0.125544424126E+03   -0.45135E-07   -0.38045E-06 10128   0.727E-03
  64 F= -.12713804E+03 E0= -.12713726E+03  d E =-.687594E-05
       N       E                     dE             d eps       ncg     rms          rms(c)
DAV:   1    -0.125544310746E+03    0.11333E-03   -0.13988E-03  7104   0.145E-01    0.631E-03
DAV:   2    -0.125544310756E+03   -0.99471E-08   -0.15350E-05 10128   0.159E-02    0.393E-03
DAV:   3    -0.125544310671E+03    0.84580E-07   -0.18357E-06  9744   0.487E-03
  65 F= -.12713804E+03 E0= -.12713726E+03  d E =-.866703E-05
       N       E                     dE             d eps       ncg     rms          rms(c)
DAV:   1    -0.125544472665E+03   -0.16191E-03   -0.24052E-03  7104   0.188E-01    0.855E-03
DAV:   2    -0.125544472223E+03    0.44289E-06   -0.23501E-05  7104   0.200E-02    0.526E-03
DAV:   3    -0.125544472147E+03    0.75529E-07   -0.32253E-06 10608   0.652E-03
  66 F= -.12713805E+03 E0= -.12713727E+03  d E =-.494304E-05
       N       E                     dE             d eps       ncg     rms          rms(c)
DAV:   1    -0.125544602959E+03   -0.13074E-03   -0.16469E-03  7104   0.156E-01    0.767E-03
DAV:   2    -0.125544602677E+03    0.28235E-06   -0.15923E-05  7104   0.166E-02    0.478E-03
DAV:   3    -0.125544602762E+03   -0.85227E-07   -0.22696E-06  8496   0.555E-03
  67 F= -.12713805E+03 E0= -.12713727E+03  d E =-.733898E-05
       N       E                     dE             d eps       ncg     rms          rms(c)
DAV:   1    -0.125544678987E+03   -0.76310E-04   -0.64119E-04  7104   0.100E-01    0.521E-03
DAV:   2    -0.125544678866E+03    0.12112E-06   -0.78390E-06  9696   0.117E-02
  68 F= -.12713805E+03 E0= -.12713727E+03  d E =-.476555E-05
       N       E                     dE             d eps       ncg     rms          rms(c)
DAV:   1    -0.125544725287E+03   -0.46300E-04   -0.24537E-04  7104   0.629E-02    0.368E-03
DAV:   2    -0.125544725255E+03    0.32626E-07   -0.27561E-06  8256   0.705E-03
  69 F= -.12713805E+03 E0= -.12713727E+03  d E =-.510655E-05
       N       E                     dE             d eps       ncg     rms          rms(c)
DAV:   1    -0.125544813097E+03   -0.87809E-04   -0.72924E-04  7104   0.106E-01    0.522E-03
DAV:   2    -0.125544812977E+03    0.11934E-06   -0.78656E-06  7104   0.118E-02
  70 F= -.12713806E+03 E0= -.12713728E+03  d E =-.248668E-05
       N       E                     dE             d eps       ncg     rms          rms(c)
DAV:   1    -0.125544895215E+03   -0.82118E-04   -0.66034E-04  7104   0.101E-01    0.532E-03
DAV:   2    -0.125544895098E+03    0.11699E-06   -0.72140E-06  7872   0.112E-02
  71 F= -.12713806E+03 E0= -.12713728E+03  d E =-.273181E-05
       N       E                     dE             d eps       ncg     rms          rms(c)
DAV:   1    -0.125544970144E+03   -0.74930E-04   -0.71280E-04  7104   0.108E-01    0.567E-03
DAV:   2    -0.125544969982E+03    0.16211E-06   -0.10008E-05  8736   0.134E-02    0.358E-03
DAV:   3    -0.125544969988E+03   -0.63001E-08   -0.16126E-06  9504   0.468E-03
  72 F= -.12713806E+03 E0= -.12713728E+03  d E =-.264882E-05
       N       E                     dE             d eps       ncg     rms          rms(c)
DAV:   1    -0.125544954099E+03    0.15883E-04   -0.33295E-05  9744   0.233E-02    0.869E-04
DAV:   2    -0.125544954141E+03   -0.42403E-07   -0.43018E-07 11520   0.262E-03
  73 F= -.12713806E+03 E0= -.12713728E+03  d E =-.285277E-05
       N       E                     dE             d eps       ncg     rms          rms(c)
DAV:   1    -0.125544975694E+03   -0.21595E-04   -0.90597E-05  8304   0.387E-02    0.198E-03
DAV:   2    -0.125544975633E+03    0.60640E-07   -0.11732E-06  9696   0.439E-03
  74 F= -.12713806E+03 E0= -.12713728E+03  d E =-.128339E-05
       N       E                     dE             d eps       ncg     rms          rms(c)
DAV:   1    -0.125544997148E+03   -0.21454E-04   -0.94089E-05  8016   0.398E-02    0.228E-03
DAV:   2    -0.125544997073E+03    0.74885E-07   -0.11442E-06 13152   0.435E-03
  75 F= -.12713806E+03 E0= -.12713728E+03  d E =-.159167E-05
       N       E                     dE             d eps       ncg     rms          rms(c)
DAV:   1    -0.125545018144E+03   -0.20996E-04   -0.72341E-05  9120   0.345E-02    0.178E-03
DAV:   2    -0.125545018097E+03    0.47041E-07   -0.74285E-07 12624   0.351E-03
  76 F= -.12713806E+03 E0= -.12713728E+03  d E =-.739305E-06
       N       E                     dE             d eps       ncg     rms          rms(c)
DAV:   1    -0.125545041311E+03   -0.23167E-04   -0.91780E-05  8976   0.388E-02    0.201E-03
DAV:   2    -0.125545041243E+03    0.67996E-07   -0.90463E-07 11952   0.388E-03
  77 F= -.12713806E+03 E0= -.12713728E+03  d E =-.971650E-06
       N       E                     dE             d eps       ncg     rms          rms(c)
DAV:   1    -0.125545061488E+03   -0.20177E-04   -0.54654E-05  9744   0.294E-02    0.165E-03
DAV:   2    -0.125545061437E+03    0.50602E-07   -0.61221E-07 12672   0.313E-03
  78 F= -.12713806E+03 E0= -.12713728E+03  d E =-.715140E-06
       N       E                     dE             d eps       ncg     rms          rms(c)
DAV:   1    -0.125545095395E+03   -0.33907E-04   -0.16355E-04  7104   0.506E-02    0.275E-03
DAV:   2    -0.125545095272E+03    0.12324E-06   -0.19532E-06  7776   0.572E-03
  79 F= -.12713806E+03 E0= -.12713728E+03  d E =-.108640E-05
       N       E                     dE             d eps       ncg     rms          rms(c)
DAV:   1    -0.125545118722E+03   -0.23327E-04   -0.58565E-05  7104   0.306E-02    0.166E-03
DAV:   2    -0.125545118704E+03    0.18354E-07   -0.66980E-07 11520   0.342E-03
  80 F= -.12713806E+03 E0= -.12713728E+03  d E =-.592748E-06
       N       E                     dE             d eps       ncg     rms          rms(c)
DAV:   1    -0.125545151673E+03   -0.32951E-04   -0.12217E-04  7104   0.438E-02    0.223E-03
DAV:   2    -0.125545151619E+03    0.53383E-07   -0.13157E-06  7104   0.485E-03
  81 F= -.12713806E+03 E0= -.12713728E+03  d E =-.861544E-06
       N       E                     dE             d eps       ncg     rms          rms(c)
DAV:   1    -0.125545176531E+03   -0.24859E-04   -0.52655E-05  7104   0.283E-02    0.149E-03
DAV:   2    -0.125545176512E+03    0.19067E-07   -0.57780E-07  8736   0.319E-03
  82 F= -.12713806E+03 E0= -.12713728E+03  d E =-.667011E-06
       N       E                     dE             d eps       ncg     rms          rms(c)
DAV:   1    -0.125545250753E+03   -0.74222E-04   -0.49222E-04  7104   0.856E-02    0.424E-03
DAV:   2    -0.125545250561E+03    0.19253E-06   -0.51257E-06  7104   0.948E-03
  83 F= -.12713806E+03 E0= -.12713728E+03  d E =-.204289E-05
       N       E                     dE             d eps       ncg     rms          rms(c)
DAV:   1    -0.125545396492E+03   -0.14574E-03   -0.19518E-03  7104   0.171E-01    0.851E-03
DAV:   2    -0.125545395954E+03    0.53855E-06   -0.21228E-05  8544   0.190E-02    0.532E-03
DAV:   3    -0.125545395977E+03   -0.22913E-07   -0.31211E-06 12384   0.638E-03
  84 F= -.12713807E+03 E0= -.12713729E+03  d E =-.221201E-05
       N       E                     dE             d eps       ncg     rms          rms(c)
DAV:   1    -0.125545324618E+03    0.71336E-04   -0.47657E-04  7392   0.843E-02    0.365E-03
DAV:   2    -0.125545324552E+03    0.65864E-07   -0.55671E-06 10032   0.947E-03
  85 F= -.12713807E+03 E0= -.12713729E+03  d E =-.266367E-05
       N       E                     dE             d eps       ncg     rms          rms(c)
DAV:   1    -0.125545354790E+03   -0.30172E-04   -0.94027E-05  7296   0.366E-02    0.146E-03
DAV:   2    -0.125545354789E+03    0.93405E-09   -0.12391E-06  8304   0.455E-03
  86 F= -.12713807E+03 E0= -.12713729E+03  d E =-.816785E-06
       N       E                     dE             d eps       ncg     rms          rms(c)
DAV:   1    -0.125545444528E+03   -0.89738E-04   -0.75295E-04  7104   0.106E-01    0.526E-03
DAV:   2    -0.125545444240E+03    0.28844E-06   -0.78934E-06  7104   0.116E-02
  87 F= -.12713807E+03 E0= -.12713729E+03  d E =-.194335E-05
       N       E                     dE             d eps       ncg     rms          rms(c)
DAV:   1    -0.125545474859E+03   -0.30330E-04   -0.81282E-05 10992   0.357E-02    0.223E-03
DAV:   2    -0.125545474805E+03    0.53889E-07   -0.53864E-07 10368   0.309E-03
  88 F= -.12713807E+03 E0= -.12713729E+03  d E =-.186245E-05
       N       E                     dE             d eps       ncg     rms          rms(c)
DAV:   1    -0.125545506156E+03   -0.31297E-04   -0.84854E-05  7104   0.354E-02    0.171E-03
DAV:   2    -0.125545506132E+03    0.23648E-07   -0.80819E-07  7200   0.382E-03
  89 F= -.12713807E+03 E0= -.12713729E+03  d E =-.659880E-06
       N       E                     dE             d eps       ncg     rms          rms(c)
DAV:   1    -0.125545599900E+03   -0.93744E-04   -0.78075E-04  7104   0.107E-01    0.515E-03
DAV:   2    -0.125545599629E+03    0.27097E-06   -0.76504E-06  7104   0.115E-02
  90 F= -.12713807E+03 E0= -.12713729E+03  d E =-.219989E-05
       N       E                     dE             d eps       ncg     rms          rms(c)
DAV:   1    -0.125545785987E+03   -0.18609E-03   -0.30950E-03  7104   0.214E-01    0.104E-02
DAV:   2    -0.125545785287E+03    0.70004E-06   -0.31660E-05  8256   0.232E-02    0.649E-03
DAV:   3    -0.125545785350E+03   -0.62655E-07   -0.46004E-06 12384   0.770E-03
  91 F= -.12713807E+03 E0= -.12713729E+03  d E =-.401112E-05
       N       E                     dE             d eps       ncg     rms          rms(c)
DAV:   1    -0.125545828473E+03   -0.43186E-04   -0.23861E-04  9216   0.607E-02    0.351E-03
DAV:   2    -0.125545828349E+03    0.12401E-06   -0.25459E-06 10560   0.659E-03
  92 F= -.12713807E+03 E0= -.12713729E+03  d E =-.207559E-05
       N       E                     dE             d eps       ncg     rms          rms(c)
DAV:   1    -0.125545863470E+03   -0.34997E-04   -0.15662E-04  7392   0.498E-02    0.281E-03
DAV:   2    -0.125545863410E+03    0.59898E-07   -0.17123E-06  9216   0.548E-03
  93 F= -.12713807E+03 E0= -.12713729E+03  d E =-.223801E-05
       N       E                     dE             d eps       ncg     rms          rms(c)
DAV:   1    -0.125545853377E+03    0.10093E-04   -0.16811E-05  7104   0.159E-02    0.750E-04
DAV:   2    -0.125545853395E+03   -0.18187E-07   -0.34197E-07 10512   0.231E-03
  94 F= -.12713807E+03 E0= -.12713729E+03  d E =-.239439E-05
       N       E                     dE             d eps       ncg     rms          rms(c)
DAV:   1    -0.125545843961E+03    0.94159E-05   -0.11438E-05 12000   0.135E-02    0.809E-04
DAV:   2    -0.125545843962E+03   -0.68303E-09   -0.10029E-07 10608   0.129E-03
  95 F= -.12713807E+03 E0= -.12713729E+03  d E =-.241482E-05
       N       E                     dE             d eps       ncg     rms          rms(c)
DAV:   1    -0.125545847897E+03   -0.39361E-05   -0.23889E-06 11088   0.601E-03    0.280E-04
DAV:   2    -0.125545847899E+03   -0.22956E-08   -0.32479E-08 13728   0.715E-04
  96 F= -.12713807E+03 E0= -.12713729E+03  d E =-.244711E-05
       N       E                     dE             d eps       ncg     rms          rms(c)
DAV:   1    -0.125545864126E+03   -0.16229E-04   -0.37930E-05  9120   0.242E-02    0.119E-03
DAV:   2    -0.125545864094E+03    0.32309E-07   -0.35811E-07  7872   0.236E-03
  97 F= -.12713807E+03 E0= -.12713729E+03  d E =-.563997E-06
       N       E                     dE             d eps       ncg     rms          rms(c)
DAV:   1    -0.125545911931E+03   -0.47805E-04   -0.33877E-04  7104   0.725E-02    0.356E-03
DAV:   2    -0.125545911676E+03    0.25480E-06   -0.34612E-06  7104   0.752E-03
  98 F= -.12713808E+03 E0= -.12713730E+03  d E =-.125913E-05
       N       E                     dE             d eps       ncg     rms          rms(c)
DAV:   1    -0.125545933617E+03   -0.21686E-04   -0.76734E-05  7104   0.356E-02    0.198E-03
DAV:   2    -0.125545933560E+03    0.56310E-07   -0.94807E-07 11712   0.408E-03
  99 F= -.12713808E+03 E0= -.12713730E+03  d E =-.488454E-06
       N       E                     dE             d eps       ncg     rms          rms(c)
DAV:   1    -0.125545945163E+03   -0.11546E-04   -0.21927E-05  7872   0.190E-02    0.112E-03
DAV:   2    -0.125545945149E+03    0.13923E-07   -0.21825E-07 13200   0.195E-03
 100 F= -.12713808E+03 E0= -.12713730E+03  d E =-.551009E-06
       N       E                     dE             d eps       ncg     rms          rms(c)
DAV:   1    -0.125545963451E+03   -0.18288E-04   -0.47334E-05  9792   0.270E-02    0.139E-03
DAV:   2    -0.125545963401E+03    0.49577E-07   -0.47669E-07  7968   0.271E-03
 101 F= -.12713808E+03 E0= -.12713730E+03  d E =-.320005E-06
       N       E                     dE             d eps       ncg     rms          rms(c)
DAV:   1    -0.125545983688E+03   -0.20238E-04   -0.59029E-05  7104   0.303E-02    0.165E-03
DAV:   2    -0.125545983629E+03    0.59577E-07   -0.65355E-07  7680   0.327E-03
 102 F= -.12713808E+03 E0= -.12713730E+03  d E =-.382572E-06
       N       E                     dE             d eps       ncg     rms          rms(c)
DAV:   1    -0.125546007563E+03   -0.23875E-04   -0.60297E-05  7104   0.306E-02    0.158E-03
DAV:   2    -0.125546007534E+03    0.29436E-07   -0.68081E-07  7296   0.350E-03
 103 F= -.12713808E+03 E0= -.12713730E+03  d E =-.353846E-06
       N       E                     dE             d eps       ncg     rms          rms(c)
DAV:   1    -0.125546031799E+03   -0.24236E-04   -0.62647E-05  7104   0.312E-02    0.162E-03
DAV:   2    -0.125546031773E+03    0.25842E-07   -0.66728E-07  7776   0.347E-03
 104 F= -.12713808E+03 E0= -.12713730E+03  d E =-.443993E-06
       N       E                     dE             d eps       ncg     rms          rms(c)
DAV:   1    -0.125546046371E+03   -0.14572E-04   -0.18817E-05  7104   0.170E-02    0.951E-04
DAV:   2    -0.125546046363E+03    0.72814E-08   -0.20094E-07  9888   0.188E-03
 105 F= -.12713808E+03 E0= -.12713730E+03  d E =-.271694E-06
       N       E                     dE             d eps       ncg     rms          rms(c)
DAV:   1    -0.125546089926E+03   -0.43555E-04   -0.17849E-04  7104   0.517E-02    0.256E-03
DAV:   2    -0.125546089837E+03    0.88960E-07   -0.18609E-06  7104   0.566E-03
 106 F= -.12713808E+03 E0= -.12713730E+03  d E =-.790678E-06
       N       E                     dE             d eps       ncg     rms          rms(c)
DAV:   1    -0.125546175956E+03   -0.86031E-04   -0.70736E-04  7104   0.103E-01    0.516E-03
DAV:   2    -0.125546175687E+03    0.26878E-06   -0.77063E-06  8544   0.114E-02
 107 F= -.12713808E+03 E0= -.12713730E+03  d E =-.707476E-06
       N       E                     dE             d eps       ncg     rms          rms(c)
DAV:   1    -0.125546196397E+03   -0.20441E-04   -0.34056E-05 12432   0.234E-02    0.163E-03
DAV:   2    -0.125546196373E+03    0.23570E-07   -0.18230E-07 10512   0.179E-03
 108 F= -.12713808E+03 E0= -.12713730E+03  d E =-.203367E-06
       N       E                     dE             d eps       ncg     rms          rms(c)
DAV:   1    -0.125546240446E+03   -0.44049E-04   -0.17944E-04  7104   0.514E-02    0.245E-03
DAV:   2    -0.125546240388E+03    0.58168E-07   -0.18142E-06  7104   0.565E-03
 109 F= -.12713808E+03 E0= -.12713730E+03  d E =-.501714E-06
       N       E                     dE             d eps       ncg     rms          rms(c)
DAV:   1    -0.125546327962E+03   -0.87516E-04   -0.71258E-04  7104   0.103E-01    0.501E-03
DAV:   2    -0.125546327754E+03    0.20819E-06   -0.74179E-06  7104   0.113E-02
 110 F= -.12713808E+03 E0= -.12713730E+03  d E =-.442980E-06
       N       E                     dE             d eps       ncg     rms          rms(c)
DAV:   1    -0.125546373874E+03   -0.45912E-04   -0.19564E-04 10608   0.548E-02    0.306E-03
DAV:   2    -0.125546373738E+03    0.13566E-06   -0.15871E-06  8736   0.519E-03
 111 F= -.12713808E+03 E0= -.12713730E+03  d E =-.920420E-06
       N       E                     dE             d eps       ncg     rms          rms(c)
DAV:   1    -0.125546510556E+03   -0.13668E-03   -0.18615E-03  7104   0.166E-01    0.808E-03
DAV:   2    -0.125546509878E+03    0.67778E-06   -0.19114E-05  7200   0.181E-02    0.498E-03
DAV:   3    -0.125546509901E+03   -0.22355E-07   -0.29283E-06 11712   0.621E-03
 112 F= -.12713808E+03 E0= -.12713730E+03  d E =-.194713E-05
       N       E                     dE             d eps       ncg     rms          rms(c)
DAV:   1    -0.125546472643E+03    0.37235E-04   -0.13816E-04  9312   0.454E-02    0.183E-03
DAV:   2    -0.125546472645E+03   -0.16580E-08   -0.14927E-06 10512   0.479E-03
 113 F= -.12713808E+03 E0= -.12713730E+03  d E =-.207689E-05
       N       E                     dE             d eps       ncg     rms          rms(c)
DAV:   1    -0.125546492364E+03   -0.19721E-04   -0.65588E-05 10512   0.320E-02    0.153E-03
DAV:   2    -0.125546492314E+03    0.50301E-07   -0.68581E-07  8832   0.337E-03
 114 F= -.12713808E+03 E0= -.12713730E+03  d E =-.614546E-06
       N       E                     dE             d eps       ncg     rms          rms(c)
DAV:   1    -0.125546515117E+03   -0.22753E-04   -0.84087E-05  7872   0.370E-02    0.197E-03
DAV:   2    -0.125546515056E+03    0.60981E-07   -0.87115E-07  9312   0.388E-03
 115 F= -.12713808E+03 E0= -.12713730E+03  d E =-.715731E-06
       N       E                     dE             d eps       ncg     rms          rms(c)
DAV:   1    -0.125546531812E+03   -0.16695E-04   -0.41676E-05  8976   0.251E-02    0.133E-03
DAV:   2    -0.125546531780E+03    0.32064E-07   -0.37810E-07 13296   0.243E-03
 116 F= -.12713808E+03 E0= -.12713730E+03  d E =-.296228E-06
       N       E                     dE             d eps       ncg     rms          rms(c)
DAV:   1    -0.125546567334E+03   -0.35522E-04   -0.19829E-04  7104   0.543E-02    0.278E-03
DAV:   2    -0.125546567166E+03    0.16843E-06   -0.20185E-06  7104   0.566E-03
 117 F= -.12713808E+03 E0= -.12713730E+03  d E =-.515089E-06
       N       E                     dE             d eps       ncg     rms          rms(c)
DAV:   1    -0.125546571522E+03   -0.41874E-05   -0.18431E-05  9744   0.162E-02    0.124E-03
DAV:   2    -0.125546571514E+03    0.77071E-08   -0.23131E-07 11568   0.198E-03
 118 F= -.12713808E+03 E0= -.12713730E+03  d E =-.344085E-06
       N       E                     dE             d eps       ncg     rms          rms(c)
DAV:   1    -0.125546572579E+03   -0.10577E-05   -0.10409E-06 10320   0.390E-03    0.372E-04
DAV:   2    -0.125546572580E+03   -0.87584E-09   -0.79093E-09 13440   0.371E-04
 119 F= -.12713808E+03 E0= -.12713730E+03  d E =-.353592E-06
       N       E                     dE             d eps       ncg     rms          rms(c)
DAV:   1    -0.125546572324E+03    0.25559E-06   -0.10601E-07 10176   0.120E-03    0.839E-05
DAV:   2    -0.125546572325E+03   -0.14952E-08   -0.18534E-09 13200   0.167E-04
 120 F= -.12713808E+03 E0= -.12713730E+03  d E =-.362042E-06
       N       E                     dE             d eps       ncg     rms          rms(c)
DAV:   1    -0.125546572062E+03    0.26164E-06   -0.76300E-08 10272   0.104E-03    0.816E-05
DAV:   2    -0.125546572063E+03   -0.89312E-09   -0.77866E-10 12288   0.113E-04
 121 F= -.12713808E+03 E0= -.12713730E+03  d E =-.365232E-06
       N       E                     dE             d eps       ncg     rms          rms(c)
DAV:   1    -0.125546573844E+03   -0.17823E-05   -0.17702E-06 10752   0.548E-03    0.275E-04
DAV:   2    -0.125546573843E+03    0.17271E-08   -0.14917E-08  8016   0.478E-04
 122 F= -.12713808E+03 E0= -.12713730E+03  d E =-.677713E-07
       N       E                     dE             d eps       ncg     rms          rms(c)
DAV:   1    -0.125546579074E+03   -0.52295E-05   -0.15651E-05  8448   0.164E-02    0.828E-04
DAV:   2    -0.125546579056E+03    0.17532E-07   -0.14828E-07  8448   0.152E-03
 123 F= -.12713808E+03 E0= -.12713730E+03  d E =-.145938E-06
       N       E                     dE             d eps       ncg     rms          rms(c)
DAV:   1    -0.125546582587E+03   -0.35126E-05   -0.41518E-06 10608   0.842E-03    0.482E-04
DAV:   2    -0.125546582583E+03    0.35288E-08   -0.39703E-08  5616   0.854E-04
 124 F= -.12713808E+03 E0= -.12713730E+03  d E =-.452320E-07
