Lattice                                 
           1
     4.196759    2.423000    0.000000
    -4.196759    2.423000    0.000000
     0.000000    0.000000   15.000000
   B    C 
     4    11
Direct configuration=     1
   0.00415361  0.00267210  0.12034134
   0.35695335  0.00285503  0.09748893
   0.00423858  0.35550699  0.09749256
   0.65142295  0.65006557  0.09747688
   0.32808646  0.32671938  0.10030508
   0.68027775  0.00278085  0.10027562
   0.00416530  0.67883808  0.10026559
   0.99999933  0.49999967  0.33413333
   0.16666633  0.33333267  0.33413333
   0.99999933  0.99999967  0.33413333
   0.16666633  0.83333267  0.33413333
   0.49999933  0.49999967  0.33413333
   0.66666633  0.33333267  0.33413333
   0.49999933  0.99999967  0.33413333
   0.66666633  0.83333267  0.33413333
Direct configuration=     2
   0.00418051  0.00275233  0.11922984
   0.35584387  0.00302883  0.09783514
   0.00396309  0.35417757  0.09783723
   0.65274552  0.65113170  0.09782658
   0.32470583  0.32299999  0.10029944
   0.68395853  0.00310044  0.10027796
   0.00389111  0.68224114  0.10027069
   0.00012456  0.49997644  0.33414022
   0.16687092  0.33393695  0.33419820
   0.99999914  0.99999368  0.33403159
   0.16705864  0.83312673  0.33420105
   0.50003852  0.50016039  0.33414306
   0.66666622  0.33333780  0.33408400
   0.49985355  0.99987355  0.33413976
   0.66606066  0.83292981  0.33419790
Direct configuration=     3
   0.00416611  0.00270938  0.11982491
   0.35643786  0.00293578  0.09764979
   0.00411058  0.35488931  0.09765270
   0.65203745  0.65056092  0.09763936
   0.32651573  0.32499125  0.10030246
   0.68198794  0.00292934  0.10027671
   0.00403790  0.68041923  0.10026796
   0.00005752  0.49998888  0.33413653
   0.16676139  0.33361343  0.33416347
   0.99999924  0.99999689  0.33408606
   0.16684861  0.83323698  0.33416479
   0.50001754  0.50007434  0.33413785
   0.66666628  0.33333505  0.33411041
   0.49993160  0.99994107  0.33413632
   0.66638492  0.83314549  0.33416333
Direct configuration=     4
   0.00418007  0.00276518  0.11891577
   0.35687646  0.00304845  0.09795651
   0.00391594  0.35518936  0.09795789
   0.65175218  0.65009224  0.09794944
   0.32662037  0.32488237  0.10026772
   0.68207592  0.00311813  0.10024969
   0.00386241  0.68033292  0.10024305
  -0.00007928  0.50000966  0.33415381
   0.16662185  0.33315484  0.33420442
   0.99999997  0.00000275  0.33402715
   0.16654198  0.83338380  0.33420786
   0.49998584  0.49990907  0.33415724
   0.66666937  0.33333222  0.33406496
   0.50008662  0.00007954  0.33415319
   0.66685096  0.83346681  0.33420396
Direct configuration=     5
   0.00419985  0.00284425  0.11762747
   0.35749797  0.00320812  0.09839115
   0.00364013  0.35561455  0.09839036
   0.65134793  0.64942809  0.09838883
   0.32676865  0.32472809  0.10021850
   0.68220060  0.00338566  0.10021139
   0.00361373  0.68021061  0.10020775
  -0.00027312  0.50003910  0.33417830
   0.16642410  0.33250500  0.33426245
   0.00000099  0.00001107  0.33394368
   0.16610748  0.83359185  0.33426890
   0.49994092  0.49967486  0.33418470
   0.66667374  0.33332821  0.33400055
   0.50030630  0.00027575  0.33417710
   0.66751137  0.83392213  0.33426153
Direct configuration=     6
   0.00420219  0.00285441  0.11738750
   0.35760433  0.00322660  0.09846222
   0.00360622  0.35569845  0.09846110
   0.65126869  0.64931590  0.09846064
   0.32683266  0.32475921  0.10021907
   0.68216576  0.00341250  0.10021383
   0.00358626  0.68015053  0.10021065
  -0.00024032  0.50003622  0.33418332
   0.16644164  0.33258244  0.33426979
   0.00000227  0.00001053  0.33393534
   0.16616473  0.83357324  0.33427663
   0.49994736  0.49971175  0.33419010
   0.66667323  0.33332903  0.33399163
   0.50027275  0.00024413  0.33418202
   0.66743291  0.83386239  0.33426881
Direct configuration=     7
   0.00420921  0.00288490  0.11666759
   0.35792339  0.00328207  0.09867545
   0.00350449  0.35595015  0.09867330
   0.65103099  0.64897933  0.09867608
   0.32702469  0.32485256  0.10022078
   0.68206123  0.00349301  0.10022113
   0.00350382  0.67997028  0.10021934
  -0.00014193  0.50002757  0.33419838
   0.16649424  0.33281476  0.33429183
   0.00000608  0.00000893  0.33391034
   0.16633645  0.83351740  0.33429985
   0.49996666  0.49982244  0.33420629
   0.66667170  0.33333149  0.33396489
   0.50017209  0.00014927  0.33419678
   0.66719754  0.83368317  0.33429063
Direct configuration=     8
   0.00422324  0.00294586  0.11522776
   0.35856151  0.00339301  0.09910189
   0.00330104  0.35645356  0.09909771
   0.65055558  0.64830621  0.09910696
   0.32740875  0.32503927  0.10022421
   0.68185218  0.00365404  0.10023574
   0.00333896  0.67960977  0.10023672
   0.00005486  0.50001028  0.33422848
   0.16659944  0.33327940  0.33433591
   0.00001372  0.00000573  0.33386034
   0.16667990  0.83340574  0.33434627
   0.50000527  0.50004381  0.33423868
   0.66666865  0.33333640  0.33391141
   0.49997077 -0.00004046  0.33422631
   0.66672679  0.83332473  0.33433428
Direct configuration=     9
   0.00425131  0.00306780  0.11234811
   0.35983775  0.00361489  0.09995479
   0.00289412  0.35746037  0.09994653
   0.64960476  0.64695995  0.09996872
   0.32817688  0.32541268  0.10023106
   0.68143408  0.00397609  0.10026495
   0.00300923  0.67888876  0.10027148
   0.00044844  0.49997568  0.33428869
   0.16680984  0.33420868  0.33442406
   0.00002898 -0.00000067  0.33376033
   0.16736680  0.83318240  0.33443912
   0.50008250  0.50048656  0.33430345
   0.66666254  0.33334622  0.33380445
   0.49956814 -0.00041992  0.33428536
   0.66578529  0.83260785  0.33442157
Direct configuration=    10
   0.00423372  0.00299137  0.11415299
   0.35903784  0.00347582  0.09942022
   0.00314916  0.35682933  0.09941451
   0.65020070  0.64780374  0.09942859
   0.32769544  0.32517864  0.10022677
   0.68169613  0.00377424  0.10024664
   0.00321590  0.67934067  0.10024970
   0.00020176  0.49999736  0.33425095
   0.16667797  0.33362623  0.33436881
   0.00001942  0.00000334  0.33382301
   0.16693627  0.83332238  0.33438092
   0.50003410  0.50020906  0.33426286
   0.66666637  0.33334006  0.33387149
   0.49982050 -0.00018209  0.33424835
   0.66637539  0.83305717  0.33436685
Direct configuration=    11
   0.00423107  0.00298303  0.11362007
   0.35902970  0.00344557  0.09950590
   0.00318941  0.35686051  0.09950005
   0.65017649  0.64781169  0.09951465
   0.32772170  0.32528102  0.10030049
   0.68159675  0.00369231  0.10032276
   0.00327737  0.67931565  0.10032618
   0.00013247  0.50000715  0.33426051
   0.16672957  0.33362779  0.33436352
   0.00001203  0.00000281  0.33385252
   0.16690122  0.83328051  0.33437531
   0.50001733  0.50013408  0.33427199
   0.66667312  0.33334093  0.33387940
   0.49988869 -0.00011885  0.33425779
   0.66638374  0.83310315  0.33436154
Direct configuration=    12
   0.00422315  0.00295798  0.11202130
   0.35900528  0.00335481  0.09976293
   0.00331016  0.35695405  0.09975666
   0.65010383  0.64783552  0.09977281
   0.32780049  0.32558817  0.10052167
   0.68129862  0.00344652  0.10055112
   0.00346179  0.67924059  0.10055564
  -0.00007540  0.50003650  0.33428919
   0.16688436  0.33363247  0.33434764
  -0.00001013  0.00000121  0.33394106
   0.16679604  0.83315489  0.33435845
   0.49996704  0.49990913  0.33429937
   0.66669336  0.33334353  0.33390312
   0.50009327  0.00007086  0.33428611
   0.66640879  0.83324111  0.33434559
Direct configuration=    13
   0.00420731  0.00290790  0.10882378
   0.35895644  0.00317329  0.10027700
   0.00355166  0.35714113  0.10026988
   0.64995853  0.64788318  0.10028914
   0.32795807  0.32620247  0.10096402
   0.68070234  0.00295494  0.10100784
   0.00383063  0.67909048  0.10101455
  -0.00049114  0.50009519  0.33434654
   0.16719396  0.33364182  0.33431588
  -0.00005446 -0.00000198  0.33411813
   0.16658570  0.83290364  0.33432474
   0.49986646  0.49945923  0.33435415
   0.66673383  0.33334873  0.33395057
   0.50050244  0.00045028  0.33434276
   0.66645890  0.83351703  0.33431368
Direct configuration=    14
   0.00420558  0.00289319  0.10788722
   0.35893742  0.00310318  0.10040858
   0.00366882  0.35720119  0.10040200
   0.64987827  0.64791478  0.10042015
   0.32791489  0.32629766  0.10111047
   0.68060472  0.00283482  0.10115573
   0.00394320  0.67910100  0.10116239
  -0.00017030  0.50000348  0.33434572
   0.16682790  0.33346945  0.33431414
   0.00000646  0.00000883  0.33417879
   0.16668282  0.83321076  0.33432170
   0.50002007  0.49983775  0.33435177
   0.66668794  0.33334399  0.33400000
   0.50018408  0.00018980  0.33434186
   0.66656878  0.83335745  0.33431213
Direct configuration=    15
   0.00420428  0.00288215  0.10718386
   0.35892314  0.00305053  0.10050740
   0.00375681  0.35724629  0.10050122
   0.64981800  0.64793851  0.10051854
   0.32788246  0.32636915  0.10122046
   0.68053140  0.00274460  0.10126680
   0.00402775  0.67910890  0.10127342
   0.00007065  0.49993461  0.33434511
   0.16655299  0.33334000  0.33431283
   0.00005220  0.00001696  0.33422435
   0.16675577  0.83344141  0.33431942
   0.50013543  0.50012201  0.33434998
   0.66665348  0.33334043  0.33403712
   0.49994499 -0.00000581  0.33434119
   0.66665131  0.83323760  0.33431097
Direct configuration=    16
   0.00420310  0.00287399  0.10694577
   0.35897178  0.00303348  0.10054343
   0.00380140  0.35730538  0.10053809
   0.64972469  0.64790256  0.10055324
   0.32782758  0.32630331  0.10125205
   0.68059285  0.00278541  0.10129566
   0.00401835  0.67913346  0.10130155
   0.00011015  0.49998921  0.33432848
   0.16661745  0.33336582  0.33432523
   0.00002593  0.00001218  0.33423717
   0.16676451  0.83340796  0.33433112
   0.50005021  0.50012544  0.33433258
   0.66668199  0.33334572  0.33407989
   0.49991190 -0.00007479  0.33432480
   0.66665878  0.83325818  0.33432360
Direct configuration=    17
   0.00420104  0.00285974  0.10653046
   0.35905664  0.00300375  0.10060627
   0.00387917  0.35740847  0.10060242
   0.64956193  0.64783987  0.10061377
   0.32773185  0.32618846  0.10130717
   0.68070003  0.00285659  0.10134601
   0.00400194  0.67917630  0.10135063
   0.00017906  0.50008445  0.33429948
   0.16672988  0.33341088  0.33434685
  -0.00001990  0.00000385  0.33425954
   0.16677978  0.83334961  0.33435152
   0.49990154  0.50013143  0.33430221
   0.66673172  0.33335494  0.33415450
   0.49985418 -0.00019510  0.33429621
   0.66667181  0.83329410  0.33434564
Direct configuration=    18
   0.00418639  0.00282004  0.10621969
   0.35916352  0.00298936  0.10066582
   0.00392617  0.35752442  0.10066352
   0.64939939  0.64775179  0.10067056
   0.32771703  0.32610983  0.10133111
   0.68078672  0.00296248  0.10136324
   0.00394670  0.67917121  0.10136631
   0.00007131  0.50005452  0.33428004
   0.16674379  0.33342686  0.33436512
   0.00001480  0.00001086  0.33427855
   0.16671986  0.83329592  0.33436883
   0.49997465  0.50002815  0.33428168
   0.66669454  0.33334888  0.33421658
   0.50000056 -0.00004420  0.33427725
   0.66661521  0.83331720  0.33436436
Direct configuration=    19
   0.00418041  0.00280383  0.10609282
   0.35920715  0.00298349  0.10069013
   0.00394536  0.35757177  0.10068846
   0.64933304  0.64771583  0.10069374
   0.32771098  0.32607774  0.10134089
   0.68082212  0.00300571  0.10137027
   0.00392415  0.67916913  0.10137271
   0.00002732  0.50004230  0.33427211
   0.16674947  0.33343338  0.33437259
   0.00002897  0.00001372  0.33428631
   0.16669540  0.83327401  0.33437590
   0.50000451  0.49998599  0.33427330
   0.66667936  0.33334641  0.33424192
   0.50006032  0.00001740  0.33426951
   0.66659210  0.83332664  0.33437201
Direct configuration=    20
   0.00416075  0.00275806  0.10593429
   0.35925484  0.00299101  0.10073394
   0.00394238  0.35761866  0.10073321
   0.64928034  0.64767515  0.10073555
   0.32778185  0.32609496  0.10133412
   0.68082307  0.00306739  0.10135772
   0.00387483  0.67911914  0.10135893
  -0.00000485  0.49996748  0.33428150
   0.16667772  0.33340709  0.33437366
   0.00003154  0.00001471  0.33430245
   0.16674279  0.83334737  0.33437683
   0.50008181  0.50002856  0.33428252
   0.66667828  0.33334593  0.33425532
   0.50001905  0.00005065  0.33427928
   0.66661627  0.83328117  0.33437336
Direct configuration=    21
   0.00414801  0.00272840  0.10583158
   0.35928574  0.00299589  0.10076232
   0.00394045  0.35764905  0.10076220
   0.64924620  0.64764879  0.10076263
   0.32782776  0.32610611  0.10132974
   0.68082369  0.00310736  0.10134959
   0.00384288  0.67908675  0.10135000
  -0.00002570  0.49991901  0.33428758
   0.16663124  0.33339006  0.33437436
   0.00003320  0.00001535  0.33431291
   0.16677350  0.83339490  0.33437743
   0.50013189  0.50005615  0.33428849
   0.66667757  0.33334562  0.33426400
   0.49999231  0.00007219  0.33428561
   0.66663193  0.83325172  0.33437424
Direct configuration=    22
   0.00413380  0.00269547  0.10567544
   0.35929836  0.00301887  0.10080926
   0.00392058  0.35764485  0.10081006
   0.64924949  0.64764135  0.10080747
   0.32788641  0.32612426  0.10131467
   0.68081704  0.00315063  0.10132776
   0.00380293  0.67904324  0.10132675
   0.00002593  0.49996303  0.33431017
   0.16665851  0.33339152  0.33437215
   0.00001896  0.00001270  0.33432907
   0.16677514  0.83338606  0.33437542
   0.50007140  0.50007484  0.33431132
   0.66669441  0.33334885  0.33426225
   0.49995743  0.00000453  0.33430859
   0.66665029  0.83326713  0.33437229
Direct configuration=    23
   0.00411811  0.00265911  0.10550301
   0.35931229  0.00304424  0.10086111
   0.00389864  0.35764021  0.10086291
   0.64925312  0.64763313  0.10085698
   0.32795117  0.32614429  0.10129803
   0.68080969  0.00319842  0.10130365
   0.00375882  0.67899519  0.10130107
   0.00008295  0.50001165  0.33433512
   0.16668862  0.33339313  0.33436971
   0.00000324  0.00000978  0.33434692
   0.16677694  0.83337631  0.33437320
   0.50000460  0.50009548  0.33433652
   0.66671300  0.33335242  0.33426032
   0.49991891 -0.00007018  0.33433396
   0.66667055  0.83328415  0.33437015
Direct configuration=    24
   0.00412761  0.00267962  0.10535451
   0.35928390  0.00307636  0.10089535
   0.00387662  0.35757448  0.10089776
   0.64930832  0.64766329  0.10088959
   0.32791274  0.32611632  0.10128902
   0.68082304  0.00319346  0.10128855
   0.00376319  0.67900703  0.10128472
   0.00007577  0.50004346  0.33435692
   0.16671356  0.33340654  0.33437670
   0.00003247  0.00001567  0.33435118
   0.16671133  0.83331717  0.33438060
   0.50000773  0.50003469  0.33435896
   0.66668369  0.33334876  0.33425559
   0.50001535 -0.00002662  0.33435596
   0.66662534  0.83331708  0.33437725
Direct configuration=    25
   0.00412999  0.00268477  0.10531729
   0.35927679  0.00308442  0.10090393
   0.00387109  0.35755800  0.10090649
   0.64932216  0.64767085  0.10089776
   0.32790311  0.32610931  0.10128676
   0.68082638  0.00319222  0.10128476
   0.00376428  0.67901000  0.10128062
   0.00007397  0.50005143  0.33436239
   0.16671981  0.33340991  0.33437845
   0.00003980  0.00001715  0.33435225
   0.16669488  0.83330235  0.33438246
   0.50000852  0.50001945  0.33436459
   0.66667634  0.33334785  0.33425440
   0.50003953 -0.00001570  0.33436148
   0.66661401  0.83332534  0.33437903
Direct configuration=    26
   0.00414853  0.00272755  0.10519178
   0.35924940  0.00310522  0.10091787
   0.00385387  0.35750217  0.10092058
   0.64937158  0.64769263  0.10091097
   0.32784262  0.32609404  0.10128835
   0.68082060  0.00314578  0.10128227
   0.00380072  0.67903805  0.10127730
   0.00001772  0.49999852  0.33437530
   0.16670238  0.33341371  0.33439626
   0.00003166  0.00001665  0.33434561
   0.16673561  0.83333253  0.33440071
   0.50005196  0.50002294  0.33437821
   0.66668624  0.33334951  0.33425625
   0.50002664  0.00003038  0.33437440
   0.66662115  0.83329766  0.33439682
Direct configuration=    27
   0.00416043  0.00275500  0.10511122
   0.35923183  0.00311857  0.10092682
   0.00384281  0.35746633  0.10092962
   0.64940330  0.64770662  0.10091945
   0.32780378  0.32608424  0.10128937
   0.68081689  0.00311598  0.10128067
   0.00382411  0.67905605  0.10127517
  -0.00001839  0.49996456  0.33438358
   0.16669119  0.33341615  0.33440768
   0.00002643  0.00001633  0.33434134
   0.16676175  0.83335190  0.33441243
   0.50007984  0.50002519  0.33438695
   0.66669259  0.33335058  0.33425743
   0.50001837  0.00005996  0.33438270
   0.66662573  0.83327989  0.33440824
Direct configuration=    28
   0.00416829  0.00277729  0.10498443
   0.35923285  0.00311903  0.10093078
   0.00382775  0.35746692  0.10093339
   0.64941474  0.64769302  0.10092331
   0.32780135  0.32612693  0.10129663
   0.68076815  0.00305512  0.10128513
   0.00386276  0.67905976  0.10127912
   0.00001807  0.49997803  0.33439340
   0.16668815  0.33341073  0.33443016
   0.00001968  0.00001490  0.33433509
   0.16677514  0.83336615  0.33443522
   0.50005912  0.50005495  0.33439732
   0.66670179  0.33335216  0.33426566
   0.49998083  0.00001558  0.33439241
   0.66664199  0.83327676  0.33443062
Direct configuration=    29
   0.00418048  0.00281184  0.10478784
   0.35923444  0.00311975  0.10093693
   0.00380441  0.35746782  0.10093924
   0.64943249  0.64767194  0.10092929
   0.32779758  0.32619311  0.10130789
   0.68069257  0.00296077  0.10129205
   0.00392270  0.67906551  0.10128523
   0.00007459  0.49999892  0.33440862
   0.16668343  0.33340234  0.33446502
   0.00000922  0.00001269  0.33432540
   0.16679590  0.83338824  0.33447056
   0.50002700  0.50010110  0.33441340
   0.66671605  0.33335461  0.33427841
   0.49992261 -0.00005323  0.33440747
   0.66666720  0.83327191  0.33446532
Direct configuration=    30
   0.00417609  0.00280887  0.10465683
   0.35925276  0.00310282  0.10093828
   0.00379560  0.35750775  0.10094022
   0.64941494  0.64764154  0.10093097
   0.32782635  0.32623942  0.10131418
   0.68065113  0.00292265  0.10129680
   0.00393961  0.67906241  0.10128974
   0.00008940  0.50002953  0.33442132
   0.16669380  0.33339902  0.33448361
   0.00003027  0.00001713  0.33433115
   0.16674479  0.83335460  0.33448917
   0.50002158  0.50007018  0.33442632
   0.66669631  0.33335254  0.33429034
   0.49997889 -0.00004190  0.33441999
   0.66664915  0.83330078  0.33448376
Direct configuration=    31
   0.00417272  0.00280657  0.10455594
   0.35926686  0.00308978  0.10093932
   0.00378881  0.35753850  0.10094098
   0.64940142  0.64761813  0.10093226
   0.32784851  0.32627508  0.10131903
   0.68061923  0.00289330  0.10130045
   0.00395263  0.67906002  0.10129321
   0.00010080  0.50005309  0.33443109
   0.16670178  0.33339647  0.33449793
   0.00004649  0.00002055  0.33433558
   0.16670542  0.83332869  0.33450350
   0.50001741  0.50004637  0.33443627
   0.66668110  0.33335094  0.33429952
   0.50002224 -0.00003318  0.33442963
   0.66663524  0.83332301  0.33449797
Direct configuration=    32
   0.00416427  0.00279409  0.10443193
   0.35928508  0.00306487  0.10094182
   0.00379234  0.35758286  0.10094308
   0.64937027  0.64759495  0.10093545
   0.32786270  0.32626809  0.10131912
   0.68062967  0.00290468  0.10130068
   0.00393726  0.67906645  0.10129351
   0.00004788  0.50002462  0.33444765
   0.16671100  0.33340647  0.33450776
   0.00003984  0.00002082  0.33435827
   0.16672250  0.83333021  0.33451297
   0.50003807  0.50002664  0.33445264
   0.66668957  0.33335294  0.33431416
   0.50003472  0.00001256  0.33444601
   0.66663550  0.83331706  0.33450762
Direct configuration=    33
   0.00415119  0.00277479  0.10424008
   0.35931325  0.00302633  0.10094569
   0.00379781  0.35765150  0.10094632
   0.64932209  0.64755908  0.10094038
   0.32788466  0.32625729  0.10131926
   0.68064583  0.00292230  0.10130103
   0.00391348  0.67907640  0.10129397
  -0.00003400  0.49998057  0.33447327
   0.16672525  0.33342196  0.33452296
   0.00002956  0.00002124  0.33439339
   0.16674891  0.83333256  0.33452763
   0.50007005  0.49999612  0.33447796
   0.66670266  0.33335602  0.33433682
   0.50005404  0.00008332  0.33447135
   0.66663589  0.83330786  0.33452256
Direct configuration=    34
   0.00414968  0.00277504  0.10412769
   0.35931903  0.00301003  0.10095111
   0.00380850  0.35766858  0.10095145
   0.64929841  0.64755309  0.10094648
   0.32787540  0.32621802  0.10131318
   0.68068002  0.00295708  0.10129596
   0.00388888  0.67908054  0.10128914
  -0.00001113  0.49997944  0.33448907
   0.16671568  0.33342259  0.33453029
   0.00002789  0.00002071  0.33442024
   0.16676618  0.83334799  0.33453451
   0.50006975  0.50002354  0.33449340
   0.66670697  0.33335683  0.33435338
   0.50002515  0.00005844  0.33448699
   0.66664028  0.83329541  0.33452977
Direct configuration=    35
   0.00414586  0.00277567  0.10384421
   0.35933361  0.00296891  0.10096477
   0.00383544  0.35771168  0.10096437
   0.64923868  0.64753800  0.10096188
   0.32785206  0.32611898  0.10129784
   0.68076626  0.00304480  0.10128319
   0.00382682  0.67909099  0.10127697
   0.00004655  0.49997658  0.33452890
   0.16669154  0.33342418  0.33454878
   0.00002366  0.00001936  0.33448797
   0.16680971  0.83338691  0.33455188
   0.50006899  0.50009269  0.33453234
   0.66671785  0.33335886  0.33439516
   0.49995228 -0.00000431  0.33452645
   0.66665136  0.83326403  0.33454794
Direct configuration=    36
   0.00415060  0.00278634  0.10369331
   0.35932433  0.00296654  0.10097779
   0.00385218  0.35769608  0.10097718
   0.64922381  0.64754868  0.10097568
   0.32784669  0.32608694  0.10127963
   0.68078859  0.00309056  0.10126739
   0.00380023  0.67906621  0.10126168
   0.00009281  0.50002524  0.33454647
   0.16669845  0.33340655  0.33456469
   0.00004257  0.00002311  0.33452074
   0.16675339  0.83336038  0.33456729
   0.50004415  0.50007768  0.33454942
   0.66670145  0.33335744  0.33442374
   0.49998991 -0.00002686  0.33454390
   0.66665151  0.83330245  0.33456377
Direct configuration=    37
   0.00415378  0.00279350  0.10359204
   0.35931810  0.00296495  0.10098652
   0.00386341  0.35768561  0.10098577
   0.64921383  0.64755585  0.10098494
   0.32784309  0.32606543  0.10126740
   0.68080358  0.00312126  0.10125678
   0.00378239  0.67904958  0.10125142
   0.00012385  0.50005789  0.33455826
   0.16670308  0.33339471  0.33457537
   0.00005526  0.00002563  0.33454272
   0.16671560  0.83334258  0.33457763
   0.50002748  0.50006761  0.33456089
   0.66669044  0.33335648  0.33444292
   0.50001517 -0.00004199  0.33455561
   0.66665160  0.83332824  0.33457439
Direct configuration=    38
   0.00415373  0.00278968  0.10343826
   0.35929785  0.00297979  0.10100382
   0.00387380  0.35765051  0.10100308
   0.64922073  0.64757850  0.10100281
   0.32786638  0.32608872  0.10124084
   0.68077905  0.00313746  0.10123350
   0.00377293  0.67900283  0.10122885
   0.00007665  0.50004459  0.33457254
   0.16672133  0.33339671  0.33460008
   0.00004691  0.00002619  0.33456700
   0.16672020  0.83333804  0.33460216
   0.50003146  0.50003981  0.33457481
   0.66670196  0.33335948  0.33447590
   0.50003387 -0.00000323  0.33456988
   0.66666382  0.83333824  0.33459914
Direct configuration=    39
   0.00415366  0.00278496  0.10324781
   0.35927276  0.00299818  0.10102525
   0.00388667  0.35760704  0.10102451
   0.64922927  0.64760656  0.10102494
   0.32789522  0.32611757  0.10120794
   0.68074867  0.00315752  0.10120466
   0.00376121  0.67894492  0.10120090
   0.00001819  0.50002811  0.33459022
   0.16674394  0.33339919  0.33463069
   0.00003658  0.00002688  0.33459707
   0.16672590  0.83333242  0.33463254
   0.50003639  0.50000539  0.33459206
   0.66671623  0.33336320  0.33451674
   0.50005703  0.00004477  0.33458755
   0.66667895  0.83335064  0.33462980
Direct configuration=    40
   0.00413608  0.00274213  0.10307087
   0.35925881  0.00302181  0.10104159
   0.00388015  0.35758555  0.10104103
   0.64925609  0.64762758  0.10104149
   0.32791694  0.32617166  0.10117758
   0.68070579  0.00312242  0.10117821
   0.00377663  0.67893494  0.10117530
   0.00004504  0.49999014  0.33461058
   0.16670409  0.33342430  0.33466336
   0.00004271  0.00002709  0.33461614
   0.16678819  0.83337451  0.33466554
   0.50008159  0.50007105  0.33461237
   0.66671560  0.33336308  0.33454791
   0.50000015  0.00002418  0.33460805
   0.66665280  0.83328690  0.33466264
Direct configuration=    41
   0.00413544  0.00274057  0.10306440
   0.35925830  0.00302267  0.10104219
   0.00387992  0.35758476  0.10104164
   0.64925707  0.64762835  0.10104210
   0.32791774  0.32617363  0.10117647
   0.68070422  0.00312113  0.10117725
   0.00377719  0.67893458  0.10117436
   0.00004602  0.49998875  0.33461133
   0.16670263  0.33342522  0.33466455
   0.00004294  0.00002709  0.33461684
   0.16679047  0.83337605  0.33466675
   0.50008324  0.50007346  0.33461311
   0.66671558  0.33336307  0.33454905
   0.49999807  0.00002343  0.33460880
   0.66665185  0.83328457  0.33466384
Direct configuration=    42
   0.00411878  0.00270339  0.10294591
   0.35927075  0.00304114  0.10104583
   0.00386112  0.35759340  0.10104557
   0.64927219  0.64762189  0.10104545
   0.32789847  0.32619742  0.10116081
   0.68068773  0.00306513  0.10116390
   0.00380835  0.67897549  0.10116151
   0.00009546  0.50002107  0.33463252
   0.16670213  0.33342018  0.33468622
   0.00005318  0.00002864  0.33462536
   0.16677162  0.83336887  0.33468911
   0.50006478  0.50008562  0.33463461
   0.66670807  0.33336240  0.33455993
   0.49999866 -0.00001323  0.33463020
   0.66664939  0.83329592  0.33468573
Direct configuration=    43
   0.00410894  0.00268145  0.10287595
   0.35927810  0.00305205  0.10104798
   0.00385002  0.35759850  0.10104790
   0.64928112  0.64761807  0.10104742
   0.32788709  0.32621146  0.10115157
   0.68067799  0.00303207  0.10115603
   0.00382674  0.67899965  0.10115392
   0.00012464  0.50004015  0.33464503
   0.16670183  0.33341721  0.33469901
   0.00005922  0.00002955  0.33463038
   0.16676049  0.83336463  0.33470231
   0.50005387  0.50009280  0.33464731
   0.66670363  0.33336200  0.33456635
   0.49999901 -0.00003488  0.33464284
   0.66664794  0.83330262  0.33469866
Direct configuration=    44
   0.00410894  0.00268379  0.10275374
   0.35931328  0.00307227  0.10104444
   0.00382843  0.35761382  0.10104479
   0.64926702  0.64758096  0.10104322
   0.32784203  0.32620890  0.10114132
   0.68067405  0.00298781  0.10114745
   0.00386238  0.67903712  0.10114571
   0.00007168  0.50004030  0.33467265
   0.16673114  0.33340375  0.33471916
   0.00004578  0.00002992  0.33463995
   0.16674772  0.83335402  0.33472334
   0.50003842  0.50004840  0.33467543
   0.66672014  0.33336607  0.33457162
   0.50002797  0.00000407  0.33467074
   0.66668168  0.83333613  0.33471910
Direct configuration=    45
   0.00410894  0.00268432  0.10272596
   0.35932128  0.00307687  0.10104363
   0.00382352  0.35761730  0.10104408
   0.64926381  0.64757253  0.10104226
   0.32783179  0.32620832  0.10113900
   0.68067316  0.00297775  0.10114550
   0.00387048  0.67904564  0.10114384
   0.00005964  0.50004034  0.33467892
   0.16673781  0.33340069  0.33472374
   0.00004273  0.00003001  0.33464213
   0.16674481  0.83335160  0.33472812
   0.50003491  0.50003830  0.33468182
   0.66672389  0.33336699  0.33457281
   0.50003456  0.00001292  0.33467708
   0.66668935  0.83334375  0.33472375
Direct configuration=    46
   0.00412441  0.00272354  0.10263279
   0.35935105  0.00308362  0.10103521
   0.00381235  0.35762620  0.10103602
   0.64923069  0.64753076  0.10103312
   0.32780475  0.32619241  0.10113460
   0.68067434  0.00297579  0.10114148
   0.00388361  0.67904311  0.10113990
   0.00004322  0.50000766  0.33470206
   0.16671815  0.33341386  0.33473845
   0.00005021  0.00003199  0.33465281
   0.16676928  0.83336778  0.33474337
   0.50007541  0.50005103  0.33470531
   0.66672002  0.33336705  0.33457848
   0.50003127  0.00003799  0.33470042
   0.66667191  0.83331451  0.33473866
Direct configuration=    47
   0.00412743  0.00273119  0.10261460
   0.35935686  0.00308494  0.10103356
   0.00381017  0.35762794  0.10103444
   0.64922423  0.64752261  0.10103133
   0.32779947  0.32618931  0.10113374
   0.68067457  0.00297541  0.10114070
   0.00388617  0.67904262  0.10113913
   0.00004001  0.50000129  0.33470657
   0.16671432  0.33341643  0.33474132
   0.00005167  0.00003238  0.33465489
   0.16677405  0.83337094  0.33474635
   0.50008331  0.50005351  0.33470990
   0.66671926  0.33336706  0.33457959
   0.50003063  0.00004288  0.33470498
   0.66666850  0.83330881  0.33474157
Direct configuration=    48
   0.00413494  0.00275443  0.10255029
   0.35935567  0.00307187  0.10102518
   0.00380772  0.35763004  0.10102625
   0.64921114  0.64751160  0.10102240
   0.32781180  0.32617980  0.10113061
   0.68067709  0.00299798  0.10113693
   0.00387103  0.67902233  0.10113522
   0.00008563  0.50002208  0.33472085
   0.16671387  0.33342492  0.33475296
   0.00005799  0.00003261  0.33466607
   0.16677488  0.83336782  0.33475811
   0.50007169  0.50007656  0.33472424
   0.66671523  0.33336653  0.33459087
   0.50001595  0.00000500  0.33471937
   0.66665604  0.83330377  0.33475333
Direct configuration=    49
   0.00413655  0.00275940  0.10253652
   0.35935542  0.00306907  0.10102338
   0.00380720  0.35763048  0.10102449
   0.64920834  0.64750924  0.10102048
   0.32781444  0.32617776  0.10112994
   0.68067763  0.00300281  0.10113612
   0.00386779  0.67901799  0.10113438
   0.00009539  0.50002653  0.33472391
   0.16671378  0.33342673  0.33475545
   0.00005935  0.00003266  0.33466846
   0.16677506  0.83336715  0.33476063
   0.50006920  0.50008150  0.33472731
   0.66671436  0.33336642  0.33459328
   0.50001281 -0.00000312  0.33472246
   0.66665337  0.83330269  0.33475584
Direct configuration=    50
   0.00413149  0.00275617  0.10247653
   0.35932792  0.00304167  0.10101552
   0.00380918  0.35762911  0.10101671
   0.64922130  0.64752864  0.10101218
   0.32784773  0.32617173  0.10112394
   0.68068377  0.00303046  0.10112877
   0.00383561  0.67900243  0.10112672
   0.00008967  0.50004285  0.33473484
   0.16673267  0.33341388  0.33476857
   0.00005130  0.00003241  0.33468262
   0.16676203  0.83336011  0.33477360
   0.50004497  0.50006561  0.33473810