<?xml version="1.0" encoding="ISO-8859-1"?>
<modeling>
 <generator>
  <i name="program" type="string">vasp </i>
  <i name="version" type="string">6.3.2  </i>
  <i name="subversion" type="string">27Jun22 (build Dec 22 2022 13:13:19) complex                          parallel </i>
  <i name="platform" type="string">LinuxIFC </i>
  <i name="date" type="string">2023 08 23 </i>
  <i name="time" type="string">04:33:50 </i>
 </generator>
 <incar>
  <i type="string" name="SYSTEM">Lattice</i>
  <i type="int" name="ISTART">     0</i>
  <i type="string" name="PREC">Accurate</i>
  <i type="string" name="ALGO">Normal</i>
  <i type="int" name="ISPIN">     2</i>
  <i type="int" name="ICHARG">     2</i>
  <i type="int" name="NELM">    64</i>
  <i type="int" name="IBRION">     2</i>
  <i name="EDIFF">      0.00000100</i>
  <i name="EDIFFG">     -0.00100000</i>
  <i type="int" name="NSW">   128</i>
  <i type="int" name="ISIF">     2</i>
  <i name="ENCUT">    450.00000000</i>
  <i name="POTIM">      0.50000000</i>
  <i type="int" name="ISMEAR">     0</i>
  <i name="SIGMA">      0.10000000</i>
  <i type="logical" name="LWAVE"> F  </i>
  <i type="logical" name="LCHARG"> F  </i>
  <i type="string" name="GGA">PE</i>
  <i type="int" name="IVDW">    12</i>
 </incar>
 <primitive_cell>
  <structure name="primitive_cell" >
   <crystal>
    <varray name="basis" >
     <v>       4.20282128       2.42650000       0.00000000 </v>
     <v>      -4.20282128       2.42650000       0.00000000 </v>
     <v>       0.00000000       0.00000000      15.00000000 </v>
    </varray>
    <i name="volume">    305.94437541 </i>
    <varray name="rec_basis" >
     <v>       0.11896770       0.20605811       0.00000000 </v>
     <v>      -0.11896770       0.20605811       0.00000000 </v>
     <v>       0.00000000       0.00000000       0.06666667 </v>
    </varray>
   </crystal>
   <varray name="positions" >
    <v>       0.00415361       0.00267210       0.12034134 </v>
    <v>       0.35695335       0.00285503       0.09748893 </v>
    <v>       0.00423858       0.35550699       0.09749256 </v>
    <v>       0.65142295       0.65006557       0.09747688 </v>
    <v>       0.32808646       0.32671938       0.10030508 </v>
    <v>       0.68027775       0.00278085       0.10027562 </v>
    <v>       0.00416530       0.67883808       0.10026559 </v>
    <v>       0.11111044       0.38888856       0.33726667 </v>
    <v>       0.27777744       0.22222156       0.33726667 </v>
    <v>       0.11111044       0.88888856       0.33726667 </v>
    <v>       0.27777744       0.72222156       0.33726667 </v>
    <v>       0.61111044       0.38888856       0.33726667 </v>
    <v>       0.77777744       0.22222156       0.33726667 </v>
    <v>       0.61111044       0.88888856       0.33726667 </v>
    <v>       0.77777744       0.72222156       0.33726667 </v>
   </varray>
  </structure>
  <varray name="primitive_index" >
   <v type="int" >        1 </v>
   <v type="int" >        2 </v>
   <v type="int" >        3 </v>
   <v type="int" >        4 </v>
   <v type="int" >        5 </v>
   <v type="int" >        6 </v>
   <v type="int" >        7 </v>
   <v type="int" >        8 </v>
   <v type="int" >        9 </v>
   <v type="int" >       10 </v>
   <v type="int" >       11 </v>
   <v type="int" >       12 </v>
   <v type="int" >       13 </v>
   <v type="int" >       14 </v>
   <v type="int" >       15 </v>
  </varray>
 </primitive_cell>
 <kpoints>
  <generation param="Gamma">
   <v type="int" name="divisions">      12       12        1 </v>
   <v name="usershift">      0.00000000       0.00000000       0.00000000 </v>
   <v name="genvec1">      0.08333333      -0.00000000       0.00000000 </v>
   <v name="genvec2">     -0.00000000       0.08333333       0.00000000 </v>
   <v name="genvec3">      0.00000000       0.00000000       1.00000000 </v>
   <v name="shift">      0.00000000       0.00000000       0.00000000 </v>
  </generation>
  <varray name="kpointlist" >
   <v>       0.00000000       0.00000000       0.00000000 </v>
   <v>       0.08333333      -0.00000000       0.00000000 </v>
   <v>       0.00000000       0.08333333       0.00000000 </v>
   <v>      -0.08333333       0.08333333       0.00000000 </v>
   <v>       0.16666667      -0.00000000       0.00000000 </v>
   <v>      -0.00000000       0.16666667       0.00000000 </v>
   <v>      -0.16666667       0.16666667       0.00000000 </v>
   <v>       0.25000000      -0.00000000       0.00000000 </v>
   <v>      -0.00000000       0.25000000       0.00000000 </v>
   <v>      -0.25000000       0.25000000       0.00000000 </v>
   <v>       0.33333333      -0.00000000       0.00000000 </v>
   <v>      -0.00000000       0.33333333       0.00000000 </v>
   <v>      -0.33333333       0.33333333       0.00000000 </v>
   <v>       0.41666667      -0.00000000       0.00000000 </v>
   <v>      -0.00000000       0.41666667       0.00000000 </v>
   <v>      -0.41666667       0.41666667       0.00000000 </v>
   <v>       0.50000000      -0.00000000       0.00000000 </v>
   <v>      -0.00000000       0.50000000       0.00000000 </v>
   <v>       0.50000000       0.50000000       0.00000000 </v>
   <v>       0.08333333       0.08333333       0.00000000 </v>
   <v>      -0.08333333       0.16666667       0.00000000 </v>
   <v>      -0.16666667       0.08333333       0.00000000 </v>
   <v>       0.16666667       0.08333333       0.00000000 </v>
   <v>      -0.08333333       0.25000000       0.00000000 </v>
   <v>      -0.25000000       0.16666667       0.00000000 </v>
   <v>      -0.16666667       0.25000000       0.00000000 </v>
   <v>       0.08333333       0.16666667       0.00000000 </v>
   <v>       0.25000000      -0.08333333       0.00000000 </v>
   <v>       0.25000000       0.08333333       0.00000000 </v>
   <v>      -0.08333333       0.33333333       0.00000000 </v>
   <v>      -0.33333333       0.25000000       0.00000000 </v>
   <v>      -0.25000000       0.33333333       0.00000000 </v>
   <v>       0.08333333       0.25000000       0.00000000 </v>
   <v>       0.33333333      -0.08333333       0.00000000 </v>
   <v>       0.33333333       0.08333333       0.00000000 </v>
   <v>      -0.08333333       0.41666667       0.00000000 </v>
   <v>      -0.41666667       0.33333333       0.00000000 </v>
   <v>      -0.33333333       0.41666667       0.00000000 </v>
   <v>       0.08333333       0.33333333       0.00000000 </v>
   <v>       0.41666667      -0.08333333       0.00000000 </v>
   <v>       0.41666667       0.08333333       0.00000000 </v>
   <v>      -0.08333333       0.50000000       0.00000000 </v>
   <v>       0.50000000       0.41666667       0.00000000 </v>
   <v>      -0.41666667       0.50000000       0.00000000 </v>
   <v>       0.08333333       0.41666667       0.00000000 </v>
   <v>       0.50000000      -0.08333333       0.00000000 </v>
   <v>       0.16666667       0.16666667       0.00000000 </v>
   <v>      -0.16666667       0.33333333       0.00000000 </v>
   <v>      -0.33333333       0.16666667       0.00000000 </v>
   <v>       0.25000000       0.16666667       0.00000000 </v>
   <v>      -0.16666667       0.41666667       0.00000000 </v>
   <v>      -0.41666667       0.25000000       0.00000000 </v>
   <v>      -0.25000000       0.41666667       0.00000000 </v>
   <v>       0.16666667       0.25000000       0.00000000 </v>
   <v>       0.41666667      -0.16666667       0.00000000 </v>
   <v>       0.33333333       0.16666667       0.00000000 </v>
   <v>      -0.16666667       0.50000000       0.00000000 </v>
   <v>       0.50000000       0.33333333       0.00000000 </v>
   <v>      -0.33333333       0.50000000       0.00000000 </v>
   <v>       0.16666667       0.33333333       0.00000000 </v>
   <v>       0.50000000      -0.16666667       0.00000000 </v>
   <v>       0.41666667       0.16666667       0.00000000 </v>
   <v>      -0.16666667      -0.41666667       0.00000000 </v>
   <v>       0.41666667       0.41666667       0.00000000 </v>
   <v>       0.25000000       0.25000000       0.00000000 </v>
   <v>      -0.25000000       0.50000000       0.00000000 </v>
   <v>       0.50000000       0.25000000       0.00000000 </v>
   <v>       0.33333333       0.25000000       0.00000000 </v>
   <v>      -0.25000000      -0.41666667       0.00000000 </v>
   <v>       0.41666667       0.33333333       0.00000000 </v>
   <v>      -0.33333333      -0.41666667       0.00000000 </v>
   <v>       0.25000000       0.33333333       0.00000000 </v>
   <v>      -0.41666667      -0.25000000       0.00000000 </v>
   <v>       0.33333333       0.33333333       0.00000000 </v>
  </varray>
  <varray name="weights" >
   <v>       0.00694444 </v>
   <v>       0.01388889 </v>
   <v>       0.01388889 </v>
   <v>       0.01388889 </v>
   <v>       0.01388889 </v>
   <v>       0.01388889 </v>
   <v>       0.01388889 </v>
   <v>       0.01388889 </v>
   <v>       0.01388889 </v>
   <v>       0.01388889 </v>
   <v>       0.01388889 </v>
   <v>       0.01388889 </v>
   <v>       0.01388889 </v>
   <v>       0.01388889 </v>
   <v>       0.01388889 </v>
   <v>       0.01388889 </v>
   <v>       0.00694444 </v>
   <v>       0.00694444 </v>
   <v>       0.00694444 </v>
   <v>       0.01388889 </v>
   <v>       0.01388889 </v>
   <v>       0.01388889 </v>
   <v>       0.01388889 </v>
   <v>       0.01388889 </v>
   <v>       0.01388889 </v>
   <v>       0.01388889 </v>
   <v>       0.01388889 </v>
   <v>       0.01388889 </v>
   <v>       0.01388889 </v>
   <v>       0.01388889 </v>
   <v>       0.01388889 </v>
   <v>       0.01388889 </v>
   <v>       0.01388889 </v>
   <v>       0.01388889 </v>
   <v>       0.01388889 </v>
   <v>       0.01388889 </v>
   <v>       0.01388889 </v>
   <v>       0.01388889 </v>
   <v>       0.01388889 </v>
   <v>       0.01388889 </v>
   <v>       0.01388889 </v>
   <v>       0.01388889 </v>
   <v>       0.01388889 </v>
   <v>       0.01388889 </v>
   <v>       0.01388889 </v>
   <v>       0.01388889 </v>
   <v>       0.01388889 </v>
   <v>       0.01388889 </v>
   <v>       0.01388889 </v>
   <v>       0.01388889 </v>
   <v>       0.01388889 </v>
   <v>       0.01388889 </v>
   <v>       0.01388889 </v>
   <v>       0.01388889 </v>
   <v>       0.01388889 </v>
   <v>       0.01388889 </v>
   <v>       0.01388889 </v>
   <v>       0.01388889 </v>
   <v>       0.01388889 </v>
   <v>       0.01388889 </v>
   <v>       0.01388889 </v>
   <v>       0.01388889 </v>
   <v>       0.01388889 </v>
   <v>       0.01388889 </v>
   <v>       0.01388889 </v>
   <v>       0.01388889 </v>
   <v>       0.01388889 </v>
   <v>       0.01388889 </v>
   <v>       0.01388889 </v>
   <v>       0.01388889 </v>
   <v>       0.01388889 </v>
   <v>       0.01388889 </v>
   <v>       0.01388889 </v>
   <v>       0.01388889 </v>
  </varray>
 </kpoints>
 <parameters>
  <separator name="general" >
   <i type="string" name="SYSTEM">Lattice</i>
   <i type="logical" name="LCOMPAT"> F  </i>
  </separator>
  <separator name="electronic" >
   <i type="string" name="PREC">accura</i>
   <i name="ENMAX">    450.00000000</i>
   <i name="ENAUG">    644.87300000</i>
   <i name="EDIFF">      0.00000100</i>
   <i type="int" name="IALGO">    38</i>
   <i type="int" name="IWAVPR">    11</i>
   <i type="int" name="NBANDS">    48</i>
   <i type="int" name="NBANDSLOW">    -1</i>
   <i type="int" name="NBANDSHIGH">    -1</i>
   <i name="NELECT">     56.00000000</i>
   <i type="int" name="TURBO">     0</i>
   <i type="int" name="IRESTART">     0</i>
   <i type="int" name="NREBOOT">     0</i>
   <i type="int" name="NMIN">     0</i>
   <i name="EREF">      0.00000000</i>
   <separator name="electronic smearing" >
    <i type="int" name="ISMEAR">     0</i>
    <i name="SIGMA">      0.10000000</i>
    <i name="KSPACING">      0.50000000</i>
    <i type="logical" name="KGAMMA"> T  </i>
    <i type="logical" name="KBLOWUP"> T  </i>
   </separator>
   <separator name="electronic projectors" >
    <i type="logical" name="LREAL"> F  </i>
    <v name="ROPT">      0.00000000      0.00000000</v>
    <i type="int" name="LMAXPAW">  -100</i>
    <i type="int" name="LMAXMIX">     2</i>
    <i type="logical" name="NLSPLINE"> F  </i>
   </separator>
   <separator name="electronic startup" >
    <i type="int" name="ISTART">     0</i>
    <i type="int" name="ICHARG">     2</i>
    <i type="int" name="INIWAV">     1</i>
   </separator>
   <separator name="electronic spin" >
    <i type="int" name="ISPIN">     2</i>
    <i type="logical" name="LNONCOLLINEAR"> F  </i>
    <v name="MAGMOM">      1.00000000      1.00000000      1.00000000      1.00000000      1.00000000      1.00000000      1.00000000      1.00000000      1.00000000      1.00000000      1.00000000      1.00000000      1.00000000      1.00000000      1.00000000</v>
    <i name="NUPDOWN">     -1.00000000</i>
    <i type="logical" name="LSORBIT"> F  </i>
    <v name="SAXIS">      0.00000000      0.00000000      1.00000000</v>
    <i type="logical" name="LSPIRAL"> F  </i>
    <v name="QSPIRAL">      0.00000000      0.00000000      0.00000000</v>
    <i type="logical" name="LZEROZ"> F  </i>
   </separator>
   <separator name="electronic exchange-correlation" >
    <i type="logical" name="LASPH"> F  </i>
    <i type="logical" name="LMETAGGA"> F  </i>
   </separator>
   <separator name="electronic convergence" >
    <i type="int" name="NELM">    64</i>
    <i type="int" name="NELMDL">    -5</i>
    <i type="int" name="NELMIN">     2</i>
    <i name="ENINI">    450.00000000</i>
    <separator name="electronic convergence detail" >
     <i type="logical" name="LDIAG"> T  </i>
     <i type="logical" name="LSUBROT"> F  </i>
     <i name="WEIMIN">      0.00100000</i>
     <i name="EBREAK">      0.00000001</i>
     <i name="DEPER">      0.30000000</i>
     <i type="int" name="NRMM">     4</i>
     <i name="TIME">      0.40000000</i>
    </separator>
   </separator>
   <separator name="electronic mixer" >
    <i name="AMIX">      0.40000000</i>
    <i name="BMIX">      1.00000000</i>
    <i name="AMIN">      0.10000000</i>
    <i name="AMIX_MAG">      1.60000000</i>
    <i name="BMIX_MAG">      1.00000000</i>
    <separator name="electronic mixer details" >
     <i type="int" name="IMIX">     4</i>
     <i type="logical" name="MIXFIRST"> F  </i>
     <i type="int" name="MAXMIX">   -45</i>
     <i name="WC">    100.00000000</i>
     <i type="int" name="INIMIX">     1</i>
     <i type="int" name="MIXPRE">     1</i>
     <i type="int" name="MREMOVE">     5</i>
    </separator>
   </separator>
   <separator name="electronic dipolcorrection" >
    <i type="logical" name="LDIPOL"> F  </i>
    <i type="logical" name="LMONO"> F  </i>
    <i type="int" name="IDIPOL">     0</i>
    <i name="EPSILON">      1.00000000</i>
    <v name="DIPOL">   -100.00000000   -100.00000000   -100.00000000</v>
    <i name="EFIELD">      0.00000000</i>
   </separator>
  </separator>
  <separator name="grids" >
   <i type="int" name="NGX">    36</i>
   <i type="int" name="NGY">    36</i>
   <i type="int" name="NGZ">   108</i>
   <i type="int" name="NGXF">    72</i>
   <i type="int" name="NGYF">    72</i>
   <i type="int" name="NGZF">   216</i>
   <i type="logical" name="ADDGRID"> F  </i>
  </separator>
  <separator name="ionic" >
   <i type="int" name="NSW">   128</i>
   <i type="int" name="IBRION">     2</i>
   <i type="int" name="MDALGO">     0</i>
   <i type="int" name="ISIF">     2</i>
   <i name="PSTRESS">      0.00000000</i>
   <i name="EDIFFG">     -0.00100000</i>
   <i type="int" name="NFREE">     1</i>
   <i name="POTIM">      0.50000000</i>
   <i name="SMASS">     -3.00000000</i>
   <i name="SCALEE">      1.00000000</i>
  </separator>
  <separator name="ionic md" >
   <i name="TEBEG">      0.00010000</i>
   <i name="TEEND">      0.00010000</i>
   <i type="int" name="NBLOCK">     1</i>
   <i type="int" name="KBLOCK">   128</i>
   <i type="int" name="NPACO">   256</i>
   <i name="APACO">     10.00000000</i>
  </separator>
  <separator name="symmetry" >
   <i type="int" name="ISYM">     2</i>
   <i name="SYMPREC">      0.00001000</i>
  </separator>
  <separator name="dos" >
   <i type="int" name="LORBIT">     0</i>
   <v name="RWIGS">     -1.00000000     -1.00000000</v>
   <i type="int" name="NEDOS">   301</i>
   <i name="EMIN">     10.00000000</i>
   <i name="EMAX">    -10.00000000</i>
   <i name="EFERMI">      0.00000000</i>
  </separator>
  <separator name="writing" >
   <i type="int" name="NWRITE">     2</i>
   <i type="logical" name="LWAVE"> F  </i>
   <i type="logical" name="LDOWNSAMPLE"> F  </i>
   <i type="logical" name="LCHARG"> F  </i>
   <i type="logical" name="LPARD"> F  </i>
   <i type="logical" name="LVTOT"> F  </i>
   <i type="logical" name="LVHAR"> F  </i>
   <i type="logical" name="LELF"> F  </i>
   <i type="logical" name="LOPTICS"> F  </i>
   <v name="STM">      0.00000000      0.00000000      0.00000000      0.00000000      0.00000000      0.00000000      0.00000000</v>
  </separator>
  <separator name="performance" >
   <i type="int" name="NPAR">    48</i>
   <i type="int" name="NSIM">     4</i>
   <i type="int" name="NBLK">    -1</i>
   <i type="logical" name="LPLANE"> T  </i>
   <i type="logical" name="LSCALAPACK"> T  </i>
   <i type="logical" name="LSCAAWARE"> F  </i>
   <i type="logical" name="LSCALU"> F  </i>
   <i type="logical" name="LASYNC"> F  </i>
   <i type="logical" name="LORBITALREAL"> F  </i>
  </separator>
  <separator name="miscellaneous" >
   <i type="int" name="IDIOT">     3</i>
   <i type="int" name="PHON_NSTRUCT">    -1</i>
   <i type="logical" name="LMUSIC"> F  </i>
   <v name="POMASS">     10.81100000     12.01100000</v>
   <v name="DARWINR">      0.00000000      0.00000000</v>
   <v name="DARWINV">      1.00000000      1.00000000</v>
   <i type="logical" name="LCORR"> T  </i>
  </separator>
  <i type="logical" name="GGA_COMPAT"> T  </i>
  <i type="logical" name="LBERRY"> F  </i>
  <i type="int" name="ICORELEVEL">     0</i>
  <i type="logical" name="LDAU"> F  </i>
  <i type="int" name="I_CONSTRAINED_M">     0</i>
  <separator name="electronic exchange-correlation" >
   <i type="string" name="GGA">PE</i>
   <i type="int" name="VOSKOWN">     0</i>
   <i type="logical" name="LHFCALC"> F  </i>
   <i type="string" name="PRECFOCK"></i>
   <i type="logical" name="LSYMGRAD"> F  </i>
   <i type="logical" name="LHFONE"> F  </i>
   <i type="logical" name="LRHFCALC"> F  </i>
   <i type="logical" name="LTHOMAS"> F  </i>
   <i type="logical" name="LMODELHF"> F  </i>
   <i type="logical" name="LFOCKACE"> F  </i>
   <i name="ENCUT4O">     -1.00000000</i>
   <i type="int" name="EXXOEP">     0</i>
   <i type="int" name="FOURORBIT">     0</i>
   <i name="AEXX">      0.00000000</i>
   <i name="HFALPHA">      0.00000000</i>
   <i name="MCALPHA">      0.00000000</i>
   <i name="ALDAX">      1.00000000</i>
   <i name="AGGAX">      1.00000000</i>
   <i name="ALDAC">      1.00000000</i>
   <i name="AGGAC">      1.00000000</i>
   <i type="int" name="NKREDX">     1</i>
   <i type="int" name="NKREDY">     1</i>
   <i type="int" name="NKREDZ">     1</i>
   <i type="logical" name="SHIFTRED"> F  </i>
   <i type="logical" name="ODDONLY"> F  </i>
   <i type="logical" name="EVENONLY"> F  </i>
   <i type="int" name="LMAXFOCK">     0</i>
   <i type="int" name="NMAXFOCKAE">     0</i>
   <i type="logical" name="LFOCKAEDFT"> F  </i>
   <i name="HFSCREEN">      0.00000000</i>
   <i name="HFSCREENC">      0.00000000</i>
   <i type="int" name="NBANDSGWLOW">     0</i>
  </separator>
  <separator name="vdW DFT" >
   <i type="logical" name="LUSE_VDW"> F  </i>
   <i name="Zab_VDW">     -0.84910000</i>
   <i name="PARAM1">      0.12340000</i>
   <i name="PARAM2">      1.00000000</i>
   <i name="PARAM3">      0.00000000</i>
  </separator>
  <separator name="model GW" >
   <i type="int" name="MODEL_GW">     0</i>
   <i name="MODEL_EPS0">     12.23777502</i>
   <i name="MODEL_ALPHA">      1.00000000</i>
  </separator>
  <separator name="linear response parameters" >
   <i type="logical" name="LEPSILON"> F  </i>
   <i type="logical" name="LRPA"> F  </i>
   <i type="logical" name="LNABLA"> F  </i>
   <i type="logical" name="LVEL"> F  </i>
   <i name="CSHIFT">      0.10000000</i>
   <i name="OMEGAMAX">     -1.00000000</i>
   <i name="DEG_THRESHOLD">      0.00200000</i>
   <i name="RTIME">     -0.10000000</i>
   <i name="WPLASMAI">      0.00000000</i>
   <v name="DFIELD">      0.00000000      0.00000000      0.00000000</v>
   <v name="WPLASMA">      0.00000000      0.00000000      0.00000000      0.00000000      0.00000000      0.00000000      0.00000000      0.00000000      0.00000000</v>
  </separator>
  <separator name="orbital magnetization" >
   <i type="logical" name="NUCIND"> F  </i>
   <v name="MAGPOS">      0.00000000      0.00000000      0.00000000</v>
   <i type="logical" name="LNICSALL"> T  </i>
   <i type="logical" name="ORBITALMAG"> F  </i>
   <i type="logical" name="LMAGBLOCH"> F  </i>
   <i type="logical" name="LCHIMAG"> F  </i>
   <i type="logical" name="LGAUGE"> T  </i>
   <i type="int" name="MAGATOM">     0</i>
   <v name="MAGDIPOL">      0.00000000      0.00000000      0.00000000</v>
   <v name="AVECCONST">      0.00000000      0.00000000      0.00000000</v>
  </separator>
  <separator name="response functions" >
   <i type="logical" name="LFINITE_TEMPERATURE"> F  </i>
   <i type="logical" name="LADDER"> F  </i>
   <i type="logical" name="LRPAFORCE"> F  </i>
   <i type="logical" name="LFXC"> F  </i>
   <i type="logical" name="LHARTREE"> T  </i>
   <i type="int" name="IBSE">     0</i>
   <v type="int" name="KPOINT">    -1     0     0     0</v>
   <i type="logical" name="LTCTC"> F  </i>
   <i type="logical" name="LTCTE"> F  </i>
   <i type="logical" name="LTETE"> F  </i>
   <i type="logical" name="LTRIPLET"> F  </i>
   <i type="logical" name="LFXCEPS"> F  </i>
   <i type="logical" name="LFXHEG"> F  </i>
   <i type="int" name="NATURALO">     2</i>
   <i type="logical" name="LHOLEGF"> F  </i>
   <i type="logical" name="L2ORDER"> F  </i>
   <i type="logical" name="LDMP1"> F  </i>
   <i type="logical" name="LMP2LT"> F  </i>
   <i type="logical" name="LSMP2LT"> F  </i>
   <i type="logical" name="LGWLF"> F  </i>
   <i name="ENCUTGW">     -2.00000000</i>
   <i name="ENCUTGWSOFT">     -2.00000000</i>
   <i name="ENCUTLF">     -1.00000000</i>
   <i type="logical" name="LESF_SPLINES"> F  </i>
   <i type="int" name="LMAXMP2">    -1</i>
   <i name="SCISSOR">      0.00000000</i>
   <i type="int" name="NOMEGA">     0</i>
   <i type="int" name="NOMEGAR">     0</i>
   <i type="int" name="NBANDSGW">    -1</i>
   <i type="int" name="NBANDSO">    -1</i>
   <i type="int" name="NBANDSV">    -1</i>
   <i type="int" name="NELMGW">     1</i>
   <i type="int" name="NELMHF">     1</i>
   <i type="int" name="DIM">     3</i>
   <i type="int" name="IESPILON">     4</i>
   <i type="int" name="ANTIRES">     0</i>
   <i name="OMEGAMAX">    -30.00000000</i>
   <i name="OMEGAMIN">    -30.00000000</i>
   <i name="OMEGATL">   -200.00000000</i>
   <i type="int" name="OMEGAGRID">     0</i>
   <i name="CSHIFT">     -0.10000000</i>
   <i type="logical" name="LSELFENERGY"> F  </i>
   <i type="logical" name="LSPECTRAL"> F  </i>
   <i type="logical" name="LSPECTRALGW"> F  </i>
   <i type="logical" name="LSINGLES"> F  </i>
   <i type="logical" name="LFERMIGW"> F  </i>
   <i type="logical" name="ODDONLYGW"> F  </i>
   <i type="logical" name="EVENONLYGW"> F  </i>
   <i type="int" name="NKREDLFX">     1</i>
   <i type="int" name="NKREDLFY">     1</i>
   <i type="int" name="NKREDLFZ">     1</i>
   <i type="int" name="MAXMEM">  2800</i>
   <i type="int" name="TELESCOPE">     0</i>
   <i type="int" name="NTAUPAR">    -1</i>
   <i type="int" name="NOMEGAPAR">    -1</i>
   <i name="DAMP_NEWTON">      0.80000001</i>
   <i name="LAMBDA">      1.00000000</i>
  </separator>
  <separator name="External order field" >
   <i name="OFIELD_KAPPA">      0.00000000</i>
   <v name="OFIELD_K">      0.00000000      0.00000000      0.00000000</v>
   <i name="OFIELD_Q6_NEAR">      0.00000000</i>
   <i name="OFIELD_Q6_FAR">      0.00000000</i>
   <i name="OFIELD_A">      0.00000000</i>
  </separator>
  <separator name="optional k-points parameters" >
   <i type="int" name="KPOINTS_OPT_MODE">     1</i>
   <i type="logical" name="LKPOINTS_OPT"> F  </i>
  </separator>
  <separator name="solvation model" >
   <i type="logical" name="LSOL"> F  </i>
  </separator>
 </parameters>
 <atominfo>
  <atoms>      15 </atoms>
  <types>       2 </types>
  <array name="atoms" >
   <dimension dim="1">ion</dimension>
   <field type="string">element</field>
   <field type="int">atomtype</field>
   <set>
    <rc><c>B </c><c>   1</c></rc>
    <rc><c>B </c><c>   1</c></rc>
    <rc><c>B </c><c>   1</c></rc>
    <rc><c>B </c><c>   1</c></rc>
    <rc><c>C </c><c>   2</c></rc>
    <rc><c>C </c><c>   2</c></rc>
    <rc><c>C </c><c>   2</c></rc>
    <rc><c>C </c><c>   2</c></rc>
    <rc><c>C </c><c>   2</c></rc>
    <rc><c>C </c><c>   2</c></rc>
    <rc><c>C </c><c>   2</c></rc>
    <rc><c>C </c><c>   2</c></rc>
    <rc><c>C </c><c>   2</c></rc>
    <rc><c>C </c><c>   2</c></rc>
    <rc><c>C </c><c>   2</c></rc>
   </set>
  </array>
  <array name="atomtypes" >
   <dimension dim="1">type</dimension>
   <field type="int">atomspertype</field>
   <field type="string">element</field>
   <field>mass</field>
   <field>valence</field>
   <field type="string">pseudopotential</field>
   <set>
    <rc><c>   4</c><c>B </c><c>     10.81100000</c><c>      3.00000000</c><c>  PAW_PBE B 06Sep2000                   </c></rc>
    <rc><c>  11</c><c>C </c><c>     12.01100000</c><c>      4.00000000</c><c>  PAW_PBE C 08Apr2002                   </c></rc>
   </set>
  </array>
 </atominfo>
 <structure name="initialpos" >
  <crystal>
   <varray name="basis" >
    <v>       4.20282128       2.42650000       0.00000000 </v>
    <v>      -4.20282128       2.42650000       0.00000000 </v>
    <v>       0.00000000       0.00000000      15.00000000 </v>
   </varray>
   <i name="volume">    305.94437541 </i>
   <varray name="rec_basis" >
    <v>       0.11896770       0.20605811       0.00000000 </v>
    <v>      -0.11896770       0.20605811       0.00000000 </v>
    <v>       0.00000000       0.00000000       0.06666667 </v>
   </varray>
  </crystal>
  <varray name="positions" >
   <v>       0.00415361       0.00267210       0.12034134 </v>
   <v>       0.35695335       0.00285503       0.09748893 </v>
   <v>       0.00423858       0.35550699       0.09749256 </v>
   <v>       0.65142295       0.65006557       0.09747688 </v>
   <v>       0.32808646       0.32671938       0.10030508 </v>
   <v>       0.68027775       0.00278085       0.10027562 </v>
   <v>       0.00416530       0.67883808       0.10026559 </v>
   <v>       0.11111044       0.38888856       0.33726667 </v>
   <v>       0.27777744       0.22222156       0.33726667 </v>
   <v>       0.11111044       0.88888856       0.33726667 </v>
   <v>       0.27777744       0.72222156       0.33726667 </v>
   <v>       0.61111044       0.38888856       0.33726667 </v>
   <v>       0.77777744       0.22222156       0.33726667 </v>
   <v>       0.61111044       0.88888856       0.33726667 </v>
   <v>       0.77777744       0.72222156       0.33726667 </v>
  </varray>
 </structure>
 <calculation>
  <scstep>
   <time name="dav">    5.46    5.52</time>
   <time name="total">    5.51    5.57</time>
   <energy>
    <i name="alphaZ">     58.13898300 </i>
    <i name="ewald">   4667.37866980 </i>
    <i name="hartreedc">  -6224.78347407 </i>
    <i name="XCdc">    174.95302979 </i>
    <i name="pawpsdc">   1365.87943566 </i>
    <i name="pawaedc">  -1368.52100941 </i>
    <i name="eentropy">     -0.02032427 </i>
    <i name="bandstr">   -373.54064475 </i>
    <i name="atom">   1903.26342058 </i>
    <i name="e_fr_energy">    202.74808633 </i>
    <i name="e_wo_entrp">    202.76841060 </i>
    <i name="e_0_energy">    202.75824847 </i>
   </energy>
  </scstep>
  <scstep>
   <time name="dav">    7.89    7.96</time>
   <time name="total">    7.89    7.97</time>
   <energy>
    <i name="e_fr_energy">   -115.97611052 </i>
    <i name="e_wo_entrp">   -115.97551024 </i>
    <i name="e_0_energy">   -115.97581038 </i>
   </energy>
  </scstep>
  <scstep>
   <time name="dav">   11.29   11.38</time>
   <time name="total">   11.29   11.38</time>
   <energy>
    <i name="e_fr_energy">   -129.26573567 </i>
    <i name="e_wo_entrp">   -129.26260968 </i>
    <i name="e_0_energy">   -129.26417268 </i>
   </energy>
  </scstep>
  <scstep>
   <time name="dav">    7.87    7.95</time>
   <time name="total">    7.87    7.95</time>
   <energy>
    <i name="e_fr_energy">   -129.28582976 </i>
    <i name="e_wo_entrp">   -129.28269090 </i>
    <i name="e_0_energy">   -129.28426033 </i>
   </energy>
  </scstep>
  <scstep>
   <time name="dav">   10.74   10.82</time>
   <time name="total">   11.01   11.10</time>
   <energy>
    <i name="e_fr_energy">   -129.28589826 </i>
    <i name="e_wo_entrp">   -129.28275914 </i>
    <i name="e_0_energy">   -129.28432870 </i>
   </energy>
  </scstep>
  <scstep>
   <time name="dav">   10.54   10.63</time>
   <time name="total">   10.84   10.94</time>
   <energy>
    <i name="e_fr_energy">    -91.97916862 </i>
    <i name="e_wo_entrp">    -91.97261531 </i>
    <i name="e_0_energy">    -91.97589197 </i>
   </energy>
  </scstep>
  <scstep>
   <time name="dav">    8.89    8.96</time>
   <time name="total">    9.18    9.26</time>
   <energy>
    <i name="e_fr_energy">   -100.39007521 </i>
    <i name="e_wo_entrp">   -100.38435573 </i>
    <i name="e_0_energy">   -100.38721547 </i>
   </energy>
  </scstep>
  <scstep>
   <time name="dav">    9.99   10.08</time>
   <time name="total">   10.29   10.38</time>
   <energy>
    <i name="e_fr_energy">   -110.46180008 </i>
    <i name="e_wo_entrp">   -110.46177258 </i>
    <i name="e_0_energy">   -110.46178633 </i>
   </energy>
  </scstep>
  <scstep>
   <time name="dav">    7.63    7.70</time>
   <time name="total">    7.92    8.00</time>
   <energy>
    <i name="e_fr_energy">   -117.14259280 </i>
    <i name="e_wo_entrp">   -117.14258875 </i>
    <i name="e_0_energy">   -117.14259078 </i>
   </energy>
  </scstep>
  <scstep>
   <time name="dav">    9.73    9.80</time>
   <time name="total">   10.02   10.10</time>
   <energy>
    <i name="e_fr_energy">   -123.46319333 </i>
    <i name="e_wo_entrp">   -123.46258599 </i>
    <i name="e_0_energy">   -123.46288966 </i>
   </energy>
  </scstep>
  <scstep>
   <time name="dav">   10.13   10.20</time>
   <time name="total">   10.42   10.50</time>
   <energy>
    <i name="e_fr_energy">   -125.27653340 </i>
    <i name="e_wo_entrp">   -125.27534217 </i>
    <i name="e_0_energy">   -125.27593778 </i>
   </energy>
  </scstep>
  <scstep>
   <time name="dav">    8.00    8.06</time>
   <time name="total">    8.29    8.35</time>
   <energy>
    <i name="e_fr_energy">   -125.43155814 </i>
    <i name="e_wo_entrp">   -125.43007494 </i>
    <i name="e_0_energy">   -125.43081654 </i>
   </energy>
  </scstep>
  <scstep>
   <time name="dav">    6.95    7.00</time>
   <time name="total">    7.24    7.30</time>
   <energy>
    <i name="e_fr_energy">   -125.45803866 </i>
    <i name="e_wo_entrp">   -125.45647977 </i>
    <i name="e_0_energy">   -125.45725922 </i>
   </energy>
  </scstep>
  <scstep>
   <time name="dav">    8.32    8.39</time>
   <time name="total">    8.61    8.69</time>
   <energy>
    <i name="e_fr_energy">   -125.48114737 </i>
    <i name="e_wo_entrp">   -125.47958329 </i>
    <i name="e_0_energy">   -125.48036533 </i>
   </energy>
  </scstep>
  <scstep>
   <time name="dav">    7.51    7.57</time>
   <time name="total">    7.81    7.88</time>
   <energy>
    <i name="e_fr_energy">   -125.48886567 </i>
    <i name="e_wo_entrp">   -125.48730085 </i>
    <i name="e_0_energy">   -125.48808326 </i>
   </energy>
  </scstep>
  <scstep>
   <time name="dav">    6.26    6.30</time>
   <time name="total">    6.55    6.60</time>
   <energy>
    <i name="e_fr_energy">   -125.49087146 </i>
    <i name="e_wo_entrp">   -125.48930662 </i>
    <i name="e_0_energy">   -125.49008904 </i>
   </energy>
  </scstep>
  <scstep>
   <time name="dav">    5.73    5.77</time>
   <time name="total">    6.01    6.06</time>
   <energy>
    <i name="e_fr_energy">   -125.49213695 </i>
    <i name="e_wo_entrp">   -125.49057212 </i>
    <i name="e_0_energy">   -125.49135453 </i>
   </energy>
  </scstep>
  <scstep>
   <time name="dav">    6.35    6.39</time>
   <time name="total">    6.63    6.69</time>
   <energy>
    <i name="e_fr_energy">   -125.49283171 </i>
    <i name="e_wo_entrp">   -125.49126690 </i>
    <i name="e_0_energy">   -125.49204931 </i>
   </energy>
  </scstep>
  <scstep>
   <time name="dav">    7.83    7.88</time>
   <time name="total">    8.13    8.19</time>
   <energy>
    <i name="e_fr_energy">   -125.49327452 </i>
    <i name="e_wo_entrp">   -125.49170969 </i>
    <i name="e_0_energy">   -125.49249211 </i>
   </energy>
  </scstep>
  <scstep>
   <time name="dav">    8.92    8.98</time>
   <time name="total">    9.21    9.28</time>
   <energy>
    <i name="e_fr_energy">   -125.49332238 </i>
    <i name="e_wo_entrp">   -125.49175755 </i>
    <i name="e_0_energy">   -125.49253996 </i>
   </energy>
  </scstep>
  <scstep>
   <time name="dav">    8.21    8.27</time>
   <time name="total">    8.50    8.57</time>
   <energy>
    <i name="e_fr_energy">   -125.49334342 </i>
    <i name="e_wo_entrp">   -125.49177859 </i>
    <i name="e_0_energy">   -125.49256101 </i>
   </energy>
  </scstep>
  <scstep>
   <time name="dav">    8.80    8.85</time>
   <time name="total">    9.09    9.15</time>
   <energy>
    <i name="e_fr_energy">   -125.49336472 </i>
    <i name="e_wo_entrp">   -125.49179988 </i>
    <i name="e_0_energy">   -125.49258230 </i>
   </energy>
  </scstep>
  <scstep>
   <time name="dav">    8.45    8.51</time>
   <time name="total">    8.74    8.81</time>
   <energy>
    <i name="e_fr_energy">   -125.49338046 </i>
    <i name="e_wo_entrp">   -125.49181563 </i>
    <i name="e_0_energy">   -125.49259804 </i>
   </energy>
  </scstep>
  <scstep>
   <time name="dav">    9.57    9.65</time>
   <time name="total">    9.86    9.95</time>
   <energy>
    <i name="e_fr_energy">   -125.49338369 </i>
    <i name="e_wo_entrp">   -125.49181885 </i>
    <i name="e_0_energy">   -125.49260127 </i>
   </energy>
  </scstep>
  <scstep>
   <time name="dav">    8.70    8.77</time>
   <time name="total">    8.74    8.81</time>
   <energy>
    <i name="alphaZ">     58.13898300 </i>
    <i name="ewald">   4667.37866980 </i>
    <i name="hartreedc">  -6424.99072625 </i>
    <i name="XCdc">    180.29866855 </i>
    <i name="pawpsdc">   5697.72234389 </i>
    <i name="pawaedc">  -5702.11806274 </i>
    <i name="eentropy">     -0.00156484 </i>
    <i name="bandstr">   -505.18511666 </i>
    <i name="atom">   1903.26342058 </i>
    <i name="e_fr_energy">   -125.49338466 </i>
    <i name="e_wo_entrp">   -125.49181982 </i>
    <i name="e_0_energy">   -125.49260224 </i>
   </energy>
  </scstep>
  <structure>
   <crystal>
    <varray name="basis" >
     <v>       4.20282128       2.42650000       0.00000000 </v>
     <v>      -4.20282128       2.42650000       0.00000000 </v>
     <v>       0.00000000       0.00000000      15.00000000 </v>
    </varray>
    <i name="volume">    305.94437541 </i>
    <varray name="rec_basis" >
     <v>       0.11896770       0.20605811       0.00000000 </v>
     <v>      -0.11896770       0.20605811       0.00000000 </v>
     <v>       0.00000000       0.00000000       0.06666667 </v>
    </varray>
   </crystal>
   <varray name="positions" >
    <v>       0.00415361       0.00267210       0.12034134 </v>
    <v>       0.35695335       0.00285503       0.09748893 </v>
    <v>       0.00423858       0.35550699       0.09749256 </v>
    <v>       0.65142295       0.65006557       0.09747688 </v>
    <v>       0.32808646       0.32671938       0.10030508 </v>
    <v>       0.68027775       0.00278085       0.10027562 </v>
    <v>       0.00416530       0.67883808       0.10026559 </v>
    <v>       0.11111044       0.38888856       0.33726667 </v>
    <v>       0.27777744       0.22222156       0.33726667 </v>
    <v>       0.11111044       0.88888856       0.33726667 </v>
    <v>       0.27777744       0.72222156       0.33726667 </v>
    <v>       0.61111044       0.38888856       0.33726667 </v>
    <v>       0.77777744       0.22222156       0.33726667 </v>
    <v>       0.61111044       0.88888856       0.33726667 </v>
    <v>       0.77777744       0.72222156       0.33726667 </v>
   </varray>
  </structure>
  <varray name="forces" >
   <v>      -0.00076840       0.00182307      -0.41356030 </v>
   <v>      -0.10544044      -0.06714858       0.10746737 </v>
   <v>       0.08657439      -0.05488686       0.12397109 </v>
   <v>       0.00948054       0.11140994       0.11965405 </v>
   <v>       0.01409124      -0.35595094       0.00265076 </v>
   <v>       0.32335389       0.18805889       0.01621565 </v>
   <v>      -0.29781598       0.17793195       0.00529205 </v>
   <v>      -0.01519930       0.00155107       0.00424691 </v>
   <v>       0.00123514       0.01301122       0.02733863 </v>
   <v>       0.00475755       0.01604553       0.00781139 </v>
   <v>       0.01692587       0.00948458      -0.01895030 </v>
   <v>       0.00116729      -0.00455435      -0.02048808 </v>
   <v>      -0.00761002       0.00034592       0.00715437 </v>
   <v>      -0.01164918      -0.01178892       0.02381068 </v>
   <v>      -0.01910261      -0.02533253       0.00738574 </v>
  </varray>
  <varray name="stress" >
   <v>     -13.76269284       0.07652926      -0.54680871 </v>
   <v>       0.07652925     -13.89184594      -0.02036650 </v>
   <v>      -0.54680873      -0.02036649      -2.12486337 </v>
  </varray>
  <energy>
   <i name="e_fr_energy">   -127.07959341 </i>
   <i name="e_wo_entrp">   -127.07802857 </i>
   <i name="e_0_energy">   -127.07881099 </i>
  </energy>
  <time name="totalsc">  220.34  222.22</time>
 </calculation>
 <calculation>
  <scstep>
   <time name="dav">    5.46    5.51</time>
   <time name="total">    5.76    5.82</time>
   <energy>
    <i name="alphaZ">     58.13898300 </i>
    <i name="ewald">   4670.96625005 </i>
    <i name="hartreedc">  -6427.15526232 </i>
    <i name="XCdc">    180.38133871 </i>
    <i name="pawpsdc">   5697.75217783 </i>
    <i name="pawaedc">  -5702.14789475 </i>
    <i name="eentropy">     -0.00156390 </i>
    <i name="bandstr">   -506.70185797 </i>
    <i name="atom">   1903.26342058 </i>
    <i name="e_fr_energy">   -125.50440878 </i>
    <i name="e_wo_entrp">   -125.50284488 </i>
    <i name="e_0_energy">   -125.50362683 </i>
   </energy>
  </scstep>
  <scstep>
   <time name="dav">   10.73   10.80</time>
   <time name="total">   11.02   11.11</time>
   <energy>
    <i name="e_fr_energy">   -125.49563588 </i>
    <i name="e_wo_entrp">   -125.49407187 </i>
    <i name="e_0_energy">   -125.49485387 </i>
   </energy>
  </scstep>
  <scstep>
   <time name="dav">    8.13    8.19</time>
   <time name="total">    8.42    8.49</time>
   <energy>
    <i name="e_fr_energy">   -125.49466137 </i>
    <i name="e_wo_entrp">   -125.49309731 </i>
    <i name="e_0_energy">   -125.49387934 </i>
   </energy>
  </scstep>
  <scstep>
   <time name="dav">   11.41   11.49</time>
   <time name="total">   11.69   11.79</time>
   <energy>
    <i name="e_fr_energy">   -125.49462087 </i>
    <i name="e_wo_entrp">   -125.49305681 </i>
    <i name="e_0_energy">   -125.49383884 </i>
   </energy>
  </scstep>
  <scstep>
   <time name="dav">    9.95   10.02</time>
   <time name="total">   10.25   10.32</time>
   <energy>
    <i name="e_fr_energy">   -125.49462437 </i>
    <i name="e_wo_entrp">   -125.49306031 </i>
    <i name="e_0_energy">   -125.49384234 </i>
   </energy>
  </scstep>
  <scstep>
   <time name="dav">    9.18    9.24</time>
   <time name="total">    9.21    9.27</time>
   <energy>
    <i name="alphaZ">     58.13898300 </i>
    <i name="ewald">   4670.96625005 </i>
    <i name="hartreedc">  -6427.89800878 </i>
    <i name="XCdc">    180.39794240 </i>
    <i name="pawpsdc">   5724.69582305 </i>
    <i name="pawaedc">  -5729.10032740 </i>
    <i name="eentropy">     -0.00156406 </i>
    <i name="bandstr">   -505.95714320 </i>
    <i name="atom">   1903.26342058 </i>
    <i name="e_fr_energy">   -125.49462436 </i>
    <i name="e_wo_entrp">   -125.49306030 </i>
    <i name="e_0_energy">   -125.49384233 </i>
   </energy>
  </scstep>
  <structure>
   <crystal>
    <varray name="basis" >
     <v>       4.20282128       2.42650000       0.00000000 </v>
     <v>      -4.20282128       2.42650000       0.00000000 </v>
     <v>       0.00000000       0.00000000      15.00000000 </v>
    </varray>
    <i name="volume">    305.94437541 </i>
    <varray name="rec_basis" >
     <v>       0.11896770       0.20605811       0.00000000 </v>
     <v>      -0.11896770       0.20605811       0.00000000 </v>
     <v>       0.00000000       0.00000000       0.06666667 </v>
    </varray>
   </crystal>
   <varray name="positions" >
    <v>       0.00416732       0.00269463       0.11901125 </v>
    <v>       0.35568069       0.00279268       0.09783457 </v>
    <v>       0.00418984       0.35446449       0.09789128 </v>
    <v>       0.65258487       0.65111866       0.09786171 </v>
    <v>       0.32462890       0.32310007       0.10031360 </v>
    <v>       0.68400303       0.00279448       0.10032777 </v>
    <v>       0.00422482       0.68231612       0.10028261 </v>
    <v>       0.11103863       0.38899121       0.33728033 </v>
    <v>       0.27791388       0.22234381       0.33735459 </v>
    <v>       0.11129725       0.88902076       0.33729179 </v>
    <v>       0.27796887       0.72221870       0.33720572 </v>
    <v>       0.61107187       0.38883658       0.33720077 </v>
    <v>       0.77773721       0.22226867       0.33728968 </v>
    <v>       0.61092639       0.88883822       0.33734325 </v>
    <v>       0.77741598       0.72207937       0.33729042 </v>
   </varray>
  </structure>
  <varray name="forces" >
   <v>      -0.00302404       0.00234589      -0.18577025 </v>
   <v>       0.26050437       0.14563219       0.06068285 </v>
   <v>      -0.22116714       0.13468400       0.07232473 </v>
   <v>       0.01081341      -0.27195550       0.06889570 </v>
   <v>       0.00195828       0.56520168      -0.02135458 </v>
   <v>      -0.50525262      -0.29497357      -0.01352131 </v>
   <v>       0.48517561      -0.27980732      -0.01961418 </v>
   <v>       0.03883986      -0.00690810       0.00487671 </v>
   <v>      -0.02751747      -0.04224690       0.00907516 </v>
   <v>      -0.03200807      -0.06011074       0.00773239 </v>
   <v>      -0.07594170      -0.03340819      -0.00117119 </v>
   <v>      -0.01409523       0.01359697       0.00030170 </v>
   <v>       0.01143922      -0.00509045       0.00361605 </v>
   <v>       0.02234363       0.04490726       0.00898061 </v>
   <v>       0.04793190       0.08813279       0.00494562 </v>
  </varray>
  <varray name="stress" >
   <v>     -11.12321040       0.10909318      -0.55505206 </v>
   <v>       0.10909315     -11.19047880      -0.01937824 </v>
   <v>      -0.55505203      -0.01937823      -1.71719291 </v>
  </varray>
  <energy>
   <i name="e_fr_energy">   -127.08019792 </i>
   <i name="e_wo_entrp">   -127.07863386 </i>
   <i name="e_0_energy">   -127.07941589 </i>
  </energy>
  <time name="totalsc">   61.04   62.85</time>
 </calculation>
 <calculation>
  <scstep>
   <time name="dav">    5.45    5.49</time>
   <time name="total">    5.75    5.79</time>
   <energy>
    <i name="alphaZ">     58.13898300 </i>
    <i name="ewald">   4669.16841664 </i>
    <i name="hartreedc">  -6426.80618238 </i>
    <i name="XCdc">    180.35623588 </i>
    <i name="pawpsdc">   5724.70681604 </i>
    <i name="pawaedc">  -5729.11130801 </i>
    <i name="eentropy">     -0.00156454 </i>
    <i name="bandstr">   -505.21881845 </i>
    <i name="atom">   1903.26342058 </i>
    <i name="e_fr_energy">   -125.50400124 </i>
    <i name="e_wo_entrp">   -125.50243670 </i>
    <i name="e_0_energy">   -125.50321897 </i>
   </energy>
  </scstep>
  <scstep>
   <time name="dav">   10.87   10.94</time>
   <time name="total">   11.16   11.24</time>
   <energy>
    <i name="e_fr_energy">   -125.50183695 </i>
    <i name="e_wo_entrp">   -125.50027246 </i>
    <i name="e_0_energy">   -125.50105471 </i>
   </energy>
  </scstep>
  <scstep>
   <time name="dav">    9.46    9.52</time>
   <time name="total">    9.75    9.82</time>
   <energy>
    <i name="e_fr_energy">   -125.50161029 </i>
    <i name="e_wo_entrp">   -125.50004582 </i>
    <i name="e_0_energy">   -125.50082806 </i>
   </energy>
  </scstep>
  <scstep>
   <time name="dav">    9.35    9.41</time>
   <time name="total">    9.64    9.71</time>
   <energy>
    <i name="e_fr_energy">   -125.50160076 </i>
    <i name="e_wo_entrp">   -125.50003630 </i>
    <i name="e_0_energy">   -125.50081853 </i>
   </energy>
  </scstep>
  <scstep>
   <time name="dav">    9.00    9.06</time>
   <time name="total">    9.03    9.09</time>
   <energy>
    <i name="alphaZ">     58.13898300 </i>
    <i name="ewald">   4669.16841664 </i>
    <i name="hartreedc">  -6426.46381167 </i>
    <i name="XCdc">    180.34815768 </i>
    <i name="pawpsdc">   5710.91068596 </i>
    <i name="pawaedc">  -5715.31057288 </i>
    <i name="eentropy">     -0.00156447 </i>
    <i name="bandstr">   -505.55531636 </i>
    <i name="atom">   1903.26342058 </i>
    <i name="e_fr_energy">   -125.50160152 </i>
    <i name="e_wo_entrp">   -125.50003706 </i>
    <i name="e_0_energy">   -125.50081929 </i>
   </energy>
  </scstep>
  <structure>
   <crystal>
    <varray name="basis" >
     <v>       4.20282128       2.42650000       0.00000000 </v>
     <v>      -4.20282128       2.42650000       0.00000000 </v>
     <v>       0.00000000       0.00000000      15.00000000 </v>
    </varray>
    <i name="volume">    305.94437541 </i>
    <varray name="rec_basis" >
     <v>       0.11896770       0.20605811       0.00000000 </v>
     <v>      -0.11896770       0.20605811       0.00000000 </v>
     <v>       0.00000000       0.00000000       0.06666667 </v>
    </varray>
   </crystal>
   <varray name="positions" >
    <v>       0.00416059       0.00268358       0.11966373 </v>
    <v>       0.35630499       0.00282326       0.09766502 </v>
    <v>       0.00421375       0.35497589       0.09769569 </v>
    <v>       0.65201489       0.65060207       0.09767293 </v>
    <v>       0.32632501       0.32487552       0.10030942 </v>
    <v>       0.68217559       0.00278779       0.10030219 </v>
    <v>       0.00419562       0.68060997       0.10027426 </v>
    <v>       0.11107386       0.38894085       0.33727363 </v>
    <v>       0.27784695       0.22228384       0.33731146 </v>
    <v>       0.11120561       0.88895590       0.33727947 </v>
    <v>       0.27787497       0.72222010       0.33723562 </v>
    <v>       0.61109079       0.38886208       0.33723310 </v>
    <v>       0.77775695       0.22224556       0.33727839 </v>
    <v>       0.61101668       0.88886291       0.33730568 </v>
    <v>       0.77759330       0.72214912       0.33727877 </v>
   </varray>
  </structure>
  <varray name="forces" >
   <v>      -0.00243170       0.00200660      -0.29625050 </v>
   <v>       0.08481673       0.04342629       0.08349822 </v>
   <v>      -0.07340631       0.04332196       0.09748690 </v>
   <v>       0.01019718      -0.08776119       0.09364368 </v>
   <v>       0.00821934       0.11175376      -0.00976511 </v>
   <v>      -0.09776316      -0.05732544       0.00094056 </v>
   <v>       0.09963132      -0.05421422      -0.00764521 </v>
   <v>       0.01229620      -0.00276162       0.00452161 </v>
   <v>      -0.01333311      -0.01515719       0.01804756 </v>
   <v>      -0.01403181      -0.02272071       0.00777415 </v>
   <v>      -0.03030254      -0.01225162      -0.00995025 </v>
   <v>      -0.00663871       0.00465996      -0.00995489 </v>
   <v>       0.00205688      -0.00237572       0.00530937 </v>
   <v>       0.00567565       0.01692835       0.01622886 </v>
   <v>       0.01501403       0.03247079       0.00611505 </v>
  </varray>
  <varray name="stress" >
   <v>     -12.54703000       0.08837794      -0.55131220 </v>
   <v>       0.08837796     -12.64620953      -0.01942174 </v>
   <v>      -0.55131223      -0.01942175      -1.90241808 </v>
  </varray>
  <energy>
   <i name="e_fr_energy">   -127.08748187 </i>
   <i name="e_wo_entrp">   -127.08591741 </i>
   <i name="e_0_energy">   -127.08669964 </i>
  </energy>
  <time name="totalsc">   50.01   50.39</time>
 </calculation>
 <calculation>
  <scstep>
   <time name="dav">    5.48    5.51</time>
   <time name="total">    5.77    5.81</time>
   <energy>
    <i name="alphaZ">     58.13898300 </i>
    <i name="ewald">   4669.27317274 </i>
    <i name="hartreedc">  -6426.30648664 </i>
    <i name="XCdc">    180.36720191 </i>
    <i name="pawpsdc">   5710.87389893 </i>
    <i name="pawaedc">  -5715.27379292 </i>
    <i name="eentropy">     -0.00156628 </i>
    <i name="bandstr">   -505.84347348 </i>
    <i name="atom">   1903.26342058 </i>
    <i name="e_fr_energy">   -125.50864217 </i>
    <i name="e_wo_entrp">   -125.50707589 </i>
    <i name="e_0_energy">   -125.50785903 </i>
   </energy>
  </scstep>
  <scstep>
   <time name="dav">   11.70   11.77</time>
   <time name="total">   11.99   12.08</time>
   <energy>
    <i name="e_fr_energy">   -125.50871247 </i>
    <i name="e_wo_entrp">   -125.50714625 </i>
    <i name="e_0_energy">   -125.50792936 </i>
   </energy>
  </scstep>
  <scstep>
   <time name="dav">    8.63    8.68</time>
   <time name="total">    8.91    8.98</time>
   <energy>
    <i name="e_fr_energy">   -125.50871065 </i>
    <i name="e_wo_entrp">   -125.50714450 </i>
    <i name="e_0_energy">   -125.50792757 </i>
   </energy>
  </scstep>
  <scstep>
   <time name="dav">   11.18   11.26</time>
   <time name="total">   11.49   11.58</time>
   <energy>
    <i name="e_fr_energy">   -125.50871178 </i>
    <i name="e_wo_entrp">   -125.50714563 </i>
    <i name="e_0_energy">   -125.50792870 </i>
   </energy>
  </scstep>
  <scstep>
   <time name="dav">    8.84    8.90</time>
   <time name="total">    8.88    8.94</time>
   <energy>
    <i name="alphaZ">     58.13898300 </i>
    <i name="ewald">   4669.27317274 </i>
    <i name="hartreedc">  -6426.29533026 </i>
    <i name="XCdc">    180.36621731 </i>
    <i name="pawpsdc">   5716.35717804 </i>
    <i name="pawaedc">  -5720.75896531 </i>
    <i name="eentropy">     -0.00156615 </i>
    <i name="bandstr">   -505.85182206 </i>
    <i name="atom">   1903.26342058 </i>
    <i name="e_fr_energy">   -125.50871213 </i>
    <i name="e_wo_entrp">   -125.50714598 </i>
    <i name="e_0_energy">   -125.50792905 </i>
   </energy>
  </scstep>
  <structure>
   <crystal>
    <varray name="basis" >
     <v>       4.20282128       2.42650000       0.00000000 </v>
     <v>      -4.20282128       2.42650000       0.00000000 </v>
     <v>       0.00000000       0.00000000      15.00000000 </v>
    </varray>
    <i name="volume">    305.94437541 </i>
    <varray name="rec_basis" >
     <v>       0.11896770       0.20605811       0.00000000 </v>
     <v>      -0.11896770       0.20605811       0.00000000 </v>
     <v>       0.00000000       0.00000000       0.06666667 </v>
    </varray>
   </crystal>
   <varray name="positions" >
    <v>       0.00416944       0.00271981       0.11847068 </v>
    <v>       0.35681404       0.00275793       0.09799394 </v>
    <v>       0.00420995       0.35548269       0.09807850 </v>
    <v>       0.65157238       0.65002669       0.09804111 </v>
    <v>       0.32650195       0.32492679       0.10028323 </v>
    <v>       0.68209030       0.00278330       0.10031800 </v>
    <v>       0.00424022       0.68048087       0.10025635 </v>
    <v>       0.11109473       0.38887820       0.33729017 </v>
    <v>       0.27767627       0.22224764       0.33738587 </v>
    <v>       0.11097615       0.88885800       0.33730832 </v>
    <v>       0.27765630       0.72226639       0.33719146 </v>
    <v>       0.61108853       0.38892518       0.33718769 </v>
    <v>       0.77773620       0.22222543       0.33729956 </v>
    <v>       0.61115165       0.88897268       0.33737197 </v>
    <v>       0.77787144       0.72232684       0.33730247 </v>
   </varray>
  </structure>
  <varray name="forces" >
   <v>       0.00112350       0.00090938      -0.26879516 </v>
   <v>       0.05833277       0.03083756       0.05018155 </v>
   <v>      -0.04127978       0.02890802       0.05697210 </v>
   <v>       0.00596063      -0.05638761       0.05500581 </v>
   <v>       0.00233271       0.10544020       0.02103380 </v>
   <v>      -0.09083292      -0.05694259       0.02715992 </v>
   <v>       0.09177273      -0.05166137       0.02260240 </v>
   <v>      -0.04079854       0.00649922       0.00393705 </v>
   <v>       0.02728311       0.02405424       0.00388554 </v>
   <v>       0.01253255       0.05428486       0.00606301 </v>
   <v>       0.05178079       0.02604989       0.00504963 </v>
   <v>      -0.00463304      -0.00872985       0.00602510 </v>
   <v>      -0.01375895       0.00891766       0.00303147 </v>
   <v>      -0.02014507      -0.04204990       0.00381475 </v>
   <v>      -0.03967050      -0.07012971       0.00403304 </v>
  </varray>
  <varray name="stress" >
   <v>     -12.08361655       0.08893840      -0.51359763 </v>
   <v>       0.08893842     -12.29972175      -0.02130856 </v>
   <v>      -0.51359765      -0.02130854      -1.88194572 </v>
  </varray>
  <energy>
   <i name="e_fr_energy">   -127.09442564 </i>
   <i name="e_wo_entrp">   -127.09285949 </i>
   <i name="e_0_energy">   -127.09364257 </i>
  </energy>
  <time name="totalsc">   51.72   52.10</time>
 </calculation>
 <calculation>
  <scstep>
   <time name="dav">    5.46    5.49</time>
   <time name="total">    5.74    5.79</time>
   <energy>
    <i name="alphaZ">     58.13898300 </i>
    <i name="ewald">   4669.03429888 </i>
    <i name="hartreedc">  -6425.39671978 </i>
    <i name="XCdc">    180.41410113 </i>
    <i name="pawpsdc">   5716.39020339 </i>
    <i name="pawaedc">  -5720.79200683 </i>
    <i name="eentropy">     -0.00156510 </i>
    <i name="bandstr">   -506.56945345 </i>
    <i name="atom">   1903.26342058 </i>
    <i name="e_fr_energy">   -125.51873817 </i>
    <i name="e_wo_entrp">   -125.51717307 </i>
    <i name="e_0_energy">   -125.51795562 </i>
   </energy>
  </scstep>
  <scstep>
   <time name="dav">   11.38   11.45</time>
   <time name="total">   11.67   11.75</time>
   <energy>
    <i name="e_fr_energy">   -125.51952177 </i>
    <i name="e_wo_entrp">   -125.51795643 </i>
    <i name="e_0_energy">   -125.51873910 </i>
   </energy>
  </scstep>
  <scstep>
   <time name="dav">    8.34    8.41</time>
   <time name="total">    8.63    8.71</time>
   <energy>
    <i name="e_fr_energy">   -125.51949159 </i>
    <i name="e_wo_entrp">   -125.51792602 </i>
    <i name="e_0_energy">   -125.51870881 </i>
   </energy>
  </scstep>
  <scstep>
   <time name="dav">   11.63   11.70</time>
   <time name="total">   11.92   12.00</time>
   <energy>
    <i name="e_fr_energy">   -125.51950308 </i>
    <i name="e_wo_entrp">   -125.51793749 </i>
    <i name="e_0_energy">   -125.51872028 </i>
   </energy>
  </scstep>
  <scstep>
   <time name="dav">    8.89    8.95</time>
   <time name="total">    9.18    9.25</time>
   <energy>
    <i name="e_fr_energy">   -125.51950662 </i>
    <i name="e_wo_entrp">   -125.51794102 </i>
    <i name="e_0_energy">   -125.51872382 </i>
   </energy>
  </scstep>
  <scstep>
   <time name="dav">   10.41   10.47</time>
   <time name="total">   10.44   10.51</time>
   <energy>
    <i name="alphaZ">     58.13898300 </i>
    <i name="ewald">   4669.03429888 </i>
    <i name="hartreedc">  -6425.34460666 </i>
    <i name="XCdc">    180.41079896 </i>
    <i name="pawpsdc">   5730.19459351 </i>
    <i name="pawaedc">  -5734.60131799 </i>
    <i name="eentropy">     -0.00156558 </i>
    <i name="bandstr">   -506.61411152 </i>
    <i name="atom">   1903.26342058 </i>
    <i name="e_fr_energy">   -125.51950682 </i>
    <i name="e_wo_entrp">   -125.51794123 </i>
    <i name="e_0_energy">   -125.51872402 </i>
   </energy>
  </scstep>
  <structure>
   <crystal>
    <varray name="basis" >
     <v>       4.20282128       2.42650000       0.00000000 </v>
     <v>      -4.20282128       2.42650000       0.00000000 </v>
     <v>       0.00000000       0.00000000      15.00000000 </v>
    </varray>
    <i name="volume">    305.94437541 </i>
    <varray name="rec_basis" >
     <v>       0.11896770       0.20605811       0.00000000 </v>
     <v>      -0.11896770       0.20605811       0.00000000 </v>
     <v>       0.00000000       0.00000000       0.06666667 </v>
    </varray>
   </crystal>
   <varray name="positions" >
    <v>       0.00419597       0.00282850       0.11489155 </v>
    <v>       0.35834118       0.00256191       0.09898070 </v>
    <v>       0.00419857       0.35700309       0.09922695 </v>
    <v>       0.65024487       0.64830056       0.09914566 </v>
    <v>       0.32703278       0.32508059       0.10020468 </v>
    <v>       0.68183443       0.00276984       0.10036544 </v>
    <v>       0.00437399       0.68009356       0.10020264 </v>
    <v>       0.11115734       0.38869025       0.33733980 </v>
    <v>       0.27716425       0.22213903       0.33760910 </v>
    <v>       0.11028777       0.88856430       0.33739488 </v>
    <v>       0.27700031       0.72240527       0.33705900 </v>
    <v>       0.61108174       0.38911449       0.33705146 </v>
    <v>       0.77767395       0.22216506       0.33736308 </v>
    <v>       0.61155656       0.88930197       0.33757083 </v>
    <v>       0.77870585       0.72286001       0.33737356 </v>
   </varray>
  </structure>
  <varray name="forces" >
   <v>       0.01239926      -0.00297000      -0.21571693 </v>
   <v>      -0.04051545      -0.01822102      -0.04079312 </v>
   <v>       0.07287394      -0.02615809      -0.05455535 </v>
   <v>      -0.00601928       0.05922623      -0.05117978 </v>
   <v>      -0.01365620       0.06924646       0.11348352 </v>
   <v>      -0.05422563      -0.04581503       0.10667985 </v>
   <v>       0.05195566      -0.03442446       0.11335559 </v>
   <v>      -0.20087116       0.03485944       0.00195907 </v>
   <v>       0.14904306       0.14276094      -0.03854432 </v>
   <v>       0.09548652       0.28952221       0.00069633 </v>
   <v>       0.29759375       0.13894403       0.05026129 </v>
   <v>       0.00154104      -0.04892991       0.05414133 </v>
   <v>      -0.06161036       0.04217418      -0.00375230 </v>
   <v>      -0.09732346      -0.21676921      -0.03353726 </v>
   <v>      -0.20667169      -0.38344576      -0.00249793 </v>
  </varray>
  <varray name="stress" >
   <v>     -10.78680296       0.12348391      -0.41684081 </v>
   <v>       0.12348396     -11.33784308      -0.02537506 </v>
   <v>      -0.41684083      -0.02537506      -1.85122050 </v>
  </varray>
  <energy>
   <i name="e_fr_energy">   -127.10471462 </i>
   <i name="e_wo_entrp">   -127.10314904 </i>
   <i name="e_0_energy">   -127.10393183 </i>
  </energy>
  <time name="totalsc">   62.26   63.33</time>
 </calculation>
 <calculation>
  <scstep>
   <time name="dav">    5.51    5.55</time>
   <time name="total">    5.80    5.85</time>
   <energy>
    <i name="alphaZ">     58.13898300 </i>
    <i name="ewald">   4669.02292939 </i>
    <i name="hartreedc">  -6425.26007766 </i>
    <i name="XCdc">    180.41541352 </i>
    <i name="pawpsdc">   5730.18994468 </i>
    <i name="pawaedc">  -5734.59666676 </i>
    <i name="eentropy">     -0.00156694 </i>
    <i name="bandstr">   -506.69472312 </i>
    <i name="atom">   1903.26342058 </i>
    <i name="e_fr_energy">   -125.52234331 </i>
    <i name="e_wo_entrp">   -125.52077637 </i>
    <i name="e_0_energy">   -125.52155984 </i>
   </energy>
  </scstep>
  <scstep>
   <time name="dav">   11.28   11.36</time>
   <time name="total">   11.57   11.66</time>
   <energy>
    <i name="e_fr_energy">   -125.52234607 </i>
    <i name="e_wo_entrp">   -125.52077916 </i>
    <i name="e_0_energy">   -125.52156262 </i>
   </energy>
  </scstep>
  <scstep>
   <time name="dav">    8.59    8.65</time>
   <time name="total">    8.87    8.95</time>
   <energy>
    <i name="e_fr_energy">   -125.52233858 </i>
    <i name="e_wo_entrp">   -125.52077168 </i>
    <i name="e_0_energy">   -125.52155513 </i>
   </energy>
  </scstep>
  <scstep>
   <time name="dav">   11.01   11.08</time>
   <time name="total">   11.04   11.11</time>
   <energy>
    <i name="alphaZ">     58.13898300 </i>
    <i name="ewald">   4669.02292939 </i>
    <i name="hartreedc">  -6425.25550564 </i>
    <i name="XCdc">    180.41482849 </i>
    <i name="pawpsdc">   5731.27242452 </i>
    <i name="pawaedc">  -5735.67961851 </i>
    <i name="eentropy">     -0.00156689 </i>
    <i name="bandstr">   -506.69823396 </i>
    <i name="atom">   1903.26342058 </i>
    <i name="e_fr_energy">   -125.52233903 </i>
    <i name="e_wo_entrp">   -125.52077214 </i>
    <i name="e_0_energy">   -125.52155558 </i>
   </energy>
  </scstep>
  <structure>
   <crystal>
    <varray name="basis" >
     <v>       4.20282128       2.42650000       0.00000000 </v>
     <v>      -4.20282128       2.42650000       0.00000000 </v>
     <v>       0.00000000       0.00000000      15.00000000 </v>
    </varray>
    <i name="volume">    305.94437541 </i>
    <varray name="rec_basis" >
     <v>       0.11896770       0.20605811       0.00000000 </v>
     <v>      -0.11896770       0.20605811       0.00000000 </v>
     <v>       0.00000000       0.00000000       0.06666667 </v>
    </varray>
   </crystal>
   <varray name="positions" >
    <v>       0.00420262       0.00283241       0.11441819 </v>
    <v>       0.35848212       0.00254368       0.09908347 </v>
    <v>       0.00421086       0.35712049       0.09934460 </v>
    <v>       0.65013909       0.64815466       0.09925917 </v>
    <v>       0.32714659       0.32516431       0.10022699 </v>
    <v>       0.68173892       0.00275588       0.10040044 </v>
    <v>       0.00438567       0.67999372       0.10022778 </v>
    <v>       0.11109523       0.38879748       0.33734607 </v>
    <v>       0.27730069       0.22217496       0.33762424 </v>
    <v>       0.11050286       0.88873075       0.33740508 </v>
    <v>       0.27719017       0.72239322       0.33705759 </v>
    <v>       0.61103988       0.38909377       0.33705069 </v>
    <v>       0.77767240       0.22222455       0.33736939 </v>
    <v>       0.61136999       0.88920274       0.33758454 </v>
    <v>       0.77837246       0.72269583       0.33738108 </v>
   </varray>
  </structure>
  <varray name="forces" >
   <v>       0.01373726      -0.00321935      -0.20732095 </v>
   <v>      -0.04912625      -0.02275916      -0.04431664 </v>
   <v>       0.07875265      -0.02966098      -0.05992813 </v>
   <v>      -0.00712599       0.06715252      -0.05606732 </v>
   <v>      -0.01402715       0.05410106       0.11612353 </v>
   <v>      -0.03987301      -0.03741197       0.10797830 </v>
   <v>       0.04012468      -0.02734128       0.11556374 </v>
   <v>      -0.13696185       0.02394969       0.00181075 </v>
   <v>       0.09367837       0.10951774      -0.04039509 </v>
   <v>       0.07219950       0.19516286      -0.00012068 </v>
   <v>       0.21010090       0.10021947       0.05241115 </v>
   <v>       0.00790065      -0.03764591       0.05606087 </v>
   <v>      -0.04754946       0.02534919      -0.00393153 </v>
   <v>      -0.07242173      -0.15035565      -0.03526613 </v>
   <v>      -0.14940856      -0.26705824      -0.00260186 </v>
  </varray>
  <varray name="stress" >
   <v>     -10.77776584       0.07744455      -0.40629345 </v>
   <v>       0.07744453     -11.16071367      -0.02299763 </v>
   <v>      -0.40629346      -0.02299762      -1.84086452 </v>
  </varray>
  <energy>
   <i name="e_fr_energy">   -127.10748200 </i>
   <i name="e_wo_entrp">   -127.10591511 </i>
   <i name="e_0_energy">   -127.10669855 </i>
  </energy>
  <time name="totalsc">   41.96   42.28</time>
 </calculation>
 <calculation>
  <scstep>
   <time name="dav">    5.47    5.51</time>
   <time name="total">    5.76    5.81</time>
   <energy>
    <i name="alphaZ">     58.13898300 </i>
    <i name="ewald">   4668.92022181 </i>
    <i name="hartreedc">  -6424.96322314 </i>
    <i name="XCdc">    180.42784842 </i>
    <i name="pawpsdc">   5731.44462798 </i>
    <i name="pawaedc">  -5735.85184836 </i>
    <i name="eentropy">     -0.00155995 </i>
    <i name="bandstr">   -506.90562847 </i>
    <i name="atom">   1903.26342058 </i>
    <i name="e_fr_energy">   -125.52715813 </i>
    <i name="e_wo_entrp">   -125.52559818 </i>
    <i name="e_0_energy">   -125.52637815 </i>
   </energy>
  </scstep>
  <scstep>
   <time name="dav">   11.49   11.56</time>
   <time name="total">   11.78   11.87</time>
   <energy>
    <i name="e_fr_energy">   -125.52718229 </i>
    <i name="e_wo_entrp">   -125.52562176 </i>
    <i name="e_0_energy">   -125.52640203 </i>
   </energy>
  </scstep>
  <scstep>
   <time name="dav">    8.45    8.50</time>
   <time name="total">    8.74    8.80</time>
   <energy>
    <i name="e_fr_energy">   -125.52711751 </i>
    <i name="e_wo_entrp">   -125.52555635 </i>
    <i name="e_0_energy">   -125.52633693 </i>
   </energy>
  </scstep>
  <scstep>
   <time name="dav">   11.25   11.31</time>
   <time name="total">   11.53   11.61</time>
   <energy>
    <i name="e_fr_energy">   -125.52711978 </i>
    <i name="e_wo_entrp">   -125.52555854 </i>
    <i name="e_0_energy">   -125.52633916 </i>
   </energy>
  </scstep>
  <scstep>
   <time name="dav">    8.00    8.06</time>
   <time name="total">    8.28    8.36</time>
   <energy>
    <i name="e_fr_energy">   -125.52712130 </i>
    <i name="e_wo_entrp">   -125.52556005 </i>
    <i name="e_0_energy">   -125.52634068 </i>
   </energy>
  </scstep>
  <scstep>
   <time name="dav">   10.88   10.95</time>
   <time name="total">   10.92   10.99</time>
   <energy>
    <i name="alphaZ">     58.13898300 </i>
    <i name="ewald">   4668.92022181 </i>
    <i name="hartreedc">  -6425.00231110 </i>
    <i name="XCdc">    180.42659942 </i>
    <i name="pawpsdc">   5735.48897640 </i>
    <i name="pawaedc">  -5739.89767391 </i>
    <i name="eentropy">     -0.00156121 </i>
    <i name="bandstr">   -506.86377604 </i>
    <i name="atom">   1903.26342058 </i>
    <i name="e_fr_energy">   -125.52712106 </i>
    <i name="e_wo_entrp">   -125.52555985 </i>
    <i name="e_0_energy">   -125.52634045 </i>
   </energy>
  </scstep>
  <structure>
   <crystal>
    <varray name="basis" >
     <v>       4.20282128       2.42650000       0.00000000 </v>
     <v>      -4.20282128       2.42650000       0.00000000 </v>
     <v>       0.00000000       0.00000000      15.00000000 </v>
    </varray>
    <i name="volume">    305.94437541 </i>
    <varray name="rec_basis" >
     <v>       0.11896770       0.20605811       0.00000000 </v>
     <v>      -0.11896770       0.20605811       0.00000000 </v>
     <v>       0.00000000       0.00000000       0.06666667 </v>
    </varray>
   </crystal>
   <varray name="positions" >
    <v>       0.00422256       0.00284412       0.11299810 </v>
    <v>       0.35890493       0.00248897       0.09939178 </v>
    <v>       0.00424773       0.35747269       0.09969756 </v>
    <v>       0.64982177       0.64771693       0.09959971 </v>
    <v>       0.32748805       0.32541547       0.10029392 </v>
    <v>       0.68145239       0.00271400       0.10050541 </v>
    <v>       0.00442070       0.67969419       0.10030322 </v>
    <v>       0.11090889       0.38911917       0.33736491 </v>
    <v>       0.27771001       0.22228276       0.33766967 </v>
    <v>       0.11114815       0.88923010       0.33743567 </v>
    <v>       0.27775977       0.72235707       0.33705337 </v>
    <v>       0.61091431       0.38903163       0.33704838 </v>
    <v>       0.77766776       0.22240302       0.33738830 </v>
    <v>       0.61081029       0.88890506       0.33762567 </v>
    <v>       0.77737226       0.72220326       0.33740366 </v>
   </varray>
  </structure>
  <varray name="forces" >
   <v>       0.01762656      -0.00404514      -0.18502602 </v>
   <v>      -0.07800937      -0.03794607      -0.05428947 </v>
   <v>       0.09908097      -0.04198267      -0.07542230 </v>
   <v>      -0.01042592       0.09416825      -0.07008406 </v>
   <v>      -0.01486723       0.00604529       0.12467256 </v>
   <v>       0.00550880      -0.01068135       0.11272508 </v>
   <v>       0.00223882      -0.00492882       0.12294533 </v>
   <v>       0.05225047      -0.00877163       0.00130451 </v>
   <v>      -0.07021757       0.00955067      -0.04614023 </v>
   <v>       0.00638740      -0.08014863      -0.00288879 </v>
   <v>      -0.05230307      -0.01756056       0.05873906 </v>
   <v>       0.02743070      -0.00366481       0.06179535 </v>
   <v>      -0.00636117      -0.02394376      -0.00457619 </v>
   <v>       0.00407306       0.04949110      -0.04060677 </v>
   <v>       0.01758754       0.07441812      -0.00314805 </v>
  </varray>
  <varray name="stress" >
   <v>     -10.74167511      -0.03371355      -0.37485123 </v>
   <v>      -0.03371354     -10.60237654      -0.01565198 </v>
   <v>      -0.37485122      -0.01565198      -1.84575682 </v>
  </varray>
  <energy>
   <i name="e_fr_energy">   -127.11204493 </i>
   <i name="e_wo_entrp">   -127.11048372 </i>
   <i name="e_0_energy">   -127.11126432 </i>
  </energy>
  <time name="totalsc">   61.71   63.38</time>
 </calculation>
 <calculation>
  <scstep>
   <time name="dav">    5.50    5.54</time>
   <time name="total">    5.79    5.84</time>
   <energy>
    <i name="alphaZ">     58.13898300 </i>
    <i name="ewald">   4668.86514110 </i>
    <i name="hartreedc">  -6424.89287686 </i>
    <i name="XCdc">    180.43032373 </i>
    <i name="pawpsdc">   5735.54000192 </i>
    <i name="pawaedc">  -5739.94869817 </i>
    <i name="eentropy">     -0.00155574 </i>
    <i name="bandstr">   -506.92223474 </i>
    <i name="atom">   1903.26342058 </i>
    <i name="e_fr_energy">   -125.52749519 </i>
    <i name="e_wo_entrp">   -125.52593944 </i>
    <i name="e_0_energy">   -125.52671732 </i>
   </energy>
  </scstep>
  <scstep>
   <time name="dav">   10.56   10.62</time>
   <time name="total">   10.85   10.92</time>
   <energy>
    <i name="e_fr_energy">   -125.52749705 </i>
    <i name="e_wo_entrp">   -125.52594106 </i>
    <i name="e_0_energy">   -125.52671905 </i>
   </energy>
  </scstep>
  <scstep>
   <time name="dav">    8.89    8.95</time>
   <time name="total">    9.18    9.25</time>
   <energy>
    <i name="e_fr_energy">   -125.52749063 </i>
    <i name="e_wo_entrp">   -125.52593438 </i>
    <i name="e_0_energy">   -125.52671250 </i>
   </energy>
  </scstep>
  <scstep>
   <time name="dav">    9.01    9.07</time>
   <time name="total">    9.05    9.10</time>
   <energy>
    <i name="alphaZ">     58.13898300 </i>
    <i name="ewald">   4668.86514110 </i>
    <i name="hartreedc">  -6424.90729465 </i>
    <i name="XCdc">    180.43010652 </i>
    <i name="pawpsdc">   5736.48166346 </i>
    <i name="pawaedc">  -5740.89079245 </i>
    <i name="eentropy">     -0.00155629 </i>
    <i name="bandstr">   -506.90716228 </i>
    <i name="atom">   1903.26342058 </i>
    <i name="e_fr_energy">   -125.52749102 </i>
    <i name="e_wo_entrp">   -125.52593473 </i>
    <i name="e_0_energy">   -125.52671288 </i>
   </energy>
  </scstep>
  <structure>
   <crystal>
    <varray name="basis" >
     <v>       4.20282128       2.42650000       0.00000000 </v>
     <v>      -4.20282128       2.42650000       0.00000000 </v>
     <v>       0.00000000       0.00000000      15.00000000 </v>
    </varray>
    <i name="volume">    305.94437541 </i>
    <varray name="rec_basis" >
     <v>       0.11896770       0.20605811       0.00000000 </v>
     <v>      -0.11896770       0.20605811       0.00000000 </v>
     <v>       0.00000000       0.00000000       0.06666667 </v>
    </varray>
   </crystal>
   <varray name="positions" >
    <v>       0.00422898       0.00284789       0.11254115 </v>
    <v>       0.35904098       0.00247137       0.09949099 </v>
    <v>       0.00425960       0.35758602       0.09981113 </v>
    <v>       0.64971966       0.64757609       0.09970929 </v>
    <v>       0.32759792       0.32549629       0.10031545 </v>
    <v>       0.68136019       0.00270053       0.10053919 </v>
    <v>       0.00443197       0.67959781       0.10032749 </v>
    <v>       0.11084893       0.38922268       0.33737097 </v>
    <v>       0.27784172       0.22231744       0.33768428 </v>
    <v>       0.11135579       0.88939078       0.33744551 </v>
    <v>       0.27794305       0.72234544       0.33705201 </v>
    <v>       0.61087391       0.38901164       0.33704764 </v>
    <v>       0.77766626       0.22246045       0.33739439 </v>
    <v>       0.61063019       0.88880927       0.33763890 </v>
    <v>       0.77705042       0.72204477       0.33741093 </v>
   </varray>
  </structure>
  <varray name="forces" >
   <v>       0.01891090      -0.00429772      -0.17893615 </v>
   <v>      -0.08838862      -0.04348759      -0.05712919 </v>
   <v>       0.10670730      -0.04654906      -0.08000550 </v>
   <v>      -0.01146444       0.10411852      -0.07419373 </v>
   <v>      -0.01516353      -0.01056677       0.12725230 </v>
   <v>       0.02117251      -0.00148698       0.11404877 </v>
   <v>      -0.01093020       0.00285488       0.12513857 </v>
   <v>       0.11271780      -0.01927744       0.00122707 </v>
   <v>      -0.12289067      -0.02264809      -0.04793188 </v>
   <v>      -0.01390106      -0.16736925      -0.00377512 </v>
   <v>      -0.13702503      -0.05644050       0.06080930 </v>
   <v>       0.03387212       0.00755748       0.06366233 </v>
   <v>       0.00692844      -0.03989842      -0.00471473 </v>
   <v>       0.02907397       0.11485914      -0.04221151 </v>
   <v>       0.07038052       0.18263179      -0.00324054 </v>
  </varray>
  <varray name="stress" >
   <v>     -10.72437804      -0.06051739      -0.36514499 </v>
   <v>      -0.06051737     -10.41277079      -0.01311506 </v>
   <v>      -0.36514500      -0.01311501      -1.85240866 </v>
  </varray>
  <energy>
   <i name="e_fr_energy">   -127.11233656 </i>
   <i name="e_wo_entrp">   -127.11078026 </i>
   <i name="e_0_energy">   -127.11155841 </i>
  </energy>
  <time name="totalsc">   39.54   39.83</time>
 </calculation>
 <calculation>
  <scstep>
   <time name="dav">    5.52    5.56</time>
   <time name="total">    5.81    5.86</time>
   <energy>
    <i name="alphaZ">     58.13898300 </i>
    <i name="ewald">   4669.04841744 </i>
    <i name="hartreedc">  -6424.98908845 </i>
    <i name="XCdc">    180.43668585 </i>
    <i name="pawpsdc">   5736.64037506 </i>
    <i name="pawaedc">  -5741.04952505 </i>
    <i name="eentropy">     -0.00156158 </i>
    <i name="bandstr">   -507.01722857 </i>
    <i name="atom">   1903.26342058 </i>
    <i name="e_fr_energy">   -125.52952171 </i>
    <i name="e_wo_entrp">   -125.52796014 </i>
    <i name="e_0_energy">   -125.52874093 </i>
   </energy>
  </scstep>
  <scstep>
   <time name="dav">    9.79    9.85</time>
   <time name="total">   10.08   10.15</time>
   <energy>
    <i name="e_fr_energy">   -125.52954033 </i>
    <i name="e_wo_entrp">   -125.52797893 </i>
    <i name="e_0_energy">   -125.52875963 </i>
   </energy>
  </scstep>
  <scstep>
   <time name="dav">    8.42    8.49</time>
   <time name="total">    8.70    8.78</time>
   <energy>
    <i name="e_fr_energy">   -125.52953896 </i>
    <i name="e_wo_entrp">   -125.52797781 </i>
    <i name="e_0_energy">   -125.52875838 </i>
   </energy>
  </scstep>
  <scstep>
   <time name="dav">    9.82    9.88</time>
   <time name="total">    9.85    9.91</time>
   <energy>
    <i name="alphaZ">     58.13898300 </i>
    <i name="ewald">   4669.04841744 </i>
    <i name="hartreedc">  -6425.06210858 </i>
    <i name="XCdc">    180.43619430 </i>
    <i name="pawpsdc">   5738.78925395 </i>
    <i name="pawaedc">  -5743.19915693 </i>
    <i name="eentropy">     -0.00156116 </i>
    <i name="bandstr">   -506.94298167 </i>
    <i name="atom">   1903.26342058 </i>
    <i name="e_fr_energy">   -125.52953908 </i>
    <i name="e_wo_entrp">   -125.52797793 </i>
    <i name="e_0_energy">   -125.52875851 </i>
   </energy>
  </scstep>
  <structure>
   <crystal>
    <varray name="basis" >
     <v>       4.20282128       2.42650000       0.00000000 </v>
     <v>      -4.20282128       2.42650000       0.00000000 </v>
     <v>       0.00000000       0.00000000      15.00000000 </v>
    </varray>
    <i name="volume">    305.94437541 </i>
    <varray name="rec_basis" >
     <v>       0.11896770       0.20605811       0.00000000 </v>
     <v>      -0.11896770       0.20605811       0.00000000 </v>
     <v>       0.00000000       0.00000000       0.06666667 </v>
    </varray>
   </crystal>
   <varray name="positions" >
    <v>       0.00424657       0.00282893       0.11192267 </v>
    <v>       0.35905380       0.00246252       0.09957767 </v>
    <v>       0.00429644       0.35755160       0.09990311 </v>
    <v>       0.64975075       0.64758256       0.09979952 </v>
    <v>       0.32769567       0.32558720       0.10040354 </v>
    <v>       0.68126977       0.00266388       0.10063492 </v>
    <v>       0.00443974       0.67950012       0.10041770 </v>
    <v>       0.11084963       0.38921337       0.33737860 </v>
    <v>       0.27785093       0.22243170       0.33767745 </v>
    <v>       0.11132762       0.88933277       0.33745505 </v>
    <v>       0.27794772       0.72236670       0.33708059 </v>
    <v>       0.61086863       0.38897007       0.33707835 </v>
    <v>       0.77760949       0.22245973       0.33739910 </v>
    <v>       0.61062322       0.88884857       0.33763331 </v>
    <v>       0.77701958       0.72207871       0.33741774 </v>
   </varray>
  </structure>
  <varray name="forces" >
   <v>       0.01867483      -0.00392557      -0.16041127 </v>
   <v>      -0.07578048      -0.03644445      -0.04817037 </v>
   <v>       0.08854398      -0.03839203      -0.07187123 </v>
   <v>      -0.01165834       0.08683555      -0.06568001 </v>
   <v>      -0.01292580      -0.01505601       0.11308946 </v>
   <v>       0.02474854       0.00325811       0.09898107 </v>
   <v>      -0.01129511       0.00424103       0.11091127 </v>
   <v>       0.09369663      -0.01815434       0.00099402 </v>
   <v>      -0.08829142      -0.05347497      -0.04385766 </v>
   <v>      -0.03886396      -0.14492193      -0.00392510 </v>
   <v>      -0.13614862      -0.06377662       0.05671373 </v>
   <v>       0.00667609       0.01964390       0.05850759 </v>
   <v>       0.02186819      -0.02727610      -0.00356380 </v>
   <v>       0.03392418       0.10847079      -0.03912739 </v>
   <v>       0.08683129       0.17897264      -0.00259031 </v>
  </varray>
  <varray name="stress" >
   <v>     -10.49568848      -0.02582903      -0.35560414 </v>
   <v>      -0.02582897     -10.35164069      -0.01321149 </v>
   <v>      -0.35560412      -0.01321147      -1.83272165 </v>
  </varray>
  <energy>
   <i name="e_fr_energy">   -127.11424616 </i>
   <i name="e_wo_entrp">   -127.11268500 </i>
   <i name="e_0_energy">   -127.11346558 </i>
  </energy>
  <time name="totalsc">   39.11   39.42</time>
 </calculation>
 <calculation>
  <scstep>
   <time name="dav">    5.45    5.50</time>
   <time name="total">    5.74    5.80</time>
   <energy>
    <i name="alphaZ">     58.13898300 </i>
    <i name="ewald">   4669.44944611 </i>
[...]
       <r>     2.7441     0.8423    30.9069 </r>
       <r>     2.8507     0.5504    30.9655 </r>
       <r>     2.9573     1.1440    31.0875 </r>
       <r>     3.0639     1.5430    31.2519 </r>
       <r>     3.1705     1.2369    31.3838 </r>
       <r>     3.2771     1.2726    31.5194 </r>
       <r>     3.3837     1.2875    31.6567 </r>
       <r>     3.4903     1.4761    31.8140 </r>
       <r>     3.5969     2.3229    32.0616 </r>
       <r>     3.7034     3.0659    32.3884 </r>
       <r>     3.8100     3.1641    32.7257 </r>
       <r>     3.9166     2.7078    33.0143 </r>
       <r>     4.0232     3.1460    33.3496 </r>
       <r>     4.1298     3.3933    33.7113 </r>
       <r>     4.2364     3.0152    34.0327 </r>
       <r>     4.3430     3.1698    34.3706 </r>
       <r>     4.4496     2.8088    34.6700 </r>
       <r>     4.5562     2.5882    34.9459 </r>
       <r>     4.6628     2.7164    35.2354 </r>
       <r>     4.7694     3.5832    35.6173 </r>
       <r>     4.8759     3.2833    35.9673 </r>
       <r>     4.9825     2.5941    36.2438 </r>
       <r>     5.0891     3.2454    36.5897 </r>
       <r>     5.1957     3.2937    36.9408 </r>
       <r>     5.3023     2.9666    37.2570 </r>
       <r>     5.4089     2.9184    37.5681 </r>
       <r>     5.5155     3.0970    37.8982 </r>
       <r>     5.6221     3.3308    38.2532 </r>
       <r>     5.7287     2.2180    38.4897 </r>
       <r>     5.8353     2.8928    38.7980 </r>
       <r>     5.9418     3.0048    39.1183 </r>
       <r>     6.0484     2.6613    39.4020 </r>
       <r>     6.1550     1.9361    39.6083 </r>
       <r>     6.2616     2.3258    39.8563 </r>
       <r>     6.3682     2.8980    40.1652 </r>
       <r>     6.4748     3.1587    40.5018 </r>
       <r>     6.5814     3.1828    40.8411 </r>
       <r>     6.6880     3.3457    41.1977 </r>
       <r>     6.7946     3.8350    41.6065 </r>
       <r>     6.9012     3.1250    41.9396 </r>
       <r>     7.0078     3.2252    42.2834 </r>
       <r>     7.1143     3.7712    42.6853 </r>
       <r>     7.2209     3.0496    43.0104 </r>
       <r>     7.3275     2.4605    43.2727 </r>
       <r>     7.4341     2.5340    43.5428 </r>
       <r>     7.5407     3.3044    43.8950 </r>
       <r>     7.6473     3.2411    44.2404 </r>
       <r>     7.7539     3.9858    44.6653 </r>
       <r>     7.8605     4.1052    45.1029 </r>
       <r>     7.9671     2.9903    45.4216 </r>
       <r>     8.0737     4.0134    45.8494 </r>
       <r>     8.1803     4.6172    46.3416 </r>
       <r>     8.2868     4.5157    46.8229 </r>
       <r>     8.3934     4.9165    47.3470 </r>
       <r>     8.5000     3.1515    47.6829 </r>
       <r>     8.6066     1.5262    47.8456 </r>
       <r>     8.7132     0.6675    47.9167 </r>
       <r>     8.8198     0.4103    47.9604 </r>
       <r>     8.9264     0.3014    47.9926 </r>
       <r>     9.0330     0.0670    47.9997 </r>
       <r>     9.1396     0.0026    48.0000 </r>
       <r>     9.2462     0.0000    48.0000 </r>
       <r>     9.3528     0.0000    48.0000 </r>
       <r>     9.4593     0.0000    48.0000 </r>
       <r>     9.5659     0.0000    48.0000 </r>
       <r>     9.6725     0.0000    48.0000 </r>
       <r>     9.7791     0.0000    48.0000 </r>
       <r>     9.8857     0.0000    48.0000 </r>
       <r>     9.9923     0.0000    48.0000 </r>
       <r>    10.0989     0.0000    48.0000 </r>
       <r>    10.2055     0.0000    48.0000 </r>
       <r>    10.3121     0.0000    48.0000 </r>
      </set>
      <set comment="spin 2">
       <r>   -21.6651     0.0000     0.0000 </r>
       <r>   -21.5586     0.0000     0.0000 </r>
       <r>   -21.4520     0.0000     0.0000 </r>
       <r>   -21.3454     0.0000     0.0000 </r>
       <r>   -21.2388     0.0000     0.0000 </r>
       <r>   -21.1322     0.0000     0.0000 </r>
       <r>   -21.0256     0.0000     0.0000 </r>
       <r>   -20.9190     0.0000     0.0000 </r>
       <r>   -20.8124     0.0000     0.0000 </r>
       <r>   -20.7058     0.0000     0.0000 </r>
       <r>   -20.5992     0.0000     0.0000 </r>
       <r>   -20.4926     0.0000     0.0000 </r>
       <r>   -20.3861     0.0009     0.0001 </r>
       <r>   -20.2795     0.0348     0.0038 </r>
       <r>   -20.1729     0.2530     0.0308 </r>
       <r>   -20.0663     0.5320     0.0875 </r>
       <r>   -19.9597     0.5797     0.1493 </r>
       <r>   -19.8531     0.6326     0.2167 </r>
       <r>   -19.7465     0.5332     0.2735 </r>
       <r>   -19.6399     0.6899     0.3471 </r>
       <r>   -19.5333     0.5400     0.4046 </r>
       <r>   -19.4267     0.5468     0.4629 </r>
       <r>   -19.3202     0.7696     0.5450 </r>
       <r>   -19.2136     0.4876     0.5969 </r>
       <r>   -19.1070     0.4997     0.6502 </r>
       <r>   -19.0004     0.7840     0.7338 </r>
       <r>   -18.8938     0.6659     0.8047 </r>
       <r>   -18.7872     0.3784     0.8451 </r>
       <r>   -18.6806     0.5654     0.9053 </r>
       <r>   -18.5740     0.8850     0.9997 </r>
       <r>   -18.4674     0.5831     1.0618 </r>
       <r>   -18.3608     0.4852     1.1135 </r>
       <r>   -18.2542     0.3844     1.1545 </r>
       <r>   -18.1477     0.8546     1.2456 </r>
       <r>   -18.0411     0.8423     1.3354 </r>
       <r>   -17.9345     0.4495     1.3833 </r>
       <r>   -17.8279     0.4243     1.4285 </r>
       <r>   -17.7213     0.5275     1.4848 </r>
       <r>   -17.6147     0.8024     1.5703 </r>
       <r>   -17.5081     0.8656     1.6625 </r>
       <r>   -17.4015     0.7352     1.7409 </r>
       <r>   -17.2949     0.8806     1.8348 </r>
       <r>   -17.1883     1.3380     1.9774 </r>
       <r>   -17.0817     1.8875     2.1786 </r>
       <r>   -16.9752     2.0227     2.3942 </r>
       <r>   -16.8686     2.2497     2.6340 </r>
       <r>   -16.7620     2.7005     2.9218 </r>
       <r>   -16.6554     1.9475     3.1294 </r>
       <r>   -16.5488     0.5726     3.1904 </r>
       <r>   -16.4422     0.9434     3.2910 </r>
       <r>   -16.3356     1.0303     3.4008 </r>
       <r>   -16.2290     0.5825     3.4629 </r>
       <r>   -16.1224     0.5295     3.5194 </r>
       <r>   -16.0158     0.4994     3.5726 </r>
       <r>   -15.9092     0.4820     3.6240 </r>
       <r>   -15.8027     0.4827     3.6754 </r>
       <r>   -15.6961     1.0525     3.7876 </r>
       <r>   -15.5895     1.0157     3.8959 </r>
       <r>   -15.4829     0.4982     3.9490 </r>
       <r>   -15.3763     0.4952     4.0017 </r>
       <r>   -15.2697     0.4369     4.0483 </r>
       <r>   -15.1631     0.6001     4.1123 </r>
       <r>   -15.0565     0.8092     4.1985 </r>
       <r>   -14.9499     1.4404     4.3521 </r>
       <r>   -14.8433     2.2088     4.5875 </r>
       <r>   -14.7368     2.3661     4.8397 </r>
       <r>   -14.6302     2.1869     5.0728 </r>
       <r>   -14.5236     1.3525     5.2170 </r>
       <r>   -14.4170     1.0161     5.3253 </r>
       <r>   -14.3104     1.9560     5.5338 </r>
       <r>   -14.2038     1.9386     5.7404 </r>
       <r>   -14.0972     1.4220     5.8920 </r>
       <r>   -13.9906     1.3701     6.0380 </r>
       <r>   -13.8840     1.6521     6.2141 </r>
       <r>   -13.7774     2.5486     6.4858 </r>
       <r>   -13.6708     2.5041     6.7527 </r>
       <r>   -13.5643     2.2772     6.9954 </r>
       <r>   -13.4577     1.3385     7.1381 </r>
       <r>   -13.3511     0.8359     7.2272 </r>
       <r>   -13.2445     0.4259     7.2726 </r>
       <r>   -13.1379     0.5273     7.3288 </r>
       <r>   -13.0313     0.8893     7.4236 </r>
       <r>   -12.9247     0.8746     7.5168 </r>
       <r>   -12.8181     0.6198     7.5829 </r>
       <r>   -12.7115     0.8851     7.6772 </r>
       <r>   -12.6049     0.9011     7.7733 </r>
       <r>   -12.4983     0.7085     7.8488 </r>
       <r>   -12.3918     0.6885     7.9222 </r>
       <r>   -12.2852     0.4212     7.9671 </r>
       <r>   -12.1786     0.8377     8.0564 </r>
       <r>   -12.0720     1.0212     8.1652 </r>
       <r>   -11.9654     0.4145     8.2094 </r>
       <r>   -11.8588     0.4328     8.2555 </r>
       <r>   -11.7522     0.4382     8.3022 </r>
       <r>   -11.6456     0.7909     8.3865 </r>
       <r>   -11.5390     0.8491     8.4770 </r>
       <r>   -11.4324     0.4691     8.5270 </r>
       <r>   -11.3258     0.2468     8.5534 </r>
       <r>   -11.2193     0.6093     8.6183 </r>
       <r>   -11.1127     0.7444     8.6976 </r>
       <r>   -11.0061     0.6483     8.7667 </r>
       <r>   -10.8995     0.9836     8.8716 </r>
       <r>   -10.7929     0.7812     8.9549 </r>
       <r>   -10.6863     0.3259     8.9896 </r>
       <r>   -10.5797     1.0491     9.1014 </r>
       <r>   -10.4731     1.6816     9.2807 </r>
       <r>   -10.3665     1.9672     9.4903 </r>
       <r>   -10.2599     1.8654     9.6892 </r>
       <r>   -10.1533     1.8921     9.8908 </r>
       <r>   -10.0468     2.3365    10.1399 </r>
       <r>    -9.9402     2.3336    10.3886 </r>
       <r>    -9.8336     1.2292    10.5197 </r>
       <r>    -9.7270     0.9363    10.6195 </r>
       <r>    -9.6204     1.8314    10.8147 </r>
       <r>    -9.5138     1.9223    11.0196 </r>
       <r>    -9.4072     2.1074    11.2442 </r>
       <r>    -9.3006     2.0313    11.4607 </r>
       <r>    -9.1940     1.7809    11.6505 </r>
       <r>    -9.0874     1.3182    11.7910 </r>
       <r>    -8.9809     1.0064    11.8983 </r>
       <r>    -8.8743     2.0386    12.1156 </r>
       <r>    -8.7677     2.6037    12.3931 </r>
       <r>    -8.6611     1.8826    12.5938 </r>
       <r>    -8.5545     0.9763    12.6979 </r>
       <r>    -8.4479     1.4661    12.8541 </r>
       <r>    -8.3413     2.6545    13.1371 </r>
       <r>    -8.2347     2.2805    13.3802 </r>
       <r>    -8.1281     1.5312    13.5434 </r>
       <r>    -8.0215     2.1454    13.7720 </r>
       <r>    -7.9149     3.2039    14.1136 </r>
       <r>    -7.8084     3.1612    14.4505 </r>
       <r>    -7.7018     2.4804    14.7149 </r>
       <r>    -7.5952     1.2853    14.8519 </r>
       <r>    -7.4886     1.0785    14.9669 </r>
       <r>    -7.3820     2.3901    15.2216 </r>
       <r>    -7.2754     2.3170    15.4686 </r>
       <r>    -7.1688     1.5146    15.6300 </r>
       <r>    -7.0622     1.3993    15.7792 </r>
       <r>    -6.9556     2.1635    16.0098 </r>
       <r>    -6.8490     2.3450    16.2597 </r>
       <r>    -6.7424     2.5846    16.5352 </r>
       <r>    -6.6359     2.6378    16.8164 </r>
       <r>    -6.5293     2.3292    17.0647 </r>
       <r>    -6.4227     2.6353    17.3456 </r>
       <r>    -6.3161     2.2145    17.5816 </r>
       <r>    -6.2095     2.4208    17.8397 </r>
       <r>    -6.1029     3.3663    18.1985 </r>
       <r>    -5.9963     2.9386    18.5117 </r>
       <r>    -5.8897     4.0064    18.9388 </r>
       <r>    -5.7831     3.6498    19.3278 </r>
       <r>    -5.6765     2.0929    19.5509 </r>
       <r>    -5.5699     2.3909    19.8057 </r>
       <r>    -5.4634     4.2652    20.2604 </r>
       <r>    -5.3568     4.6406    20.7550 </r>
       <r>    -5.2502     2.8819    21.0622 </r>
       <r>    -5.1436     2.0790    21.2838 </r>
       <r>    -5.0370     1.3597    21.4287 </r>
       <r>    -4.9304     1.4354    21.5817 </r>
       <r>    -4.8238     1.8052    21.7741 </r>
       <r>    -4.7172     1.3474    21.9178 </r>
       <r>    -4.6106     1.0050    22.0249 </r>
       <r>    -4.5040     1.2193    22.1548 </r>
       <r>    -4.3975     2.2209    22.3916 </r>
       <r>    -4.2909     2.8763    22.6982 </r>
       <r>    -4.1843     2.4338    22.9576 </r>
       <r>    -4.0777     2.3509    23.2082 </r>
       <r>    -3.9711     2.7916    23.5057 </r>
       <r>    -3.8645     2.9861    23.8240 </r>
       <r>    -3.7579     2.3323    24.0726 </r>
       <r>    -3.6513     2.3477    24.3229 </r>
       <r>    -3.5447     2.6112    24.6012 </r>
       <r>    -3.4381     2.0126    24.8157 </r>
       <r>    -3.3315     1.7685    25.0042 </r>
       <r>    -3.2250     1.6604    25.1812 </r>
       <r>    -3.1184     2.2098    25.4168 </r>
       <r>    -3.0118     2.3303    25.6652 </r>
       <r>    -2.9052     1.5098    25.8261 </r>
       <r>    -2.7986     1.5184    25.9879 </r>
       <r>    -2.6920     0.9720    26.0915 </r>
       <r>    -2.5854     1.3174    26.2320 </r>
       <r>    -2.4788     2.5251    26.5011 </r>
       <r>    -2.3722     1.8216    26.6953 </r>
       <r>    -2.2656     0.5063    26.7493 </r>
       <r>    -2.1590     0.6049    26.8137 </r>
       <r>    -2.0525     1.3011    26.9524 </r>
       <r>    -1.9459     1.3091    27.0920 </r>
       <r>    -1.8393     1.4488    27.2464 </r>
       <r>    -1.7327     1.4845    27.4046 </r>
       <r>    -1.6261     1.2375    27.5365 </r>
       <r>    -1.5195     0.9261    27.6352 </r>
       <r>    -1.4129     0.5598    27.6949 </r>
       <r>    -1.3063     0.5223    27.7506 </r>
       <r>    -1.1997     0.5180    27.8058 </r>
       <r>    -1.0931     0.5058    27.8597 </r>
       <r>    -0.9865     0.7429    27.9389 </r>
       <r>    -0.8800     0.3646    27.9778 </r>
       <r>    -0.7734     0.0711    27.9853 </r>
       <r>    -0.6668     0.0071    27.9861 </r>
       <r>    -0.5602     0.0003    27.9861 </r>
       <r>    -0.4536     0.0102    27.9872 </r>
       <r>    -0.3470     0.0940    27.9972 </r>
       <r>    -0.2404     0.1287    28.0110 </r>
       <r>    -0.1338     0.0268    28.0138 </r>
       <r>    -0.0272     0.0008    28.0139 </r>
       <r>     0.0794     0.0000    28.0139 </r>
       <r>     0.1859     0.0067    28.0146 </r>
       <r>     0.2925     0.1419    28.0297 </r>
       <r>     0.3991     0.4264    28.0752 </r>
       <r>     0.5057     0.2064    28.0972 </r>
       <r>     0.6123     0.1624    28.1145 </r>
       <r>     0.7189     0.4577    28.1633 </r>
       <r>     0.8255     0.7342    28.2415 </r>
       <r>     0.9321     1.4770    28.3990 </r>
       <r>     1.0387     3.2476    28.7451 </r>
       <r>     1.1453     2.3766    28.9985 </r>
       <r>     1.2519     0.6511    29.0679 </r>
       <r>     1.3584     0.4902    29.1201 </r>
       <r>     1.4650     1.0613    29.2332 </r>
       <r>     1.5716     1.7207    29.4166 </r>
       <r>     1.6782     2.4851    29.6815 </r>
       <r>     1.7848     1.8627    29.8801 </r>
       <r>     1.8914     0.8593    29.9717 </r>
       <r>     1.9980     0.9071    30.0684 </r>
       <r>     2.1046     1.2804    30.2048 </r>
       <r>     2.2112     0.9333    30.3043 </r>
       <r>     2.3178     1.1168    30.4233 </r>
       <r>     2.4244     0.8797    30.5171 </r>
       <r>     2.5309     1.3478    30.6608 </r>
       <r>     2.6375     1.4663    30.8171 </r>
       <r>     2.7441     0.8423    30.9069 </r>
       <r>     2.8507     0.5503    30.9655 </r>
       <r>     2.9573     1.1438    31.0874 </r>
       <r>     3.0639     1.5430    31.2519 </r>
       <r>     3.1705     1.2370    31.3838 </r>
       <r>     3.2771     1.2725    31.5194 </r>
       <r>     3.3837     1.2876    31.6566 </r>
       <r>     3.4903     1.4761    31.8140 </r>
       <r>     3.5969     2.3224    32.0615 </r>
       <r>     3.7034     3.0659    32.3883 </r>
       <r>     3.8100     3.1640    32.7256 </r>
       <r>     3.9166     2.7080    33.0142 </r>
       <r>     4.0232     3.1457    33.3495 </r>
       <r>     4.1298     3.3934    33.7112 </r>
       <r>     4.2364     3.0152    34.0326 </r>
       <r>     4.3430     3.1700    34.3705 </r>
       <r>     4.4496     2.8087    34.6699 </r>
       <r>     4.5562     2.5885    34.9458 </r>
       <r>     4.6628     2.7161    35.2353 </r>
       <r>     4.7694     3.5831    35.6172 </r>
       <r>     4.8759     3.2834    35.9672 </r>
       <r>     4.9825     2.5940    36.2437 </r>
       <r>     5.0891     3.2452    36.5896 </r>
       <r>     5.1957     3.2944    36.9408 </r>
       <r>     5.3023     2.9669    37.2570 </r>
       <r>     5.4089     2.9182    37.5681 </r>
       <r>     5.5155     3.0961    37.8981 </r>
       <r>     5.6221     3.3306    38.2531 </r>
       <r>     5.7287     2.2180    38.4895 </r>
       <r>     5.8353     2.8931    38.7979 </r>
       <r>     5.9418     3.0052    39.1182 </r>
       <r>     6.0484     2.6619    39.4019 </r>
       <r>     6.1550     1.9362    39.6083 </r>
       <r>     6.2616     2.3251    39.8561 </r>
       <r>     6.3682     2.8985    40.1651 </r>
       <r>     6.4748     3.1585    40.5018 </r>
       <r>     6.5814     3.1832    40.8411 </r>
       <r>     6.6880     3.3449    41.1976 </r>
       <r>     6.7946     3.8347    41.6063 </r>
       <r>     6.9012     3.1265    41.9396 </r>
       <r>     7.0078     3.2260    42.2834 </r>
       <r>     7.1143     3.7697    42.6853 </r>
       <r>     7.2209     3.0487    43.0102 </r>
       <r>     7.3275     2.4607    43.2725 </r>
       <r>     7.4341     2.5334    43.5426 </r>
       <r>     7.5407     3.3035    43.8947 </r>
       <r>     7.6473     3.2401    44.2400 </r>
       <r>     7.7539     3.9859    44.6649 </r>
       <r>     7.8605     4.1059    45.1026 </r>
       <r>     7.9671     2.9911    45.4214 </r>
       <r>     8.0737     4.0134    45.8492 </r>
       <r>     8.1803     4.6183    46.3414 </r>
       <r>     8.2868     4.5163    46.8228 </r>
       <r>     8.3934     4.9161    47.3468 </r>
       <r>     8.5000     3.1521    47.6828 </r>
       <r>     8.6066     1.5263    47.8455 </r>
       <r>     8.7132     0.6677    47.9167 </r>
       <r>     8.8198     0.4104    47.9604 </r>
       <r>     8.9264     0.3014    47.9926 </r>
       <r>     9.0330     0.0671    47.9997 </r>
       <r>     9.1396     0.0026    48.0000 </r>
       <r>     9.2462     0.0000    48.0000 </r>
       <r>     9.3528     0.0000    48.0000 </r>
       <r>     9.4593     0.0000    48.0000 </r>
       <r>     9.5659     0.0000    48.0000 </r>
       <r>     9.6725     0.0000    48.0000 </r>
       <r>     9.7791     0.0000    48.0000 </r>
       <r>     9.8857     0.0000    48.0000 </r>
       <r>     9.9923     0.0000    48.0000 </r>
       <r>    10.0989     0.0000    48.0000 </r>
       <r>    10.2055     0.0000    48.0000 </r>
       <r>    10.3121     0.0000    48.0000 </r>
      </set>
     </set>
    </array>
   </total>
  </dos>
 </calculation>
 <structure name="finalpos" >
  <crystal>
   <varray name="basis" >
    <v>       4.20282128       2.42650000       0.00000000 </v>
    <v>      -4.20282128       2.42650000       0.00000000 </v>
    <v>       0.00000000       0.00000000      15.00000000 </v>
   </varray>
   <i name="volume">    305.94437541 </i>
   <varray name="rec_basis" >
    <v>       0.11896770       0.20605811       0.00000000 </v>
    <v>      -0.11896770       0.20605811       0.00000000 </v>
    <v>       0.00000000       0.00000000       0.06666667 </v>
   </varray>
  </crystal>
  <varray name="positions" >
   <v>       0.04626837      -0.03502695       0.09997462 </v>
   <v>       0.40145588      -0.03480252       0.10370438 </v>
   <v>       0.04615043       0.31977065       0.10380313 </v>
   <v>       0.69162974       0.60990567       0.10378658 </v>
   <v>       0.37007775       0.28839550       0.10317460 </v>
   <v>       0.72306969      -0.03487079       0.10333047 </v>
   <v>       0.04610425       0.64120259       0.10322603 </v>
   <v>       0.07422053       0.42199310       0.33632419 </v>
   <v>       0.24085078       0.25537194       0.33641540 </v>
   <v>       0.07419730       0.92200281       0.33633289 </v>
   <v>       0.24090499       0.75535101       0.33635367 </v>
   <v>       0.57417287       0.42201006       0.33635394 </v>
   <v>       0.74083397       0.25533967       0.33625263 </v>
   <v>       0.57412462       0.92194074       0.33640380 </v>
   <v>       0.74078838       0.75529497       0.33634300 </v>
  </varray>
 </structure>
</modeling>
