   2   2   1  16
  0.3953030E+02  0.2467000E-09  0.2467000E-09  0.1500000E-08  0.5000000E-15
  1.000000000000000E-004
  CAR 
 BS_HSE06                                
     44.85411678    -27.68590228  301     -2.32782941      1.00000000
    -27.686  0.0000E+00  0.0000E+00
    -27.444  0.0000E+00  0.0000E+00
    -27.202  0.0000E+00  0.0000E+00
    -26.961  0.0000E+00  0.0000E+00
    -26.719  0.0000E+00  0.0000E+00
    -26.477  0.0000E+00  0.0000E+00
    -26.235  0.0000E+00  0.0000E+00
    -25.993  0.0000E+00  0.0000E+00
    -25.752  0.0000E+00  0.0000E+00
    -25.510  0.0000E+00  0.0000E+00
    -25.268  0.0000E+00  0.0000E+00
    -25.026  0.0000E+00  0.0000E+00
    -24.784  0.1534E-09  0.3709E-10
    -24.543  0.4306E-03  0.1041E-03
    -24.301  0.1062E+00  0.2578E-01
    -24.059  0.2783E+00  0.9308E-01
    -23.817  0.2804E+00  0.1609E+00
    -23.575  0.2797E+00  0.2285E+00
    -23.334  0.2836E+00  0.2971E+00
    -23.092  0.2934E+00  0.3680E+00
    -22.850  0.2984E+00  0.4402E+00
    -22.608  0.2662E+00  0.5046E+00
    -22.366  0.2810E+00  0.5725E+00
    -22.125  0.3205E+00  0.6500E+00
    -21.883  0.2454E+00  0.7093E+00
    -21.641  0.3255E+00  0.7880E+00
    -21.399  0.2754E+00  0.8546E+00
    -21.157  0.3023E+00  0.9277E+00
    -20.916  0.3035E+00  0.1001E+01
    -20.674  0.2918E+00  0.1072E+01
    -20.432  0.2996E+00  0.1144E+01
    -20.190  0.3020E+00  0.1217E+01
    -19.948  0.2818E+00  0.1285E+01
    -19.707  0.3479E+00  0.1369E+01
    -19.465  0.2656E+00  0.1434E+01
    -19.223  0.3983E+00  0.1530E+01
    -18.981  0.2652E+00  0.1594E+01
    -18.739  0.4766E+00  0.1709E+01
    -18.497  0.3417E+00  0.1792E+01
    -18.256  0.3009E+00  0.1865E+01
    -18.014  0.1440E+00  0.1899E+01
    -17.772  0.1783E+00  0.1943E+01
    -17.530  0.9674E-01  0.1966E+01
    -17.288  0.2276E+00  0.2021E+01
    -17.047  0.3046E+00  0.2095E+01
    -16.805  0.2924E+00  0.2165E+01
    -16.563  0.3847E+00  0.2258E+01
    -16.321  0.4336E+00  0.2363E+01
    -16.079  0.3372E+00  0.2445E+01
    -15.838  0.3304E+00  0.2525E+01
    -15.596  0.3046E+00  0.2598E+01
    -15.354  0.2766E+00  0.2665E+01
    -15.112  0.3045E+00  0.2739E+01
    -14.870  0.2163E+00  0.2791E+01
    -14.629  0.2714E+00  0.2857E+01
    -14.387  0.2439E+00  0.2916E+01
    -14.145  0.3480E+00  0.3000E+01
    -13.903  0.3050E+00  0.3074E+01
    -13.661  0.3509E+00  0.3159E+01
    -13.420  0.3322E+00  0.3239E+01
    -13.178  0.3398E+00  0.3321E+01
    -12.936  0.3316E+00  0.3401E+01
    -12.694  0.3896E+00  0.3495E+01
    -12.452  0.3445E+00  0.3579E+01
    -12.211  0.3814E+00  0.3671E+01
    -11.969  0.3771E+00  0.3762E+01
    -11.727  0.3575E+00  0.3849E+01
    -11.485  0.4424E+00  0.3956E+01
    -11.243  0.4257E+00  0.4058E+01
    -11.002  0.5896E+00  0.4201E+01
    -10.760  0.7053E+00  0.4372E+01
    -10.518  0.7182E+00  0.4545E+01
    -10.276  0.8383E+00  0.4748E+01
    -10.034  0.9030E+00  0.4966E+01
     -9.793  0.9537E+00  0.5197E+01
     -9.551  0.8130E+00  0.5393E+01
     -9.309  0.7245E+00  0.5569E+01
     -9.067  0.6267E+00  0.5720E+01
     -8.825  0.6829E+00  0.5885E+01
     -8.584  0.5489E+00  0.6018E+01
     -8.342  0.6565E+00  0.6177E+01
     -8.100  0.4353E+00  0.6282E+01
     -7.858  0.6592E+00  0.6441E+01
     -7.616  0.4322E+00  0.6546E+01
     -7.375  0.5781E+00  0.6686E+01
     -7.133  0.4388E+00  0.6792E+01
     -6.891  0.5819E+00  0.6933E+01
     -6.649  0.4082E+00  0.7031E+01
     -6.407  0.5184E+00  0.7157E+01
     -6.166  0.3451E+00  0.7240E+01
     -5.924  0.2418E+00  0.7298E+01
     -5.682  0.4128E+00  0.7398E+01
     -5.440  0.2614E+00  0.7461E+01
     -5.198  0.5652E+00  0.7598E+01
     -4.957  0.3279E+00  0.7677E+01
     -4.715  0.3022E+00  0.7751E+01
     -4.473  0.2548E+00  0.7812E+01
     -4.231  0.1295E+00  0.7843E+01
     -3.989  0.2404E+00  0.7902E+01
     -3.748  0.6728E-01  0.7918E+01
     -3.506  0.1162E+00  0.7946E+01
     -3.264  0.9649E-01  0.7969E+01
     -3.022  0.2849E-01  0.7976E+01
     -2.780  0.8152E-01  0.7996E+01
     -2.539  0.1877E-02  0.7996E+01
     -2.297  0.2029E-01  0.8001E+01
     -2.055  0.1005E-01  0.8004E+01
     -1.813  0.1391E-01  0.8007E+01
     -1.571  0.7742E-01  0.8026E+01
     -1.330  0.4570E-01  0.8037E+01
     -1.088  0.1409E+00  0.8071E+01
     -0.846  0.1015E+00  0.8095E+01
     -0.604  0.2101E+00  0.8146E+01
     -0.362  0.2824E+00  0.8215E+01
     -0.121  0.5191E+00  0.8340E+01
      0.121  0.4655E+00  0.8453E+01
      0.363  0.2478E+00  0.8513E+01
      0.605  0.3086E+00  0.8587E+01
      0.847  0.3076E+00  0.8661E+01
      1.088  0.1694E+00  0.8702E+01
      1.330  0.4143E+00  0.8803E+01
      1.572  0.4574E+00  0.8913E+01
      1.814  0.3788E+00  0.9005E+01
      2.056  0.5446E+00  0.9137E+01
      2.297  0.5615E+00  0.9272E+01
      2.539  0.6641E+00  0.9433E+01
      2.781  0.8540E+00  0.9639E+01
      3.023  0.8541E+00  0.9846E+01
      3.265  0.7911E+00  0.1004E+02
      3.506  0.9134E+00  0.1026E+02
      3.748  0.7933E+00  0.1045E+02
      3.990  0.8604E+00  0.1066E+02
      4.232  0.7605E+00  0.1084E+02
      4.474  0.1000E+01  0.1108E+02
      4.715  0.9201E+00  0.1131E+02
      4.957  0.9180E+00  0.1153E+02
      5.199  0.1097E+01  0.1179E+02
      5.441  0.1247E+01  0.1209E+02
      5.683  0.1219E+01  0.1239E+02
      5.924  0.1660E+01  0.1279E+02
      6.166  0.1540E+01  0.1316E+02
      6.408  0.1839E+01  0.1361E+02
      6.650  0.1812E+01  0.1405E+02
      6.892  0.1822E+01  0.1449E+02
      7.133  0.2612E+01  0.1512E+02
      7.375  0.1831E+01  0.1556E+02
      7.617  0.1853E+01  0.1601E+02
      7.859  0.1811E+01  0.1645E+02
      8.101  0.1491E+01  0.1681E+02
      8.342  0.1747E+01  0.1723E+02
      8.584  0.1961E+01  0.1770E+02
      8.826  0.1759E+01  0.1813E+02
      9.068  0.2073E+01  0.1863E+02
      9.310  0.2378E+01  0.1921E+02
      9.551  0.1577E+01  0.1959E+02
      9.793  0.1891E+01  0.2004E+02
     10.035  0.2382E+01  0.2062E+02
     10.277  0.1855E+01  0.2107E+02
     10.519  0.1787E+01  0.2150E+02
     10.760  0.2534E+01  0.2211E+02
     11.002  0.2169E+01  0.2264E+02
     11.244  0.1596E+01  0.2302E+02
     11.486  0.2133E+01  0.2354E+02
     11.728  0.2264E+01  0.2409E+02
     11.969  0.2896E+01  0.2479E+02
     12.211  0.2487E+01  0.2539E+02
     12.453  0.2315E+01  0.2595E+02
     12.695  0.1673E+01  0.2635E+02
     12.937  0.1839E+01  0.2680E+02
     13.178  0.1407E+01  0.2714E+02
     13.420  0.2061E+01  0.2764E+02
     13.662  0.1327E+01  0.2796E+02
     13.904  0.1956E+01  0.2843E+02
     14.146  0.2098E+01  0.2894E+02
     14.387  0.2130E+01  0.2945E+02
     14.629  0.2379E+01  0.3003E+02
     14.871  0.2742E+01  0.3069E+02
     15.113  0.2358E+01  0.3126E+02
     15.355  0.2814E+01  0.3194E+02
     15.596  0.2120E+01  0.3245E+02
     15.838  0.2657E+01  0.3310E+02
     16.080  0.1660E+01  0.3350E+02
     16.322  0.1758E+01  0.3392E+02
     16.564  0.2683E+01  0.3457E+02
     16.805  0.2578E+01  0.3519E+02
     17.047  0.1931E+01  0.3566E+02
     17.289  0.2000E+01  0.3615E+02
     17.531  0.2621E+01  0.3678E+02
     17.773  0.2689E+01  0.3743E+02
     18.014  0.2628E+01  0.3806E+02
     18.256  0.1947E+01  0.3854E+02
     18.498  0.2537E+01  0.3915E+02
     18.740  0.1607E+01  0.3954E+02
     18.982  0.1990E+01  0.4002E+02
     19.223  0.2932E+01  0.4073E+02
     19.465  0.2809E+01  0.4141E+02
     19.707  0.2358E+01  0.4198E+02
     19.949  0.2281E+01  0.4253E+02
     20.191  0.2684E+01  0.4318E+02
     20.432  0.2919E+01  0.4388E+02
     20.674  0.3383E+01  0.4470E+02
     20.916  0.2024E+01  0.4519E+02
     21.158  0.2436E+01  0.4578E+02
     21.400  0.2480E+01  0.4638E+02
     21.641  0.2083E+01  0.4688E+02
     21.883  0.2926E+01  0.4759E+02
     22.125  0.3127E+01  0.4835E+02
     22.367  0.3007E+01  0.4907E+02
     22.609  0.2995E+01  0.4980E+02
     22.850  0.2912E+01  0.5050E+02
     23.092  0.3126E+01  0.5126E+02
     23.334  0.2786E+01  0.5193E+02
     23.576  0.2481E+01  0.5253E+02
     23.818  0.2854E+01  0.5322E+02
     24.059  0.2674E+01  0.5387E+02
     24.301  0.3139E+01  0.5463E+02
     24.543  0.3440E+01  0.5546E+02
     24.785  0.3595E+01  0.5633E+02
     25.027  0.2946E+01  0.5704E+02
     25.268  0.2535E+01  0.5765E+02
     25.510  0.3334E+01  0.5846E+02
     25.752  0.3605E+01  0.5933E+02
     25.994  0.2632E+01  0.5997E+02
     26.236  0.2704E+01  0.6062E+02
     26.477  0.2600E+01  0.6125E+02
     26.719  0.2419E+01  0.6184E+02
     26.961  0.2370E+01  0.6241E+02
     27.203  0.2175E+01  0.6293E+02
     27.445  0.2867E+01  0.6363E+02
     27.686  0.3573E+01  0.6449E+02
     27.928  0.3067E+01  0.6523E+02
     28.170  0.2554E+01  0.6585E+02
     28.412  0.2670E+01  0.6650E+02
     28.654  0.2822E+01  0.6718E+02
     28.895  0.3031E+01  0.6791E+02
     29.137  0.2420E+01  0.6850E+02
     29.379  0.2552E+01  0.6911E+02
     29.621  0.3505E+01  0.6996E+02
     29.863  0.2599E+01  0.7059E+02
     30.104  0.2719E+01  0.7125E+02
     30.346  0.2758E+01  0.7191E+02
     30.588  0.2854E+01  0.7260E+02
     30.830  0.2974E+01  0.7332E+02
     31.072  0.3234E+01  0.7411E+02
     31.313  0.3120E+01  0.7486E+02
     31.555  0.2904E+01  0.7556E+02
     31.797  0.3209E+01  0.7634E+02
     32.039  0.2924E+01  0.7704E+02
     32.281  0.2467E+01  0.7764E+02
     32.522  0.2917E+01  0.7835E+02
     32.764  0.4005E+01  0.7932E+02
     33.006  0.3816E+01  0.8024E+02
     33.248  0.3468E+01  0.8108E+02
     33.490  0.3313E+01  0.8188E+02
     33.731  0.2534E+01  0.8249E+02
     33.973  0.2697E+01  0.8314E+02
     34.215  0.2875E+01  0.8384E+02
     34.457  0.2718E+01  0.8450E+02
     34.699  0.2324E+01  0.8506E+02
     34.940  0.3090E+01  0.8580E+02
     35.182  0.2662E+01  0.8645E+02
     35.424  0.3423E+01  0.8728E+02
     35.666  0.3599E+01  0.8815E+02
     35.908  0.3165E+01  0.8891E+02
     36.149  0.2978E+01  0.8963E+02
     36.391  0.3121E+01  0.9039E+02
     36.633  0.3106E+01  0.9114E+02
     36.875  0.2746E+01  0.9180E+02
     37.117  0.2744E+01  0.9246E+02
     37.358  0.2161E+01  0.9299E+02
     37.600  0.2464E+01  0.9358E+02
     37.842  0.1836E+01  0.9403E+02
     38.084  0.1442E+01  0.9438E+02
     38.326  0.1292E+01  0.9469E+02
     38.567  0.1209E+01  0.9498E+02
     38.809  0.9982E+00  0.9522E+02
     39.051  0.6531E+00  0.9538E+02
     39.293  0.5765E+00  0.9552E+02
     39.535  0.5560E+00  0.9565E+02
     39.776  0.3608E+00  0.9574E+02
     40.018  0.1330E+00  0.9577E+02
     40.260  0.1869E+00  0.9582E+02
     40.502  0.1310E+00  0.9585E+02
     40.744  0.2496E+00  0.9591E+02
     40.985  0.1495E+00  0.9595E+02
     41.227  0.5597E-01  0.9596E+02
     41.469  0.4257E-01  0.9597E+02
     41.711  0.1227E+00  0.9600E+02
     41.953  0.1749E-02  0.9600E+02
     42.194  0.1160E-08  0.9600E+02
     42.436  0.0000E+00  0.9600E+02
     42.678  0.0000E+00  0.9600E+02
     42.920  0.0000E+00  0.9600E+02
     43.162  0.0000E+00  0.9600E+02
     43.403  0.0000E+00  0.9600E+02
     43.645  0.0000E+00  0.9600E+02
     43.887  0.0000E+00  0.9600E+02
     44.129  0.0000E+00  0.9600E+02
     44.371  0.0000E+00  0.9600E+02
     44.612  0.0000E+00  0.9600E+02
     44.854  0.0000E+00  0.9600E+02
     44.85411678    -27.68590228  301     -2.32782941      1.00000000
    -27.686  0.0000E+00  0.0000E+00  0.0000E+00  0.0000E+00  0.0000E+00  0.0000E+00  0.0000E+00  0.0000E+00  0.0000E+00
    -27.444  0.0000E+00  0.0000E+00  0.0000E+00  0.0000E+00  0.0000E+00  0.0000E+00  0.0000E+00  0.0000E+00  0.0000E+00
    -27.202  0.0000E+00  0.0000E+00  0.0000E+00  0.0000E+00  0.0000E+00  0.0000E+00  0.0000E+00  0.0000E+00  0.0000E+00
    -26.961  0.0000E+00  0.0000E+00  0.0000E+00  0.0000E+00  0.0000E+00  0.0000E+00  0.0000E+00  0.0000E+00  0.0000E+00
    -26.719  0.0000E+00  0.0000E+00  0.0000E+00  0.0000E+00  0.0000E+00  0.0000E+00  0.0000E+00  0.0000E+00  0.0000E+00
    -26.477  0.0000E+00  0.0000E+00  0.0000E+00  0.0000E+00  0.0000E+00  0.0000E+00  0.0000E+00  0.0000E+00  0.0000E+00
    -26.235  0.0000E+00  0.0000E+00  0.0000E+00  0.0000E+00  0.0000E+00  0.0000E+00  0.0000E+00  0.0000E+00  0.0000E+00
    -25.993  0.0000E+00  0.0000E+00  0.0000E+00  0.0000E+00  0.0000E+00  0.0000E+00  0.0000E+00  0.0000E+00  0.0000E+00
    -25.752  0.0000E+00  0.0000E+00  0.0000E+00  0.0000E+00  0.0000E+00  0.0000E+00  0.0000E+00  0.0000E+00  0.0000E+00
    -25.510  0.0000E+00  0.0000E+00  0.0000E+00  0.0000E+00  0.0000E+00  0.0000E+00  0.0000E+00  0.0000E+00  0.0000E+00
    -25.268  0.0000E+00  0.0000E+00  0.0000E+00  0.0000E+00  0.0000E+00  0.0000E+00  0.0000E+00  0.0000E+00  0.0000E+00
    -25.026  0.0000E+00  0.0000E+00  0.0000E+00  0.0000E+00  0.0000E+00  0.0000E+00  0.0000E+00  0.0000E+00  0.0000E+00
    -24.784  0.4979E-10  0.1643E-13  0.4245E-24  0.1643E-13  0.0000E+00  0.0000E+00  0.0000E+00  0.0000E+00  0.0000E+00
    -24.543  0.1397E-03  0.9511E-07  0.1154E-17  0.9511E-07  0.0000E+00  0.0000E+00  0.0000E+00  0.0000E+00  0.0000E+00
    -24.301  0.3438E-01  0.7006E-04  0.2476E-15  0.7006E-04  0.0000E+00  0.0000E+00  0.0000E+00  0.0000E+00  0.0000E+00
    -24.059  0.8953E-01  0.5681E-03  0.5133E-15  0.5681E-03  0.0000E+00  0.0000E+00  0.0000E+00  0.0000E+00  0.0000E+00
    -23.817  0.8925E-01  0.1206E-02  0.6943E-15  0.1206E-02  0.0000E+00  0.0000E+00  0.0000E+00  0.0000E+00  0.0000E+00
    -23.575  0.8805E-01  0.1842E-02  0.5506E-15  0.1842E-02  0.0000E+00  0.0000E+00  0.0000E+00  0.0000E+00  0.0000E+00
    -23.334  0.8835E-01  0.2506E-02  0.7261E-15  0.2506E-02  0.0000E+00  0.0000E+00  0.0000E+00  0.0000E+00  0.0000E+00
    -23.092  0.9037E-01  0.3269E-02  0.9524E-15  0.3269E-02  0.0000E+00  0.0000E+00  0.0000E+00  0.0000E+00  0.0000E+00
    -22.850  0.9083E-01  0.4048E-02  0.5997E-15  0.4048E-02  0.0000E+00  0.0000E+00  0.0000E+00  0.0000E+00  0.0000E+00
    -22.608  0.8016E-01  0.4199E-02  0.3765E-15  0.4199E-02  0.0000E+00  0.0000E+00  0.0000E+00  0.0000E+00  0.0000E+00
    -22.366  0.8383E-01  0.4958E-02  0.5484E-15  0.4958E-02  0.0000E+00  0.0000E+00  0.0000E+00  0.0000E+00  0.0000E+00
    -22.125  0.9444E-01  0.6469E-02  0.7471E-15  0.6469E-02  0.0000E+00  0.0000E+00  0.0000E+00  0.0000E+00  0.0000E+00
    -21.883  0.7156E-01  0.5471E-02  0.8120E-15  0.5471E-02  0.0000E+00  0.0000E+00  0.0000E+00  0.0000E+00  0.0000E+00
    -21.641  0.9399E-01  0.7887E-02  0.1323E-14  0.7887E-02  0.0000E+00  0.0000E+00  0.0000E+00  0.0000E+00  0.0000E+00
    -21.399  0.7855E-01  0.7366E-02  0.5732E-15  0.7366E-02  0.0000E+00  0.0000E+00  0.0000E+00  0.0000E+00  0.0000E+00
    -21.157  0.8553E-01  0.8569E-02  0.5948E-15  0.8569E-02  0.0000E+00  0.0000E+00  0.0000E+00  0.0000E+00  0.0000E+00
    -20.916  0.8481E-01  0.9387E-02  0.7597E-15  0.9387E-02  0.0000E+00  0.0000E+00  0.0000E+00  0.0000E+00  0.0000E+00
    -20.674  0.8098E-01  0.9453E-02  0.5406E-15  0.9453E-02  0.0000E+00  0.0000E+00  0.0000E+00  0.0000E+00  0.0000E+00
    -20.432  0.8214E-01  0.1045E-01  0.9750E-15  0.1045E-01  0.0000E+00  0.0000E+00  0.0000E+00  0.0000E+00  0.0000E+00
    -20.190  0.8237E-01  0.1091E-01  0.2056E-14  0.1091E-01  0.0000E+00  0.0000E+00  0.0000E+00  0.0000E+00  0.0000E+00
    -19.948  0.7616E-01  0.1079E-01  0.1180E-14  0.1079E-01  0.0000E+00  0.0000E+00  0.0000E+00  0.0000E+00  0.0000E+00
    -19.707  0.9359E-01  0.1376E-01  0.2219E-14  0.1376E-01  0.0000E+00  0.0000E+00  0.0000E+00  0.0000E+00  0.0000E+00
    -19.465  0.7138E-01  0.1084E-01  0.1709E-14  0.1084E-01  0.0000E+00  0.0000E+00  0.0000E+00  0.0000E+00  0.0000E+00
    -19.223  0.1063E+00  0.1689E-01  0.2827E-14  0.1689E-01  0.0000E+00  0.0000E+00  0.0000E+00  0.0000E+00  0.0000E+00
    -18.981  0.7220E-01  0.1097E-01  0.4132E-14  0.1097E-01  0.0000E+00  0.0000E+00  0.0000E+00  0.0000E+00  0.0000E+00
    -18.739  0.1297E+00  0.2031E-01  0.2325E-14  0.2031E-01  0.0000E+00  0.0000E+00  0.0000E+00  0.0000E+00  0.0000E+00
    -18.497  0.9657E-01  0.1345E-01  0.2069E-14  0.1345E-01  0.0000E+00  0.0000E+00  0.0000E+00  0.0000E+00  0.0000E+00
    -18.256  0.8074E-01  0.1400E-01  0.1648E-14  0.1400E-01  0.0000E+00  0.0000E+00  0.0000E+00  0.0000E+00  0.0000E+00
    -18.014  0.3892E-01  0.6639E-02  0.5297E-15  0.6639E-02  0.0000E+00  0.0000E+00  0.0000E+00  0.0000E+00  0.0000E+00
    -17.772  0.4736E-01  0.8919E-02  0.1228E-14  0.8919E-02  0.0000E+00  0.0000E+00  0.0000E+00  0.0000E+00  0.0000E+00
    -17.530  0.2474E-01  0.5232E-02  0.5265E-15  0.5232E-02  0.0000E+00  0.0000E+00  0.0000E+00  0.0000E+00  0.0000E+00
    -17.288  0.4240E-01  0.1848E-01  0.1249E-14  0.1848E-01  0.0000E+00  0.0000E+00  0.0000E+00  0.0000E+00  0.0000E+00
    -17.047  0.5134E-01  0.2690E-01  0.2842E-14  0.2690E-01  0.0000E+00  0.0000E+00  0.0000E+00  0.0000E+00  0.0000E+00
    -16.805  0.4895E-01  0.2629E-01  0.2063E-14  0.2629E-01  0.0000E+00  0.0000E+00  0.0000E+00  0.0000E+00  0.0000E+00
    -16.563  0.6785E-01  0.3375E-01  0.2913E-14  0.3375E-01  0.0000E+00  0.0000E+00  0.0000E+00  0.0000E+00  0.0000E+00
    -16.321  0.8086E-01  0.3694E-01  0.1368E-14  0.3694E-01  0.0000E+00  0.0000E+00  0.0000E+00  0.0000E+00  0.0000E+00
    -16.079  0.6349E-01  0.2890E-01  0.9211E-15  0.2890E-01  0.0000E+00  0.0000E+00  0.0000E+00  0.0000E+00  0.0000E+00
    -15.838  0.5927E-01  0.2965E-01  0.8202E-15  0.2965E-01  0.0000E+00  0.0000E+00  0.0000E+00  0.0000E+00  0.0000E+00
    -15.596  0.5576E-01  0.2734E-01  0.5783E-15  0.2734E-01  0.0000E+00  0.0000E+00  0.0000E+00  0.0000E+00  0.0000E+00
    -15.354  0.4903E-01  0.2566E-01  0.6156E-15  0.2566E-01  0.0000E+00  0.0000E+00  0.0000E+00  0.0000E+00  0.0000E+00
    -15.112  0.5293E-01  0.2896E-01  0.4138E-15  0.2896E-01  0.0000E+00  0.0000E+00  0.0000E+00  0.0000E+00  0.0000E+00
    -14.870  0.3700E-01  0.2107E-01  0.4240E-15  0.2107E-01  0.0000E+00  0.0000E+00  0.0000E+00  0.0000E+00  0.0000E+00
    -14.629  0.4498E-01  0.2712E-01  0.8038E-15  0.2712E-01  0.0000E+00  0.0000E+00  0.0000E+00  0.0000E+00  0.0000E+00
    -14.387  0.3743E-01  0.2584E-01  0.9866E-15  0.2584E-01  0.0000E+00  0.0000E+00  0.0000E+00  0.0000E+00  0.0000E+00
    -14.145  0.4103E-01  0.4156E-01  0.1702E-14  0.4156E-01  0.0000E+00  0.0000E+00  0.0000E+00  0.0000E+00  0.0000E+00
    -13.903  0.3159E-01  0.3840E-01  0.8944E-15  0.3840E-01  0.0000E+00  0.0000E+00  0.0000E+00  0.0000E+00  0.0000E+00
    -13.661  0.3777E-01  0.4406E-01  0.6679E-15  0.4406E-01  0.0000E+00  0.0000E+00  0.0000E+00  0.0000E+00  0.0000E+00
    -13.420  0.3608E-01  0.4201E-01  0.1412E-14  0.4201E-01  0.0000E+00  0.0000E+00  0.0000E+00  0.0000E+00  0.0000E+00
    -13.178  0.2831E-01  0.4655E-01  0.8795E-15  0.4655E-01  0.0000E+00  0.0000E+00  0.0000E+00  0.0000E+00  0.0000E+00
    -12.936  0.3622E-01  0.4252E-01  0.2351E-14  0.4252E-01  0.0000E+00  0.0000E+00  0.0000E+00  0.0000E+00  0.0000E+00
    -12.694  0.2828E-01  0.5608E-01  0.1634E-14  0.5608E-01  0.0000E+00  0.0000E+00  0.0000E+00  0.0000E+00  0.0000E+00
    -12.452  0.3049E-01  0.4761E-01  0.2881E-14  0.4761E-01  0.0000E+00  0.0000E+00  0.0000E+00  0.0000E+00  0.0000E+00
    -12.211  0.2883E-01  0.5547E-01  0.6419E-14  0.5547E-01  0.0000E+00  0.0000E+00  0.0000E+00  0.0000E+00  0.0000E+00
    -11.969  0.2650E-01  0.5597E-01  0.5353E-14  0.5597E-01  0.0000E+00  0.0000E+00  0.0000E+00  0.0000E+00  0.0000E+00
    -11.727  0.2677E-01  0.5269E-01  0.2637E-14  0.5269E-01  0.0000E+00  0.0000E+00  0.0000E+00  0.0000E+00  0.0000E+00
    -11.485  0.2422E-01  0.6986E-01  0.5735E-07  0.6986E-01  0.0000E+00  0.0000E+00  0.0000E+00  0.0000E+00  0.0000E+00
    -11.243  0.2557E-01  0.6459E-01  0.2017E-02  0.6459E-01  0.0000E+00  0.0000E+00  0.0000E+00  0.0000E+00  0.0000E+00
    -11.002  0.1813E-01  0.6908E-01  0.3702E-01  0.6908E-01  0.0000E+00  0.0000E+00  0.0000E+00  0.0000E+00  0.0000E+00
    -10.760  0.2490E-01  0.7671E-01  0.4961E-01  0.7671E-01  0.0000E+00  0.0000E+00  0.0000E+00  0.0000E+00  0.0000E+00
    -10.518  0.1605E-01  0.8438E-01  0.4962E-01  0.8438E-01  0.0000E+00  0.0000E+00  0.0000E+00  0.0000E+00  0.0000E+00
    -10.276  0.2074E-01  0.1040E+00  0.5123E-01  0.1040E+00  0.0000E+00  0.0000E+00  0.0000E+00  0.0000E+00  0.0000E+00
    -10.034  0.1525E-01  0.1203E+00  0.5167E-01  0.1203E+00  0.0000E+00  0.0000E+00  0.0000E+00  0.0000E+00  0.0000E+00
     -9.793  0.1089E-01  0.1370E+00  0.4682E-01  0.1370E+00  0.0000E+00  0.0000E+00  0.0000E+00  0.0000E+00  0.0000E+00
     -9.551  0.1546E-01  0.1050E+00  0.5037E-01  0.1050E+00  0.0000E+00  0.0000E+00  0.0000E+00  0.0000E+00  0.0000E+00
     -9.309  0.6430E-02  0.8496E-01  0.5875E-01  0.8496E-01  0.0000E+00  0.0000E+00  0.0000E+00  0.0000E+00  0.0000E+00
     -9.067  0.1093E-01  0.7812E-01  0.4343E-01  0.7812E-01  0.0000E+00  0.0000E+00  0.0000E+00  0.0000E+00  0.0000E+00
     -8.825  0.7256E-02  0.7598E-01  0.6049E-01  0.7598E-01  0.0000E+00  0.0000E+00  0.0000E+00  0.0000E+00  0.0000E+00
     -8.584  0.4998E-02  0.6301E-01  0.4760E-01  0.6301E-01  0.0000E+00  0.0000E+00  0.0000E+00  0.0000E+00  0.0000E+00
     -8.342  0.7778E-02  0.7386E-01  0.5801E-01  0.7386E-01  0.0000E+00  0.0000E+00  0.0000E+00  0.0000E+00  0.0000E+00
     -8.100  0.3121E-02  0.4106E-01  0.4914E-01  0.4106E-01  0.0000E+00  0.0000E+00  0.0000E+00  0.0000E+00  0.0000E+00
     -7.858  0.5014E-02  0.7363E-01  0.6171E-01  0.7363E-01  0.0000E+00  0.0000E+00  0.0000E+00  0.0000E+00  0.0000E+00
     -7.616  0.2253E-02  0.4231E-01  0.4845E-01  0.4231E-01  0.0000E+00  0.0000E+00  0.0000E+00  0.0000E+00  0.0000E+00
     -7.375  0.3322E-02  0.5219E-01  0.7018E-01  0.5219E-01  0.0000E+00  0.0000E+00  0.0000E+00  0.0000E+00  0.0000E+00
     -7.133  0.1416E-02  0.4926E-01  0.4350E-01  0.4926E-01  0.0000E+00  0.0000E+00  0.0000E+00  0.0000E+00  0.0000E+00
     -6.891  0.1661E-02  0.4953E-01  0.7650E-01  0.4953E-01  0.0000E+00  0.0000E+00  0.0000E+00  0.0000E+00  0.0000E+00
     -6.649  0.6583E-03  0.4080E-01  0.4768E-01  0.4080E-01  0.0000E+00  0.0000E+00  0.0000E+00  0.0000E+00  0.0000E+00
     -6.407  0.3619E-03  0.4017E-01  0.7479E-01  0.4017E-01  0.0000E+00  0.0000E+00  0.0000E+00  0.0000E+00  0.0000E+00
     -6.166  0.3892E-04  0.1242E-01  0.6688E-01  0.1242E-01  0.0000E+00  0.0000E+00  0.0000E+00  0.0000E+00  0.0000E+00
     -5.924  0.6618E-08  0.2705E-04  0.5745E-01  0.2705E-04  0.0000E+00  0.0000E+00  0.0000E+00  0.0000E+00  0.0000E+00
     -5.682  0.5816E-14  0.5648E-11  0.9846E-01  0.5648E-11  0.0000E+00  0.0000E+00  0.0000E+00  0.0000E+00  0.0000E+00
     -5.440  0.3344E-14  0.2551E-14  0.6359E-01  0.2551E-14  0.0000E+00  0.0000E+00  0.0000E+00  0.0000E+00  0.0000E+00
     -5.198  0.5780E-14  0.6657E-14  0.1380E+00  0.6657E-14  0.0000E+00  0.0000E+00  0.0000E+00  0.0000E+00  0.0000E+00
     -4.957  0.3992E-14  0.7282E-14  0.8101E-01  0.7282E-14  0.0000E+00  0.0000E+00  0.0000E+00  0.0000E+00  0.0000E+00
     -4.715  0.1799E-14  0.3340E-14  0.7477E-01  0.3340E-14  0.0000E+00  0.0000E+00  0.0000E+00  0.0000E+00  0.0000E+00
     -4.473  0.1230E-14  0.1083E-14  0.6265E-01  0.1083E-14  0.0000E+00  0.0000E+00  0.0000E+00  0.0000E+00  0.0000E+00
     -4.231  0.5018E-15  0.7105E-16  0.3239E-01  0.7105E-16  0.0000E+00  0.0000E+00  0.0000E+00  0.0000E+00  0.0000E+00
     -3.989  0.1894E-14  0.6816E-15  0.5971E-01  0.6816E-15  0.0000E+00  0.0000E+00  0.0000E+00  0.0000E+00  0.0000E+00
     -3.748  0.1806E-14  0.2177E-15  0.1686E-01  0.2177E-15  0.0000E+00  0.0000E+00  0.0000E+00  0.0000E+00  0.0000E+00
     -3.506  0.2889E-14  0.5454E-15  0.2919E-01  0.5454E-15  0.0000E+00  0.0000E+00  0.0000E+00  0.0000E+00  0.0000E+00
     -3.264  0.2191E-14  0.1614E-14  0.2425E-01  0.1614E-14  0.0000E+00  0.0000E+00  0.0000E+00  0.0000E+00  0.0000E+00
     -3.022  0.1525E-14  0.6674E-15  0.7216E-02  0.6674E-15  0.0000E+00  0.0000E+00  0.0000E+00  0.0000E+00  0.0000E+00
     -2.780  0.4539E-14  0.1034E-14  0.2066E-01  0.1034E-14  0.0000E+00  0.0000E+00  0.0000E+00  0.0000E+00  0.0000E+00
     -2.539  0.1145E-15  0.2687E-16  0.4759E-03  0.2687E-16  0.0000E+00  0.0000E+00  0.0000E+00  0.0000E+00  0.0000E+00
     -2.297  0.5764E-14  0.1682E-14  0.5180E-02  0.1682E-14  0.0000E+00  0.0000E+00  0.0000E+00  0.0000E+00  0.0000E+00
     -2.055  0.2856E-14  0.8333E-15  0.2567E-02  0.8333E-15  0.0000E+00  0.0000E+00  0.0000E+00  0.0000E+00  0.0000E+00
     -1.813  0.1208E-14  0.6757E-15  0.3564E-02  0.6757E-15  0.0000E+00  0.0000E+00  0.0000E+00  0.0000E+00  0.0000E+00
     -1.571  0.6696E-14  0.3765E-14  0.1984E-01  0.3765E-14  0.0000E+00  0.0000E+00  0.0000E+00  0.0000E+00  0.0000E+00
     -1.330  0.2751E-14  0.2381E-14  0.1162E-01  0.2381E-14  0.0000E+00  0.0000E+00  0.0000E+00  0.0000E+00  0.0000E+00
     -1.088  0.1001E-13  0.6792E-14  0.3609E-01  0.6792E-14  0.0000E+00  0.0000E+00  0.0000E+00  0.0000E+00  0.0000E+00
     -0.846  0.3830E-14  0.1275E-14  0.2544E-01  0.1275E-14  0.0000E+00  0.0000E+00  0.0000E+00  0.0000E+00  0.0000E+00
     -0.604  0.3423E-14  0.2687E-14  0.5275E-01  0.2687E-14  0.0000E+00  0.0000E+00  0.0000E+00  0.0000E+00  0.0000E+00
     -0.362  0.3586E-14  0.3814E-14  0.6825E-01  0.3814E-14  0.0000E+00  0.0000E+00  0.0000E+00  0.0000E+00  0.0000E+00
     -0.121  0.6132E-14  0.5310E-14  0.1182E+00  0.5310E-14  0.0000E+00  0.0000E+00  0.0000E+00  0.0000E+00  0.0000E+00
      0.121  0.3663E-14  0.3577E-14  0.1110E+00  0.3577E-14  0.0000E+00  0.0000E+00  0.0000E+00  0.0000E+00  0.0000E+00
      0.363  0.1304E-14  0.2001E-14  0.5774E-01  0.2001E-14  0.0000E+00  0.0000E+00  0.0000E+00  0.0000E+00  0.0000E+00
      0.605  0.4057E-14  0.3533E-14  0.7466E-01  0.3533E-14  0.0000E+00  0.0000E+00  0.0000E+00  0.0000E+00  0.0000E+00
      0.847  0.8916E-10  0.1068E-12  0.7535E-01  0.1068E-12  0.0000E+00  0.0000E+00  0.0000E+00  0.0000E+00  0.0000E+00
      1.088  0.2129E-04  0.5773E-07  0.4080E-01  0.5773E-07  0.0000E+00  0.0000E+00  0.0000E+00  0.0000E+00  0.0000E+00
      1.330  0.1084E-02  0.9249E-05  0.7051E-01  0.9249E-05  0.0000E+00  0.0000E+00  0.0000E+00  0.0000E+00  0.0000E+00
      1.572  0.1799E-02  0.4538E-04  0.5851E-01  0.4538E-04  0.0000E+00  0.0000E+00  0.0000E+00  0.0000E+00  0.0000E+00
      1.814  0.1764E-02  0.8484E-04  0.3786E-01  0.8484E-04  0.0000E+00  0.0000E+00  0.0000E+00  0.0000E+00  0.0000E+00
      2.056  0.1691E-02  0.1212E-03  0.7339E-01  0.1212E-03  0.0000E+00  0.0000E+00  0.0000E+00  0.0000E+00  0.0000E+00
      2.297  0.1559E-02  0.1484E-03  0.3964E-01  0.1484E-03  0.0000E+00  0.0000E+00  0.0000E+00  0.0000E+00  0.0000E+00
      2.539  0.1634E-02  0.1794E-03  0.5144E-01  0.1794E-03  0.0000E+00  0.0000E+00  0.0000E+00  0.0000E+00  0.0000E+00
      2.781  0.2333E-02  0.2615E-03  0.5012E-01  0.2615E-03  0.0000E+00  0.0000E+00  0.0000E+00  0.0000E+00  0.0000E+00
      3.023  0.1961E-02  0.2654E-03  0.5599E-01  0.2654E-03  0.0000E+00  0.0000E+00  0.0000E+00  0.0000E+00  0.0000E+00
      3.265  0.2060E-02  0.3385E-03  0.3157E-01  0.3385E-03  0.0000E+00  0.0000E+00  0.0000E+00  0.0000E+00  0.0000E+00
      3.506  0.2097E-02  0.4199E-03  0.6496E-01  0.4199E-03  0.0000E+00  0.0000E+00  0.0000E+00  0.0000E+00  0.0000E+00
      3.748  0.1797E-02  0.4152E-03  0.4147E-01  0.4152E-03  0.0000E+00  0.0000E+00  0.0000E+00  0.0000E+00  0.0000E+00
      3.990  0.1992E-02  0.5535E-03  0.3925E-01  0.5535E-03  0.0000E+00  0.0000E+00  0.0000E+00  0.0000E+00  0.0000E+00
      4.232  0.1591E-02  0.5037E-03  0.4701E-01  0.5037E-03  0.0000E+00  0.0000E+00  0.0000E+00  0.0000E+00  0.0000E+00
      4.474  0.1828E-02  0.6549E-03  0.5405E-01  0.6549E-03  0.0000E+00  0.0000E+00  0.0000E+00  0.0000E+00  0.0000E+00
      4.715  0.1533E-02  0.6458E-03  0.3731E-01  0.6458E-03  0.0000E+00  0.0000E+00  0.0000E+00  0.0000E+00  0.0000E+00
      4.957  0.1521E-02  0.7398E-03  0.2747E-01  0.7398E-03  0.0000E+00  0.0000E+00  0.0000E+00  0.0000E+00  0.0000E+00
      5.199  0.1768E-02  0.9483E-03  0.6189E-01  0.9483E-03  0.0000E+00  0.0000E+00  0.0000E+00  0.0000E+00  0.0000E+00
      5.441  0.2369E-02  0.8323E-03  0.4105E-01  0.8323E-03  0.0000E+00  0.0000E+00  0.0000E+00  0.0000E+00  0.0000E+00
      5.683  0.3275E-02  0.1499E-02  0.4005E-01  0.1499E-02  0.0000E+00  0.0000E+00  0.0000E+00  0.0000E+00  0.0000E+00
      5.924  0.4208E-01  0.6819E-02  0.6507E-01  0.6819E-02  0.0000E+00  0.0000E+00  0.0000E+00  0.0000E+00  0.0000E+00
      6.166  0.7592E-01  0.1295E-01  0.3464E-01  0.1295E-01  0.0000E+00  0.0000E+00  0.0000E+00  0.0000E+00  0.0000E+00
      6.408  0.9465E-01  0.2135E-01  0.2542E-01  0.2135E-01  0.0000E+00  0.0000E+00  0.0000E+00  0.0000E+00  0.0000E+00
      6.650  0.7143E-01  0.2626E-01  0.6225E-01  0.2626E-01  0.0000E+00  0.0000E+00  0.0000E+00  0.0000E+00  0.0000E+00
      6.892  0.8830E-01  0.4460E-01  0.3430E-01  0.4460E-01  0.0000E+00  0.0000E+00  0.0000E+00  0.0000E+00  0.0000E+00
      7.133  0.7236E-01  0.1034E+00  0.4127E-01  0.1034E+00  0.0000E+00  0.0000E+00  0.0000E+00  0.0000E+00  0.0000E+00
      7.375  0.5303E-01  0.5819E-01  0.5808E-01  0.5819E-01  0.0000E+00  0.0000E+00  0.0000E+00  0.0000E+00  0.0000E+00
      7.617  0.6349E-01  0.4854E-01  0.3375E-01  0.4854E-01  0.0000E+00  0.0000E+00  0.0000E+00  0.0000E+00  0.0000E+00
      7.859  0.3560E-01  0.3419E-01  0.3660E-01  0.3419E-01  0.0000E+00  0.0000E+00  0.0000E+00  0.0000E+00  0.0000E+00
      8.101  0.2380E-01  0.3144E-01  0.5795E-01  0.3144E-01  0.0000E+00  0.0000E+00  0.0000E+00  0.0000E+00  0.0000E+00
      8.342  0.4964E-01  0.3304E-01  0.2801E-01  0.3304E-01  0.0000E+00  0.0000E+00  0.0000E+00  0.0000E+00  0.0000E+00
      8.584  0.3171E-01  0.4054E-01  0.4939E-01  0.4054E-01  0.0000E+00  0.0000E+00  0.0000E+00  0.0000E+00  0.0000E+00
      8.826  0.1024E-01  0.1821E-01  0.5518E-01  0.1821E-01  0.0000E+00  0.0000E+00  0.0000E+00  0.0000E+00  0.0000E+00
      9.068  0.3347E-01  0.3261E-01  0.3783E-01  0.3261E-01  0.0000E+00  0.0000E+00  0.0000E+00  0.0000E+00  0.0000E+00
      9.310  0.4038E-01  0.4428E-01  0.6446E-01  0.4428E-01  0.0000E+00  0.0000E+00  0.0000E+00  0.0000E+00  0.0000E+00
      9.551  0.9899E-02  0.1671E-01  0.3727E-01  0.1671E-01  0.0000E+00  0.0000E+00  0.0000E+00  0.0000E+00  0.0000E+00
      9.793  0.1438E-01  0.2114E-01  0.6126E-01  0.2114E-01  0.0000E+00  0.0000E+00  0.0000E+00  0.0000E+00  0.0000E+00
     10.035  0.5583E-01  0.5725E-01  0.3706E-01  0.5725E-01  0.0000E+00  0.0000E+00  0.0000E+00  0.0000E+00  0.0000E+00