PROCAR lm decomposed
# of k-points:  108         # of bands:   48         # of ions:    2

 k-point     1 :    0.00000000 0.00000000 0.00000000     weight = 0.00091827

band     1 # energy  -24.38862869 # occ.  2.00000000
 
ion      s     py     pz     px    dxy    dyz    dz2    dxz  x2-y2    tot
    1  0.325  0.000  0.000  0.000  0.000  0.000  0.000  0.000  0.000  0.325
    2  0.325  0.000  0.000  0.000  0.000  0.000  0.000  0.000  0.000  0.325
tot    0.650  0.000  0.000  0.000  0.000  0.000  0.000  0.000  0.000  0.650
 
band     2 # energy  -11.19327216 # occ.  2.00000000
 
ion      s     py     pz     px    dxy    dyz    dz2    dxz  x2-y2    tot
    1  0.000  0.000  0.214  0.000  0.000  0.000  0.000  0.000  0.000  0.214
    2  0.000  0.000  0.214  0.000  0.000  0.000  0.000  0.000  0.000  0.214
tot    0.000  0.000  0.428  0.000  0.000  0.000  0.000  0.000  0.000  0.428
 
band     3 # energy   -6.34150105 # occ.  2.00000000
 
ion      s     py     pz     px    dxy    dyz    dz2    dxz  x2-y2    tot
    1  0.000  0.000  0.000  0.410  0.000  0.000  0.000  0.000  0.000  0.410
    2  0.000  0.000  0.000  0.410  0.000  0.000  0.000  0.000  0.000  0.410
tot    0.000  0.000  0.000  0.820  0.000  0.000  0.000  0.000  0.000  0.820
 
band     4 # energy   -6.34144279 # occ.  2.00000000
 
ion      s     py     pz     px    dxy    dyz    dz2    dxz  x2-y2    tot
    1  0.000  0.410  0.000  0.000  0.000  0.000  0.000  0.000  0.000  0.410
    2  0.000  0.410  0.000  0.000  0.000  0.000  0.000  0.000  0.000  0.410
tot    0.000  0.820  0.000  0.000  0.000  0.000  0.000  0.000  0.000  0.820
 
band     5 # energy    1.18510484 # occ.  0.00000000
 
ion      s     py     pz     px    dxy    dyz    dz2    dxz  x2-y2    tot
    1  0.008  0.000  0.000  0.000  0.000  0.000  0.000  0.000  0.000  0.008
    2  0.008  0.000  0.000  0.000  0.000  0.000  0.000  0.000  0.000  0.008
tot    0.017  0.000  0.000  0.000  0.000  0.000  0.000  0.000  0.000  0.017
 
band     6 # energy    2.03868911 # occ.  0.00000000
 
ion      s     py     pz     px    dxy    dyz    dz2    dxz  x2-y2    tot
    1  0.000  0.000  0.011  0.000  0.000  0.000  0.000  0.000  0.000  0.011
    2  0.000  0.000  0.011  0.000  0.000  0.000  0.000  0.000  0.000  0.011
tot    0.000  0.000  0.022  0.000  0.000  0.000  0.000  0.000  0.000  0.022
 
band     7 # energy    2.51903760 # occ.  0.00000000
 
ion      s     py     pz     px    dxy    dyz    dz2    dxz  x2-y2    tot
    1  0.003  0.000  0.000  0.000  0.000  0.000  0.000  0.000  0.000  0.003
    2  0.003  0.000  0.000  0.000  0.000  0.000  0.000  0.000  0.000  0.003
tot    0.006  0.000  0.000  0.000  0.000  0.000  0.000  0.000  0.000  0.006
 
band     8 # energy    4.44399757 # occ.  0.00000000
 
ion      s     py     pz     px    dxy    dyz    dz2    dxz  x2-y2    tot
    1  0.000  0.000  0.014  0.000  0.000  0.000  0.000  0.000  0.000  0.014
    2  0.000  0.000  0.014  0.000  0.000  0.000  0.000  0.000  0.000  0.014
tot    0.000  0.000  0.029  0.000  0.000  0.000  0.000  0.000  0.000  0.029
 
band     9 # energy    5.23452238 # occ.  0.00000000
 
ion      s     py     pz     px    dxy    dyz    dz2    dxz  x2-y2    tot
    1  0.007  0.000  0.000  0.000  0.000  0.000  0.000  0.000  0.000  0.007
    2  0.007  0.000  0.000  0.000  0.000  0.000  0.000  0.000  0.000  0.007
tot    0.014  0.000  0.000  0.000  0.000  0.000  0.000  0.000  0.000  0.014
 
band    10 # energy    6.91865849 # occ.  0.00000000
 
ion      s     py     pz     px    dxy    dyz    dz2    dxz  x2-y2    tot
    1  0.000  0.256  0.000  0.000  0.000  0.000  0.000  0.000  0.000  0.256
    2  0.000  0.256  0.000  0.000  0.000  0.000  0.000  0.000  0.000  0.256
tot    0.000  0.512  0.000  0.000  0.000  0.000  0.000  0.000  0.000  0.513
 
band    11 # energy    6.91872836 # occ.  0.00000000
 
ion      s     py     pz     px    dxy    dyz    dz2    dxz  x2-y2    tot
    1  0.000  0.000  0.000  0.256  0.000  0.000  0.000  0.000  0.000  0.256
    2  0.000  0.000  0.000  0.256  0.000  0.000  0.000  0.000  0.000  0.256
tot    0.000  0.000  0.000  0.512  0.000  0.000  0.000  0.000  0.000  0.513
 
band    12 # energy    8.41859299 # occ.  0.00000000
 
ion      s     py     pz     px    dxy    dyz    dz2    dxz  x2-y2    tot
    1  0.000  0.000  0.023  0.000  0.000  0.000  0.000  0.000  0.000  0.023
    2  0.000  0.000  0.023  0.000  0.000  0.000  0.000  0.000  0.000  0.023
tot    0.000  0.000  0.046  0.000  0.000  0.000  0.000  0.000  0.000  0.046
 
band    13 # energy    9.49902362 # occ.  0.00000000
 
ion      s     py     pz     px    dxy    dyz    dz2    dxz  x2-y2    tot
    1  0.008  0.000  0.000  0.000  0.000  0.000  0.000  0.000  0.000  0.008
    2  0.008  0.000  0.000  0.000  0.000  0.000  0.000  0.000  0.000  0.008
tot    0.017  0.000  0.000  0.000  0.000  0.000  0.000  0.000  0.000  0.017
 
band    14 # energy   10.73092868 # occ.  0.00000000
 
ion      s     py     pz     px    dxy    dyz    dz2    dxz  x2-y2    tot
    1  0.000  0.000  0.386  0.000  0.000  0.000  0.000  0.000  0.000  0.386
    2  0.000  0.000  0.386  0.000  0.000  0.000  0.000  0.000  0.000  0.386
tot    0.000  0.000  0.771  0.000  0.000  0.000  0.000  0.000  0.000  0.771
 
band    15 # energy   11.41590833 # occ.  0.00000000
 
ion      s     py     pz     px    dxy    dyz    dz2    dxz  x2-y2    tot
    1  0.360  0.000  0.000  0.000  0.000  0.000  0.000  0.000  0.000  0.360
    2  0.360  0.000  0.000  0.000  0.000  0.000  0.000  0.000  0.000  0.360
tot    0.720  0.000  0.000  0.000  0.000  0.000  0.000  0.000  0.000  0.720
 
band    16 # energy   13.79921582 # occ.  0.00000000
 
ion      s     py     pz     px    dxy    dyz    dz2    dxz  x2-y2    tot
    1  0.000  0.000  0.031  0.000  0.000  0.000  0.000  0.000  0.000  0.031
    2  0.000  0.000  0.031  0.000  0.000  0.000  0.000  0.000  0.000  0.031
tot    0.000  0.000  0.061  0.000  0.000  0.000  0.000  0.000  0.000  0.061
 
band    17 # energy   15.26522185 # occ.  0.00000000
 
ion      s     py     pz     px    dxy    dyz    dz2    dxz  x2-y2    tot
    1  0.008  0.000  0.000  0.000  0.000  0.000  0.000  0.000  0.000  0.008
    2  0.008  0.000  0.000  0.000  0.000  0.000  0.000  0.000  0.000  0.008
tot    0.016  0.000  0.000  0.000  0.000  0.000  0.000  0.000  0.000  0.016
 
band    18 # energy   20.44058132 # occ.  0.00000000
 
ion      s     py     pz     px    dxy    dyz    dz2    dxz  x2-y2    tot
    1  0.000  0.000  0.038  0.000  0.000  0.000  0.000  0.000  0.000  0.038
    2  0.000  0.000  0.038  0.000  0.000  0.000  0.000  0.000  0.000  0.038
tot    0.000  0.000  0.076  0.000  0.000  0.000  0.000  0.000  0.000  0.076
 
band    19 # energy   21.12583738 # occ.  0.00000000
 
ion      s     py     pz     px    dxy    dyz    dz2    dxz  x2-y2    tot
    1  0.057  0.000  0.000  0.000  0.000  0.000  0.000  0.000  0.000  0.057
    2  0.057  0.000  0.000  0.000  0.000  0.000  0.000  0.000  0.000  0.057
tot    0.114  0.000  0.000  0.000  0.000  0.000  0.000  0.000  0.000  0.114
 
band    20 # energy   22.44967472 # occ.  0.00000000
 
ion      s     py     pz     px    dxy    dyz    dz2    dxz  x2-y2    tot
    1  0.008  0.000  0.000  0.000  0.000  0.000  0.000  0.000  0.000  0.008
    2  0.008  0.000  0.000  0.000  0.000  0.000  0.000  0.000  0.000  0.008
tot    0.017  0.000  0.000  0.000  0.000  0.000  0.000  0.000  0.000  0.017
 
band    21 # energy   26.94417507 # occ.  0.00000000
 
ion      s     py     pz     px    dxy    dyz    dz2    dxz  x2-y2    tot
    1  0.000  0.000  0.000  0.000  0.000  0.000  0.000  0.000  0.000  0.000
    2  0.000  0.000  0.000  0.000  0.000  0.000  0.000  0.000  0.000  0.000
tot    0.000  0.000  0.000  0.000  0.000  0.000  0.000  0.000  0.000  0.000
 
band    22 # energy   26.94419298 # occ.  0.00000000
 
ion      s     py     pz     px    dxy    dyz    dz2    dxz  x2-y2    tot
    1  0.000  0.000  0.000  0.000  0.000  0.000  0.000  0.000  0.000  0.000
    2  0.000  0.000  0.000  0.000  0.000  0.000  0.000  0.000  0.000  0.000
tot    0.000  0.000  0.000  0.000  0.000  0.000  0.000  0.000  0.000  0.000
 
band    23 # energy   27.58983087 # occ.  0.00000000
 
ion      s     py     pz     px    dxy    dyz    dz2    dxz  x2-y2    tot
    1  0.000  0.000  0.042  0.000  0.000  0.000  0.000  0.000  0.000  0.042
    2  0.000  0.000  0.042  0.000  0.000  0.000  0.000  0.000  0.000  0.042
tot    0.000  0.000  0.083  0.000  0.000  0.000  0.000  0.000  0.000  0.083
 
band    24 # energy   30.19260910 # occ.  0.00000000
 
ion      s     py     pz     px    dxy    dyz    dz2    dxz  x2-y2    tot
    1  0.000  0.000  0.000  0.000  0.000  0.000  0.000  0.000  0.000  0.000
    2  0.000  0.000  0.000  0.000  0.000  0.000  0.000  0.000  0.000  0.000
tot    0.000  0.000  0.000  0.000  0.000  0.000  0.000  0.000  0.000  0.000
 
band    25 # energy   30.19262594 # occ.  0.00000000
 
ion      s     py     pz     px    dxy    dyz    dz2    dxz  x2-y2    tot
    1  0.000  0.000  0.000  0.000  0.000  0.000  0.000  0.000  0.000  0.000
    2  0.000  0.000  0.000  0.000  0.000  0.000  0.000  0.000  0.000  0.000
tot    0.000  0.000  0.000  0.000  0.000  0.000  0.000  0.000  0.000  0.000
 
band    26 # energy   30.98325912 # occ.  0.00000000
 
ion      s     py     pz     px    dxy    dyz    dz2    dxz  x2-y2    tot
    1  0.007  0.000  0.000  0.000  0.000  0.000  0.000  0.000  0.000  0.007
    2  0.007  0.000  0.000  0.000  0.000  0.000  0.000  0.000  0.000  0.007
tot    0.013  0.000  0.000  0.000  0.000  0.000  0.000  0.000  0.000  0.013
 
band    27 # energy   31.91635691 # occ.  0.00000000
 
ion      s     py     pz     px    dxy    dyz    dz2    dxz  x2-y2    tot
    1  0.000  0.000  0.000  0.000  0.000  0.000  0.000  0.000  0.000  0.000
    2  0.000  0.000  0.000  0.000  0.000  0.000  0.000  0.000  0.000  0.000
tot    0.000  0.000  0.000  0.000  0.000  0.000  0.000  0.000  0.000  0.000
 
band    28 # energy   33.45880336 # occ.  0.00000000
 
ion      s     py     pz     px    dxy    dyz    dz2    dxz  x2-y2    tot
    1  0.000  0.000  0.000  0.008  0.000  0.000  0.000  0.000  0.000  0.009
    2  0.000  0.000  0.000  0.008  0.000  0.000  0.000  0.000  0.000  0.009
tot    0.000  0.001  0.000  0.017  0.000  0.000  0.000  0.000  0.000  0.018
 
band    29 # energy   33.45919532 # occ.  0.00000000
 
ion      s     py     pz     px    dxy    dyz    dz2    dxz  x2-y2    tot
    1  0.000  0.009  0.000  0.000  0.000  0.000  0.000  0.000  0.000  0.009
    2  0.000  0.008  0.000  0.000  0.000  0.000  0.000  0.000  0.000  0.009
tot    0.000  0.017  0.000  0.001  0.000  0.000  0.000  0.000  0.000  0.018
 
band    30 # energy   33.88353071 # occ.  0.00000000
 
ion      s     py     pz     px    dxy    dyz    dz2    dxz  x2-y2    tot
    1  0.000  0.002  0.000  0.014  0.000  0.000  0.000  0.000  0.000  0.016
    2  0.000  0.002  0.000  0.014  0.000  0.000  0.000  0.000  0.000  0.016
tot    0.000  0.005  0.000  0.027  0.000  0.000  0.000  0.000  0.000  0.032
 
band    31 # energy   33.88353170 # occ.  0.00000000
 
ion      s     py     pz     px    dxy    dyz    dz2    dxz  x2-y2    tot
    1  0.000  0.014  0.000  0.002  0.000  0.000  0.000  0.000  0.000  0.016
    2  0.000  0.014  0.000  0.002  0.000  0.000  0.000  0.000  0.000  0.016
tot    0.000  0.027  0.000  0.005  0.000  0.000  0.000  0.000  0.000  0.032
 
band    32 # energy   34.26031616 # occ.  0.00000000
 
ion      s     py     pz     px    dxy    dyz    dz2    dxz  x2-y2    tot
    1  0.011  0.000  0.000  0.000  0.000  0.000  0.000  0.000  0.000  0.011
    2  0.011  0.000  0.000  0.000  0.000  0.000  0.000  0.000  0.000  0.011
tot    0.023  0.000  0.000  0.000  0.000  0.000  0.000  0.000  0.000  0.023
 
band    33 # energy   34.48937573 # occ.  0.00000000
 
ion      s     py     pz     px    dxy    dyz    dz2    dxz  x2-y2    tot
    1  0.000  0.000  0.010  0.000  0.000  0.000  0.000  0.000  0.000  0.010
    2  0.000  0.000  0.010  0.000  0.000  0.000  0.000  0.000  0.000  0.010
tot    0.000  0.000  0.019  0.000  0.000  0.000  0.000  0.000  0.000  0.019
 
band    34 # energy   34.62698476 # occ.  0.00000000
 
ion      s     py     pz     px    dxy    dyz    dz2    dxz  x2-y2    tot
    1  0.002  0.000  0.000  0.000  0.000  0.000  0.000  0.000  0.000  0.002
    2  0.002  0.000  0.000  0.000  0.000  0.000  0.000  0.000  0.000  0.002
tot    0.003  0.000  0.000  0.000  0.000  0.000  0.000  0.000  0.000  0.003
 
band    35 # energy   35.26153917 # occ.  0.00000000
 
ion      s     py     pz     px    dxy    dyz    dz2    dxz  x2-y2    tot
    1  0.000  0.000  0.000  0.000  0.000  0.000  0.000  0.000  0.000  0.000
    2  0.000  0.000  0.000  0.000  0.000  0.000  0.000  0.000  0.000  0.000
tot    0.000  0.000  0.000  0.000  0.000  0.000  0.000  0.000  0.000  0.000
 
band    36 # energy   35.26350096 # occ.  0.00000000
 
ion      s     py     pz     px    dxy    dyz    dz2    dxz  x2-y2    tot
    1  0.000  0.000  0.000  0.000  0.000  0.000  0.000  0.000  0.000  0.000
    2  0.000  0.000  0.000  0.000  0.000  0.000  0.000  0.000  0.000  0.000
tot    0.000  0.000  0.000  0.000  0.000  0.000  0.000  0.000  0.000  0.000
 
band    37 # energy   35.30176191 # occ.  0.00000000
 
ion      s     py     pz     px    dxy    dyz    dz2    dxz  x2-y2    tot
    1  0.000  0.001  0.000  0.001  0.000  0.000  0.000  0.000  0.000  0.002
    2  0.000  0.000  0.000  0.001  0.000  0.000  0.000  0.000  0.000  0.001
tot    0.000  0.001  0.000  0.002  0.000  0.000  0.000  0.000  0.000  0.003
 
band    38 # energy   35.31582056 # occ.  0.00000000
 
ion      s     py     pz     px    dxy    dyz    dz2    dxz  x2-y2    tot
    1  0.000  0.001  0.000  0.000  0.000  0.000  0.000  0.000  0.000  0.002
    2  0.000  0.002  0.000  0.000  0.000  0.000  0.000  0.000  0.000  0.002
tot    0.000  0.003  0.000  0.001  0.000  0.000  0.000  0.000  0.000  0.004
 
band    39 # energy   35.37592708 # occ.  0.00000000
 
ion      s     py     pz     px    dxy    dyz    dz2    dxz  x2-y2    tot
    1  0.000  0.001  0.000  0.004  0.000  0.000  0.000  0.000  0.000  0.004
    2  0.000  0.000  0.000  0.004  0.000  0.000  0.000  0.000  0.000  0.005
tot    0.000  0.001  0.000  0.008  0.000  0.000  0.000  0.000  0.000  0.009
 
band    40 # energy   35.41197973 # occ.  0.00000000
 
ion      s     py     pz     px    dxy    dyz    dz2    dxz  x2-y2    tot
    1  0.000  0.001  0.003  0.000  0.000  0.000  0.000  0.000  0.000  0.005
    2  0.000  0.001  0.003  0.000  0.000  0.000  0.000  0.000  0.000  0.005
tot    0.000  0.002  0.006  0.001  0.000  0.000  0.000  0.000  0.000  0.009
 
band    41 # energy   35.44849171 # occ.  0.00000000
 
ion      s     py     pz     px    dxy    dyz    dz2    dxz  x2-y2    tot
    1  0.001  0.001  0.002  0.000  0.000  0.000  0.000  0.000  0.000  0.004
    2  0.001  0.001  0.002  0.000  0.000  0.000  0.000  0.000  0.000  0.005
tot    0.002  0.002  0.004  0.000  0.000  0.000  0.000  0.000  0.000  0.008
 
band    42 # energy   35.52542355 # occ.  0.00000000
 
ion      s     py     pz     px    dxy    dyz    dz2    dxz  x2-y2    tot
    1  0.000  0.000  0.000  0.000  0.000  0.000  0.000  0.000  0.000  0.001
    2  0.001  0.000  0.000  0.000  0.000  0.000  0.000  0.000  0.000  0.001
tot    0.001  0.000  0.000  0.000  0.000  0.000  0.000  0.000  0.000  0.002
 
band    43 # energy   35.52774598 # occ.  0.00000000
 
ion      s     py     pz     px    dxy    dyz    dz2    dxz  x2-y2    tot
    1  0.002  0.000  0.000  0.000  0.000  0.000  0.000  0.000  0.000  0.002
    2  0.003  0.000  0.000  0.000  0.000  0.000  0.000  0.000  0.000  0.003
tot    0.005  0.000  0.000  0.000  0.000  0.000  0.000  0.000  0.000  0.005
 
band    44 # energy   35.62968042 # occ.  0.00000000
 
ion      s     py     pz     px    dxy    dyz    dz2    dxz  x2-y2    tot
    1  0.004  0.000  0.000  0.000  0.000  0.000  0.000  0.000  0.000  0.004
    2  0.000  0.000  0.000  0.000  0.000  0.000  0.000  0.000  0.000  0.001
tot    0.004  0.001  0.000  0.000  0.000  0.000  0.000  0.000  0.000  0.005
 
band    45 # energy   36.62584969 # occ.  0.00000000
 
ion      s     py     pz     px    dxy    dyz    dz2    dxz  x2-y2    tot
    1  0.000  0.000  0.004  0.001  0.000  0.000  0.000  0.000  0.000  0.006
    2  0.002  0.001  0.002  0.003  0.000  0.000  0.000  0.000  0.000  0.007
tot    0.002  0.001  0.006  0.003  0.000  0.000  0.000  0.000  0.000  0.013
 
band    46 # energy   37.27523475 # occ.  0.00000000
 
ion      s     py     pz     px    dxy    dyz    dz2    dxz  x2-y2    tot
    1  0.001  0.001  0.002  0.001  0.000  0.000  0.000  0.000  0.000  0.004
    2  0.000  0.000  0.007  0.001  0.000  0.000  0.000  0.000  0.000  0.008
tot    0.001  0.001  0.009  0.001  0.000  0.000  0.000  0.000  0.000  0.012
 
band    47 # energy   37.73057234 # occ.  0.00000000
 
ion      s     py     pz     px    dxy    dyz    dz2    dxz  x2-y2    tot
    1  0.000  0.003  0.002  0.006  0.000  0.000  0.000  0.000  0.000  0.011
    2  0.000  0.001  0.001  0.001  0.000  0.000  0.000  0.000  0.000  0.003
tot    0.000  0.004  0.003  0.007  0.000  0.000  0.000  0.000  0.000  0.014
 
band    48 # energy   37.83277063 # occ.  0.00000000
 
ion      s     py     pz     px    dxy    dyz    dz2    dxz  x2-y2    tot
    1  0.000  0.000  0.000  0.007  0.000  0.000  0.000  0.000  0.000  0.008
    2  0.000  0.002  0.000  0.004  0.000  0.000  0.000  0.000  0.000  0.006
tot    0.000  0.002  0.000  0.011  0.000  0.000  0.000  0.000  0.000  0.014
 

 k-point     2 :    0.03030303-0.00000000 0.00000000     weight = 0.00550964

band     1 # energy  -24.36496536 # occ.  2.00000000
 
ion      s     py     pz     px    dxy    dyz    dz2    dxz  x2-y2    tot
    1  0.324  0.000  0.000  0.000  0.000  0.000  0.000  0.000  0.000  0.325
    2  0.324  0.000  0.000  0.000  0.000  0.000  0.000  0.000  0.000  0.325
tot    0.649  0.001  0.000  0.000  0.000  0.000  0.000  0.000  0.000  0.650
 
band     2 # energy  -11.16427667 # occ.  2.00000000
 
ion      s     py     pz     px    dxy    dyz    dz2    dxz  x2-y2    tot
    1  0.000  0.000  0.214  0.000  0.000  0.000  0.000  0.000  0.000  0.214
    2  0.000  0.000  0.214  0.000  0.000  0.000  0.000  0.000  0.000  0.214
tot    0.000  0.000  0.428  0.000  0.000  0.000  0.000  0.000  0.000  0.428
 
band     3 # energy   -6.43860047 # occ.  2.00000000
 
ion      s     py     pz     px    dxy    dyz    dz2    dxz  x2-y2    tot
    1  0.003  0.305  0.000  0.102  0.000  0.000  0.000  0.000  0.000  0.409
    2  0.003  0.305  0.000  0.102  0.000  0.000  0.000  0.000  0.000  0.409
tot    0.005  0.610  0.000  0.204  0.000  0.000  0.000  0.000  0.000  0.818
 
band     4 # energy   -6.39206624 # occ.  2.00000000
 
ion      s     py     pz     px    dxy    dyz    dz2    dxz  x2-y2    tot
    1  0.000  0.103  0.000  0.307  0.000  0.000  0.000  0.000  0.000  0.409
    2  0.000  0.103  0.000  0.307  0.000  0.000  0.000  0.000  0.000  0.409
tot    0.000  0.205  0.000  0.614  0.000  0.000  0.000  0.000  0.000  0.819
 
band     5 # energy    1.21484247 # occ.  0.00000000
 
ion      s     py     pz     px    dxy    dyz    dz2    dxz  x2-y2    tot
    1  0.008  0.000  0.000  0.000  0.000  0.000  0.000  0.000  0.000  0.008
    2  0.008  0.000  0.000  0.000  0.000  0.000  0.000  0.000  0.000  0.008
tot    0.017  0.000  0.000  0.000  0.000  0.000  0.000  0.000  0.000  0.017
 
band     6 # energy    2.06854367 # occ.  0.00000000
 
ion      s     py     pz     px    dxy    dyz    dz2    dxz  x2-y2    tot
    1  0.000  0.000  0.011  0.000  0.000  0.000  0.000  0.000  0.000  0.011
    2  0.000  0.000  0.011  0.000  0.000  0.000  0.000  0.000  0.000  0.011
tot    0.000  0.000  0.022  0.000  0.000  0.000  0.000  0.000  0.000  0.022
 
band     7 # energy    2.54906428 # occ.  0.00000000
 
ion      s     py     pz     px    dxy    dyz    dz2    dxz  x2-y2    tot
    1  0.003  0.000  0.000  0.000  0.000  0.000  0.000  0.000  0.000  0.003
    2  0.003  0.000  0.000  0.000  0.000  0.000  0.000  0.000  0.000  0.003
tot    0.006  0.000  0.000  0.000  0.000  0.000  0.000  0.000  0.000  0.006
 
band     8 # energy    4.47362018 # occ.  0.00000000
 
ion      s     py     pz     px    dxy    dyz    dz2    dxz  x2-y2    tot
    1  0.000  0.000  0.014  0.000  0.000  0.000  0.000  0.000  0.000  0.014
    2  0.000  0.000  0.014  0.000  0.000  0.000  0.000  0.000  0.000  0.014
tot    0.000  0.000  0.029  0.000  0.000  0.000  0.000  0.000  0.000  0.029
 
band     9 # energy    5.26378630 # occ.  0.00000000
 
ion      s     py     pz     px    dxy    dyz    dz2    dxz  x2-y2    tot
    1  0.007  0.000  0.000  0.000  0.000  0.000  0.000  0.000  0.000  0.007
    2  0.007  0.000  0.000  0.000  0.000  0.000  0.000  0.000  0.000  0.007
tot    0.014  0.000  0.000  0.000  0.000  0.000  0.000  0.000  0.000  0.014
 
band    10 # energy    6.93049507 # occ.  0.00000000
 
ion      s     py     pz     px    dxy    dyz    dz2    dxz  x2-y2    tot
    1  0.001  0.190  0.000  0.063  0.000  0.000  0.000  0.000  0.000  0.255
    2  0.001  0.190  0.000  0.063  0.000  0.000  0.000  0.000  0.000  0.255
tot    0.003  0.381  0.000  0.127  0.000  0.000  0.000  0.000  0.000  0.510
 
band    11 # energy    7.02041360 # occ.  0.00000000
 
ion      s     py     pz     px    dxy    dyz    dz2    dxz  x2-y2    tot
    1  0.000  0.064  0.000  0.193  0.000  0.000  0.000  0.000  0.000  0.257
    2  0.000  0.064  0.000  0.193  0.000  0.000  0.000  0.000  0.000  0.257
tot    0.000  0.128  0.000  0.386  0.000  0.000  0.000  0.000  0.000  0.514
 
band    12 # energy    8.44740716 # occ.  0.00000000
 
ion      s     py     pz     px    dxy    dyz    dz2    dxz  x2-y2    tot
    1  0.000  0.000  0.023  0.000  0.000  0.000  0.000  0.000  0.000  0.023
    2  0.000  0.000  0.023  0.000  0.000  0.000  0.000  0.000  0.000  0.023
tot    0.000  0.000  0.046  0.000  0.000  0.000  0.000  0.000  0.000  0.046
 
band    13 # energy    9.52909698 # occ.  0.00000000
 
ion      s     py     pz     px    dxy    dyz    dz2    dxz  x2-y2    tot
    1  0.008  0.000  0.000  0.000  0.000  0.000  0.000  0.000  0.000  0.008
    2  0.008  0.000  0.000  0.000  0.000  0.000  0.000  0.000  0.000  0.008
tot    0.017  0.000  0.000  0.000  0.000  0.000  0.000  0.000  0.000  0.017
 
band    14 # energy   10.64407976 # occ.  0.00000000
 
ion      s     py     pz     px    dxy    dyz    dz2    dxz  x2-y2    tot
    1  0.000  0.000  0.384  0.000  0.000  0.000  0.000  0.000  0.000  0.384
    2  0.000  0.000  0.384  0.000  0.000  0.000  0.000  0.000  0.000  0.384
tot    0.000  0.000  0.767  0.000  0.000  0.000  0.000  0.000  0.000  0.767
 
band    15 # energy   11.45673347 # occ.  0.00000000
 
ion      s     py     pz     px    dxy    dyz    dz2    dxz  x2-y2    tot
    1  0.357  0.002  0.000  0.001  0.000  0.000  0.000  0.000  0.000  0.360
    2  0.357  0.002  0.000  0.001  0.000  0.000  0.000  0.000  0.000  0.360
tot    0.714  0.005  0.000  0.002  0.000  0.000  0.000  0.000  0.000  0.720
 
band    16 # energy   13.82605653 # occ.  0.00000000
 
ion      s     py     pz     px    dxy    dyz    dz2    dxz  x2-y2    tot
    1  0.000  0.000  0.031  0.000  0.000  0.000  0.000  0.000  0.000  0.031
    2  0.000  0.000  0.031  0.000  0.000  0.000  0.000  0.000  0.000  0.031
tot    0.000  0.000  0.061  0.000  0.000  0.000  0.000  0.000  0.000  0.061
 
band    17 # energy   15.29466152 # occ.  0.00000000
 
ion      s     py     pz     px    dxy    dyz    dz2    dxz  x2-y2    tot
    1  0.008  0.000  0.000  0.000  0.000  0.000  0.000  0.000  0.000  0.008
    2  0.008  0.000  0.000  0.000  0.000  0.000  0.000  0.000  0.000  0.008
tot    0.017  0.000  0.000  0.000  0.000  0.000  0.000  0.000  0.000  0.017
 
band    18 # energy   20.45847005 # occ.  0.00000000
 
ion      s     py     pz     px    dxy    dyz    dz2    dxz  x2-y2    tot
    1  0.000  0.000  0.038  0.000  0.000  0.000  0.000  0.000  0.000  0.038
    2  0.000  0.000  0.038  0.000  0.000  0.000  0.000  0.000  0.000  0.038
tot    0.000  0.000  0.077  0.000  0.000  0.000  0.000  0.000  0.000  0.077
 
band    19 # energy   21.20552084 # occ.  0.00000000
 
ion      s     py     pz     px    dxy    dyz    dz2    dxz  x2-y2    tot
    1  0.056  0.003  0.000  0.001  0.000  0.000  0.000  0.000  0.000  0.060
    2  0.056  0.003  0.000  0.001  0.000  0.000  0.000  0.000  0.000  0.060
tot    0.111  0.006  0.000  0.002  0.000  0.000  0.000  0.000  0.000  0.119
 
band    20 # energy   22.47812409 # occ.  0.00000000
 
ion      s     py     pz     px    dxy    dyz    dz2    dxz  x2-y2    tot
    1  0.008  0.000  0.000  0.000  0.000  0.000  0.000  0.000  0.000  0.008
    2  0.008  0.000  0.000  0.000  0.000  0.000  0.000  0.000  0.000  0.008
tot    0.016  0.000  0.000  0.000  0.000  0.000  0.000  0.000  0.000  0.016
 
band    21 # energy   26.67514342 # occ.  0.00000000
 
ion      s     py     pz     px    dxy    dyz    dz2    dxz  x2-y2    tot
    1  0.000  0.000  0.005  0.000  0.000  0.000  0.000  0.000  0.000  0.005
    2  0.000  0.000  0.005  0.000  0.000  0.000  0.000  0.000  0.000  0.005
tot    0.000  0.000  0.009  0.000  0.000  0.000  0.000  0.000  0.000  0.009
 
band    22 # energy   26.69170047 # occ.  0.00000000
 
ion      s     py     pz     px    dxy    dyz    dz2    dxz  x2-y2    tot
    1  0.000  0.000  0.000  0.000  0.000  0.000  0.000  0.000  0.000  0.000
    2  0.000  0.000  0.000  0.000  0.000  0.000  0.000  0.000  0.000  0.000
tot    0.000  0.000  0.000  0.000  0.000  0.000  0.000  0.000  0.000  0.000
 
band    23 # energy   27.50078972 # occ.  0.00000000
 
ion      s     py     pz     px    dxy    dyz    dz2    dxz  x2-y2    tot
    1  0.000  0.000  0.036  0.000  0.000  0.000  0.000  0.000  0.000  0.036
    2  0.000  0.000  0.036  0.000  0.000  0.000  0.000  0.000  0.000  0.036
tot    0.000  0.000  0.072  0.000  0.000  0.000  0.000  0.000  0.000  0.072
 
band    24 # energy   30.11831334 # occ.  0.00000000
 
ion      s     py     pz     px    dxy    dyz    dz2    dxz  x2-y2    tot
    1  0.000  0.000  0.003  0.000  0.000  0.000  0.000  0.000  0.000  0.003
    2  0.000  0.000  0.003  0.000  0.000  0.000  0.000  0.000  0.000  0.003
tot    0.000  0.000  0.007  0.000  0.000  0.000  0.000  0.000  0.000  0.007
 
band    25 # energy   30.49534632 # occ.  0.00000000
 
ion      s     py     pz     px    dxy    dyz    dz2    dxz  x2-y2    tot
    1  0.000  0.000  0.000  0.000  0.000  0.000  0.000  0.000  0.000  0.000
    2  0.000  0.000  0.000  0.000  0.000  0.000  0.000  0.000  0.000  0.000
tot    0.000  0.000  0.000  0.000  0.000  0.000  0.000  0.000  0.000  0.000
 
band    26 # energy   31.01023079 # occ.  0.00000000
 
ion      s     py     pz     px    dxy    dyz    dz2    dxz  x2-y2    tot
    1  0.007  0.000  0.000  0.000  0.000  0.000  0.000  0.000  0.000  0.007
    2  0.007  0.000  0.000  0.000  0.000  0.000  0.000  0.000  0.000  0.007
tot    0.013  0.000  0.000  0.000  0.000  0.000  0.000  0.000  0.000  0.013
 
band    27 # energy   31.99123028 # occ.  0.00000000
 
ion      s     py     pz     px    dxy    dyz    dz2    dxz  x2-y2    tot
    1  0.004  0.005  0.000  0.002  0.000  0.000  0.000  0.000  0.000  0.010
    2  0.004  0.005  0.000  0.002  0.000  0.000  0.000  0.000  0.000  0.010
tot    0.007  0.010  0.000  0.003  0.000  0.000  0.000  0.000  0.000  0.021
 
band    28 # energy   32.49999088 # occ.  0.00000000
 
ion      s     py     pz     px    dxy    dyz    dz2    dxz  x2-y2    tot
    1  0.000  0.000  0.001  0.000  0.000  0.000  0.000  0.000  0.000  0.001
    2  0.000  0.000  0.001  0.000  0.000  0.000  0.000  0.000  0.000  0.001
tot    0.000  0.000  0.002  0.000  0.000  0.000  0.000  0.000  0.000  0.002
 
band    29 # energy   32.69906127 # occ.  0.00000000
 
ion      s     py     pz     px    dxy    dyz    dz2    dxz  x2-y2    tot
    1  0.000  0.003  0.000  0.009  0.000  0.000  0.000  0.000  0.000  0.011
    2  0.000  0.003  0.000  0.009  0.000  0.000  0.000  0.000  0.000  0.011
tot    0.000  0.006  0.000  0.017  0.000  0.000  0.000  0.000  0.000  0.023
 
band    30 # energy   33.25182952 # occ.  0.00000000
 
ion      s     py     pz     px    dxy    dyz    dz2    dxz  x2-y2    tot
    1  0.004  0.002  0.000  0.001  0.000  0.000  0.000  0.000  0.000  0.007
    2  0.004  0.002  0.000  0.001  0.000  0.000  0.000  0.000  0.000  0.007
tot    0.008  0.004  0.000  0.001  0.000  0.000  0.000  0.000  0.000  0.013
 
band    31 # energy   33.27011145 # occ.  0.00000000
 
ion      s     py     pz     px    dxy    dyz    dz2    dxz  x2-y2    tot
    1  0.000  0.000  0.002  0.000  0.000  0.000  0.000  0.000  0.000  0.002
    2  0.000  0.000  0.002  0.000  0.000  0.000  0.000  0.000  0.000  0.002
tot    0.000  0.000  0.004  0.000  0.000  0.000  0.000  0.000  0.000  0.004
 
band    32 # energy   33.47196387 # occ.  0.00000000
 
ion      s     py     pz     px    dxy    dyz    dz2    dxz  x2-y2    tot
    1  0.001  0.003  0.000  0.001  0.000  0.000  0.000  0.000  0.000  0.004
    2  0.001  0.003  0.000  0.001  0.000  0.000  0.000  0.000  0.000  0.005
tot    0.001  0.006  0.000  0.002  0.000  0.000  0.000  0.000  0.000  0.009
 
band    33 # energy   34.23094582 # occ.  0.00000000
 
ion      s     py     pz     px    dxy    dyz    dz2    dxz  x2-y2    tot
    1  0.000  0.000  0.004  0.000  0.000  0.000  0.000  0.000  0.000  0.004
    2  0.000  0.000  0.004  0.000  0.000  0.000  0.000  0.000  0.000  0.004
tot    0.000  0.000  0.007  0.000  0.000  0.000  0.000  0.000  0.000  0.007
 
band    34 # energy   34.34626967 # occ.  0.00000000
 
ion      s     py     pz     px    dxy    dyz    dz2    dxz  x2-y2    tot
    1  0.000  0.001  0.000  0.002  0.000  0.000  0.000  0.000  0.000  0.002
    2  0.000  0.001  0.000  0.002  0.000  0.000  0.000  0.000  0.000  0.002
tot    0.000  0.001  0.000  0.003  0.000  0.000  0.000  0.000  0.000  0.004
 
band    35 # energy   34.43185280 # occ.  0.00000000
 
ion      s     py     pz     px    dxy    dyz    dz2    dxz  x2-y2    tot
    1  0.000  0.000  0.000  0.000  0.000  0.000  0.000  0.000  0.000  0.000
    2  0.000  0.000  0.000  0.000  0.000  0.000  0.000  0.000  0.000  0.000