   8   8   1   4
  0.4338553E+02  0.5169000E-09  0.5169000E-09  0.1500000E-08  0.5000000E-15
  1.000000000000000E-004
  CAR 
 PDoS                                    
     12.53477435    -21.42860886 4000     -3.47921642      1.00000000
    -21.429  0.0000E+00  0.0000E+00
    -21.420  0.0000E+00  0.0000E+00
    -21.412  0.0000E+00  0.0000E+00
    -21.403  0.0000E+00  0.0000E+00
    -21.395  0.0000E+00  0.0000E+00
    -21.386  0.0000E+00  0.0000E+00
    -21.378  0.0000E+00  0.0000E+00
    -21.369  0.0000E+00  0.0000E+00
    -21.361  0.0000E+00  0.0000E+00
    -21.352  0.0000E+00  0.0000E+00
    -21.344  0.0000E+00  0.0000E+00
    -21.335  0.0000E+00  0.0000E+00
    -21.327  0.0000E+00  0.0000E+00
    -21.318  0.0000E+00  0.0000E+00
    -21.310  0.0000E+00  0.0000E+00
    -21.301  0.0000E+00  0.0000E+00
    -21.293  0.0000E+00  0.0000E+00
    -21.284  0.0000E+00  0.0000E+00
    -21.276  0.0000E+00  0.0000E+00
    -21.267  0.0000E+00  0.0000E+00
    -21.259  0.0000E+00  0.0000E+00
    -21.250  0.0000E+00  0.0000E+00
    -21.242  0.0000E+00  0.0000E+00
    -21.233  0.0000E+00  0.0000E+00
    -21.225  0.0000E+00  0.0000E+00
    -21.216  0.0000E+00  0.0000E+00
    -21.208  0.0000E+00  0.0000E+00
    -21.199  0.0000E+00  0.0000E+00
    -21.191  0.0000E+00  0.0000E+00
    -21.182  0.0000E+00  0.0000E+00
    -21.174  0.0000E+00  0.0000E+00
    -21.165  0.0000E+00  0.0000E+00
    -21.157  0.0000E+00  0.0000E+00
    -21.148  0.0000E+00  0.0000E+00
    -21.140  0.0000E+00  0.0000E+00
    -21.131  0.0000E+00  0.0000E+00
    -21.123  0.0000E+00  0.0000E+00
    -21.114  0.0000E+00  0.0000E+00
    -21.106  0.0000E+00  0.0000E+00
    -21.097  0.0000E+00  0.0000E+00
    -21.089  0.0000E+00  0.0000E+00
    -21.080  0.0000E+00  0.0000E+00
    -21.072  0.0000E+00  0.0000E+00
    -21.063  0.0000E+00  0.0000E+00
    -21.055  0.0000E+00  0.0000E+00
    -21.046  0.0000E+00  0.0000E+00
    -21.038  0.0000E+00  0.0000E+00
    -21.029  0.0000E+00  0.0000E+00
    -21.021  0.0000E+00  0.0000E+00
    -21.012  0.0000E+00  0.0000E+00
    -21.004  0.0000E+00  0.0000E+00
    -20.995  0.0000E+00  0.0000E+00
    -20.987  0.0000E+00  0.0000E+00
    -20.978  0.0000E+00  0.0000E+00
    -20.970  0.0000E+00  0.0000E+00
    -20.961  0.0000E+00  0.0000E+00
    -20.953  0.0000E+00  0.0000E+00
    -20.945  0.0000E+00  0.0000E+00
    -20.936  0.0000E+00  0.0000E+00
    -20.928  0.0000E+00  0.0000E+00
    -20.919  0.0000E+00  0.0000E+00
    -20.911  0.0000E+00  0.0000E+00
    -20.902  0.0000E+00  0.0000E+00
    -20.894  0.0000E+00  0.0000E+00
    -20.885  0.0000E+00  0.0000E+00
    -20.877  0.0000E+00  0.0000E+00
    -20.868  0.0000E+00  0.0000E+00
    -20.860  0.0000E+00  0.0000E+00
    -20.851  0.0000E+00  0.0000E+00
    -20.843  0.0000E+00  0.0000E+00
    -20.834  0.0000E+00  0.0000E+00
    -20.826  0.0000E+00  0.0000E+00
    -20.817  0.0000E+00  0.0000E+00
    -20.809  0.0000E+00  0.0000E+00
    -20.800  0.0000E+00  0.0000E+00
    -20.792  0.0000E+00  0.0000E+00
    -20.783  0.0000E+00  0.0000E+00
    -20.775  0.0000E+00  0.0000E+00
    -20.766  0.0000E+00  0.0000E+00
    -20.758  0.0000E+00  0.0000E+00
    -20.749  0.0000E+00  0.0000E+00
    -20.741  0.0000E+00  0.0000E+00
    -20.732  0.0000E+00  0.0000E+00
    -20.724  0.0000E+00  0.0000E+00
    -20.715  0.0000E+00  0.0000E+00
    -20.707  0.0000E+00  0.0000E+00
    -20.698  0.0000E+00  0.0000E+00
    -20.690  0.0000E+00  0.0000E+00
    -20.681  0.0000E+00  0.0000E+00
    -20.673  0.0000E+00  0.0000E+00
    -20.664  0.0000E+00  0.0000E+00
    -20.656  0.0000E+00  0.0000E+00
    -20.647  0.0000E+00  0.0000E+00
    -20.639  0.0000E+00  0.0000E+00
    -20.630  0.0000E+00  0.0000E+00
    -20.622  0.0000E+00  0.0000E+00
    -20.613  0.0000E+00  0.0000E+00
    -20.605  0.0000E+00  0.0000E+00
    -20.596  0.0000E+00  0.0000E+00
    -20.588  0.0000E+00  0.0000E+00
    -20.579  0.0000E+00  0.0000E+00
    -20.571  0.0000E+00  0.0000E+00
    -20.562  0.0000E+00  0.0000E+00
    -20.554  0.0000E+00  0.0000E+00
    -20.545  0.0000E+00  0.0000E+00
    -20.537  0.0000E+00  0.0000E+00
    -20.528  0.0000E+00  0.0000E+00
    -20.520  0.0000E+00  0.0000E+00
    -20.511  0.0000E+00  0.0000E+00
    -20.503  0.0000E+00  0.0000E+00
    -20.494  0.0000E+00  0.0000E+00
    -20.486  0.0000E+00  0.0000E+00
    -20.477  0.0000E+00  0.0000E+00
    -20.469  0.4523E-16  0.3842E-18
    -20.460  0.4071E-15  0.3842E-17
    -20.452  0.5428E-15  0.8452E-17
    -20.443  0.1493E-14  0.2113E-16
    -20.435  0.4523E-14  0.5954E-16
    -20.426  0.1117E-13  0.1544E-15
    -20.418  0.2818E-13  0.3938E-15
    -20.409  0.7156E-13  0.1002E-14
    -20.401  0.1763E-12  0.2499E-14
    -20.392  0.4305E-12  0.6155E-14
    -20.384  0.1035E-11  0.1494E-13
    -20.375  0.2454E-11  0.3579E-13
    -20.367  0.5737E-11  0.8451E-13
    -20.358  0.1322E-10  0.1968E-12
    -20.350  0.3005E-10  0.4520E-12
    -20.342  0.6732E-10  0.1024E-11
    -20.333  0.1487E-09  0.2287E-11
    -20.325  0.3240E-09  0.5039E-11
    -20.316  0.6959E-09  0.1095E-10
    -20.308  0.1474E-08  0.2347E-10
    -20.299  0.3078E-08  0.4961E-10
    -20.291  0.6338E-08  0.1034E-09
    -20.282  0.1287E-07  0.2127E-09
    -20.274  0.2577E-07  0.4316E-09
    -20.265  0.5088E-07  0.8637E-09
    -20.257  0.9905E-07  0.1705E-08
    -20.248  0.1902E-06  0.3320E-08
    -20.240  0.3600E-06  0.6378E-08
    -20.231  0.6722E-06  0.1209E-07
    -20.223  0.1238E-05  0.2260E-07
    -20.214  0.2247E-05  0.4169E-07
    -20.206  0.4025E-05  0.7587E-07
    -20.197  0.7108E-05  0.1362E-06
    -20.189  0.1238E-04  0.2414E-06
    -20.180  0.2127E-04  0.4220E-06
    -20.172  0.3604E-04  0.7281E-06
    -20.163  0.6024E-04  0.1240E-05
    -20.155  0.9930E-04  0.2083E-05
    -20.146  0.1615E-03  0.3454E-05
    -20.138  0.2590E-03  0.5654E-05
    -20.129  0.4098E-03  0.9135E-05
    -20.121  0.6398E-03  0.1457E-04
    -20.112  0.9852E-03  0.2294E-04
    -20.104  0.1497E-02  0.3565E-04
    -20.095  0.2244E-02  0.5471E-04
    -20.087  0.3319E-02  0.8290E-04
    -20.078  0.4845E-02  0.1240E-03
    -20.070  0.6978E-02  0.1833E-03
    -20.061  0.9918E-02  0.2675E-03
    -20.053  0.1391E-01  0.3857E-03
    -20.044  0.1927E-01  0.5493E-03
    -20.036  0.2633E-01  0.7730E-03
    -20.027  0.3553E-01  0.1075E-02
    -20.019  0.4733E-01  0.1477E-02
    -20.010  0.6226E-01  0.2005E-02
    -20.002  0.8087E-01  0.2692E-02
    -19.993  0.1037E+00  0.3573E-02
    -19.985  0.1315E+00  0.4690E-02
    -19.976  0.1646E+00  0.6087E-02
    -19.968  0.2035E+00  0.7816E-02
    -19.959  0.2488E+00  0.9929E-02
    -19.951  0.3006E+00  0.1248E-01
    -19.942  0.3590E+00  0.1553E-01
    -19.934  0.4240E+00  0.1913E-01
    -19.925  0.4953E+00  0.2334E-01
    -19.917  0.5724E+00  0.2820E-01
    -19.908  0.6546E+00  0.3376E-01
    -19.900  0.7410E+00  0.4005E-01
    -19.891  0.8306E+00  0.4711E-01
    -19.883  0.9223E+00  0.5494E-01
    -19.874  0.1015E+01  0.6356E-01
    -19.866  0.1107E+01  0.7296E-01
    -19.857  0.1197E+01  0.8313E-01
    -19.849  0.1285E+01  0.9404E-01
    -19.840  0.1369E+01  0.1057E+00
    -19.832  0.1448E+01  0.1180E+00
    -19.823  0.1522E+01  0.1309E+00
    -19.815  0.1590E+01  0.1444E+00
    -19.806  0.1653E+01  0.1584E+00
    -19.798  0.1709E+01  0.1729E+00
    -19.789  0.1760E+01  0.1879E+00
    -19.781  0.1805E+01  0.2032E+00
    -19.772  0.1845E+01  0.2189E+00
    -19.764  0.1881E+01  0.2349E+00
    -19.755  0.1913E+01  0.2511E+00
    -19.747  0.1941E+01  0.2676E+00
    -19.739  0.1966E+01  0.2843E+00
    -19.730  0.1989E+01  0.3012E+00
    -19.722  0.2010E+01  0.3183E+00
    -19.713  0.2030E+01  0.3355E+00
    -19.705  0.2048E+01  0.3529E+00
    -19.696  0.2066E+01  0.3704E+00
    -19.688  0.2084E+01  0.3881E+00
    -19.679  0.2102E+01  0.4060E+00
    -19.671  0.2120E+01  0.4240E+00
    -19.662  0.2138E+01  0.4422E+00
    -19.654  0.2156E+01  0.4605E+00
    -19.645  0.2175E+01  0.4789E+00
    -19.637  0.2195E+01  0.4976E+00
    -19.628  0.2216E+01  0.5164E+00
    -19.620  0.2237E+01  0.5354E+00
    -19.611  0.2260E+01  0.5546E+00
    -19.603  0.2284E+01  0.5740E+00
    -19.594  0.2309E+01  0.5936E+00
    -19.586  0.2336E+01  0.6134E+00
    -19.577  0.2364E+01  0.6335E+00
    -19.569  0.2394E+01  0.6538E+00
    -19.560  0.2426E+01  0.6744E+00
    -19.552  0.2460E+01  0.6953E+00
    -19.543  0.2496E+01  0.7165E+00
    -19.535  0.2535E+01  0.7381E+00
    -19.526  0.2577E+01  0.7599E+00
    -19.518  0.2622E+01  0.7822E+00
    -19.509  0.2671E+01  0.8049E+00
    -19.501  0.2725E+01  0.8280E+00
    -19.492  0.2783E+01  0.8517E+00
    -19.484  0.2846E+01  0.8758E+00
    -19.475  0.2915E+01  0.9006E+00
    -19.467  0.2989E+01  0.9260E+00
    -19.458  0.3070E+01  0.9521E+00
    -19.450  0.3157E+01  0.9789E+00
    -19.441  0.3251E+01  0.1006E+01
    -19.433  0.3350E+01  0.1035E+01
    -19.424  0.3455E+01  0.1064E+01
    -19.416  0.3565E+01  0.1095E+01
    -19.407  0.3678E+01  0.1126E+01
    -19.399  0.3793E+01  0.1158E+01
    -19.390  0.3908E+01  0.1191E+01
    -19.382  0.4020E+01  0.1225E+01
    -19.373  0.4127E+01  0.1260E+01
    -19.365  0.4226E+01  0.1296E+01
    -19.356  0.4313E+01  0.1333E+01
    -19.348  0.4385E+01  0.1370E+01
    -19.339  0.4439E+01  0.1408E+01
    -19.331  0.4471E+01  0.1446E+01
    -19.322  0.4480E+01  0.1484E+01
    -19.314  0.4462E+01  0.1522E+01
    -19.305  0.4415E+01  0.1559E+01
    -19.297  0.4340E+01  0.1596E+01
    -19.288  0.4236E+01  0.1632E+01
    -19.280  0.4104E+01  0.1667E+01
    -19.271  0.3945E+01  0.1700E+01
    -19.263  0.3762E+01  0.1732E+01
    -19.254  0.3558E+01  0.1763E+01
    -19.246  0.3336E+01  0.1791E+01
    -19.237  0.3100E+01  0.1817E+01
    -19.229  0.2855E+01  0.1842E+01
    -19.220  0.2605E+01  0.1864E+01
    -19.212  0.2355E+01  0.1884E+01
    -19.203  0.2108E+01  0.1902E+01
    -19.195  0.1868E+01  0.1917E+01
    -19.186  0.1640E+01  0.1931E+01
    -19.178  0.1424E+01  0.1943E+01
    -19.169  0.1224E+01  0.1954E+01
    -19.161  0.1041E+01  0.1963E+01
    -19.152  0.8763E+00  0.1970E+01
    -19.144  0.7294E+00  0.1976E+01
    -19.136  0.6004E+00  0.1981E+01
    -19.127  0.4887E+00  0.1986E+01
    -19.119  0.3933E+00  0.1989E+01
    -19.110  0.3128E+00  0.1992E+01
    -19.102  0.2460E+00  0.1994E+01
    -19.093  0.1911E+00  0.1995E+01
    -19.085  0.1467E+00  0.1997E+01
    -19.076  0.1113E+00  0.1997E+01
    -19.068  0.8337E-01  0.1998E+01
    -19.059  0.6170E-01  0.1999E+01
    -19.051  0.4509E-01  0.1999E+01
    -19.042  0.3255E-01  0.1999E+01
    -19.034  0.2319E-01  0.2000E+01
    -19.025  0.1632E-01  0.2000E+01
    -19.017  0.1134E-01  0.2000E+01
    -19.008  0.7772E-02  0.2000E+01
    -19.000  0.5260E-02  0.2000E+01
    -18.991  0.3514E-02  0.2000E+01
    -18.983  0.2316E-02  0.2000E+01
    -18.974  0.1507E-02  0.2000E+01
    -18.966  0.9674E-03  0.2000E+01
    -18.957  0.6128E-03  0.2000E+01
    -18.949  0.3830E-03  0.2000E+01
    -18.940  0.2362E-03  0.2000E+01
    -18.932  0.1437E-03  0.2000E+01
    -18.923  0.8624E-04  0.2000E+01
    -18.915  0.5106E-04  0.2000E+01
    -18.906  0.2982E-04  0.2000E+01
    -18.898  0.1718E-04  0.2000E+01
    -18.889  0.9765E-05  0.2000E+01
    -18.881  0.5474E-05  0.2000E+01
    -18.872  0.3026E-05  0.2000E+01
    -18.864  0.1650E-05  0.2000E+01
    -18.855  0.8875E-06  0.2000E+01
    -18.847  0.4708E-06  0.2000E+01
    -18.838  0.2463E-06  0.2000E+01
    -18.830  0.1271E-06  0.2000E+01
    -18.821  0.6465E-07  0.2000E+01
    -18.813  0.3244E-07  0.2000E+01
    -18.804  0.1605E-07  0.2000E+01
    -18.796  0.7831E-08  0.2000E+01
    -18.787  0.3768E-08  0.2000E+01
    -18.779  0.1788E-08  0.2000E+01
    -18.770  0.8366E-09  0.2000E+01
    -18.762  0.3860E-09  0.2000E+01
    -18.753  0.1756E-09  0.2000E+01
    -18.745  0.7878E-10  0.2000E+01
    -18.736  0.3485E-10  0.2000E+01
    -18.728  0.1520E-10  0.2000E+01
    -18.719  0.6536E-11  0.2000E+01
    -18.711  0.2771E-11  0.2000E+01
    -18.702  0.1159E-11  0.2000E+01
    -18.694  0.4771E-12  0.2000E+01
    -18.685  0.1941E-12  0.2000E+01
    -18.677  0.7834E-13  0.2000E+01
    -18.668  0.2931E-13  0.2000E+01
    -18.660  0.1303E-13  0.2000E+01
    -18.651  0.4885E-14  0.2000E+01
    -18.643  0.1086E-14  0.2000E+01
    -18.634  0.1086E-14  0.2000E+01
    -18.626  0.0000E+00  0.2000E+01
    -18.617  0.0000E+00  0.2000E+01
    -18.609  0.0000E+00  0.2000E+01
    -18.600  0.0000E+00  0.2000E+01
    -18.592  0.0000E+00  0.2000E+01
    -18.583  0.0000E+00  0.2000E+01
    -18.575  0.0000E+00  0.2000E+01
    -18.566  0.0000E+00  0.2000E+01
    -18.558  0.0000E+00  0.2000E+01
    -18.549  0.0000E+00  0.2000E+01
    -18.541  0.0000E+00  0.2000E+01
    -18.533  0.0000E+00  0.2000E+01
    -18.524  0.0000E+00  0.2000E+01
    -18.516  0.0000E+00  0.2000E+01
    -18.507  0.0000E+00  0.2000E+01
    -18.499  0.0000E+00  0.2000E+01
    -18.490  0.0000E+00  0.2000E+01
    -18.482  0.0000E+00  0.2000E+01
    -18.473  0.0000E+00  0.2000E+01
    -18.465  0.0000E+00  0.2000E+01
    -18.456  0.0000E+00  0.2000E+01
    -18.448  0.0000E+00  0.2000E+01
    -18.439  0.0000E+00  0.2000E+01
    -18.431  0.0000E+00  0.2000E+01
    -18.422  0.0000E+00  0.2000E+01
    -18.414  0.0000E+00  0.2000E+01
    -18.405  0.0000E+00  0.2000E+01
    -18.397  0.0000E+00  0.2000E+01
    -18.388  0.0000E+00  0.2000E+01
    -18.380  0.0000E+00  0.2000E+01
    -18.371  0.0000E+00  0.2000E+01
    -18.363  0.0000E+00  0.2000E+01
    -18.354  0.0000E+00  0.2000E+01
    -18.346  0.0000E+00  0.2000E+01
    -18.337  0.0000E+00  0.2000E+01
    -18.329  0.0000E+00  0.2000E+01
    -18.320  0.0000E+00  0.2000E+01
    -18.312  0.0000E+00  0.2000E+01
    -18.303  0.0000E+00  0.2000E+01
    -18.295  0.0000E+00  0.2000E+01
    -18.286  0.0000E+00  0.2000E+01
    -18.278  0.0000E+00  0.2000E+01
    -18.269  0.0000E+00  0.2000E+01
    -18.261  0.0000E+00  0.2000E+01
    -18.252  0.0000E+00  0.2000E+01
    -18.244  0.0000E+00  0.2000E+01
    -18.235  0.0000E+00  0.2000E+01
    -18.227  0.0000E+00  0.2000E+01
    -18.218  0.0000E+00  0.2000E+01
    -18.210  0.0000E+00  0.2000E+01
    -18.201  0.0000E+00  0.2000E+01
    -18.193  0.5428E-15  0.2000E+01
    -18.184  0.5428E-15  0.2000E+01
    -18.176  0.1628E-14  0.2000E+01
    -18.167  0.4885E-14  0.2000E+01
    -18.159  0.1230E-13  0.2000E+01
    -18.150  0.3212E-13  0.2000E+01
    -18.142  0.8079E-13  0.2000E+01
    -18.133  0.2003E-12  0.2000E+01
    -18.125  0.4937E-12  0.2000E+01
    -18.116  0.1196E-11  0.2000E+01
    -18.108  0.2858E-11  0.2000E+01
    -18.099  0.6728E-11  0.2000E+01
    -18.091  0.1562E-10  0.2000E+01
    -18.082  0.3574E-10  0.2000E+01
    -18.074  0.8063E-10  0.2000E+01
    -18.065  0.1793E-09  0.2000E+01
    -18.057  0.3931E-09  0.2000E+01
    -18.048  0.8497E-09  0.2000E+01
    -18.040  0.1810E-08  0.2000E+01
    -18.031  0.3803E-08  0.2000E+01
    -18.023  0.7875E-08  0.2000E+01
    -18.014  0.1608E-07  0.2000E+01
    -18.006  0.3236E-07  0.2000E+01
    -17.997  0.6422E-07  0.2000E+01
    -17.989  0.1257E-06  0.2000E+01
    -17.980  0.2424E-06  0.2000E+01
    -17.972  0.4610E-06  0.2000E+01
    -17.963  0.8645E-06  0.2000E+01
    -17.955  0.1599E-05  0.2000E+01
    -17.946  0.2914E-05  0.2000E+01
    -17.938  0.5239E-05  0.2000E+01
    -17.930  0.9288E-05  0.2000E+01
    -17.921  0.1624E-04  0.2000E+01
    -17.913  0.2799E-04  0.2000E+01
    -17.904  0.4758E-04  0.2000E+01
    -17.896  0.7977E-04  0.2000E+01
    -17.887  0.1319E-03  0.2000E+01
    -17.879  0.2151E-03  0.2000E+01
    -17.870  0.3460E-03  0.2000E+01
    -17.862  0.5490E-03  0.2000E+01
    -17.853  0.8592E-03  0.2000E+01
    -17.845  0.1327E-02  0.2000E+01
    -17.836  0.2021E-02  0.2000E+01
    -17.828  0.3036E-02  0.2000E+01
    -17.819  0.4502E-02  0.2000E+01
    -17.811  0.6586E-02  0.2000E+01
    -17.802  0.9508E-02  0.2000E+01
    -17.794  0.1355E-01  0.2000E+01
    -17.785  0.1905E-01  0.2001E+01
    -17.777  0.2643E-01  0.2001E+01
    -17.768  0.3621E-01  0.2001E+01
    -17.760  0.4898E-01  0.2001E+01
    -17.751  0.6541E-01  0.2002E+01
    -17.743  0.8624E-01  0.2003E+01
    -17.734  0.1123E+00  0.2004E+01
    -17.726  0.1444E+00  0.2005E+01
    -17.717  0.1835E+00  0.2007E+01
    -17.709  0.2303E+00  0.2008E+01
    -17.700  0.2856E+00  0.2011E+01
    -17.692  0.3501E+00  0.2014E+01
    -17.683  0.4242E+00  0.2017E+01
    -17.675  0.5081E+00  0.2022E+01
    -17.666  0.6018E+00  0.2027E+01
    -17.658  0.7050E+00  0.2033E+01
    -17.649  0.8171E+00  0.2040E+01
    -17.641  0.9373E+00  0.2048E+01
    -17.632  0.1064E+01  0.2057E+01
    -17.624  0.1197E+01  0.2067E+01
    -17.615  0.1333E+01  0.2078E+01
    -17.607  0.1472E+01  0.2091E+01
    -17.598  0.1611E+01  0.2104E+01
    -17.590  0.1750E+01  0.2119E+01
    -17.581  0.1885E+01  0.2135E+01
    -17.573  0.2017E+01  0.2152E+01
    -17.564  0.2144E+01  0.2171E+01
    -17.556  0.2265E+01  0.2190E+01
    -17.547  0.2380E+01  0.2210E+01
    -17.539  0.2488E+01  0.2231E+01
    -17.530  0.2589E+01  0.2253E+01
    -17.522  0.2683E+01  0.2276E+01
    -17.513  0.2771E+01  0.2300E+01
    -17.505  0.2852E+01  0.2324E+01
    -17.496  0.2927E+01  0.2349E+01
    -17.488  0.2996E+01  0.2374E+01
    -17.479  0.3058E+01  0.2400E+01
    -17.471  0.3114E+01  0.2427E+01
    -17.462  0.3163E+01  0.2453E+01
    -17.454  0.3205E+01  0.2481E+01
    -17.445  0.3240E+01  0.2508E+01
    -17.437  0.3266E+01  0.2536E+01
    -17.428  0.3284E+01  0.2564E+01
    -17.420  0.3292E+01  0.2592E+01
    -17.411  0.3290E+01  0.2620E+01
    -17.403  0.3277E+01  0.2647E+01
    -17.394  0.3254E+01  0.2675E+01
    -17.386  0.3220E+01  0.2702E+01
    -17.377  0.3176E+01  0.2729E+01
    -17.369  0.3122E+01  0.2756E+01
    -17.360  0.3058E+01  0.2782E+01
    -17.352  0.2986E+01  0.2807E+01
    -17.343  0.2908E+01  0.2832E+01
    -17.335  0.2824E+01  0.2856E+01
    -17.327  0.2736E+01  0.2879E+01
    -17.318  0.2647E+01  0.2902E+01
    -17.310  0.2557E+01  0.2923E+01
    -17.301  0.2470E+01  0.2944E+01
    -17.293  0.2386E+01  0.2965E+01
    -17.284  0.2307E+01  0.2984E+01
    -17.276  0.2234E+01  0.3003E+01
    -17.267  0.2169E+01  0.3022E+01
    -17.259  0.2111E+01  0.3040E+01
    -17.250  0.2061E+01  0.3057E+01
    -17.242  0.2019E+01  0.3074E+01
    -17.233  0.1983E+01  0.3091E+01
    -17.225  0.1954E+01  0.3108E+01
    -17.216  0.1930E+01  0.3124E+01
    -17.208  0.1909E+01  0.3140E+01
    -17.199  0.1892E+01  0.3156E+01
    -17.191  0.1876E+01  0.3172E+01
    -17.182  0.1862E+01  0.3188E+01
    -17.174  0.1848E+01  0.3204E+01
    -17.165  0.1835E+01  0.3219E+01
    -17.157  0.1822E+01  0.3235E+01
    -17.148  0.1812E+01  0.3250E+01
    -17.140  0.1803E+01  0.3266E+01
    -17.131  0.1797E+01  0.3281E+01
    -17.123  0.1794E+01  0.3296E+01
    -17.114  0.1796E+01  0.3311E+01
    -17.106  0.1803E+01  0.3327E+01
    -17.097  0.1814E+01  0.3342E+01
    -17.089  0.1829E+01  0.3358E+01
    -17.080  0.1848E+01  0.3373E+01
    -17.072  0.1870E+01  0.3389E+01
    -17.063  0.1894E+01  0.3405E+01
    -17.055  0.1917E+01  0.3421E+01
    -17.046  0.1939E+01  0.3438E+01
    -17.038  0.1959E+01  0.3455E+01
    -17.029  0.1974E+01  0.3471E+01
    -17.021  0.1985E+01  0.3488E+01
    -17.012  0.1991E+01  0.3505E+01
    -17.004  0.1991E+01  0.3522E+01
    -16.995  0.1986E+01  0.3539E+01
    -16.987  0.1977E+01  0.3556E+01
    -16.978  0.1965E+01  0.3572E+01
    -16.970  0.1950E+01  0.3589E+01
    -16.961  0.1935E+01  0.3605E+01
    -16.953  0.1920E+01  0.3622E+01
    -16.944  0.1908E+01  0.3638E+01
    -16.936  0.1900E+01  0.3654E+01
    -16.927  0.1898E+01  0.3670E+01
    -16.919  0.1901E+01  0.3686E+01
    -16.910  0.1912E+01  0.3703E+01
    -16.902  0.1930E+01  0.3719E+01
    -16.893  0.1955E+01  0.3736E+01
    -16.885  0.1987E+01  0.3752E+01
    -16.876  0.2024E+01  0.3770E+01
    -16.868  0.2065E+01  0.3787E+01
    -16.859  0.2107E+01  0.3805E+01
    -16.851  0.2148E+01  0.3823E+01
    -16.842  0.2187E+01  0.3842E+01
    -16.834  0.2222E+01  0.3861E+01
    -16.825  0.2249E+01  0.3880E+01
    -16.817  0.2269E+01  0.3899E+01
    -16.808  0.2280E+01  0.3918E+01
    -16.800  0.2283E+01  0.3938E+01
    -16.791  0.2277E+01  0.3957E+01
    -16.783  0.2265E+01  0.3976E+01
    -16.774  0.2248E+01  0.3996E+01
    -16.766  0.2229E+01  0.4014E+01
    -16.757  0.2210E+01  0.4033E+01
    -16.749  0.2194E+01  0.4052E+01
    -16.740  0.2184E+01  0.4070E+01
    -16.732  0.2181E+01  0.4089E+01
    -16.724  0.2189E+01  0.4107E+01
    -16.715  0.2207E+01  0.4126E+01
    -16.707  0.2236E+01  0.4145E+01
    -16.698  0.2275E+01  0.4165E+01
    -16.690  0.2323E+01  0.4184E+01
    -16.681  0.2379E+01  0.4204E+01
    -16.673  0.2440E+01  0.4225E+01
    -16.664  0.2503E+01  0.4246E+01
    -16.656  0.2566E+01  0.4268E+01
    -16.647  0.2628E+01  0.4291E+01
    -16.639  0.2686E+01  0.4313E+01
    -16.630  0.2740E+01  0.4337E+01
    -16.622  0.2789E+01  0.4360E+01
    -16.613  0.2833E+01  0.4384E+01
    -16.605  0.2874E+01  0.4409E+01
    -16.596  0.2911E+01  0.4434E+01
    -16.588  0.2947E+01  0.4459E+01
    -16.579  0.2984E+01  0.4484E+01
    -16.571  0.3022E+01  0.4510E+01
    -16.562  0.3063E+01  0.4536E+01
    -16.554  0.3107E+01  0.4562E+01
    -16.545  0.3155E+01  0.4589E+01
    -16.537  0.3207E+01  0.4616E+01
    -16.528  0.3262E+01  0.4644E+01
    -16.520  0.3319E+01  0.4672E+01
    -16.511  0.3375E+01  0.4701E+01
    -16.503  0.3430E+01  0.4730E+01
    -16.494  0.3481E+01  0.4759E+01
    -16.486  0.3527E+01  0.4789E+01
    -16.477  0.3566E+01  0.4820E+01
    -16.469  0.3597E+01  0.4850E+01
    -16.460  0.3618E+01  0.4881E+01
    -16.452  0.3629E+01  0.4912E+01
    -16.443  0.3629E+01  0.4942E+01
    -16.435  0.3618E+01  0.4973E+01
    -16.426  0.3597E+01  0.5004E+01
    -16.418  0.3564E+01  0.5034E+01
    -16.409  0.3522E+01  0.5064E+01
    -16.401  0.3470E+01  0.5093E+01
    -16.392  0.3410E+01  0.5122E+01
    -16.384  0.3342E+01  0.5151E+01
    -16.375  0.3267E+01  0.5178E+01
    -16.367  0.3187E+01  0.5206E+01
    -16.358  0.3103E+01  0.5232E+01
    -16.350  0.3016E+01  0.5257E+01
    -16.341  0.2929E+01  0.5282E+01
    -16.333  0.2842E+01  0.5306E+01
    -16.324  0.2757E+01  0.5330E+01
    -16.316  0.2677E+01  0.5353E+01
    -16.307  0.2601E+01  0.5375E+01
    -16.299  0.2532E+01  0.5396E+01
    -16.290  0.2469E+01  0.5417E+01
    -16.282  0.2412E+01  0.5438E+01
    -16.273  0.2363E+01  0.5458E+01
    -16.265  0.2319E+01  0.5477E+01
    -16.256  0.2281E+01  0.5497E+01
    -16.248  0.2247E+01  0.5516E+01
    -16.239  0.2217E+01  0.5535E+01
    -16.231  0.2188E+01  0.5553E+01
    -16.222  0.2161E+01  0.5572E+01
    -16.214  0.2133E+01  0.5590E+01
    -16.205  0.2106E+01  0.5608E+01
    -16.197  0.2077E+01  0.5625E+01
    -16.188  0.2046E+01  0.5643E+01
    -16.180  0.2015E+01  0.5660E+01
    -16.171  0.1982E+01  0.5677E+01
    -16.163  0.1947E+01  0.5693E+01
    -16.154  0.1912E+01  0.5709E+01
    -16.146  0.1877E+01  0.5725E+01
    -16.137  0.1840E+01  0.5741E+01
    -16.129  0.1804E+01  0.5756E+01
    -16.121  0.1767E+01  0.5771E+01
    -16.112  0.1729E+01  0.5786E+01
    -16.104  0.1691E+01  0.5800E+01
    -16.095  0.1652E+01  0.5814E+01
    -16.087  0.1611E+01  0.5828E+01
    -16.078  0.1567E+01  0.5841E+01
    -16.070  0.1521E+01  0.5854E+01
    -16.061  0.1472E+01  0.5867E+01
    -16.053  0.1418E+01  0.5879E+01
    -16.044  0.1361E+01  0.5890E+01
    -16.036  0.1299E+01  0.5901E+01
    -16.027  0.1232E+01  0.5912E+01
    -16.019  0.1162E+01  0.5922E+01
    -16.010  0.1088E+01  0.5931E+01
    -16.002  0.1011E+01  0.5940E+01
    -15.993  0.9317E+00  0.5948E+01
    -15.985  0.8516E+00  0.5955E+01
    -15.976  0.7715E+00  0.5961E+01
    -15.968  0.6925E+00  0.5967E+01
    -15.959  0.6156E+00  0.5972E+01
    -15.951  0.5419E+00  0.5977E+01
    -15.942  0.4721E+00  0.5981E+01
    -15.934  0.4071E+00  0.5984E+01
    -15.925  0.3473E+00  0.5987E+01
    -15.917  0.2931E+00  0.5990E+01
    -15.908  0.2446E+00  0.5992E+01
    -15.900  0.2019E+00  0.5994E+01
    -15.891  0.1647E+00  0.5995E+01
    -15.883  0.1329E+00  0.5996E+01
    -15.874  0.1059E+00  0.5997E+01
    -15.866  0.8345E-01  0.5998E+01
    -15.857  0.6497E-01  0.5998E+01
    -15.849  0.4997E-01  0.5999E+01
    -15.840  0.3797E-01  0.5999E+01
    -15.832  0.2850E-01  0.5999E+01
    -15.823  0.2113E-01  0.6000E+01
    -15.815  0.1547E-01  0.6000E+01
    -15.806  0.1118E-01  0.6000E+01
    -15.798  0.7981E-02  0.6000E+01
    -15.789  0.5625E-02  0.6000E+01
    -15.781  0.3913E-02  0.6000E+01
    -15.772  0.2687E-02  0.6000E+01
    -15.764  0.1822E-02  0.6000E+01
    -15.755  0.1219E-02  0.6000E+01
    -15.747  0.8047E-03  0.6000E+01
    -15.738  0.5243E-03  0.6000E+01
    -15.730  0.3371E-03  0.6000E+01
    -15.721  0.2139E-03  0.6000E+01
    -15.713  0.1339E-03  0.6000E+01
    -15.704  0.8268E-04  0.6000E+01
    -15.696  0.5038E-04  0.6000E+01
    -15.687  0.3028E-04  0.6000E+01
    -15.679  0.1795E-04  0.6000E+01
    -15.670  0.1050E-04  0.6000E+01
    -15.662  0.6058E-05  0.6000E+01
    -15.653  0.3448E-05  0.6000E+01
    -15.645  0.1935E-05  0.6000E+01
    -15.636  0.1071E-05  0.6000E+01
    -15.628  0.5850E-06  0.6000E+01
    -15.619  0.3150E-06  0.6000E+01
    -15.611  0.1673E-06  0.6000E+01
    -15.602  0.8762E-07  0.6000E+01
    -15.594  0.4526E-07  0.6000E+01
    -15.585  0.2305E-07  0.6000E+01
    -15.577  0.1158E-07  0.6000E+01
    -15.568  0.5736E-08  0.6000E+01
    -15.560  0.2802E-08  0.6000E+01
    -15.551  0.1350E-08  0.6000E+01
    -15.543  0.6411E-09  0.6000E+01
    -15.534  0.3003E-09  0.6000E+01
    -15.526  0.1387E-09  0.6000E+01
    -15.518  0.6315E-10  0.6000E+01
    -15.509  0.2835E-10  0.6000E+01
    -15.501  0.1255E-10  0.6000E+01
    -15.492  0.5481E-11  0.6000E+01
    -15.484  0.2359E-11  0.6000E+01
    -15.475  0.1001E-11  0.6000E+01
    -15.467  0.4197E-12  0.6000E+01
    -15.458  0.1728E-12  0.6000E+01
    -15.450  0.6984E-13  0.6000E+01
    -15.441  0.2813E-13  0.6000E+01
    -15.433  0.1140E-13  0.6000E+01
    -15.424  0.4071E-14  0.6000E+01
    -15.416  0.1990E-14  0.6000E+01
    -15.407  0.3619E-15  0.6000E+01
    -15.399  0.3619E-15  0.6000E+01
    -15.390  0.0000E+00  0.6000E+01
    -15.382  0.0000E+00  0.6000E+01
    -15.373  0.0000E+00  0.6000E+01
    -15.365  0.0000E+00  0.6000E+01
    -15.356  0.0000E+00  0.6000E+01
    -15.348  0.0000E+00  0.6000E+01
    -15.339  0.0000E+00  0.6000E+01
    -15.331  0.0000E+00  0.6000E+01
    -15.322  0.0000E+00  0.6000E+01
    -15.314  0.0000E+00  0.6000E+01
    -15.305  0.0000E+00  0.6000E+01
    -15.297  0.0000E+00  0.6000E+01
    -15.288  0.0000E+00  0.6000E+01
    -15.280  0.0000E+00  0.6000E+01
    -15.271  0.0000E+00  0.6000E+01
    -15.263  0.0000E+00  0.6000E+01
    -15.254  0.0000E+00  0.6000E+01
    -15.246  0.0000E+00  0.6000E+01
    -15.237  0.0000E+00  0.6000E+01
    -15.229  0.0000E+00  0.6000E+01
    -15.220  0.0000E+00  0.6000E+01
    -15.212  0.0000E+00  0.6000E+01
    -15.203  0.0000E+00  0.6000E+01
    -15.195  0.0000E+00  0.6000E+01
    -15.186  0.0000E+00  0.6000E+01
    -15.178  0.0000E+00  0.6000E+01
    -15.169  0.0000E+00  0.6000E+01
    -15.161  0.0000E+00  0.6000E+01
    -15.152  0.0000E+00  0.6000E+01
    -15.144  0.0000E+00  0.6000E+01
    -15.135  0.0000E+00  0.6000E+01
    -15.127  0.0000E+00  0.6000E+01
    -15.118  0.0000E+00  0.6000E+01
    -15.110  0.0000E+00  0.6000E+01
    -15.101  0.0000E+00  0.6000E+01
    -15.093  0.0000E+00  0.6000E+01
    -15.084  0.0000E+00  0.6000E+01
    -15.076  0.0000E+00  0.6000E+01
    -15.067  0.0000E+00  0.6000E+01
    -15.059  0.0000E+00  0.6000E+01
    -15.050  0.0000E+00  0.6000E+01
    -15.042  0.0000E+00  0.6000E+01
    -15.033  0.0000E+00  0.6000E+01
    -15.025  0.0000E+00  0.6000E+01
    -15.016  0.0000E+00  0.6000E+01
    -15.008  0.0000E+00  0.6000E+01
    -14.999  0.0000E+00  0.6000E+01
    -14.991  0.0000E+00  0.6000E+01
    -14.982  0.0000E+00  0.6000E+01
    -14.974  0.0000E+00  0.6000E+01
    -14.965  0.0000E+00  0.6000E+01
    -14.957  0.0000E+00  0.6000E+01
    -14.948  0.0000E+00  0.6000E+01
    -14.940  0.0000E+00  0.6000E+01
    -14.931  0.0000E+00  0.6000E+01
    -14.923  0.0000E+00  0.6000E+01
    -14.915  0.0000E+00  0.6000E+01
    -14.906  0.0000E+00  0.6000E+01
    -14.898  0.0000E+00  0.6000E+01
    -14.889  0.0000E+00  0.6000E+01
    -14.881  0.0000E+00  0.6000E+01
    -14.872  0.0000E+00  0.6000E+01
    -14.864  0.0000E+00  0.6000E+01
    -14.855  0.0000E+00  0.6000E+01
    -14.847  0.0000E+00  0.6000E+01
    -14.838  0.0000E+00  0.6000E+01
    -14.830  0.0000E+00  0.6000E+01
    -14.821  0.0000E+00  0.6000E+01
    -14.813  0.0000E+00  0.6000E+01
    -14.804  0.0000E+00  0.6000E+01
    -14.796  0.0000E+00  0.6000E+01
    -14.787  0.0000E+00  0.6000E+01
    -14.779  0.0000E+00  0.6000E+01
    -14.770  0.2714E-15  0.6000E+01
    -14.762  0.5428E-15  0.6000E+01
    -14.753  0.1086E-14  0.6000E+01
    -14.745  0.3257E-14  0.6000E+01
    -14.736  0.8413E-14  0.6000E+01
    -14.728  0.2135E-13  0.6000E+01
    -14.719  0.5347E-13  0.6000E+01
    -14.711  0.1336E-12  0.6000E+01
    -14.702  0.3278E-12  0.6000E+01
    -14.694  0.7919E-12  0.6000E+01
    -14.685  0.1888E-11  0.6000E+01
    -14.677  0.4434E-11  0.6000E+01
    -14.668  0.1027E-10  0.6000E+01
    -14.660  0.2344E-10  0.6000E+01
    -14.651  0.5276E-10  0.6000E+01
    -14.643  0.1171E-09  0.6000E+01
    -14.634  0.2560E-09  0.6000E+01
    -14.626  0.5521E-09  0.6000E+01
    -14.617  0.1174E-08  0.6000E+01
    -14.609  0.2460E-08  0.6000E+01
    -14.600  0.5083E-08  0.6000E+01
    -14.592  0.1035E-07  0.6000E+01
    -14.583  0.2080E-07  0.6000E+01
    -14.575  0.4118E-07  0.6000E+01
    -14.566  0.8039E-07  0.6000E+01
    -14.558  0.1547E-06  0.6000E+01
    -14.549  0.2937E-06  0.6000E+01
    -14.541  0.5495E-06  0.6000E+01
    -14.532  0.1014E-05  0.6000E+01
    -14.524  0.1845E-05  0.6000E+01
    -14.515  0.3309E-05  0.6000E+01
    -14.507  0.5853E-05  0.6000E+01
    -14.498  0.1021E-04  0.6000E+01
    -14.490  0.1756E-04  0.6000E+01
    -14.481  0.2979E-04  0.6000E+01
    -14.473  0.4983E-04  0.6000E+01
    -14.464  0.8222E-04  0.6000E+01
    -14.456  0.1338E-03  0.6000E+01
    -14.447  0.2147E-03  0.6000E+01
    -14.439  0.3399E-03  0.6000E+01
    -14.430  0.5308E-03  0.6000E+01
    -14.422  0.8176E-03  0.6000E+01