 ----------------------------------------------------
    OOO  PPPP  EEEEE N   N M   M PPPP
   O   O P   P E     NN  N MM MM P   P
   O   O PPPP  EEEEE N N N M M M PPPP   -- VERSION
   O   O P     E     N  NN M   M P
    OOO  P     EEEEE N   N M   M P
 ----------------------------------------------------
 running   48 mpi-ranks, with    1 threads/rank
 distrk:  each k-point on   48 cores,    1 groups
 distr:  one band on    1 cores,   48 groups
 vasp.6.3.2 27Jun22 (build Dec 22 2022 13:13:19) complex                        
  
 POSCAR found type information on POSCAR B C 
 POSCAR found :  2 types and       8 ions
 Reading from existing POTCAR
 scaLAPACK will be used
 Reading from existing POTCAR
 LDA part: xc-table for Pade appr. of Perdew
 POSCAR found type information on POSCAR B C 
 POSCAR found :  2 types and       8 ions
 WARNING: stress and forces are not correct
 POSCAR, INCAR and KPOINTS ok, starting setup
 FFT: planning ... GRIDC
 FFT: planning ... GRID_SOFT
 FFT: planning ... GRID
 WAVECAR not read
 charge-density read from file: SC                                      
 WARNING: random wavefunctions but no delay for mixing, default for NELMDL
 entering main loop
       N       E                     dE             d eps       ncg     rms          rms(c)
DAV:   1     0.785348938923E+02    0.78535E+02   -0.11232E+04 13920   0.411E+02
DAV:   2    -0.627517486734E+02   -0.14129E+03   -0.14007E+03 20688   0.706E+01
DAV:   3    -0.672084849426E+02   -0.44567E+01   -0.44554E+01 19632   0.185E+01
DAV:   4    -0.672297120798E+02   -0.21227E-01   -0.21227E-01 21648   0.123E+00
DAV:   5    -0.672297191310E+02   -0.70513E-05   -0.70516E-05 19584   0.247E-02
DAV:   6    -0.672297191486E+02   -0.17556E-07   -0.17293E-07 22128   0.100E-03
   1 F= -.67229719E+02 E0= -.67229719E+02  d E =-.592381E-07
