 ----------------------------------------------------
    OOO  PPPP  EEEEE N   N M   M PPPP
   O   O P   P E     NN  N MM MM P   P
   O   O PPPP  EEEEE N N N M M M PPPP   -- VERSION
   O   O P     E     N  NN M   M P
    OOO  P     EEEEE N   N M   M P
 ----------------------------------------------------
 running   48 mpi-ranks, with    1 threads/rank
 distrk:  each k-point on   48 cores,    1 groups
 distr:  one band on    1 cores,   48 groups
 vasp.6.3.2 27Jun22 (build Dec 22 2022 13:13:19) complex                        
  
 POSCAR found type information on POSCAR B C 
 POSCAR found :  2 types and      15 ions
 Reading from existing POTCAR
 -----------------------------------------------------------------------------
|                                                                             |
|           W    W    AA    RRRRR   N    N  II  N    N   GGGG   !!!           |
|           W    W   A  A   R    R  NN   N  II  NN   N  G    G  !!!           |
|           W    W  A    A  R    R  N N  N  II  N N  N  G       !!!           |
|           W WW W  AAAAAA  RRRRR   N  N N  II  N  N N  G  GGG   !            |
|           WW  WW  A    A  R   R   N   NN  II  N   NN  G    G                |
|           W    W  A    A  R    R  N    N  II  N    N   GGGG   !!!           |
|                                                                             |
|     You use a magnetic or noncollinear calculation, but did not specify     |
|     the initial magnetic moment with the MAGMOM tag. Note that a            |
|     default of 1 will be used for all atoms. This ferromagnetic setup       |
|     may break the symmetry of the crystal, in particular it may rule        |
|     out finding an antiferromagnetic solution. Thence, we recommend         |
|     setting the initial magnetic moment manually or verifying carefully     |
|     that this magnetic setup is desired.                                    |
|                                                                             |
 -----------------------------------------------------------------------------

 scaLAPACK will be used
 Reading from existing POTCAR
 LDA part: xc-table for Pade appr. of Perdew
 POSCAR found type information on POSCAR B C 
 POSCAR found :  2 types and      15 ions
 POSCAR, INCAR and KPOINTS ok, starting setup
 FFT: planning ... GRIDC
 FFT: planning ... GRID_SOFT
 FFT: planning ... GRID
 WAVECAR not read
 entering main loop
       N       E                     dE             d eps       ncg     rms          rms(c)
DAV:   1     0.202524104831E+03    0.20252E+03   -0.25701E+04 14208   0.859E+02
DAV:   2    -0.116703797594E+03   -0.31923E+03   -0.31782E+03 20544   0.162E+02
DAV:   3    -0.129289091105E+03   -0.12585E+02   -0.12568E+02 26304   0.425E+01
DAV:   4    -0.129314082719E+03   -0.24992E-01   -0.24988E-01 20496   0.182E+00
DAV:   5    -0.129314138083E+03   -0.55364E-04   -0.55364E-04 24960   0.863E-02    0.244E+01
DAV:   6    -0.921080064487E+02    0.37206E+02   -0.72223E+01 25440   0.255E+01    0.139E+01
DAV:   7    -0.100555118596E+03   -0.84471E+01   -0.97708E+00 22032   0.101E+01    0.811E+00
DAV:   8    -0.110480980693E+03   -0.99259E+01   -0.89148E+00 24384   0.899E+00    0.435E+00
DAV:   9    -0.117331680240E+03   -0.68507E+01   -0.40788E+00 19344   0.623E+00    0.279E+00
DAV:  10    -0.123657032112E+03   -0.63254E+01   -0.84121E+00 24048   0.709E+00    0.161E+00
DAV:  11    -0.125275552946E+03   -0.16185E+01   -0.23564E+00 26016   0.368E+00    0.981E-01
DAV:  12    -0.125429714897E+03   -0.15416E+00   -0.22759E-01 19008   0.140E+00    0.441E-01
DAV:  13    -0.125464370961E+03   -0.34656E-01   -0.24179E-02 18480   0.567E-01    0.181E-01
DAV:  14    -0.125487407513E+03   -0.23037E-01   -0.66317E-03 19872   0.286E-01    0.811E-02
DAV:  15    -0.125494099003E+03   -0.66915E-02   -0.28552E-03 18192   0.151E-01    0.421E-02
DAV:  16    -0.125496101096E+03   -0.20021E-02   -0.59359E-04 17136   0.802E-02    0.219E-02
DAV:  17    -0.125497350432E+03   -0.12493E-02   -0.15003E-04 16848   0.507E-02    0.166E-02
DAV:  18    -0.125498118705E+03   -0.76827E-03   -0.79581E-05 17232   0.386E-02    0.115E-02
DAV:  19    -0.125498538230E+03   -0.41952E-03   -0.39132E-05 20880   0.250E-02    0.684E-03
DAV:  20    -0.125498575928E+03   -0.37698E-04   -0.18046E-05 22224   0.173E-02    0.401E-03
DAV:  21    -0.125498600489E+03   -0.24560E-04   -0.56923E-06 21648   0.978E-03    0.212E-03
DAV:  22    -0.125498623670E+03   -0.23181E-04   -0.26862E-06 22512   0.582E-03    0.130E-03
DAV:  23    -0.125498634721E+03   -0.11051E-04   -0.13802E-06 21312   0.385E-03    0.684E-04
DAV:  24    -0.125498637108E+03   -0.23876E-05   -0.27092E-07 23664   0.203E-03    0.361E-04
DAV:  25    -0.125498638133E+03   -0.10243E-05   -0.11023E-07 21456   0.112E-03    0.182E-04
DAV:  26    -0.125498638634E+03   -0.50094E-06   -0.27721E-08 22656   0.560E-04
   1 F= -.12710181E+03 E0= -.12710104E+03  d E =-.127102E+03  mag=    -0.0000
 curvature:   0.00 expect dE= 0.000E+00 dE for cont linesearch  0.000E+00
 trial: gam= 0.00000 g(F)=  0.295E-01 g(S)=  0.000E+00 ort = 0.000E+00 (trialstep = 0.100E+01)
 search vector abs. value=  0.295E-01
 bond charge predicted
       N       E                     dE             d eps       ncg     rms          rms(c)
DAV:   1    -0.125507179469E+03   -0.85413E-02   -0.33741E+00 14208   0.585E+00    0.498E-01
DAV:   2    -0.125498269260E+03    0.89102E-02   -0.67103E-02 26304   0.771E-01    0.221E-01
DAV:   3    -0.125497226964E+03    0.10423E-02   -0.58008E-03 21696   0.223E-01    0.861E-02
DAV:   4    -0.125497179685E+03    0.47280E-04   -0.65658E-04 26496   0.771E-02    0.246E-02
DAV:   5    -0.125497182458E+03   -0.27732E-05   -0.19231E-05 23424   0.150E-02    0.911E-03
DAV:   6    -0.125497182570E+03   -0.11242E-06   -0.27078E-06 23136   0.538E-03
   2 F= -.12709977E+03 E0= -.12709900E+03  d E =0.203893E-02  mag=    -0.0000
 trial-energy change:    0.002039  1 .order    0.001993   -0.029498    0.033485
 step:   0.4684(harm=  0.4684)  dis= 0.00672  next Energy=  -127.108716 (dE=-0.691E-02)
 bond charge predicted
       N       E                     dE             d eps       ncg     rms          rms(c)
DAV:   1    -0.125508664702E+03   -0.11482E-01   -0.95317E-01 14208   0.311E+00    0.265E-01
DAV:   2    -0.125506088989E+03    0.25757E-02   -0.18945E-02 26448   0.408E-01    0.117E-01
DAV:   3    -0.125505803456E+03    0.28553E-03   -0.16083E-03 24288   0.118E-01    0.463E-02
DAV:   4    -0.125505790424E+03    0.13032E-04   -0.17856E-04 22656   0.403E-02    0.126E-02
DAV:   5    -0.125505791257E+03   -0.83351E-06   -0.61817E-06 23136   0.840E-03
   3 F= -.12710869E+03 E0= -.12710791E+03  d E =-.687780E-02  mag=    -0.0000
 curvature:  -0.23 expect dE=-0.146E-02 dE for cont linesearch -0.390E-09
 trial: gam= 0.21065 g(F)=  0.622E-02 g(S)=  0.000E+00 ort = 0.701E-05 (trialstep = 0.894E+00)
 search vector abs. value=  0.753E-02
 bond charge predicted
       N       E                     dE             d eps       ncg     rms          rms(c)
DAV:   1    -0.125510302450E+03   -0.45120E-02   -0.25324E-01 14208   0.192E+00    0.109E-01
DAV:   2    -0.125510317450E+03   -0.15000E-04   -0.22595E-03 27936   0.202E-01    0.631E-02
DAV:   3    -0.125510304442E+03    0.13007E-04   -0.23786E-04 22944   0.572E-02    0.211E-02
DAV:   4    -0.125510304819E+03   -0.37707E-06   -0.45743E-05 25824   0.240E-02    0.888E-03
DAV:   5    -0.125510305526E+03   -0.70609E-06   -0.20584E-06 23232   0.601E-03
   4 F= -.12711309E+03 E0= -.12711232E+03  d E =-.440516E-02  mag=     0.0000
 trial-energy change:   -0.004405  1 .order   -0.004409   -0.005561   -0.003257
 step:   2.1568(harm=  2.1568)  dis= 0.01130  next Energy=  -127.115396 (dE=-0.671E-02)
 bond charge predicted
       N       E                     dE             d eps       ncg     rms          rms(c)
DAV:   1    -0.125512815816E+03   -0.25110E-02   -0.50741E-01 14208   0.271E+00    0.154E-01
DAV:   2    -0.125512861116E+03   -0.45299E-04   -0.45259E-03 26112   0.286E-01    0.891E-02
DAV:   3    -0.125512836625E+03    0.24491E-04   -0.48519E-04 21936   0.817E-02    0.297E-02
DAV:   4    -0.125512837043E+03   -0.41807E-06   -0.94857E-05 25728   0.345E-02    0.128E-02
DAV:   5    -0.125512838449E+03   -0.14060E-05   -0.42555E-06 22224   0.867E-03    0.463E-03
DAV:   6    -0.125512838622E+03   -0.17338E-06   -0.11290E-06 23664   0.403E-03
   5 F= -.12711545E+03 E0= -.12711467E+03  d E =-.676013E-02  mag=    -0.0000
 curvature:  -1.31 expect dE=-0.378E-01 dE for cont linesearch -0.177E-05
 trial: gam= 4.65007 g(F)=  0.290E-01 g(S)=  0.000E+00 ort = 0.101E-03 (trialstep = 0.448E-01)
 search vector abs. value=  0.193E+00
 bond charge predicted
       N       E                     dE             d eps       ncg     rms          rms(c)
DAV:   1    -0.125514132141E+03   -0.12937E-02   -0.15509E-02 14208   0.446E-01    0.262E-02
DAV:   2    -0.125514134876E+03   -0.27352E-05   -0.11920E-04 26208   0.451E-02    0.153E-02
DAV:   3    -0.125514134317E+03    0.55873E-06   -0.13125E-05 20208   0.135E-02    0.408E-03
DAV:   4    -0.125514134569E+03   -0.25207E-06   -0.22635E-06 24768   0.558E-03
   6 F= -.12711672E+03 E0= -.12711594E+03  d E =-.127088E-02  mag=    -0.0000
 ZBRENT: can't locate minimum, use default step
 trial-energy change:   -0.001271  1 .order   -0.001271   -0.001318   -0.001223
 step:   0.1792(harm=  0.6193)  dis= 0.00435  next Energy=  -127.124559 (dE=-0.911E-02)
 bond charge predicted
       N       E                     dE             d eps       ncg     rms          rms(c)
DAV:   1    -0.125517439707E+03   -0.33054E-02   -0.13973E-01 14208   0.134E+00    0.789E-02
DAV:   2    -0.125517462017E+03   -0.22310E-04   -0.10317E-03 24288   0.133E-01    0.460E-02
DAV:   3    -0.125517455887E+03    0.61300E-05   -0.11756E-04 20880   0.403E-02    0.121E-02
DAV:   4    -0.125517456030E+03   -0.14320E-06   -0.19731E-05 26208   0.163E-02    0.521E-03
DAV:   5    -0.125517456395E+03   -0.36479E-06   -0.70746E-07 19824   0.356E-03
   7 F= -.12711996E+03 E0= -.12711919E+03  d E =-.451503E-02  mag=     0.0000
 curvature:  -0.84 expect dE=-0.121E-01 dE for cont linesearch -0.192E-02
 ZBRENT: increasing intervall
 opt :   0.4479  next Energy=  -127.123910 (dE=-0.846E-02)
 bond charge predicted
       N       E                     dE             d eps       ncg     rms          rms(c)
DAV:   1    -0.125521545785E+03   -0.40898E-02   -0.56117E-01 14208   0.268E+00    0.157E-01
DAV:   2    -0.125521635998E+03   -0.90213E-04   -0.41906E-03 25536   0.268E-01    0.915E-02
DAV:   3    -0.125521608420E+03    0.27577E-04   -0.46507E-04 22272   0.800E-02    0.242E-02
DAV:   4    -0.125521608742E+03   -0.32144E-06   -0.75779E-05 25632   0.319E-02    0.103E-02
DAV:   5    -0.125521609759E+03   -0.10168E-05   -0.26872E-06 23040   0.696E-03    0.442E-03
DAV:   6    -0.125521609759E+03   -0.25648E-09   -0.12857E-06 23376   0.408E-03
   8 F= -.12712395E+03 E0= -.12712317E+03  d E =-.850235E-02  mag=    -0.0000
 curvature:  -1.73 expect dE=-0.110E-01 dE for cont linesearch -0.684E-03
 ZBRENT: increasing intervall
 opt :   0.9854  next Energy=  -127.122055 (dE=-0.661E-02)
 bond charge predicted
       N       E                     dE             d eps       ncg     rms          rms(c)
DAV:   1    -0.125519970356E+03    0.16394E-02   -0.22574E+00 14208   0.536E+00    0.314E-01
DAV:   2    -0.125520361347E+03   -0.39099E-03   -0.17464E-02 26688   0.543E-01    0.182E-01
DAV:   3    -0.125520246139E+03    0.11521E-03   -0.18225E-03 23328   0.157E-01    0.496E-02
DAV:   4    -0.125520250592E+03   -0.44533E-05   -0.28993E-04 25632   0.623E-02    0.205E-02
DAV:   5    -0.125520255257E+03   -0.46649E-05   -0.97370E-06 23712   0.133E-02    0.860E-03
DAV:   6    -0.125520254786E+03    0.47129E-06   -0.45919E-06 24288   0.774E-03
   9 F= -.12712222E+03 E0= -.12712144E+03  d E =-.677410E-02  mag=    -0.0000
 curvature:   4.78 expect dE= 0.194E+00 dE for cont linesearch  0.562E-02
 ZBRENT: bracketing found
 ZBRENT: interpolating
 opt :   0.6453  next Energy=  -127.124810 (dE=-0.936E-02)
 bond charge predicted
       N       E                     dE             d eps       ncg     rms          rms(c)
DAV:   1    -0.125522478677E+03   -0.22234E-02   -0.90346E-01 14208   0.338E+00    0.199E-01
DAV:   2    -0.125522635471E+03   -0.15679E-03   -0.71342E-03 27648   0.346E-01    0.115E-01
DAV:   3    -0.125522587689E+03    0.47783E-04   -0.70282E-04 19584   0.983E-02    0.317E-02
DAV:   4    -0.125522591312E+03   -0.36233E-05   -0.11814E-04 24768   0.398E-02    0.129E-02
DAV:   5    -0.125522593452E+03   -0.21403E-05   -0.35656E-06 17856   0.807E-03    0.555E-03
DAV:   6    -0.125522593648E+03   -0.19624E-06   -0.14933E-06 24624   0.441E-03
  10 F= -.12712480E+03 E0= -.12712403E+03  d E =-.935545E-02  mag=    -0.0000
 curvature:  -0.73 expect dE=-0.801E-02 dE for cont linesearch -0.270E-07
 trial: gam= 0.50181 g(F)=  0.109E-01 g(S)=  0.000E+00 ort =-0.843E-04 (trialstep = 0.165E+00)
 search vector abs. value=  0.594E-01
 bond charge predicted
       N       E                     dE             d eps       ncg     rms          rms(c)
DAV:   1    -0.125524391609E+03   -0.17982E-02   -0.66470E-02 14208   0.851E-01    0.500E-02
DAV:   2    -0.125524402880E+03   -0.11271E-04   -0.40803E-04 21792   0.744E-02    0.296E-02
DAV:   3    -0.125524400619E+03    0.22608E-05   -0.46808E-05 17088   0.220E-02    0.566E-03
DAV:   4    -0.125524400944E+03   -0.32442E-06   -0.42165E-06 23472   0.778E-03
  11 F= -.12712649E+03 E0= -.12712572E+03  d E =-.169217E-02  mag=    -0.0000
 ZBRENT: can't locate minimum, use default step
 trial-energy change:   -0.001692  1 .order   -0.001692   -0.001794   -0.001590
 step:   0.6595(harm=  1.4489)  dis= 0.00517  next Energy=  -127.132685 (dE=-0.788E-02)
 bond charge predicted
       N       E                     dE             d eps       ncg     rms          rms(c)
DAV:   1    -0.125528555720E+03   -0.41551E-02   -0.59924E-01 14208   0.255E+00    0.149E-01
DAV:   2    -0.125528669125E+03   -0.11340E-03   -0.35482E-03 27744   0.220E-01    0.885E-02
DAV:   3    -0.125528640059E+03    0.29066E-04   -0.42395E-04 21216   0.651E-02    0.162E-02
DAV:   4    -0.125528639940E+03    0.11830E-06   -0.32842E-05 23184   0.225E-02    0.772E-03
DAV:   5    -0.125528638173E+03    0.17673E-05   -0.33790E-06 22368   0.705E-03    0.296E-03
DAV:   6    -0.125528637131E+03    0.10420E-05   -0.15484E-06 24000   0.426E-03    0.139E-03
DAV:   7    -0.125528637095E+03    0.35791E-07   -0.35553E-07 20928   0.191E-03
  12 F= -.12713038E+03 E0= -.12712961E+03  d E =-.558384E-02  mag=    -0.0000
 curvature:  -2.46 expect dE=-0.129E-01 dE for cont linesearch -0.159E-02
 ZBRENT: increasing intervall
 opt :   1.6488  next Energy=  -127.133103 (dE=-0.830E-02)
 bond charge predicted
       N       E                     dE             d eps       ncg     rms          rms(c)
DAV:   1    -0.125532106441E+03   -0.34693E-02   -0.23991E+00 14208   0.510E+00    0.294E-01
DAV:   2    -0.125532589640E+03   -0.48320E-03   -0.13384E-02 27936   0.432E-01    0.175E-01
DAV:   3    -0.125532480285E+03    0.10935E-03   -0.17212E-03 21984   0.131E-01    0.295E-02
DAV:   4    -0.125532478406E+03    0.18787E-05   -0.12375E-04 23856   0.442E-02    0.151E-02
DAV:   5    -0.125532473432E+03    0.49743E-05   -0.11971E-05 21792   0.137E-02    0.562E-03
DAV:   6    -0.125532470700E+03    0.27320E-05   -0.53814E-06 24768   0.826E-03    0.192E-03
DAV:   7    -0.125532471643E+03   -0.94301E-06   -0.34458E-06 22512   0.578E-03
  13 F= -.12713354E+03 E0= -.12713276E+03  d E =-.873403E-02  mag=    -0.0000
 curvature:  -4.20 expect dE=-0.615E-01 dE for cont linesearch -0.129E-04
 trial: gam= 1.47339 g(F)=  0.146E-01 g(S)=  0.000E+00 ort = 0.427E-03 (trialstep = 0.189E+00)
 search vector abs. value=  0.145E+00
 bond charge predicted
       N       E                     dE             d eps       ncg     rms          rms(c)
DAV:   1    -0.125534745572E+03   -0.22749E-02   -0.24486E-01 14208   0.188E+00    0.979E-02
DAV:   2    -0.125534787689E+03   -0.42117E-04   -0.18879E-03 25968   0.185E-01    0.599E-02
DAV:   3    -0.125534754657E+03    0.33032E-04   -0.26402E-04 20880   0.603E-02    0.126E-02
DAV:   4    -0.125534755100E+03   -0.44307E-06   -0.29379E-05 24432   0.213E-02    0.745E-03
DAV:   5    -0.125534755677E+03   -0.57657E-06   -0.15574E-06 22656   0.512E-03
  14 F= -.12713560E+03 E0= -.12713482E+03  d E =-.206703E-02  mag=     0.0000
 trial-energy change:   -0.002067  1 .order   -0.002068   -0.002890   -0.001245
 step:   0.3326(harm=  0.3326)  dis= 0.00386  next Energy=  -127.136074 (dE=-0.254E-02)
 bond charge predicted
       N       E                     dE             d eps       ncg     rms          rms(c)
DAV:   1    -0.125535391243E+03   -0.63614E-03   -0.14036E-01 14400   0.142E+00    0.738E-02
DAV:   2    -0.125535416209E+03   -0.24966E-04   -0.10702E-03 25920   0.139E-01    0.453E-02
DAV:   3    -0.125535398021E+03    0.18188E-04   -0.15337E-04 23760   0.458E-02    0.948E-03
DAV:   4    -0.125535398029E+03   -0.74278E-08   -0.16045E-05 24912   0.160E-02    0.568E-03
DAV:   5    -0.125535398330E+03   -0.30119E-06   -0.92887E-07 23472   0.402E-03
  15 F= -.12713608E+03 E0= -.12713530E+03  d E =-.254125E-02  mag=     0.0000
 curvature:  -1.58 expect dE=-0.177E-02 dE for cont linesearch -0.673E-07
 trial: gam= 0.20341 g(F)=  0.112E-02 g(S)=  0.000E+00 ort = 0.786E-04 (trialstep = 0.218E+00)
 search vector abs. value=  0.715E-02
 bond charge predicted
       N       E                     dE             d eps       ncg     rms          rms(c)
DAV:   1    -0.125535679324E+03   -0.28130E-03   -0.15583E-02 14304   0.475E-01    0.244E-02
DAV:   2    -0.125535682331E+03   -0.30071E-05   -0.12587E-04 26064   0.460E-02    0.147E-02
DAV:   3    -0.125535682239E+03    0.92535E-07   -0.12348E-05 22560   0.126E-02    0.410E-03
DAV:   4    -0.125535682658E+03   -0.41950E-06   -0.16526E-06 21504   0.498E-03
  16 F= -.12713628E+03 E0= -.12713550E+03  d E =-.203049E-03  mag=     0.0000
 trial-energy change:   -0.000203  1 .order   -0.000202   -0.000248   -0.000156
 step:   0.5890(harm=  0.5890)  dis= 0.00181  next Energy=  -127.136412 (dE=-0.336E-03)
 bond charge predicted
       N       E                     dE             d eps       ncg     rms          rms(c)
DAV:   1    -0.125535948008E+03   -0.26577E-03   -0.45165E-02 14208   0.808E-01    0.419E-02
DAV:   2    -0.125535956150E+03   -0.81415E-05   -0.35558E-04 26400   0.776E-02    0.251E-02
DAV:   3    -0.125535954732E+03    0.14174E-05   -0.34849E-05 22608   0.212E-02    0.654E-03
DAV:   4    -0.125535955027E+03   -0.29493E-06   -0.50929E-06 23712   0.839E-03
  17 F= -.12713641E+03 E0= -.12713564E+03  d E =-.336620E-03  mag=     0.0000
 curvature:  -1.85 expect dE=-0.188E-02 dE for cont linesearch -0.424E-07
 trial: gam= 0.89525 g(F)=  0.102E-02 g(S)=  0.000E+00 ort = 0.128E-04 (trialstep = 0.292E+00)
 search vector abs. value=  0.677E-02
 bond charge predicted
       N       E                     dE             d eps       ncg     rms          rms(c)
DAV:   1    -0.125536264813E+03   -0.31008E-03   -0.26834E-02 14208   0.644E-01    0.323E-02
DAV:   2    -0.125536272571E+03   -0.77574E-05   -0.23598E-04 27552   0.655E-02    0.196E-02
DAV:   3    -0.125536272137E+03    0.43395E-06   -0.20780E-05 20688   0.169E-02    0.585E-03
DAV:   4    -0.125536272486E+03   -0.34954E-06   -0.37451E-06 22464   0.701E-03
  18 F= -.12713661E+03 E0= -.12713583E+03  d E =-.195763E-03  mag=     0.0000
 trial-energy change:   -0.000196  1 .order   -0.000196   -0.000301   -0.000091
 step:   0.4188(harm=  0.4188)  dis= 0.00137  next Energy=  -127.136629 (dE=-0.216E-03)
 bond charge predicted
       N       E                     dE             d eps       ncg     rms          rms(c)
DAV:   1    -0.125536343534E+03   -0.71397E-04   -0.50355E-03 14208   0.279E-01    0.142E-02
DAV:   2    -0.125536345155E+03   -0.16215E-05   -0.45432E-05 25776   0.287E-02    0.869E-03
DAV:   3    -0.125536345433E+03   -0.27834E-06   -0.40370E-06 19152   0.750E-03
  19 F= -.12713663E+03 E0= -.12713585E+03  d E =-.215582E-03  mag=     0.0000
 curvature:  -1.38 expect dE=-0.632E-03 dE for cont linesearch -0.873E-08
 trial: gam= 0.47173 g(F)=  0.459E-03 g(S)=  0.000E+00 ort =-0.655E-05 (trialstep = 0.318E+00)
 search vector abs. value=  0.196E-02
 bond charge predicted
       N       E                     dE             d eps       ncg     rms          rms(c)
DAV:   1    -0.125536539245E+03   -0.19409E-03   -0.10186E-02 14208   0.390E-01    0.219E-02
DAV:   2    -0.125536540316E+03   -0.10714E-05   -0.11202E-04 27744   0.439E-02    0.129E-02
DAV:   3    -0.125536539072E+03    0.12441E-05   -0.10720E-05 18672   0.126E-02    0.347E-03
DAV:   4    -0.125536539394E+03   -0.32198E-06   -0.13009E-06 23520   0.447E-03
  20 F= -.12713673E+03 E0= -.12713595E+03  d E =-.102480E-03  mag=    -0.0000
 trial-energy change:   -0.000102  1 .order   -0.000102   -0.000145   -0.000058
 step:   0.5326(harm=  0.5326)  dis= 0.00115  next Energy=  -127.136750 (dE=-0.121E-03)
 bond charge predicted
       N       E                     dE             d eps       ncg     rms          rms(c)
DAV:   1    -0.125536621343E+03   -0.82271E-04   -0.46767E-03 14208   0.264E-01    0.147E-02
DAV:   2    -0.125536622030E+03   -0.68612E-06   -0.51663E-05 27504   0.298E-02    0.865E-03
DAV:   3    -0.125536621585E+03    0.44446E-06   -0.46373E-06 16224   0.833E-03
  21 F= -.12713675E+03 E0= -.12713597E+03  d E =-.122651E-03  mag=     0.0000
 curvature:  -1.14 expect dE=-0.530E-03 dE for cont linesearch -0.242E-09
 trial: gam= 0.99876 g(F)=  0.463E-03 g(S)=  0.000E+00 ort =-0.644E-06 (trialstep = 0.292E+00)
 search vector abs. value=  0.242E-02
 bond charge predicted
       N       E                     dE             d eps       ncg     rms          rms(c)
DAV:   1    -0.125536839841E+03   -0.21781E-03   -0.10226E-02 14208   0.391E-01    0.196E-02
DAV:   2    -0.125536842974E+03   -0.31329E-05   -0.98188E-05 26256   0.405E-02    0.117E-02
DAV:   3    -0.125536843120E+03   -0.14578E-06   -0.87038E-06 15120   0.111E-02
  22 F= -.12713685E+03 E0= -.12713607E+03  d E =-.100941E-03  mag=    -0.0000
 trial-energy change:   -0.000101  1 .order   -0.000100   -0.000135   -0.000065
 step:   0.5611(harm=  0.5611)  dis= 0.00142  next Energy=  -127.136881 (dE=-0.130E-03)
 bond charge predicted
       N       E                     dE             d eps       ncg     rms          rms(c)
DAV:   1    -0.125536983119E+03   -0.14015E-03   -0.86775E-03 14208   0.361E-01    0.185E-02
DAV:   2    -0.125536986266E+03   -0.31465E-05   -0.83751E-05 27024   0.376E-02    0.111E-02
DAV:   3    -0.125536986587E+03   -0.32124E-06   -0.76419E-06 16368   0.103E-02
  23 F= -.12713688E+03 E0= -.12713611E+03  d E =-.133312E-03  mag=     0.0000
 curvature:  -1.46 expect dE=-0.466E-03 dE for cont linesearch -0.249E-07
 trial: gam= 0.68491 g(F)=  0.318E-03 g(S)=  0.000E+00 ort = 0.641E-05 (trialstep = 0.346E+00)
 search vector abs. value=  0.146E-02
 bond charge predicted
       N       E                     dE             d eps       ncg     rms          rms(c)
DAV:   1    -0.125537203087E+03   -0.21682E-03   -0.95490E-03 14208   0.383E-01    0.206E-02
DAV:   2    -0.125537204568E+03   -0.14809E-05   -0.10411E-04 25488   0.418E-02    0.123E-02
DAV:   3    -0.125537203768E+03    0.79952E-06   -0.93507E-06 19728   0.118E-02
  24 F= -.12713695E+03 E0= -.12713618E+03  d E =-.692835E-04  mag=    -0.0000
 trial-energy change:   -0.000069  1 .order   -0.000069   -0.000112   -0.000026
 step:   0.4505(harm=  0.4505)  dis= 0.00068  next Energy=  -127.136957 (dE=-0.727E-04)
 bond charge predicted
       N       E                     dE             d eps       ncg     rms          rms(c)
DAV:   1    -0.125537252591E+03   -0.48023E-04   -0.87349E-04 14208   0.116E-01    0.674E-03
DAV:   2    -0.125537252911E+03   -0.32014E-06   -0.95557E-06 24000   0.129E-02
  25 F= -.12713696E+03 E0= -.12713618E+03  d E =-.737814E-04  mag=    -0.0000
 curvature:  -1.02 expect dE=-0.225E-03 dE for cont linesearch -0.904E-07
 trial: gam= 0.69902 g(F)=  0.220E-03 g(S)=  0.000E+00 ort = 0.114E-04 (trialstep = 0.367E+00)
 search vector abs. value=  0.950E-03
 bond charge predicted
       N       E                     dE             d eps       ncg     rms          rms(c)
DAV:   1    -0.125537468437E+03   -0.21585E-03   -0.71955E-03 14208   0.330E-01    0.181E-02
DAV:   2    -0.125537468559E+03   -0.12196E-06   -0.79156E-05 21312   0.372E-02    0.107E-02
DAV:   3    -0.125537468074E+03    0.48500E-06   -0.86053E-06 23760   0.112E-02
  26 F= -.12713701E+03 E0= -.12713624E+03  d E =-.560495E-04  mag=     0.0000
 trial-energy change:   -0.000056  1 .order   -0.000056   -0.000084   -0.000028
 step:   0.5502(harm=  0.5502)  dis= 0.00047  next Energy=  -127.137021 (dE=-0.628E-04)
 bond charge predicted
       N       E                     dE             d eps       ncg     rms          rms(c)
DAV:   1    -0.125537555345E+03   -0.86786E-04   -0.18155E-03 14208   0.166E-01    0.953E-03
DAV:   2    -0.125537555547E+03   -0.20190E-06   -0.20463E-05 18768   0.191E-02    0.570E-03
DAV:   3    -0.125537555543E+03    0.41737E-08   -0.23605E-06 21456   0.602E-03
  27 F= -.12713702E+03 E0= -.12713624E+03  d E =-.640536E-04  mag=    -0.0000
 curvature:  -1.14 expect dE=-0.237E-03 dE for cont linesearch -0.252E-07
 trial: gam= 0.95060 g(F)=  0.207E-03 g(S)=  0.000E+00 ort = 0.457E-05 (trialstep = 0.357E+00)
 search vector abs. value=  0.107E-02
 bond charge predicted
       N       E                     dE             d eps       ncg     rms          rms(c)
DAV:   1    -0.125537795580E+03   -0.24003E-03   -0.74269E-03 14208   0.332E-01    0.165E-02
DAV:   2    -0.125537796964E+03   -0.13840E-05   -0.66711E-05 21216   0.349E-02    0.101E-02
DAV:   3    -0.125537796890E+03    0.74370E-07   -0.71981E-06 25392   0.997E-03
  28 F= -.12713708E+03 E0= -.12713630E+03  d E =-.594164E-04  mag=    -0.0000
 trial-energy change:   -0.000059  1 .order   -0.000059   -0.000075   -0.000043
 step:   0.8203(harm=  0.8203)  dis= 0.00102  next Energy=  -127.137109 (dE=-0.867E-04)
 bond charge predicted
       N       E                     dE             d eps       ncg     rms          rms(c)
DAV:   1    -0.125538060718E+03   -0.26375E-03   -0.12565E-02 14208   0.432E-01    0.216E-02
DAV:   2    -0.125538063583E+03   -0.28644E-05   -0.11309E-04 23856   0.455E-02    0.133E-02
DAV:   3    -0.125538063264E+03    0.31802E-06   -0.12321E-05 25776   0.129E-02    0.344E-03
DAV:   4    -0.125538063291E+03   -0.26272E-07   -0.17690E-06 14976   0.524E-03
  29 F= -.12713711E+03 E0= -.12713633E+03  d E =-.894548E-04  mag=    -0.0000
 curvature:  -2.08 expect dE=-0.581E-03 dE for cont linesearch -0.112E-06
 trial: gam= 1.33202 g(F)=  0.279E-03 g(S)=  0.000E+00 ort = 0.759E-05 (trialstep = 0.219E+00)
 search vector abs. value=  0.221E-02
 bond charge predicted
       N       E                     dE             d eps       ncg     rms          rms(c)
DAV:   1    -0.125538280027E+03   -0.21676E-03   -0.60313E-03 14208   0.297E-01    0.156E-02
DAV:   2    -0.125538280514E+03   -0.48683E-06   -0.58053E-05 22224   0.324E-02    0.954E-03
DAV:   3    -0.125538279910E+03    0.60410E-06   -0.63475E-06 21504   0.964E-03
  30 F= -.12713716E+03 E0= -.12713638E+03  d E =-.466429E-04  mag=     0.0000
 trial-energy change:   -0.000047  1 .order   -0.000046   -0.000063   -0.000030
 step:   0.4123(harm=  0.4123)  dis= 0.00063  next Energy=  -127.137171 (dE=-0.596E-04)
 bond charge predicted
       N       E                     dE             d eps       ncg     rms          rms(c)
DAV:   1    -0.125538443774E+03   -0.16326E-03   -0.47127E-03 14208   0.263E-01    0.140E-02
DAV:   2    -0.125538444312E+03   -0.53827E-06   -0.44926E-05 24672   0.285E-02    0.860E-03
DAV:   3    -0.125538443953E+03    0.35942E-06   -0.47800E-06 21552   0.837E-03
  31 F= -.12713717E+03 E0= -.12713639E+03  d E =-.606769E-04  mag=     0.0000
 curvature:  -1.57 expect dE=-0.276E-03 dE for cont linesearch -0.116E-07
 trial: gam= 0.65417 g(F)=  0.176E-03 g(S)=  0.000E+00 ort = 0.403E-05 (trialstep = 0.258E+00)
 search vector abs. value=  0.112E-02
 bond charge predicted
       N       E                     dE             d eps       ncg     rms          rms(c)
DAV:   1    -0.125538639431E+03   -0.19512E-03   -0.42081E-03 14208   0.246E-01    0.125E-02
DAV:   2    -0.125538640107E+03   -0.67644E-06   -0.37711E-05 19440   0.263E-02    0.779E-03
DAV:   3    -0.125538640131E+03   -0.23789E-07   -0.45652E-06 18864   0.801E-03
  32 F= -.12713721E+03 E0= -.12713643E+03  d E =-.383820E-04  mag=     0.0000
 trial-energy change:   -0.000038  1 .order   -0.000038   -0.000046   -0.000030
 step:   0.7213(harm=  0.7213)  dis= 0.00097  next Energy=  -127.137237 (dE=-0.643E-04)
 bond charge predicted
       N       E                     dE             d eps       ncg     rms          rms(c)
DAV:   1    -0.125538951771E+03   -0.31166E-03   -0.13618E-02 14208   0.444E-01    0.223E-02
DAV:   2    -0.125538953834E+03   -0.20627E-05   -0.12134E-04 22464   0.470E-02    0.139E-02
DAV:   3    -0.125538953592E+03    0.24136E-06   -0.14815E-05 24000   0.140E-02    0.380E-03
DAV:   4    -0.125538953638E+03   -0.45401E-07   -0.26039E-06 18576   0.614E-03
  33 F= -.12713724E+03 E0= -.12713646E+03  d E =-.677801E-04  mag=    -0.0000
 curvature:  -2.27 expect dE=-0.580E-03 dE for cont linesearch -0.183E-06
 trial: gam= 1.40719 g(F)=  0.255E-03 g(S)=  0.000E+00 ort = 0.952E-05 (trialstep = 0.157E+00)
 search vector abs. value=  0.251E-02
 bond charge predicted
       N       E                     dE             d eps       ncg     rms          rms(c)
DAV:   1    -0.125539141402E+03   -0.18781E-03   -0.37051E-03 14208   0.232E-01    0.114E-02
DAV:   2    -0.125539141845E+03   -0.44329E-06   -0.33131E-05 18672   0.244E-02    0.699E-03
DAV:   3    -0.125539141849E+03   -0.36753E-08   -0.35055E-06 17616   0.710E-03
  34 F= -.12713728E+03 E0= -.12713650E+03  d E =-.371088E-04  mag=    -0.0000
 ZBRENT: can't locate minimum, use default step
 trial-energy change:   -0.000037  1 .order   -0.000037   -0.000042   -0.000032
 step:   0.6283(harm=  0.6333)  dis= 0.00162  next Energy=  -127.137325 (dE=-0.850E-04)
 bond charge predicted
       N       E                     dE             d eps       ncg     rms          rms(c)
DAV:   1    -0.125539646343E+03   -0.50450E-03   -0.33347E-02 14208   0.698E-01    0.340E-02
DAV:   2    -0.125539650086E+03   -0.37438E-05   -0.29096E-04 23520   0.714E-02    0.208E-02
DAV:   3    -0.125539648446E+03    0.16409E-05   -0.30749E-05 25632   0.200E-02    0.506E-03
DAV:   4    -0.125539648777E+03   -0.33170E-06   -0.39859E-06 16272   0.766E-03
  35 F= -.12713733E+03 E0= -.12713655E+03  d E =-.908416E-04  mag=     0.0000
 curvature:  -2.96 expect dE=-0.593E-03 dE for cont linesearch -0.601E-06
 trial: gam= 0.79294 g(F)=  0.201E-03 g(S)=  0.000E+00 ort = 0.226E-04 (trialstep = 0.251E+00)
 search vector abs. value=  0.181E-02
 bond charge predicted
       N       E                     dE             d eps       ncg     rms          rms(c)
DAV:   1    -0.125539899765E+03   -0.25132E-03   -0.75302E-03 14208   0.337E-01    0.162E-02
DAV:   2    -0.125539900688E+03   -0.92305E-06   -0.72815E-05 21552   0.361E-02    0.101E-02
DAV:   3    -0.125539900359E+03    0.32848E-06   -0.84795E-06 18192   0.111E-02
  36 F= -.12713737E+03 E0= -.12713659E+03  d E =-.402930E-04  mag=     0.0000
 trial-energy change:   -0.000040  1 .order   -0.000039   -0.000055   -0.000023
 step:   0.4356(harm=  0.4356)  dis= 0.00086  next Energy=  -127.137379 (dE=-0.476E-04)
 bond charge predicted
       N       E                     dE             d eps       ncg     rms          rms(c)
DAV:   1    -0.125540065299E+03   -0.16461E-03   -0.40753E-03 14208   0.248E-01    0.123E-02
DAV:   2    -0.125540066002E+03   -0.70293E-06   -0.39287E-05 25056   0.265E-02    0.775E-03
DAV:   3    -0.125540066066E+03   -0.63385E-07   -0.44605E-06 14688   0.827E-03
  37 F= -.12713738E+03 E0= -.12713660E+03  d E =-.510845E-04  mag=     0.0000
 curvature:  -1.81 expect dE=-0.280E-03 dE for cont linesearch -0.612E-07
 trial: gam= 0.82370 g(F)=  0.155E-03 g(S)=  0.000E+00 ort = 0.783E-05 (trialstep = 0.288E+00)
 search vector abs. value=  0.140E-02
 bond charge predicted
       N       E                     dE             d eps       ncg     rms          rms(c)
DAV:   1    -0.125540323451E+03   -0.25745E-03   -0.77566E-03 14208   0.339E-01    0.160E-02
DAV:   2    -0.125540324133E+03   -0.68217E-06   -0.72713E-05 18816   0.354E-02    0.978E-03
DAV:   3    -0.125540324270E+03   -0.13636E-06   -0.77416E-06 14736   0.106E-02
  38 F= -.12713742E+03 E0= -.12713664E+03  d E =-.387325E-04  mag=    -0.0000
 trial-energy change:   -0.000039  1 .order   -0.000037   -0.000046   -0.000027
 step:   0.7046(harm=  0.7046)  dis= 0.00114  next Energy=  -127.137439 (dE=-0.568E-04)
 bond charge predicted
       N       E                     dE             d eps       ncg     rms          rms(c)
DAV:   1    -0.125540664195E+03   -0.34006E-03   -0.16201E-02 14208   0.490E-01    0.232E-02
DAV:   2    -0.125540665632E+03   -0.14365E-05   -0.15215E-04 20400   0.511E-02    0.142E-02
DAV:   3    -0.125540665507E+03    0.12457E-06   -0.16349E-05 16176   0.152E-02    0.394E-03
DAV:   4    -0.125540665959E+03   -0.45154E-06   -0.29682E-06 15840   0.706E-03
  39 F= -.12713745E+03 E0= -.12713667E+03  d E =-.633336E-04  mag=    -0.0000
 curvature:  -3.06 expect dE=-0.447E-03 dE for cont linesearch -0.317E-06
 trial: gam= 0.90004 g(F)=  0.146E-03 g(S)=  0.000E+00 ort = 0.120E-04 (trialstep = 0.371E+00)
 search vector abs. value=  0.130E-02
 bond charge predicted
       N       E                     dE             d eps       ncg     rms          rms(c)
DAV:   1    -0.125540983275E+03   -0.31777E-03   -0.12983E-02 14208   0.445E-01    0.215E-02
DAV:   2    -0.125540983681E+03   -0.40582E-06   -0.13022E-04 21888   0.478E-02    0.133E-02
DAV:   3    -0.125540982581E+03    0.10994E-05   -0.16019E-05 19776   0.152E-02    0.288E-03
DAV:   4    -0.125540982838E+03   -0.25712E-06   -0.24103E-06 16032   0.639E-03
  40 F= -.12713748E+03 E0= -.12713670E+03  d E =-.313426E-04  mag=    -0.0000
 trial-energy change:   -0.000031  1 .order   -0.000031   -0.000058   -0.000004
 step:   0.3986(harm=  0.3986)  dis= 0.00055  next Energy=  -127.137477 (dE=-0.313E-04)
 bond charge predicted
       N       E                     dE             d eps       ncg     rms          rms(c)
DAV:   1    -0.125541003883E+03   -0.21302E-04   -0.70289E-05 15264   0.328E-02    0.197E-03
DAV:   2    -0.125541003934E+03   -0.50477E-07   -0.88623E-07 21888   0.429E-03
  41 F= -.12713748E+03 E0= -.12713670E+03  d E =-.316108E-04  mag=    -0.0000
 curvature:  -1.65 expect dE=-0.135E-03 dE for cont linesearch -0.615E-08
 trial: gam= 0.63819 g(F)=  0.817E-04 g(S)=  0.000E+00 ort = 0.220E-05 (trialstep = 0.377E+00)
 search vector abs. value=  0.614E-03
 bond charge predicted
       N       E                     dE             d eps       ncg     rms          rms(c)
DAV:   1    -0.125541243990E+03   -0.24011E-03   -0.62387E-03 14208   0.306E-01    0.147E-02
DAV:   2    -0.125541243413E+03    0.57758E-06   -0.58680E-05 14448   0.325E-02    0.898E-03
DAV:   3    -0.125541243321E+03    0.91884E-07   -0.78656E-06 14256   0.108E-02
  42 F= -.12713750E+03 E0= -.12713672E+03  d E =-.229968E-04  mag=    -0.0000
 trial-energy change:   -0.000023  1 .order   -0.000022   -0.000031   -0.000013
 step:   0.6341(harm=  0.6341)  dis= 0.00063  next Energy=  -127.137503 (dE=-0.263E-04)
 bond charge predicted
       N       E                     dE             d eps       ncg     rms          rms(c)
DAV:   1    -0.125541397774E+03   -0.15436E-03   -0.29521E-03 14208   0.211E-01    0.105E-02
DAV:   2    -0.125541397692E+03    0.82275E-07   -0.28209E-05 16272   0.228E-02    0.650E-03
DAV:   3    -0.125541397869E+03   -0.17736E-06   -0.38118E-06 14688   0.780E-03
  43 F= -.12713751E+03 E0= -.12713673E+03  d E =-.298962E-04  mag=    -0.0000
 curvature:  -2.34 expect dE=-0.229E-03 dE for cont linesearch -0.197E-06
 trial: gam= 0.98219 g(F)=  0.976E-04 g(S)=  0.000E+00 ort = 0.719E-05 (trialstep = 0.374E+00)
 search vector abs. value=  0.704E-03
 bond charge predicted
       N       E                     dE             d eps       ncg     rms          rms(c)
DAV:   1    -0.125541655806E+03   -0.25811E-03   -0.72950E-03 14208   0.333E-01    0.165E-02
DAV:   2    -0.125541655654E+03    0.15241E-06   -0.72879E-05 17232   0.364E-02    0.102E-02
DAV:   3    -0.125541655323E+03    0.33053E-06   -0.98777E-06 16032   0.122E-02
  44 F= -.12713753E+03 E0= -.12713675E+03  d E =-.243900E-04  mag=     0.0000
 trial-energy change:   -0.000024  1 .order   -0.000023   -0.000039   -0.000006
 step:   0.4418(harm=  0.4418)  dis= 0.00054  next Energy=  -127.137530 (dE=-0.231E-04)
 bond charge predicted
       N       E                     dE             d eps       ncg     rms          rms(c)
DAV:   1    -0.125541698858E+03   -0.43205E-04   -0.25749E-04 15168   0.627E-02    0.387E-03
DAV:   2    -0.125541698863E+03   -0.46566E-08   -0.28378E-06 14592   0.779E-03
  45 F= -.12713753E+03 E0= -.12713675E+03  d E =-.253627E-04  mag=     0.0000
 curvature:  -1.49 expect dE=-0.849E-04 dE for cont linesearch -0.227E-06
 trial: gam= 0.67920 g(F)=  0.571E-04 g(S)=  0.000E+00 ort = 0.104E-04 (trialstep = 0.387E+00)
 search vector abs. value=  0.396E-03
 bond charge predicted
       N       E                     dE             d eps       ncg     rms          rms(c)
DAV:   1    -0.125541906033E+03   -0.20717E-03   -0.42861E-03 14208   0.252E-01    0.129E-02
DAV:   2    -0.125541905782E+03    0.25158E-06   -0.44308E-05 14208   0.285E-02    0.802E-03
DAV:   3    -0.125541905790E+03   -0.84392E-08   -0.58361E-06 14208   0.102E-02
  46 F= -.12713755E+03 E0= -.12713677E+03  d E =-.164087E-04  mag=    -0.0000
 trial-energy change:   -0.000016  1 .order   -0.000016   -0.000025   -0.000007
 step:   0.5300(harm=  0.5300)  dis= 0.00053  next Energy=  -127.137549 (dE=-0.170E-04)
 bond charge predicted
       N       E                     dE             d eps       ncg     rms          rms(c)
DAV:   1    -0.125541977906E+03   -0.72124E-04   -0.60053E-04 14208   0.945E-02    0.518E-03
DAV:   2    -0.125541977859E+03    0.46440E-07   -0.66527E-06 14208   0.117E-02
  47 F= -.12713755E+03 E0= -.12713677E+03  d E =-.182297E-04  mag=     0.0000
 curvature:  -1.64 expect dE=-0.634E-04 dE for cont linesearch -0.253E-06
 ZBRENT: increasing intervall
 opt :   0.8157  next Energy=  -127.137550 (dE=-0.178E-04)
 bond charge predicted
       N       E                     dE             d eps       ncg     rms          rms(c)
DAV:   1    -0.125542115842E+03   -0.13794E-03   -0.23091E-03 14208   0.186E-01    0.991E-03
DAV:   2    -0.125542115586E+03    0.25597E-06   -0.24354E-05 14208   0.216E-02    0.619E-03
DAV:   3    -0.125542115861E+03   -0.27497E-06   -0.36397E-06 14784   0.879E-03
  48 F= -.12713755E+03 E0= -.12713677E+03  d E =-.157439E-04  mag=     0.0000
 curvature:   3.00 expect dE= 0.325E-03 dE for cont linesearch  0.595E-05
 ZBRENT: bracketing found
 ZBRENT: interpolating
 opt :   0.5924  next Energy=  -127.137551 (dE=-0.185E-04)
 bond charge predicted
       N       E                     dE             d eps       ncg     rms          rms(c)
DAV:   1    -0.125542009003E+03    0.10658E-03   -0.14200E-03 14208   0.145E-01    0.695E-03
DAV:   2    -0.125542008971E+03    0.31847E-07   -0.16883E-05 17760   0.176E-02    0.430E-03
DAV:   3    -0.125542009016E+03   -0.45352E-07   -0.21977E-06 19824   0.670E-03
  49 F= -.12713755E+03 E0= -.12713677E+03  d E =-.187110E-04  mag=    -0.0000
 curvature:  -0.12 expect dE=-0.601E-05 dE for cont linesearch -0.823E-10
 trial: gam= 0.95005 g(F)=  0.489E-04 g(S)=  0.000E+00 ort = 0.515E-06 (trialstep = 0.416E+00)
 search vector abs. value=  0.407E-03
 bond charge predicted
       N       E                     dE             d eps       ncg     rms          rms(c)
DAV:   1    -0.125542245836E+03   -0.23687E-03   -0.54034E-03 14208   0.282E-01    0.133E-02
DAV:   2    -0.125542245711E+03    0.12545E-06   -0.58957E-05 16992   0.324E-02    0.843E-03
DAV:   3    -0.125542245538E+03    0.17247E-06   -0.79083E-06 14208   0.112E-02
  50 F= -.12713756E+03 E0= -.12713678E+03  d E =-.120024E-04  mag=    -0.0000
 trial-energy change:   -0.000012  1 .order   -0.000011   -0.000021   -0.000002
 step:   0.4720(harm=  0.4720)  dis= 0.00044  next Energy=  -127.137563 (dE=-0.116E-04)
 bond charge predicted
       N       E                     dE             d eps       ncg     rms          rms(c)
DAV:   1    -0.125542276057E+03   -0.30347E-04   -0.10662E-04 14784   0.399E-02    0.283E-03
DAV:   2    -0.125542276000E+03    0.57638E-07   -0.15804E-06 14208   0.637E-03
  51 F= -.12713756E+03 E0= -.12713678E+03  d E =-.125005E-04  mag=    -0.0000
 curvature:  -1.95 expect dE=-0.861E-04 dE for cont linesearch -0.266E-06
 trial: gam= 0.64553 g(F)=  0.442E-04 g(S)=  0.000E+00 ort = 0.745E-05 (trialstep = 0.428E+00)
 search vector abs. value=  0.224E-03
 bond charge predicted
       N       E                     dE             d eps       ncg     rms          rms(c)
DAV:   1    -0.125542467012E+03   -0.19095E-03   -0.35203E-03 14208   0.233E-01    0.114E-02
DAV:   2    -0.125542466630E+03    0.38186E-06   -0.40295E-05 14304   0.272E-02    0.721E-03
DAV:   3    -0.125542466619E+03    0.10608E-07   -0.57181E-06 14208   0.104E-02
  52 F= -.12713758E+03 E0= -.12713680E+03  d E =-.133924E-04  mag=    -0.0000
 trial-energy change:   -0.000013  1 .order   -0.000013   -0.000021   -0.000004
 step:   0.5336(harm=  0.5336)  dis= 0.00045  next Energy=  -127.137577 (dE=-0.131E-04)
 bond charge predicted
       N       E                     dE             d eps       ncg     rms          rms(c)
DAV:   1    -0.125542511500E+03   -0.44870E-04   -0.22757E-04 14208   0.594E-02    0.335E-03
DAV:   2    -0.125542511388E+03    0.11179E-06   -0.31554E-06 14208   0.868E-03
  53 F= -.12713758E+03 E0= -.12713680E+03  d E =-.142164E-04  mag=     0.0000
 curvature:  -1.22 expect dE=-0.494E-04 dE for cont linesearch -0.172E-06
 trial: gam= 0.98099 g(F)=  0.406E-04 g(S)=  0.000E+00 ort = 0.562E-05 (trialstep = 0.376E+00)
 search vector abs. value=  0.267E-03
 bond charge predicted
       N       E                     dE             d eps       ncg     rms          rms(c)
DAV:   1    -0.125542698671E+03   -0.18717E-03   -0.34309E-03 14208   0.230E-01    0.111E-02
DAV:   2    -0.125542698070E+03    0.60068E-06   -0.38494E-05 14832   0.266E-02    0.691E-03
DAV:   3    -0.125542698263E+03   -0.19329E-06   -0.56498E-06 14640   0.104E-02
  54 F= -.12713759E+03 E0= -.12713681E+03  d E =-.119730E-04  mag=    -0.0000
 trial-energy change:   -0.000012  1 .order   -0.000011   -0.000017   -0.000005
 step:   0.5261(harm=  0.5261)  dis= 0.00059  next Energy=  -127.137590 (dE=-0.121E-04)
 bond charge predicted
       N       E                     dE             d eps       ncg     rms          rms(c)
DAV:   1    -0.125542769776E+03   -0.71706E-04   -0.56422E-04 14208   0.933E-02    0.484E-03
DAV:   2    -0.125542769570E+03    0.20605E-06   -0.69743E-06 14736   0.123E-02
  55 F= -.12713759E+03 E0= -.12713681E+03  d E =-.135193E-04  mag=    -0.0000
 curvature:  -1.52 expect dE=-0.341E-04 dE for cont linesearch -0.327E-06
 ZBRENT: increasing intervall
 opt :   0.8261  next Energy=  -127.137592 (dE=-0.141E-04)
 bond charge predicted
       N       E                     dE             d eps       ncg     rms          rms(c)
DAV:   1    -0.125542908077E+03   -0.13830E-03   -0.21595E-03 14208   0.183E-01    0.911E-03
DAV:   2    -0.125542907560E+03    0.51716E-06   -0.24590E-05 14256   0.218E-02    0.575E-03
DAV:   3    -0.125542908008E+03   -0.44742E-06   -0.42213E-06 14880   0.966E-03
  56 F= -.12713759E+03 E0= -.12713681E+03  d E =-.124440E-04  mag=     0.0000
 curvature:  -2.78 expect dE=-0.191E-03 dE for cont linesearch -0.401E-05
 ZBRENT: bracketing found
 ZBRENT: interpolating
 opt :   0.6096  next Energy=  -127.137592 (dE=-0.138E-04)
 bond charge predicted
       N       E                     dE             d eps       ncg     rms          rms(c)
DAV:   1    -0.125542809188E+03    0.98373E-04   -0.11314E-03 14208   0.132E-01    0.580E-03
DAV:   2    -0.125542808941E+03    0.24681E-06   -0.14645E-05 14208   0.167E-02    0.361E-03
DAV:   3    -0.125542808986E+03   -0.45111E-07   -0.23741E-06 20208   0.726E-03
  57 F= -.12713759E+03 E0= -.12713681E+03  d E =-.140886E-04  mag=    -0.0000
 curvature:  -0.22 expect dE=-0.677E-05 dE for cont linesearch -0.159E-08
 trial: gam= 0.88478 g(F)=  0.309E-04 g(S)=  0.000E+00 ort = 0.139E-05 (trialstep = 0.423E+00)
 search vector abs. value=  0.242E-03
 bond charge predicted
       N       E                     dE             d eps       ncg     rms          rms(c)
DAV:   1    -0.125543013526E+03   -0.20459E-03   -0.43001E-03 14208   0.256E-01    0.112E-02
DAV:   2    -0.125543012921E+03    0.60496E-06   -0.46927E-05 19392   0.286E-02    0.702E-03
DAV:   3    -0.125543012773E+03    0.14852E-06   -0.61087E-06 14208   0.101E-02
  58 F= -.12713760E+03 E0= -.12713682E+03  d E =-.894168E-05  mag=     0.0000
 trial-energy change:   -0.000009  1 .order   -0.000009   -0.000014   -0.000003
 step:   0.5666(harm=  0.5666)  dis= 0.00058  next Energy=  -127.137601 (dE=-0.910E-05)
 bond charge predicted
       N       E                     dE             d eps       ncg     rms          rms(c)
DAV:   1    -0.125543080531E+03   -0.67610E-04   -0.51481E-04 17040   0.885E-02    0.460E-03
DAV:   2    -0.125543080259E+03    0.27189E-06   -0.54597E-06 14640   0.108E-02
  59 F= -.12713760E+03 E0= -.12713682E+03  d E =-.101688E-04  mag=     0.0000
 curvature:  -2.14 expect dE=-0.727E-04 dE for cont linesearch -0.476E-06
 ZBRENT: increasing intervall
 opt :   0.8542  next Energy=  -127.137604 (dE=-0.120E-04)
 bond charge predicted
       N       E                     dE             d eps       ncg     rms          rms(c)
DAV:   1    -0.125543213190E+03   -0.13266E-03   -0.19568E-03 14640   0.173E-01    0.834E-03
DAV:   2    -0.125543212617E+03    0.57295E-06   -0.20354E-05 14640   0.198E-02    0.524E-03
DAV:   3    -0.125543213037E+03   -0.41921E-06   -0.36927E-06 15840   0.899E-03
  60 F= -.12713760E+03 E0= -.12713682E+03  d E =-.104364E-04  mag=     0.0000
 curvature:  -8.44 expect dE=-0.602E-03 dE for cont linesearch -0.340E-05
 ZBRENT: bracketing found
 ZBRENT: interpolating
 opt :   0.6892  next Energy=  -127.137603 (dE=-0.106E-04)
 bond charge predicted
       N       E                     dE             d eps       ncg     rms          rms(c)
DAV:   1    -0.125543137566E+03    0.75051E-04   -0.64741E-04 14208   0.996E-02    0.423E-03
DAV:   2    -0.125543137358E+03    0.20849E-06   -0.82664E-06 14208   0.128E-02
  61 F= -.12713760E+03 E0= -.12713682E+03  d E =-.107746E-04  mag=    -0.0000
 curvature:  -1.12 expect dE=-0.524E-04 dE for cont linesearch -0.544E-08
 trial: gam= 1.37538 g(F)=  0.470E-04 g(S)=  0.000E+00 ort =-0.109E-05 (trialstep = 0.230E+00)
 search vector abs. value=  0.502E-03
 bond charge predicted
       N       E                     dE             d eps       ncg     rms          rms(c)
DAV:   1    -0.125543301887E+03   -0.16432E-03   -0.27355E-03 15888   0.202E-01    0.868E-03
DAV:   2    -0.125543301285E+03    0.60297E-06   -0.28527E-05 16128   0.226E-02    0.536E-03
DAV:   3    -0.125543301269E+03    0.15717E-07   -0.41764E-06 14304   0.898E-03
  62 F= -.12713761E+03 E0= -.12713683E+03  d E =-.875545E-05  mag=    -0.0000
 trial-energy change:   -0.000009  1 .order   -0.000008   -0.000010   -0.000006
 step:   0.4927(harm=  0.4927)  dis= 0.00067  next Energy=  -127.137614 (dE=-0.112E-04)
 bond charge predicted
       N       E                     dE             d eps       ncg     rms          rms(c)
DAV:   1    -0.125543484215E+03   -0.18293E-03   -0.35500E-03 14208   0.231E-01    0.108E-02
DAV:   2    -0.125543483414E+03    0.80127E-06   -0.36746E-05 15456   0.260E-02    0.678E-03
DAV:   3    -0.125543483668E+03   -0.25456E-06   -0.56878E-06 14784   0.104E-02
  63 F= -.12713762E+03 E0= -.12713684E+03  d E =-.133855E-04  mag=     0.0000
 curvature:  -2.72 expect dE=-0.903E-04 dE for cont linesearch -0.411E-08
 trial: gam= 0.60067 g(F)=  0.332E-04 g(S)=  0.000E+00 ort = 0.871E-06 (trialstep = 0.282E+00)
 search vector abs. value=  0.215E-03
 bond charge predicted
       N       E                     dE             d eps       ncg     rms          rms(c)
DAV:   1    -0.125543618111E+03   -0.13470E-03   -0.17470E-03 14208   0.164E-01    0.787E-03
DAV:   2    -0.125543617715E+03    0.39569E-06   -0.20201E-05 15024   0.198E-02    0.497E-03
DAV:   3    -0.125543618075E+03   -0.35972E-06   -0.34918E-06 15216   0.878E-03
  64 F= -.12713762E+03 E0= -.12713684E+03  d E =-.825797E-05  mag=    -0.0000
 trial-energy change:   -0.000008  1 .order   -0.000007   -0.000010   -0.000005
 step:   0.5995(harm=  0.5995)  dis= 0.00048  next Energy=  -127.137626 (dE=-0.101E-04)
 bond charge predicted
       N       E                     dE             d eps       ncg     rms          rms(c)
DAV:   1    -0.125543763577E+03   -0.14586E-03   -0.21951E-03 14208   0.184E-01    0.879E-03
DAV:   2    -0.125543763123E+03    0.45346E-06   -0.25064E-05 17232   0.216E-02    0.557E-03
DAV:   3    -0.125543763419E+03   -0.29550E-06   -0.39577E-06 14736   0.897E-03
  65 F= -.12713763E+03 E0= -.12713685E+03  d E =-.118092E-04  mag=    -0.0000
 curvature:  -1.91 expect dE=-0.648E-04 dE for cont linesearch -0.115E-07
 trial: gam= 1.18210 g(F)=  0.339E-04 g(S)=  0.000E+00 ort =-0.114E-05 (trialstep = 0.224E+00)
 search vector abs. value=  0.332E-03
 bond charge predicted
       N       E                     dE             d eps       ncg     rms          rms(c)
DAV:   1    -0.125543897486E+03   -0.13436E-03   -0.16309E-03 14208   0.157E-01    0.765E-03
DAV:   2    -0.125543897104E+03    0.38273E-06   -0.18110E-05 14688   0.186E-02    0.477E-03
DAV:   3    -0.125543897453E+03   -0.34896E-06   -0.29366E-06 14496   0.800E-03
  66 F= -.12713763E+03 E0= -.12713685E+03  d E =-.654208E-05  mag=     0.0000
 trial-energy change:   -0.000007  1 .order   -0.000006   -0.000007   -0.000004
 step:   0.5601(harm=  0.5601)  dis= 0.00058  next Energy=  -127.137637 (dE=-0.911E-05)
 bond charge predicted
       N       E                     dE             d eps       ncg     rms          rms(c)
DAV:   1    -0.125544092891E+03   -0.19579E-03   -0.36431E-03 14208   0.235E-01    0.111E-02
DAV:   2    -0.125544092299E+03    0.59144E-06   -0.39191E-05 16800   0.267E-02    0.693E-03
DAV:   3    -0.125544092535E+03   -0.23568E-06   -0.54200E-06 14352   0.999E-03
  67 F= -.12713764E+03 E0= -.12713686E+03  d E =-.106185E-04  mag=    -0.0000
 curvature:  -2.86 expect dE=-0.624E-04 dE for cont linesearch -0.296E-07
 trial: gam= 0.56337 g(F)=  0.218E-04 g(S)=  0.000E+00 ort =-0.185E-05 (trialstep = 0.291E+00)
 search vector abs. value=  0.125E-03
 bond charge predicted
       N       E                     dE             d eps       ncg     rms          rms(c)
DAV:   1    -0.125544199221E+03   -0.10692E-03   -0.10659E-03 14208   0.127E-01    0.650E-03
DAV:   2    -0.125544198939E+03    0.28142E-06   -0.12747E-05 14208   0.160E-02    0.414E-03
DAV:   3    -0.125544199369E+03   -0.42988E-06   -0.24620E-06 14208   0.776E-03
  68 F= -.12713764E+03 E0= -.12713686E+03  d E =-.502457E-05  mag=    -0.0000
 trial-energy change:   -0.000005  1 .order   -0.000004   -0.000006   -0.000003
 step:   0.5234(harm=  0.5234)  dis= 0.00035  next Energy=  -127.137644 (dE=-0.544E-05)
 bond charge predicted
       N       E                     dE             d eps       ncg     rms          rms(c)
DAV:   1    -0.125544281542E+03   -0.82603E-04   -0.67107E-04 14208   0.101E-01    0.503E-03
DAV:   2    -0.125544281402E+03    0.13992E-06   -0.80692E-06 17664   0.126E-02
  69 F= -.12713764E+03 E0= -.12713686E+03  d E =-.595566E-05  mag=     0.0000
 curvature:  -1.58 expect dE=-0.326E-04 dE for cont linesearch -0.871E-07
 trial: gam= 0.95621 g(F)=  0.207E-04 g(S)=  0.000E+00 ort = 0.263E-05 (trialstep = 0.302E+00)
 search vector abs. value=  0.140E-03
 bond charge predicted
       N       E                     dE             d eps       ncg     rms          rms(c)
DAV:   1    -0.125544400307E+03   -0.11876E-03   -0.12178E-03 14544   0.136E-01    0.696E-03
DAV:   2    -0.125544399872E+03    0.43447E-06   -0.13823E-05 14640   0.164E-02    0.432E-03
DAV:   3    -0.125544400263E+03   -0.39055E-06   -0.24022E-06 14352   0.730E-03
  70 F= -.12713765E+03 E0= -.12713687E+03  d E =-.554542E-05  mag=     0.0000
 trial-energy change:   -0.000006  1 .order   -0.000005   -0.000007   -0.000003
 step:   0.5458(harm=  0.5458)  dis= 0.00041  next Energy=  -127.137651 (dE=-0.633E-05)
 bond charge predicted
       N       E                     dE             d eps       ncg     rms          rms(c)
DAV:   1    -0.125544493944E+03   -0.94072E-04   -0.82725E-04 14208   0.112E-01    0.555E-03
DAV:   2    -0.125544493691E+03    0.25334E-06   -0.95843E-06 14496   0.137E-02
  71 F= -.12713765E+03 E0= -.12713687E+03  d E =-.722810E-05  mag=    -0.0000
 curvature:  -1.65 expect dE=-0.161E-04 dE for cont linesearch -0.383E-06
 ZBRENT: increasing intervall
 opt :   1.0342  next Energy=  -127.137652 (dE=-0.774E-05)
 bond charge predicted
       N       E                     dE             d eps       ncg     rms          rms(c)
DAV:   1    -0.125544676104E+03   -0.18216E-03   -0.32078E-03 14208   0.221E-01    0.111E-02
DAV:   2    -0.125544675332E+03    0.77213E-06   -0.35122E-05 14592   0.256E-02    0.689E-03
DAV:   3    -0.125544675745E+03   -0.41313E-06   -0.53084E-06 14208   0.101E-02
  72 F= -.12713765E+03 E0= -.12713687E+03  d E =-.585572E-05  mag=    -0.0000
 curvature:  -2.18 expect dE=-0.893E-04 dE for cont linesearch -0.335E-05
 ZBRENT: bracketing found
 ZBRENT: interpolating
 opt :   0.6827  next Energy=  -127.137652 (dE=-0.762E-05)
 bond charge predicted
       N       E                     dE             d eps       ncg     rms          rms(c)
DAV:   1    -0.125544546084E+03    0.12925E-03   -0.16682E-03 14208   0.159E-01    0.713E-03
DAV:   2    -0.125544545747E+03    0.33747E-06   -0.21127E-05 17664   0.198E-02    0.439E-03
DAV:   3    -0.125544545838E+03   -0.91058E-07   -0.30850E-06 20112   0.806E-03
  73 F= -.12713765E+03 E0= -.12713687E+03  d E =-.796563E-05  mag=     0.0000
 curvature:  -0.25 expect dE=-0.365E-05 dE for cont linesearch -0.337E-08
 trial: gam= 0.72992 g(F)=  0.143E-04 g(S)=  0.000E+00 ort = 0.136E-05 (trialstep = 0.378E+00)
 search vector abs. value=  0.910E-04
 bond charge predicted
       N       E                     dE             d eps       ncg     rms          rms(c)
DAV:   1    -0.125544669015E+03   -0.12327E-03   -0.13915E-03 14352   0.145E-01    0.649E-03
DAV:   2    -0.125544668702E+03    0.31328E-06   -0.17824E-05 19584   0.180E-02    0.413E-03
DAV:   3    -0.125544668746E+03   -0.44823E-07   -0.25201E-06 15072   0.725E-03
  74 F= -.12713766E+03 E0= -.12713688E+03  d E =-.335030E-05  mag=     0.0000
 trial-energy change:   -0.000003  1 .order   -0.000003   -0.000006   -0.000001
 step:   0.4486(harm=  0.4486)  dis= 0.00022  next Energy=  -127.137656 (dE=-0.344E-05)
 bond charge predicted
       N       E                     dE             d eps       ncg     rms          rms(c)
DAV:   1    -0.125544691261E+03   -0.22559E-04   -0.51600E-05 14208   0.285E-02    0.168E-03
DAV:   2    -0.125544691157E+03    0.10339E-06   -0.10342E-06 14208   0.531E-03
  75 F= -.12713766E+03 E0= -.12713688E+03  d E =-.337990E-05  mag=     0.0000
 curvature:  -1.33 expect dE=-0.168E-04 dE for cont linesearch -0.528E-07
 trial: gam= 0.71906 g(F)=  0.126E-04 g(S)=  0.000E+00 ort = 0.190E-05 (trialstep = 0.392E+00)
 search vector abs. value=  0.624E-04
 bond charge predicted
       N       E                     dE             d eps       ncg     rms          rms(c)
DAV:   1    -0.125544797334E+03   -0.10607E-03   -0.11102E-03 14208   0.130E-01    0.632E-03
DAV:   2    -0.125544796803E+03    0.53118E-06   -0.12441E-05 14208   0.151E-02    0.390E-03
DAV:   3    -0.125544796903E+03   -0.99532E-07   -0.20314E-06 14208   0.608E-03
  76 F= -.12713766E+03 E0= -.12713688E+03  d E =-.394773E-05  mag=     0.0000
 trial-energy change:   -0.000004  1 .order   -0.000004   -0.000005   -0.000002
 step:   0.5955(harm=  0.5955)  dis= 0.00033  next Energy=  -127.137660 (dE=-0.417E-05)
 bond charge predicted
       N       E                     dE             d eps       ncg     rms          rms(c)
DAV:   1    -0.125544850732E+03   -0.53929E-04   -0.30765E-04 14208   0.686E-02    0.344E-03
DAV:   2    -0.125544850560E+03    0.17170E-06   -0.36421E-06 14208   0.866E-03
  77 F= -.12713766E+03 E0= -.12713688E+03  d E =-.471964E-05  mag=     0.0000
 curvature:  -1.33 expect dE=-0.118E-04 dE for cont linesearch -0.197E-06
 ZBRENT: increasing intervall
 opt :   1.0026  next Energy=  -127.137661 (dE=-0.525E-05)
 bond charge predicted
       N       E                     dE             d eps       ncg     rms          rms(c)
DAV:   1    -0.125544956098E+03   -0.10537E-03   -0.11777E-03 14208   0.135E-01    0.659E-03
DAV:   2    -0.125544955576E+03    0.52158E-06   -0.13071E-05 14208   0.157E-02    0.411E-03
DAV:   3    -0.125544955754E+03   -0.17779E-06   -0.22504E-06 14208   0.668E-03
  78 F= -.12713766E+03 E0= -.12713688E+03  d E =-.421693E-05  mag=     0.0000
 curvature:  -3.56 expect dE=-0.117E-03 dE for cont linesearch -0.285E-05
 ZBRENT: bracketing found
 ZBRENT: interpolating
 opt :   0.7181  next Energy=  -127.137661 (dE=-0.491E-05)
 bond charge predicted
       N       E                     dE             d eps       ncg     rms          rms(c)
DAV:   1    -0.125544882884E+03    0.72692E-04   -0.57843E-04 14208   0.942E-02    0.408E-03
DAV:   2    -0.125544882687E+03    0.19754E-06   -0.75506E-06 17520   0.118E-02
  79 F= -.12713766E+03 E0= -.12713688E+03  d E =-.502131E-05  mag=    -0.0000
 curvature:  -0.23 expect dE=-0.338E-05 dE for cont linesearch -0.572E-08
 trial: gam= 1.39511 g(F)=  0.145E-04 g(S)=  0.000E+00 ort =-0.124E-05 (trialstep = 0.215E+00)
 search vector abs. value=  0.133E-03
 bond charge predicted
       N       E                     dE             d eps       ncg     rms          rms(c)
DAV:   1    -0.125544967190E+03   -0.84306E-04   -0.73930E-04 19968   0.105E-01    0.429E-03
DAV:   2    -0.125544966873E+03    0.31740E-06   -0.71896E-06 17040   0.115E-02
  80 F= -.12713766E+03 E0= -.12713688E+03  d E =-.258780E-05  mag=     0.0000
 ZBRENT: can't locate minimum, use default step
 trial-energy change:   -0.000003  1 .order   -0.000003   -0.000003   -0.000003
 step:   0.8613(harm=  2.9842)  dis= 0.00076  next Energy=  -127.137680 (dE=-0.191E-04)
 bond charge predicted
       N       E                     dE             d eps       ncg     rms          rms(c)
DAV:   1    -0.125545216352E+03   -0.24916E-03   -0.63320E-03 14208   0.309E-01    0.143E-02
DAV:   2    -0.125545214462E+03    0.18899E-05   -0.62189E-05 16656   0.333E-02    0.883E-03
DAV:   3    -0.125545214422E+03    0.39501E-07   -0.94956E-06 14496   0.122E-02
  81 F= -.12713767E+03 E0= -.12713689E+03  d E =-.536543E-05  mag=    -0.0000
 curvature:  -6.38 expect dE=-0.116E-03 dE for cont linesearch -0.157E-05
 ZBRENT: interpolating
 opt :   0.6514  next Energy=  -127.137667 (dE=-0.596E-05)
 bond charge predicted
       N       E                     dE             d eps       ncg     rms          rms(c)
DAV:   1    -0.125545135192E+03    0.79270E-04   -0.65439E-04 16368   0.996E-02    0.398E-03
DAV:   2    -0.125545135002E+03    0.18944E-06   -0.80214E-06 14928   0.125E-02
  82 F= -.12713767E+03 E0= -.12713689E+03  d E =-.549630E-05  mag=     0.0000
 curvature:  -2.44 expect dE=-0.284E-04 dE for cont linesearch -0.244E-07
 trial: gam= 0.45027 g(F)=  0.117E-04 g(S)=  0.000E+00 ort = 0.115E-05 (trialstep = 0.303E+00)
 search vector abs. value=  0.396E-04
 bond charge predicted
       N       E                     dE             d eps       ncg     rms          rms(c)
DAV:   1    -0.125545195287E+03   -0.60096E-04   -0.45265E-04 20880   0.831E-02    0.383E-03
DAV:   2    -0.125545194958E+03    0.32890E-06   -0.57818E-06 16656   0.108E-02
  83 F= -.12713767E+03 E0= -.12713689E+03  d E =-.256307E-05  mag=     0.0000
 trial-energy change:   -0.000003  1 .order   -0.000003   -0.000004   -0.000002
 step:   0.5670(harm=  0.5670)  dis= 0.00024  next Energy=  -127.137670 (dE=-0.345E-05)
 bond charge predicted
       N       E                     dE             d eps       ncg     rms          rms(c)
DAV:   1    -0.125545245526E+03   -0.50239E-04   -0.31509E-04 14352   0.708E-02    0.407E-03
DAV:   2    -0.125545245172E+03    0.35382E-06   -0.44526E-06 14352   0.976E-03
  84 F= -.12713767E+03 E0= -.12713689E+03  d E =-.264696E-05  mag=    -0.0000
 curvature:  -0.92 expect dE=-0.110E-04 dE for cont linesearch -0.896E-07
 ZBRENT: interpolating
 opt :   0.4991  next Energy=  -127.137669 (dE=-0.271E-05)
 bond charge predicted
       N       E                     dE             d eps       ncg     rms          rms(c)
DAV:   1    -0.125545232614E+03    0.12912E-04   -0.26731E-05 15456   0.205E-02    0.950E-04
DAV:   2    -0.125545232512E+03    0.10155E-06   -0.12576E-06 14208   0.567E-03
  85 F= -.12713767E+03 E0= -.12713689E+03  d E =-.285968E-05  mag=    -0.0000
 curvature:  -0.68 expect dE=-0.632E-05 dE for cont linesearch -0.291E-07
 trial: gam= 1.04804 g(F)=  0.923E-05 g(S)=  0.000E+00 ort =-0.130E-05 (trialstep = 0.271E+00)
 search vector abs. value=  0.500E-04
 bond charge predicted
       N       E                     dE             d eps       ncg     rms          rms(c)
DAV:   1    -0.125545295771E+03   -0.63158E-04   -0.41323E-04 19680   0.792E-02    0.364E-03
DAV:   2    -0.125545295562E+03    0.20962E-06   -0.41463E-06 16416   0.847E-03
  86 F= -.12713767E+03 E0= -.12713689E+03  d E =-.146427E-05  mag=    -0.0000
 trial-energy change:   -0.000001  1 .order   -0.000002   -0.000002   -0.000001
 step:   0.7288(harm=  0.7288)  dis= 0.00034  next Energy=  -127.137672 (dE=-0.287E-05)
 bond charge predicted
       N       E                     dE             d eps       ncg     rms          rms(c)
DAV:   1    -0.125545400382E+03   -0.10461E-03   -0.11459E-03 14208   0.133E-01    0.657E-03
DAV:   2    -0.125545399881E+03    0.50062E-06   -0.12225E-05 15936   0.147E-02    0.404E-03
DAV:   3    -0.125545399982E+03   -0.10115E-06   -0.18472E-06 15936   0.540E-03
  87 F= -.12713767E+03 E0= -.12713689E+03  d E =-.167470E-05  mag=    -0.0000
 curvature:  -2.31 expect dE=-0.386E-04 dE for cont linesearch -0.818E-06
 ZBRENT: interpolating
 opt :   0.5184  next Energy=  -127.137671 (dE=-0.212E-05)
 bond charge predicted
       N       E                     dE             d eps       ncg     rms          rms(c)
DAV:   1    -0.125545352548E+03    0.47333E-04   -0.24125E-04 15264   0.609E-02    0.258E-03
DAV:   2    -0.125545352500E+03    0.47408E-07   -0.31006E-06 18048   0.749E-03
  88 F= -.12713767E+03 E0= -.12713689E+03  d E =-.206474E-05  mag=    -0.0000
 curvature:  -1.25 expect dE=-0.127E-04 dE for cont linesearch -0.643E-08
 trial: gam= 0.65254 g(F)=  0.101E-04 g(S)=  0.000E+00 ort =-0.507E-06 (trialstep = 0.320E+00)
 search vector abs. value=  0.307E-04
 bond charge predicted
       N       E                     dE             d eps       ncg     rms          rms(c)
DAV:   1    -0.125545411869E+03   -0.59321E-04   -0.35511E-04 18624   0.735E-02    0.347E-03
DAV:   2    -0.125545411677E+03    0.19193E-06   -0.43494E-06 16848   0.885E-03
  89 F= -.12713767E+03 E0= -.12713689E+03  d E =-.227119E-05  mag=    -0.0000
 trial-energy change:   -0.000002  1 .order   -0.000002   -0.000003   -0.000002
 step:   0.6355(harm=  0.6355)  dis= 0.00020  next Energy=  -127.137674 (dE=-0.311E-05)
 bond charge predicted
       N       E                     dE             d eps       ncg     rms          rms(c)
DAV:   1    -0.125545468171E+03   -0.56302E-04   -0.31960E-04 14208   0.709E-02    0.395E-03
DAV:   2    -0.125545467954E+03    0.21705E-06   -0.40509E-06 14304   0.882E-03
  90 F= -.12713767E+03 E0= -.12713689E+03  d E =-.252647E-05  mag=    -0.0000
 curvature:  -1.00 expect dE=-0.976E-05 dE for cont linesearch -0.441E-07
 trial: gam= 1.18844 g(F)=  0.979E-05 g(S)=  0.000E+00 ort =-0.117E-05 (trialstep = 0.234E+00)
 search vector abs. value=  0.504E-04
 bond charge predicted
       N       E                     dE             d eps       ncg     rms          rms(c)
DAV:   1    -0.125545524628E+03   -0.56456E-04   -0.28886E-04 14304   0.665E-02    0.359E-03
DAV:   2    -0.125545524482E+03    0.14534E-06   -0.35590E-06 14304   0.851E-03
  91 F= -.12713768E+03 E0= -.12713690E+03  d E =-.125434E-05  mag=    -0.0000
 trial-energy change:   -0.000001  1 .order   -0.000001   -0.000002   -0.000001
 step:   0.4306(harm=  0.4306)  dis= 0.00018  next Energy=  -127.137676 (dE=-0.181E-05)
 bond charge predicted
       N       E                     dE             d eps       ncg     rms          rms(c)
DAV:   1    -0.125545571505E+03   -0.46877E-04   -0.20355E-04 14496   0.560E-02    0.313E-03
DAV:   2    -0.125545571347E+03    0.15777E-06   -0.26331E-06 14352   0.767E-03
  92 F= -.12713768E+03 E0= -.12713690E+03  d E =-.151988E-05  mag=    -0.0000
 curvature:  -1.29 expect dE=-0.112E-04 dE for cont linesearch -0.167E-09
 trial: gam= 0.53687 g(F)=  0.868E-05 g(S)=  0.000E+00 ort =-0.807E-07 (trialstep = 0.273E+00)
 search vector abs. value=  0.231E-04
 bond charge predicted
       N       E                     dE             d eps       ncg     rms          rms(c)
DAV:   1    -0.125545612636E+03   -0.41132E-04   -0.19317E-04 14784   0.555E-02    0.297E-03
DAV:   2    -0.125545612401E+03    0.23573E-06   -0.29358E-06 14640   0.815E-03
  93 F= -.12713768E+03 E0= -.12713690E+03  d E =-.180530E-05  mag=    -0.0000
 trial-energy change:   -0.000002  1 .order   -0.000002   -0.000002   -0.000001
 step:   0.6216(harm=  0.6216)  dis= 0.00019  next Energy=  -127.137678 (dE=-0.268E-05)
 bond charge predicted
       N       E                     dE             d eps       ncg     rms          rms(c)
DAV:   1    -0.125545663437E+03   -0.50800E-04   -0.31366E-04 14784   0.706E-02    0.385E-03
DAV:   2    -0.125545663128E+03    0.30939E-06   -0.42837E-06 14640   0.965E-03
  94 F= -.12713768E+03 E0= -.12713690E+03  d E =-.237698E-05  mag=     0.0000
 curvature:  -0.83 expect dE=-0.740E-05 dE for cont linesearch -0.365E-08
 trial: gam= 1.09721 g(F)=  0.889E-05 g(S)=  0.000E+00 ort =-0.318E-06 (trialstep = 0.220E+00)
 search vector abs. value=  0.360E-04
 bond charge predicted
       N       E                     dE             d eps       ncg     rms          rms(c)
DAV:   1    -0.125545704278E+03   -0.40841E-04   -0.19780E-04 14784   0.560E-02    0.316E-03
DAV:   2    -0.125545704009E+03    0.26825E-06   -0.30504E-06 14640   0.849E-03
  95 F= -.12713768E+03 E0= -.12713690E+03  d E =-.124788E-05  mag=    -0.0000
 trial-energy change:   -0.000001  1 .order   -0.000001   -0.000002   -0.000001
 step:   0.4130(harm=  0.4130)  dis= 0.00014  next Energy=  -127.137679 (dE=-0.176E-05)
 bond charge predicted
       N       E                     dE             d eps       ncg     rms          rms(c)
DAV:   1    -0.125545739336E+03   -0.35058E-04   -0.15239E-04 15168   0.492E-02    0.288E-03
DAV:   2    -0.125545739057E+03    0.27904E-06   -0.25488E-06 14640   0.794E-03
  96 F= -.12713768E+03 E0= -.12713690E+03  d E =-.152542E-05  mag=    -0.0000
 curvature:  -0.87 expect dE=-0.449E-05 dE for cont linesearch -0.406E-10
 trial: gam= 0.43126 g(F)=  0.516E-05 g(S)=  0.000E+00 ort =-0.410E-07 (trialstep = 0.259E+00)
 search vector abs. value=  0.118E-04
 bond charge predicted
       N       E                     dE             d eps       ncg     rms          rms(c)
DAV:   1    -0.125545767250E+03   -0.27914E-04   -0.91445E-05 15072   0.388E-02    0.217E-03
DAV:   2    -0.125545767028E+03    0.22213E-06   -0.19437E-06 14592   0.706E-03
  97 F= -.12713768E+03 E0= -.12713690E+03  d E =-.103458E-05  mag=     0.0000
 trial-energy change:   -0.000001  1 .order   -0.000001   -0.000001   -0.000001
 step:   0.6436(harm=  0.6436)  dis= 0.00014  next Energy=  -127.137681 (dE=-0.165E-05)
 bond charge predicted
       N       E                     dE             d eps       ncg     rms          rms(c)
