<?xml version="1.0" encoding="ISO-8859-1"?>
<modeling>
 <generator>
  <i name="program" type="string">vasp </i>
  <i name="version" type="string">6.3.2  </i>
  <i name="subversion" type="string">27Jun22 (build Dec 22 2022 13:13:19) complex                          parallel </i>
  <i name="platform" type="string">LinuxIFC </i>
  <i name="date" type="string">2023 08 23 </i>
  <i name="time" type="string">05:30:37 </i>
 </generator>
 <incar>
  <i type="string" name="SYSTEM">Lattice</i>
  <i type="int" name="ISTART">     0</i>
  <i type="string" name="PREC">Accurate</i>
  <i type="string" name="ALGO">Normal</i>
  <i type="int" name="ISPIN">     2</i>
  <i type="int" name="ICHARG">     2</i>
  <i type="int" name="NELM">    64</i>
  <i type="int" name="IBRION">     2</i>
  <i name="EDIFF">      0.00000100</i>
  <i name="EDIFFG">     -0.00100000</i>
  <i type="int" name="NSW">   128</i>
  <i type="int" name="ISIF">     2</i>
  <i name="ENCUT">    450.00000000</i>
  <i name="POTIM">      0.50000000</i>
  <i type="int" name="ISMEAR">     0</i>
  <i name="SIGMA">      0.10000000</i>
  <i type="logical" name="LWAVE"> F  </i>
  <i type="logical" name="LCHARG"> F  </i>
  <i type="string" name="GGA">PE</i>
  <i type="int" name="IVDW">    12</i>
 </incar>
 <primitive_cell>
  <structure name="primitive_cell" >
   <crystal>
    <varray name="basis" >
     <v>       4.21061551       2.43100000       0.00000000 </v>
     <v>      -4.21061551       2.43100000       0.00000000 </v>
     <v>       0.00000000       0.00000000      15.00000000 </v>
    </varray>
    <i name="volume">    307.08018938 </i>
    <varray name="rec_basis" >
     <v>       0.11874748       0.20567668       0.00000000 </v>
     <v>      -0.11874748       0.20567668       0.00000000 </v>
     <v>       0.00000000       0.00000000       0.06666667 </v>
    </varray>
   </crystal>
   <varray name="positions" >
    <v>       0.00415361       0.00267210       0.12034134 </v>
    <v>       0.35695335       0.00285503       0.09748893 </v>
    <v>       0.00423858       0.35550699       0.09749256 </v>
    <v>       0.65142295       0.65006557       0.09747688 </v>
    <v>       0.32808646       0.32671938       0.10030508 </v>
    <v>       0.68027775       0.00278085       0.10027562 </v>
    <v>       0.00416530       0.67883808       0.10026559 </v>
    <v>       0.11111044       0.38888856       0.33726667 </v>
    <v>       0.27777744       0.22222156       0.33726667 </v>
    <v>       0.11111044       0.88888856       0.33726667 </v>
    <v>       0.27777744       0.72222156       0.33726667 </v>
    <v>       0.61111044       0.38888856       0.33726667 </v>
    <v>       0.77777744       0.22222156       0.33726667 </v>
    <v>       0.61111044       0.88888856       0.33726667 </v>
    <v>       0.77777744       0.72222156       0.33726667 </v>
   </varray>
  </structure>
  <varray name="primitive_index" >
   <v type="int" >        1 </v>
   <v type="int" >        2 </v>
   <v type="int" >        3 </v>
   <v type="int" >        4 </v>
   <v type="int" >        5 </v>
   <v type="int" >        6 </v>
   <v type="int" >        7 </v>
   <v type="int" >        8 </v>
   <v type="int" >        9 </v>
   <v type="int" >       10 </v>
   <v type="int" >       11 </v>
   <v type="int" >       12 </v>
   <v type="int" >       13 </v>
   <v type="int" >       14 </v>
   <v type="int" >       15 </v>
  </varray>
 </primitive_cell>
 <kpoints>
  <generation param="Gamma">
   <v type="int" name="divisions">      12       12        1 </v>
   <v name="usershift">      0.00000000       0.00000000       0.00000000 </v>
   <v name="genvec1">      0.08333333      -0.00000000       0.00000000 </v>
   <v name="genvec2">     -0.00000000       0.08333333       0.00000000 </v>
   <v name="genvec3">      0.00000000       0.00000000       1.00000000 </v>
   <v name="shift">      0.00000000       0.00000000       0.00000000 </v>
  </generation>
  <varray name="kpointlist" >
   <v>       0.00000000       0.00000000       0.00000000 </v>
   <v>       0.08333333      -0.00000000       0.00000000 </v>
   <v>      -0.00000000       0.08333333       0.00000000 </v>
   <v>      -0.08333333       0.08333333       0.00000000 </v>
   <v>       0.16666667       0.00000000       0.00000000 </v>
   <v>       0.00000000       0.16666667       0.00000000 </v>
   <v>      -0.16666667       0.16666667       0.00000000 </v>
   <v>       0.25000000      -0.00000000       0.00000000 </v>
   <v>      -0.00000000       0.25000000       0.00000000 </v>
   <v>      -0.25000000       0.25000000       0.00000000 </v>
   <v>       0.33333333      -0.00000000       0.00000000 </v>
   <v>      -0.00000000       0.33333333       0.00000000 </v>
   <v>      -0.33333333       0.33333333       0.00000000 </v>
   <v>       0.41666667       0.00000000       0.00000000 </v>
   <v>       0.00000000       0.41666667       0.00000000 </v>
   <v>      -0.41666667       0.41666667       0.00000000 </v>
   <v>       0.50000000      -0.00000000       0.00000000 </v>
   <v>      -0.00000000       0.50000000       0.00000000 </v>
   <v>       0.50000000       0.50000000       0.00000000 </v>
   <v>       0.08333333       0.08333333       0.00000000 </v>
   <v>      -0.08333333       0.16666667       0.00000000 </v>
   <v>      -0.16666667       0.08333333       0.00000000 </v>
   <v>       0.16666667       0.08333333       0.00000000 </v>
   <v>      -0.08333333       0.25000000       0.00000000 </v>
   <v>      -0.25000000       0.16666667       0.00000000 </v>
   <v>      -0.16666667       0.25000000       0.00000000 </v>
   <v>       0.08333333       0.16666667       0.00000000 </v>
   <v>       0.25000000      -0.08333333       0.00000000 </v>
   <v>       0.25000000       0.08333333       0.00000000 </v>
   <v>      -0.08333333       0.33333333       0.00000000 </v>
   <v>      -0.33333333       0.25000000       0.00000000 </v>
   <v>      -0.25000000       0.33333333       0.00000000 </v>
   <v>       0.08333333       0.25000000       0.00000000 </v>
   <v>       0.33333333      -0.08333333       0.00000000 </v>
   <v>       0.33333333       0.08333333       0.00000000 </v>
   <v>      -0.08333333       0.41666667       0.00000000 </v>
   <v>      -0.41666667       0.33333333       0.00000000 </v>
   <v>      -0.33333333       0.41666667       0.00000000 </v>
   <v>       0.08333333       0.33333333       0.00000000 </v>
   <v>       0.41666667      -0.08333333       0.00000000 </v>
   <v>       0.41666667       0.08333333       0.00000000 </v>
   <v>      -0.08333333       0.50000000       0.00000000 </v>
   <v>       0.50000000       0.41666667       0.00000000 </v>
   <v>      -0.41666667       0.50000000       0.00000000 </v>
   <v>       0.08333333       0.41666667       0.00000000 </v>
   <v>       0.50000000      -0.08333333       0.00000000 </v>
   <v>       0.16666667       0.16666667       0.00000000 </v>
   <v>      -0.16666667       0.33333333       0.00000000 </v>
   <v>      -0.33333333       0.16666667       0.00000000 </v>
   <v>       0.25000000       0.16666667       0.00000000 </v>
   <v>      -0.16666667       0.41666667       0.00000000 </v>
   <v>      -0.41666667       0.25000000       0.00000000 </v>
   <v>      -0.25000000       0.41666667       0.00000000 </v>
   <v>       0.16666667       0.25000000       0.00000000 </v>
   <v>       0.41666667      -0.16666667       0.00000000 </v>
   <v>       0.33333333       0.16666667       0.00000000 </v>
   <v>      -0.16666667       0.50000000       0.00000000 </v>
   <v>       0.50000000       0.33333333       0.00000000 </v>
   <v>      -0.33333333       0.50000000       0.00000000 </v>
   <v>       0.16666667       0.33333333       0.00000000 </v>
   <v>       0.50000000      -0.16666667       0.00000000 </v>
   <v>       0.41666667       0.16666667       0.00000000 </v>
   <v>      -0.16666667      -0.41666667       0.00000000 </v>
   <v>       0.41666667       0.41666667       0.00000000 </v>
   <v>       0.25000000       0.25000000       0.00000000 </v>
   <v>      -0.25000000       0.50000000       0.00000000 </v>
   <v>       0.50000000       0.25000000       0.00000000 </v>
   <v>       0.33333333       0.25000000       0.00000000 </v>
   <v>      -0.25000000      -0.41666667       0.00000000 </v>
   <v>       0.41666667       0.33333333       0.00000000 </v>
   <v>      -0.33333333      -0.41666667       0.00000000 </v>
   <v>       0.25000000       0.33333333       0.00000000 </v>
   <v>      -0.41666667      -0.25000000       0.00000000 </v>
   <v>       0.33333333       0.33333333       0.00000000 </v>
  </varray>
  <varray name="weights" >
   <v>       0.00694444 </v>
   <v>       0.01388889 </v>
   <v>       0.01388889 </v>
   <v>       0.01388889 </v>
   <v>       0.01388889 </v>
   <v>       0.01388889 </v>
   <v>       0.01388889 </v>
   <v>       0.01388889 </v>
   <v>       0.01388889 </v>
   <v>       0.01388889 </v>
   <v>       0.01388889 </v>
   <v>       0.01388889 </v>
   <v>       0.01388889 </v>
   <v>       0.01388889 </v>
   <v>       0.01388889 </v>
   <v>       0.01388889 </v>
   <v>       0.00694444 </v>
   <v>       0.00694444 </v>
   <v>       0.00694444 </v>
   <v>       0.01388889 </v>
   <v>       0.01388889 </v>
   <v>       0.01388889 </v>
   <v>       0.01388889 </v>
   <v>       0.01388889 </v>
   <v>       0.01388889 </v>
   <v>       0.01388889 </v>
   <v>       0.01388889 </v>
   <v>       0.01388889 </v>
   <v>       0.01388889 </v>
   <v>       0.01388889 </v>
   <v>       0.01388889 </v>
   <v>       0.01388889 </v>
   <v>       0.01388889 </v>
   <v>       0.01388889 </v>
   <v>       0.01388889 </v>
   <v>       0.01388889 </v>
   <v>       0.01388889 </v>
   <v>       0.01388889 </v>
   <v>       0.01388889 </v>
   <v>       0.01388889 </v>
   <v>       0.01388889 </v>
   <v>       0.01388889 </v>
   <v>       0.01388889 </v>
   <v>       0.01388889 </v>
   <v>       0.01388889 </v>
   <v>       0.01388889 </v>
   <v>       0.01388889 </v>
   <v>       0.01388889 </v>
   <v>       0.01388889 </v>
   <v>       0.01388889 </v>
   <v>       0.01388889 </v>
   <v>       0.01388889 </v>
   <v>       0.01388889 </v>
   <v>       0.01388889 </v>
   <v>       0.01388889 </v>
   <v>       0.01388889 </v>
   <v>       0.01388889 </v>
   <v>       0.01388889 </v>
   <v>       0.01388889 </v>
   <v>       0.01388889 </v>
   <v>       0.01388889 </v>
   <v>       0.01388889 </v>
   <v>       0.01388889 </v>
   <v>       0.01388889 </v>
   <v>       0.01388889 </v>
   <v>       0.01388889 </v>
   <v>       0.01388889 </v>
   <v>       0.01388889 </v>
   <v>       0.01388889 </v>
   <v>       0.01388889 </v>
   <v>       0.01388889 </v>
   <v>       0.01388889 </v>
   <v>       0.01388889 </v>
   <v>       0.01388889 </v>
  </varray>
 </kpoints>
 <parameters>
  <separator name="general" >
   <i type="string" name="SYSTEM">Lattice</i>
   <i type="logical" name="LCOMPAT"> F  </i>
  </separator>
  <separator name="electronic" >
   <i type="string" name="PREC">accura</i>
   <i name="ENMAX">    450.00000000</i>
   <i name="ENAUG">    644.87300000</i>
   <i name="EDIFF">      0.00000100</i>
   <i type="int" name="IALGO">    38</i>
   <i type="int" name="IWAVPR">    11</i>
   <i type="int" name="NBANDS">    48</i>
   <i type="int" name="NBANDSLOW">    -1</i>
   <i type="int" name="NBANDSHIGH">    -1</i>
   <i name="NELECT">     56.00000000</i>
   <i type="int" name="TURBO">     0</i>
   <i type="int" name="IRESTART">     0</i>
   <i type="int" name="NREBOOT">     0</i>
   <i type="int" name="NMIN">     0</i>
   <i name="EREF">      0.00000000</i>
   <separator name="electronic smearing" >
    <i type="int" name="ISMEAR">     0</i>
    <i name="SIGMA">      0.10000000</i>
    <i name="KSPACING">      0.50000000</i>
    <i type="logical" name="KGAMMA"> T  </i>
    <i type="logical" name="KBLOWUP"> T  </i>
   </separator>
   <separator name="electronic projectors" >
    <i type="logical" name="LREAL"> F  </i>
    <v name="ROPT">      0.00000000      0.00000000</v>
    <i type="int" name="LMAXPAW">  -100</i>
    <i type="int" name="LMAXMIX">     2</i>
    <i type="logical" name="NLSPLINE"> F  </i>
   </separator>
   <separator name="electronic startup" >
    <i type="int" name="ISTART">     0</i>
    <i type="int" name="ICHARG">     2</i>
    <i type="int" name="INIWAV">     1</i>
   </separator>
   <separator name="electronic spin" >
    <i type="int" name="ISPIN">     2</i>
    <i type="logical" name="LNONCOLLINEAR"> F  </i>
    <v name="MAGMOM">      1.00000000      1.00000000      1.00000000      1.00000000      1.00000000      1.00000000      1.00000000      1.00000000      1.00000000      1.00000000      1.00000000      1.00000000      1.00000000      1.00000000      1.00000000</v>
    <i name="NUPDOWN">     -1.00000000</i>
    <i type="logical" name="LSORBIT"> F  </i>
    <v name="SAXIS">      0.00000000      0.00000000      1.00000000</v>
    <i type="logical" name="LSPIRAL"> F  </i>
    <v name="QSPIRAL">      0.00000000      0.00000000      0.00000000</v>
    <i type="logical" name="LZEROZ"> F  </i>
   </separator>
   <separator name="electronic exchange-correlation" >
    <i type="logical" name="LASPH"> F  </i>
    <i type="logical" name="LMETAGGA"> F  </i>
   </separator>
   <separator name="electronic convergence" >
    <i type="int" name="NELM">    64</i>
    <i type="int" name="NELMDL">    -5</i>
    <i type="int" name="NELMIN">     2</i>
    <i name="ENINI">    450.00000000</i>
    <separator name="electronic convergence detail" >
     <i type="logical" name="LDIAG"> T  </i>
     <i type="logical" name="LSUBROT"> F  </i>
     <i name="WEIMIN">      0.00100000</i>
     <i name="EBREAK">      0.00000001</i>
     <i name="DEPER">      0.30000000</i>
     <i type="int" name="NRMM">     4</i>
     <i name="TIME">      0.40000000</i>
    </separator>
   </separator>
   <separator name="electronic mixer" >
    <i name="AMIX">      0.40000000</i>
    <i name="BMIX">      1.00000000</i>
    <i name="AMIN">      0.10000000</i>
    <i name="AMIX_MAG">      1.60000000</i>
    <i name="BMIX_MAG">      1.00000000</i>
    <separator name="electronic mixer details" >
     <i type="int" name="IMIX">     4</i>
     <i type="logical" name="MIXFIRST"> F  </i>
     <i type="int" name="MAXMIX">   -45</i>
     <i name="WC">    100.00000000</i>
     <i type="int" name="INIMIX">     1</i>
     <i type="int" name="MIXPRE">     1</i>
     <i type="int" name="MREMOVE">     5</i>
    </separator>
   </separator>
   <separator name="electronic dipolcorrection" >
    <i type="logical" name="LDIPOL"> F  </i>
    <i type="logical" name="LMONO"> F  </i>
    <i type="int" name="IDIPOL">     0</i>
    <i name="EPSILON">      1.00000000</i>
    <v name="DIPOL">   -100.00000000   -100.00000000   -100.00000000</v>
    <i name="EFIELD">      0.00000000</i>
   </separator>
  </separator>
  <separator name="grids" >
   <i type="int" name="NGX">    36</i>
   <i type="int" name="NGY">    36</i>
   <i type="int" name="NGZ">   108</i>
   <i type="int" name="NGXF">    72</i>
   <i type="int" name="NGYF">    72</i>
   <i type="int" name="NGZF">   216</i>
   <i type="logical" name="ADDGRID"> F  </i>
  </separator>
  <separator name="ionic" >
   <i type="int" name="NSW">   128</i>
   <i type="int" name="IBRION">     2</i>
   <i type="int" name="MDALGO">     0</i>
   <i type="int" name="ISIF">     2</i>
   <i name="PSTRESS">      0.00000000</i>
   <i name="EDIFFG">     -0.00100000</i>
   <i type="int" name="NFREE">     1</i>
   <i name="POTIM">      0.50000000</i>
   <i name="SMASS">     -3.00000000</i>
   <i name="SCALEE">      1.00000000</i>
  </separator>
  <separator name="ionic md" >
   <i name="TEBEG">      0.00010000</i>
   <i name="TEEND">      0.00010000</i>
   <i type="int" name="NBLOCK">     1</i>
   <i type="int" name="KBLOCK">   128</i>
   <i type="int" name="NPACO">   256</i>
   <i name="APACO">     10.00000000</i>
  </separator>
  <separator name="symmetry" >
   <i type="int" name="ISYM">     2</i>
   <i name="SYMPREC">      0.00001000</i>
  </separator>
  <separator name="dos" >
   <i type="int" name="LORBIT">     0</i>
   <v name="RWIGS">     -1.00000000     -1.00000000</v>
   <i type="int" name="NEDOS">   301</i>
   <i name="EMIN">     10.00000000</i>
   <i name="EMAX">    -10.00000000</i>
   <i name="EFERMI">      0.00000000</i>
  </separator>
  <separator name="writing" >
   <i type="int" name="NWRITE">     2</i>
   <i type="logical" name="LWAVE"> F  </i>
   <i type="logical" name="LDOWNSAMPLE"> F  </i>
   <i type="logical" name="LCHARG"> F  </i>
   <i type="logical" name="LPARD"> F  </i>
   <i type="logical" name="LVTOT"> F  </i>
   <i type="logical" name="LVHAR"> F  </i>
   <i type="logical" name="LELF"> F  </i>
   <i type="logical" name="LOPTICS"> F  </i>
   <v name="STM">      0.00000000      0.00000000      0.00000000      0.00000000      0.00000000      0.00000000      0.00000000</v>
  </separator>
  <separator name="performance" >
   <i type="int" name="NPAR">    48</i>
   <i type="int" name="NSIM">     4</i>
   <i type="int" name="NBLK">    -1</i>
   <i type="logical" name="LPLANE"> T  </i>
   <i type="logical" name="LSCALAPACK"> T  </i>
   <i type="logical" name="LSCAAWARE"> F  </i>
   <i type="logical" name="LSCALU"> F  </i>
   <i type="logical" name="LASYNC"> F  </i>
   <i type="logical" name="LORBITALREAL"> F  </i>
  </separator>
  <separator name="miscellaneous" >
   <i type="int" name="IDIOT">     3</i>
   <i type="int" name="PHON_NSTRUCT">    -1</i>
   <i type="logical" name="LMUSIC"> F  </i>
   <v name="POMASS">     10.81100000     12.01100000</v>
   <v name="DARWINR">      0.00000000      0.00000000</v>
   <v name="DARWINV">      1.00000000      1.00000000</v>
   <i type="logical" name="LCORR"> T  </i>
  </separator>
  <i type="logical" name="GGA_COMPAT"> T  </i>
  <i type="logical" name="LBERRY"> F  </i>
  <i type="int" name="ICORELEVEL">     0</i>
  <i type="logical" name="LDAU"> F  </i>
  <i type="int" name="I_CONSTRAINED_M">     0</i>
  <separator name="electronic exchange-correlation" >
   <i type="string" name="GGA">PE</i>
   <i type="int" name="VOSKOWN">     0</i>
   <i type="logical" name="LHFCALC"> F  </i>
   <i type="string" name="PRECFOCK"></i>
   <i type="logical" name="LSYMGRAD"> F  </i>
   <i type="logical" name="LHFONE"> F  </i>
   <i type="logical" name="LRHFCALC"> F  </i>
   <i type="logical" name="LTHOMAS"> F  </i>
   <i type="logical" name="LMODELHF"> F  </i>
   <i type="logical" name="LFOCKACE"> F  </i>
   <i name="ENCUT4O">     -1.00000000</i>
   <i type="int" name="EXXOEP">     0</i>
   <i type="int" name="FOURORBIT">     0</i>
   <i name="AEXX">      0.00000000</i>
   <i name="HFALPHA">      0.00000000</i>
   <i name="MCALPHA">      0.00000000</i>
   <i name="ALDAX">      1.00000000</i>
   <i name="AGGAX">      1.00000000</i>
   <i name="ALDAC">      1.00000000</i>
   <i name="AGGAC">      1.00000000</i>
   <i type="int" name="NKREDX">     1</i>
   <i type="int" name="NKREDY">     1</i>
   <i type="int" name="NKREDZ">     1</i>
   <i type="logical" name="SHIFTRED"> F  </i>
   <i type="logical" name="ODDONLY"> F  </i>
   <i type="logical" name="EVENONLY"> F  </i>
   <i type="int" name="LMAXFOCK">     0</i>
   <i type="int" name="NMAXFOCKAE">     0</i>
   <i type="logical" name="LFOCKAEDFT"> F  </i>
   <i name="HFSCREEN">      0.00000000</i>
   <i name="HFSCREENC">      0.00000000</i>
   <i type="int" name="NBANDSGWLOW">     0</i>
  </separator>
  <separator name="vdW DFT" >
   <i type="logical" name="LUSE_VDW"> F  </i>
   <i name="Zab_VDW">     -0.84910000</i>
   <i name="PARAM1">      0.12340000</i>
   <i name="PARAM2">      1.00000000</i>
   <i name="PARAM3">      0.00000000</i>
  </separator>
  <separator name="model GW" >
   <i type="int" name="MODEL_GW">     0</i>
   <i name="MODEL_EPS0">     12.28320758</i>
   <i name="MODEL_ALPHA">      1.00000000</i>
  </separator>
  <separator name="linear response parameters" >
   <i type="logical" name="LEPSILON"> F  </i>
   <i type="logical" name="LRPA"> F  </i>
   <i type="logical" name="LNABLA"> F  </i>
   <i type="logical" name="LVEL"> F  </i>
   <i name="CSHIFT">      0.10000000</i>
   <i name="OMEGAMAX">     -1.00000000</i>
   <i name="DEG_THRESHOLD">      0.00200000</i>
   <i name="RTIME">     -0.10000000</i>
   <i name="WPLASMAI">      0.00000000</i>
   <v name="DFIELD">      0.00000000      0.00000000      0.00000000</v>
   <v name="WPLASMA">      0.00000000      0.00000000      0.00000000      0.00000000      0.00000000      0.00000000      0.00000000      0.00000000      0.00000000</v>
  </separator>
  <separator name="orbital magnetization" >
   <i type="logical" name="NUCIND"> F  </i>
   <v name="MAGPOS">      0.00000000      0.00000000      0.00000000</v>
   <i type="logical" name="LNICSALL"> T  </i>
   <i type="logical" name="ORBITALMAG"> F  </i>
   <i type="logical" name="LMAGBLOCH"> F  </i>
   <i type="logical" name="LCHIMAG"> F  </i>
   <i type="logical" name="LGAUGE"> T  </i>
   <i type="int" name="MAGATOM">     0</i>
   <v name="MAGDIPOL">      0.00000000      0.00000000      0.00000000</v>
   <v name="AVECCONST">      0.00000000      0.00000000      0.00000000</v>
  </separator>
  <separator name="response functions" >
   <i type="logical" name="LFINITE_TEMPERATURE"> F  </i>
   <i type="logical" name="LADDER"> F  </i>
   <i type="logical" name="LRPAFORCE"> F  </i>
   <i type="logical" name="LFXC"> F  </i>
   <i type="logical" name="LHARTREE"> T  </i>
   <i type="int" name="IBSE">     0</i>
   <v type="int" name="KPOINT">    -1     0     0     0</v>
   <i type="logical" name="LTCTC"> F  </i>
   <i type="logical" name="LTCTE"> F  </i>
   <i type="logical" name="LTETE"> F  </i>
   <i type="logical" name="LTRIPLET"> F  </i>
   <i type="logical" name="LFXCEPS"> F  </i>
   <i type="logical" name="LFXHEG"> F  </i>
   <i type="int" name="NATURALO">     2</i>
   <i type="logical" name="LHOLEGF"> F  </i>
   <i type="logical" name="L2ORDER"> F  </i>
   <i type="logical" name="LDMP1"> F  </i>
   <i type="logical" name="LMP2LT"> F  </i>
   <i type="logical" name="LSMP2LT"> F  </i>
   <i type="logical" name="LGWLF"> F  </i>
   <i name="ENCUTGW">     -2.00000000</i>
   <i name="ENCUTGWSOFT">     -2.00000000</i>
   <i name="ENCUTLF">     -1.00000000</i>
   <i type="logical" name="LESF_SPLINES"> F  </i>
   <i type="int" name="LMAXMP2">    -1</i>
   <i name="SCISSOR">      0.00000000</i>
   <i type="int" name="NOMEGA">     0</i>
   <i type="int" name="NOMEGAR">     0</i>
   <i type="int" name="NBANDSGW">    -1</i>
   <i type="int" name="NBANDSO">    -1</i>
   <i type="int" name="NBANDSV">    -1</i>
   <i type="int" name="NELMGW">     1</i>
   <i type="int" name="NELMHF">     1</i>
   <i type="int" name="DIM">     3</i>
   <i type="int" name="IESPILON">     4</i>
   <i type="int" name="ANTIRES">     0</i>
   <i name="OMEGAMAX">    -30.00000000</i>
   <i name="OMEGAMIN">    -30.00000000</i>
   <i name="OMEGATL">   -200.00000000</i>
   <i type="int" name="OMEGAGRID">     0</i>
   <i name="CSHIFT">     -0.10000000</i>
   <i type="logical" name="LSELFENERGY"> F  </i>
   <i type="logical" name="LSPECTRAL"> F  </i>
   <i type="logical" name="LSPECTRALGW"> F  </i>
   <i type="logical" name="LSINGLES"> F  </i>
   <i type="logical" name="LFERMIGW"> F  </i>
   <i type="logical" name="ODDONLYGW"> F  </i>
   <i type="logical" name="EVENONLYGW"> F  </i>
   <i type="int" name="NKREDLFX">     1</i>
   <i type="int" name="NKREDLFY">     1</i>
   <i type="int" name="NKREDLFZ">     1</i>
   <i type="int" name="MAXMEM">  2800</i>
   <i type="int" name="TELESCOPE">     0</i>
   <i type="int" name="NTAUPAR">    -1</i>
   <i type="int" name="NOMEGAPAR">    -1</i>
   <i name="DAMP_NEWTON">      0.80000001</i>
   <i name="LAMBDA">      1.00000000</i>
  </separator>
  <separator name="External order field" >
   <i name="OFIELD_KAPPA">      0.00000000</i>
   <v name="OFIELD_K">      0.00000000      0.00000000      0.00000000</v>
   <i name="OFIELD_Q6_NEAR">      0.00000000</i>
   <i name="OFIELD_Q6_FAR">      0.00000000</i>
   <i name="OFIELD_A">      0.00000000</i>
  </separator>
  <separator name="optional k-points parameters" >
   <i type="int" name="KPOINTS_OPT_MODE">     1</i>
   <i type="logical" name="LKPOINTS_OPT"> F  </i>
  </separator>
  <separator name="solvation model" >
   <i type="logical" name="LSOL"> F  </i>
  </separator>
 </parameters>
 <atominfo>
  <atoms>      15 </atoms>
  <types>       2 </types>
  <array name="atoms" >
   <dimension dim="1">ion</dimension>
   <field type="string">element</field>
   <field type="int">atomtype</field>
   <set>
    <rc><c>B </c><c>   1</c></rc>
    <rc><c>B </c><c>   1</c></rc>
    <rc><c>B </c><c>   1</c></rc>
    <rc><c>B </c><c>   1</c></rc>
    <rc><c>C </c><c>   2</c></rc>
    <rc><c>C </c><c>   2</c></rc>
    <rc><c>C </c><c>   2</c></rc>
    <rc><c>C </c><c>   2</c></rc>
    <rc><c>C </c><c>   2</c></rc>
    <rc><c>C </c><c>   2</c></rc>
    <rc><c>C </c><c>   2</c></rc>
    <rc><c>C </c><c>   2</c></rc>
    <rc><c>C </c><c>   2</c></rc>
    <rc><c>C </c><c>   2</c></rc>
    <rc><c>C </c><c>   2</c></rc>
   </set>
  </array>
  <array name="atomtypes" >
   <dimension dim="1">type</dimension>
   <field type="int">atomspertype</field>
   <field type="string">element</field>
   <field>mass</field>
   <field>valence</field>
   <field type="string">pseudopotential</field>
   <set>
    <rc><c>   4</c><c>B </c><c>     10.81100000</c><c>      3.00000000</c><c>  PAW_PBE B 06Sep2000                   </c></rc>
    <rc><c>  11</c><c>C </c><c>     12.01100000</c><c>      4.00000000</c><c>  PAW_PBE C 08Apr2002                   </c></rc>
   </set>
  </array>
 </atominfo>
 <structure name="initialpos" >
  <crystal>
   <varray name="basis" >
    <v>       4.21061551       2.43100000       0.00000000 </v>
    <v>      -4.21061551       2.43100000       0.00000000 </v>
    <v>       0.00000000       0.00000000      15.00000000 </v>
   </varray>
   <i name="volume">    307.08018938 </i>
   <varray name="rec_basis" >
    <v>       0.11874748       0.20567668       0.00000000 </v>
    <v>      -0.11874748       0.20567668       0.00000000 </v>
    <v>       0.00000000       0.00000000       0.06666667 </v>
   </varray>
  </crystal>
  <varray name="positions" >
   <v>       0.00415361       0.00267210       0.12034134 </v>
   <v>       0.35695335       0.00285503       0.09748893 </v>
   <v>       0.00423858       0.35550699       0.09749256 </v>
   <v>       0.65142295       0.65006557       0.09747688 </v>
   <v>       0.32808646       0.32671938       0.10030508 </v>
   <v>       0.68027775       0.00278085       0.10027562 </v>
   <v>       0.00416530       0.67883808       0.10026559 </v>
   <v>       0.11111044       0.38888856       0.33726667 </v>
   <v>       0.27777744       0.22222156       0.33726667 </v>
   <v>       0.11111044       0.88888856       0.33726667 </v>
   <v>       0.27777744       0.72222156       0.33726667 </v>
   <v>       0.61111044       0.38888856       0.33726667 </v>
   <v>       0.77777744       0.22222156       0.33726667 </v>
   <v>       0.61111044       0.88888856       0.33726667 </v>
   <v>       0.77777744       0.72222156       0.33726667 </v>
  </varray>
 </structure>
 <calculation>
  <scstep>
   <time name="dav">    5.48    5.53</time>
   <time name="total">    5.52    5.57</time>
   <energy>
    <i name="alphaZ">     57.92394122 </i>
    <i name="ewald">   4643.66029867 </i>
    <i name="hartreedc">  -6202.43108207 </i>
    <i name="XCdc">    174.78026650 </i>
    <i name="pawpsdc">   1365.87943566 </i>
    <i name="pawaedc">  -1368.52100941 </i>
    <i name="eentropy">     -0.01569108 </i>
    <i name="bandstr">   -372.98193741 </i>
    <i name="atom">   1903.26342058 </i>
    <i name="e_fr_energy">    201.55764265 </i>
    <i name="e_wo_entrp">    201.57333373 </i>
    <i name="e_0_energy">    201.56548819 </i>
   </energy>
  </scstep>
  <scstep>
   <time name="dav">    8.02    8.07</time>
   <time name="total">    8.02    8.08</time>
   <energy>
    <i name="e_fr_energy">   -116.40875942 </i>
    <i name="e_wo_entrp">   -116.40739171 </i>
    <i name="e_0_energy">   -116.40807556 </i>
   </energy>
  </scstep>
  <scstep>
   <time name="dav">   11.20   11.28</time>
   <time name="total">   11.20   11.28</time>
   <energy>
    <i name="e_fr_energy">   -129.10695271 </i>
    <i name="e_wo_entrp">   -129.10377564 </i>
    <i name="e_0_energy">   -129.10536417 </i>
   </energy>
  </scstep>
  <scstep>
   <time name="dav">    7.99    8.06</time>
   <time name="total">    7.99    8.06</time>
   <energy>
    <i name="e_fr_energy">   -129.13153698 </i>
    <i name="e_wo_entrp">   -129.12835794 </i>
    <i name="e_0_energy">   -129.12994746 </i>
   </energy>
  </scstep>
  <scstep>
   <time name="dav">   10.66   10.74</time>
   <time name="total">   10.93   11.02</time>
   <energy>
    <i name="e_fr_energy">   -129.13160053 </i>
    <i name="e_wo_entrp">   -129.12842153 </i>
    <i name="e_0_energy">   -129.13001103 </i>
   </energy>
  </scstep>
  <scstep>
   <time name="dav">   10.49   10.57</time>
   <time name="total">   10.80   10.88</time>
   <energy>
    <i name="e_fr_energy">    -91.91930434 </i>
    <i name="e_wo_entrp">    -91.91252204 </i>
    <i name="e_0_energy">    -91.91591319 </i>
   </energy>
  </scstep>
  <scstep>
   <time name="dav">    8.83    8.89</time>
   <time name="total">    9.13    9.20</time>
   <energy>
    <i name="e_fr_energy">   -100.32421799 </i>
    <i name="e_wo_entrp">   -100.31840942 </i>
    <i name="e_0_energy">   -100.32131370 </i>
   </energy>
  </scstep>
  <scstep>
   <time name="dav">    9.70    9.77</time>
   <time name="total">   10.00   10.08</time>
   <energy>
    <i name="e_fr_energy">   -110.45325601 </i>
    <i name="e_wo_entrp">   -110.45322910 </i>
    <i name="e_0_energy">   -110.45324256 </i>
   </energy>
  </scstep>
  <scstep>
   <time name="dav">    7.42    7.48</time>
   <time name="total">    7.71    7.79</time>
   <energy>
    <i name="e_fr_energy">   -117.14131772 </i>
    <i name="e_wo_entrp">   -117.14131352 </i>
    <i name="e_0_energy">   -117.14131562 </i>
   </energy>
  </scstep>
  <scstep>
   <time name="dav">    9.64    9.71</time>
   <time name="total">    9.94   10.02</time>
   <energy>
    <i name="e_fr_energy">   -123.47141369 </i>
    <i name="e_wo_entrp">   -123.47080038 </i>
    <i name="e_0_energy">   -123.47110704 </i>
   </energy>
  </scstep>
  <scstep>
   <time name="dav">   10.50   10.57</time>
   <time name="total">   10.80   10.88</time>
   <energy>
    <i name="e_fr_energy">   -125.27102071 </i>
    <i name="e_wo_entrp">   -125.26982585 </i>
    <i name="e_0_energy">   -125.27042328 </i>
   </energy>
  </scstep>
  <scstep>
   <time name="dav">    8.10    8.16</time>
   <time name="total">    8.39    8.46</time>
   <energy>
    <i name="e_fr_energy">   -125.42140071 </i>
    <i name="e_wo_entrp">   -125.41991770 </i>
    <i name="e_0_energy">   -125.42065920 </i>
   </energy>
  </scstep>
  <scstep>
   <time name="dav">    7.05    7.10</time>
   <time name="total">    7.35    7.41</time>
   <energy>
    <i name="e_fr_energy">   -125.44743728 </i>
    <i name="e_wo_entrp">   -125.44587840 </i>
    <i name="e_0_energy">   -125.44665784 </i>
   </energy>
  </scstep>
  <scstep>
   <time name="dav">    8.20    8.26</time>
   <time name="total">    8.50    8.56</time>
   <energy>
    <i name="e_fr_energy">   -125.47072784 </i>
    <i name="e_wo_entrp">   -125.46916377 </i>
    <i name="e_0_energy">   -125.46994580 </i>
   </energy>
  </scstep>
  <scstep>
   <time name="dav">    7.65    7.71</time>
   <time name="total">    7.95    8.02</time>
   <energy>
    <i name="e_fr_energy">   -125.47841147 </i>
    <i name="e_wo_entrp">   -125.47684669 </i>
    <i name="e_0_energy">   -125.47762908 </i>
   </energy>
  </scstep>
  <scstep>
   <time name="dav">    6.57    6.62</time>
   <time name="total">    6.86    6.92</time>
   <energy>
    <i name="e_fr_energy">   -125.48039216 </i>
    <i name="e_wo_entrp">   -125.47882735 </i>
    <i name="e_0_energy">   -125.47960975 </i>
   </energy>
  </scstep>
  <scstep>
   <time name="dav">    5.99    6.03</time>
   <time name="total">    6.28    6.33</time>
   <energy>
    <i name="e_fr_energy">   -125.48164446 </i>
    <i name="e_wo_entrp">   -125.48007967 </i>
    <i name="e_0_energy">   -125.48086206 </i>
   </energy>
  </scstep>
  <scstep>
   <time name="dav">    6.25    6.29</time>
   <time name="total">    6.55    6.60</time>
   <energy>
    <i name="e_fr_energy">   -125.48233880 </i>
    <i name="e_wo_entrp">   -125.48077402 </i>
    <i name="e_0_energy">   -125.48155641 </i>
   </energy>
  </scstep>
  <scstep>
   <time name="dav">    8.00    8.06</time>
   <time name="total">    8.29    8.36</time>
   <energy>
    <i name="e_fr_energy">   -125.48277615 </i>
    <i name="e_wo_entrp">   -125.48121136 </i>
    <i name="e_0_energy">   -125.48199376 </i>
   </energy>
  </scstep>
  <scstep>
   <time name="dav">    9.06    9.12</time>
   <time name="total">    9.35    9.42</time>
   <energy>
    <i name="e_fr_energy">   -125.48282697 </i>
    <i name="e_wo_entrp">   -125.48126217 </i>
    <i name="e_0_energy">   -125.48204457 </i>
   </energy>
  </scstep>
  <scstep>
   <time name="dav">    8.34    8.39</time>
   <time name="total">    8.63    8.69</time>
   <energy>
    <i name="e_fr_energy">   -125.48284693 </i>
    <i name="e_wo_entrp">   -125.48128213 </i>
    <i name="e_0_energy">   -125.48206453 </i>
   </energy>
  </scstep>
  <scstep>
   <time name="dav">    8.76    8.81</time>
   <time name="total">    9.05    9.12</time>
   <energy>
    <i name="e_fr_energy">   -125.48286790 </i>
    <i name="e_wo_entrp">   -125.48130310 </i>
    <i name="e_0_energy">   -125.48208550 </i>
   </energy>
  </scstep>
  <scstep>
   <time name="dav">    8.68    8.74</time>
   <time name="total">    8.97    9.04</time>
   <energy>
    <i name="e_fr_energy">   -125.48288351 </i>
    <i name="e_wo_entrp">   -125.48131870 </i>
    <i name="e_0_energy">   -125.48210110 </i>
   </energy>
  </scstep>
  <scstep>
   <time name="dav">    9.28    9.35</time>
   <time name="total">    9.57    9.65</time>
   <energy>
    <i name="e_fr_energy">   -125.48288670 </i>
    <i name="e_wo_entrp">   -125.48132190 </i>
    <i name="e_0_energy">   -125.48210430 </i>
   </energy>
  </scstep>
  <scstep>
   <time name="dav">    8.99    9.04</time>
   <time name="total">    9.02    9.08</time>
   <energy>
    <i name="alphaZ">     57.92394122 </i>
    <i name="ewald">   4643.66029867 </i>
    <i name="hartreedc">  -6400.75742004 </i>
    <i name="XCdc">    180.07257836 </i>
    <i name="pawpsdc">   5647.78341832 </i>
    <i name="pawaedc">  -5652.15915040 </i>
    <i name="eentropy">     -0.00156480 </i>
    <i name="bandstr">   -505.26840957 </i>
    <i name="atom">   1903.26342058 </i>
    <i name="e_fr_energy">   -125.48288766 </i>
    <i name="e_wo_entrp">   -125.48132286 </i>
    <i name="e_0_energy">   -125.48210526 </i>
   </energy>
  </scstep>
  <structure>
   <crystal>
    <varray name="basis" >
     <v>       4.21061551       2.43100000       0.00000000 </v>
     <v>      -4.21061551       2.43100000       0.00000000 </v>
     <v>       0.00000000       0.00000000      15.00000000 </v>
    </varray>
    <i name="volume">    307.08018938 </i>
    <varray name="rec_basis" >
     <v>       0.11874748       0.20567668       0.00000000 </v>
     <v>      -0.11874748       0.20567668       0.00000000 </v>
     <v>       0.00000000       0.00000000       0.06666667 </v>
    </varray>
   </crystal>
   <varray name="positions" >
    <v>       0.00415361       0.00267210       0.12034134 </v>
    <v>       0.35695335       0.00285503       0.09748893 </v>
    <v>       0.00423858       0.35550699       0.09749256 </v>
    <v>       0.65142295       0.65006557       0.09747688 </v>
    <v>       0.32808646       0.32671938       0.10030508 </v>
    <v>       0.68027775       0.00278085       0.10027562 </v>
    <v>       0.00416530       0.67883808       0.10026559 </v>
    <v>       0.11111044       0.38888856       0.33726667 </v>
    <v>       0.27777744       0.22222156       0.33726667 </v>
    <v>       0.11111044       0.88888856       0.33726667 </v>
    <v>       0.27777744       0.72222156       0.33726667 </v>
    <v>       0.61111044       0.38888856       0.33726667 </v>
    <v>       0.77777744       0.22222156       0.33726667 </v>
    <v>       0.61111044       0.88888856       0.33726667 </v>
    <v>       0.77777744       0.72222156       0.33726667 </v>
   </varray>
  </structure>
  <varray name="forces" >
   <v>      -0.00065513       0.00168664      -0.43128802 </v>
   <v>      -0.11083595      -0.07017914       0.11224203 </v>
   <v>       0.09183795      -0.05785089       0.12884187 </v>
   <v>       0.00947784       0.11751132       0.12450075 </v>
   <v>       0.01411887      -0.37365760       0.00294646 </v>
   <v>       0.33884099       0.19697886       0.01661946 </v>
   <v>      -0.31314258       0.18675681       0.00568230 </v>
   <v>      -0.01525680       0.00149692       0.00446110 </v>
   <v>       0.00129417       0.01280795       0.02774311 </v>
   <v>       0.00456915       0.01618498       0.00819741 </v>
   <v>       0.01698017       0.00953535      -0.01877296 </v>
   <v>       0.00120875      -0.00452132      -0.02032441 </v>
   <v>      -0.00766816       0.00046174       0.00735020 </v>
   <v>      -0.01156673      -0.01190038       0.02409026 </v>
   <v>      -0.01920255      -0.02531126       0.00771042 </v>
  </varray>
  <varray name="stress" >
   <v>     -22.81461073       0.07691727      -0.54750030 </v>
   <v>       0.07691724     -22.94241352      -0.02084590 </v>
   <v>      -0.54750031      -0.02084593      -2.11685163 </v>
  </varray>
  <energy>
   <i name="e_fr_energy">   -127.06748849 </i>
   <i name="e_wo_entrp">   -127.06592369 </i>
   <i name="e_0_energy">   -127.06670609 </i>
  </energy>
  <time name="totalsc">  221.52  223.26</time>
 </calculation>
 <calculation>
  <scstep>
   <time name="dav">    5.49    5.53</time>
   <time name="total">    5.78    5.83</time>
   <energy>
    <i name="alphaZ">     57.92394122 </i>
    <i name="ewald">   4647.40201018 </i>
    <i name="hartreedc">  -6403.01389476 </i>
    <i name="XCdc">    180.15901413 </i>
    <i name="pawpsdc">   5647.81280331 </i>
    <i name="pawaedc">  -5652.18853376 </i>
    <i name="eentropy">     -0.00156389 </i>
    <i name="bandstr">   -506.85250436 </i>
    <i name="atom">   1903.26342058 </i>
    <i name="e_fr_energy">   -125.49530736 </i>
    <i name="e_wo_entrp">   -125.49374347 </i>
    <i name="e_0_energy">   -125.49452541 </i>
   </energy>
  </scstep>
  <scstep>
   <time name="dav">   10.99   11.07</time>
   <time name="total">   11.28   11.37</time>
   <energy>
    <i name="e_fr_energy">   -125.48576227 </i>
    <i name="e_wo_entrp">   -125.48419827 </i>
    <i name="e_0_energy">   -125.48498027 </i>
   </energy>
  </scstep>
  <scstep>
   <time name="dav">    8.05    8.11</time>
   <time name="total">    8.34    8.41</time>
   <energy>
    <i name="e_fr_energy">   -125.48470286 </i>
    <i name="e_wo_entrp">   -125.48313881 </i>
    <i name="e_0_energy">   -125.48392084 </i>
   </energy>
  </scstep>
  <scstep>
   <time name="dav">   11.22   11.30</time>
   <time name="total">   11.52   11.61</time>
   <energy>
    <i name="e_fr_energy">   -125.48465828 </i>
    <i name="e_wo_entrp">   -125.48309423 </i>
    <i name="e_0_energy">   -125.48387625 </i>
   </energy>
  </scstep>
  <scstep>
   <time name="dav">   10.01   10.08</time>
   <time name="total">   10.31   10.38</time>
   <energy>
    <i name="e_fr_energy">   -125.48466208 </i>
    <i name="e_wo_entrp">   -125.48309803 </i>
    <i name="e_0_energy">   -125.48388005 </i>
   </energy>
  </scstep>
  <scstep>
   <time name="dav">    9.53    9.59</time>
   <time name="total">    9.56    9.62</time>
   <energy>
    <i name="alphaZ">     57.92394122 </i>
    <i name="ewald">   4647.40201018 </i>
    <i name="hartreedc">  -6403.79121262 </i>
    <i name="XCdc">    180.17641390 </i>
    <i name="pawpsdc">   5675.77985456 </i>
    <i name="pawaedc">  -5680.16475224 </i>
    <i name="eentropy">     -0.00156405 </i>
    <i name="bandstr">   -506.07277358 </i>
    <i name="atom">   1903.26342058 </i>
    <i name="e_fr_energy">   -125.48466206 </i>
    <i name="e_wo_entrp">   -125.48309801 </i>
    <i name="e_0_energy">   -125.48388004 </i>
   </energy>
  </scstep>
  <structure>
   <crystal>
    <varray name="basis" >
     <v>       4.21061551       2.43100000       0.00000000 </v>
     <v>      -4.21061551       2.43100000       0.00000000 </v>
     <v>       0.00000000       0.00000000      15.00000000 </v>
    </varray>
    <i name="volume">    307.08018938 </i>
    <varray name="rec_basis" >
     <v>       0.11874748       0.20567668       0.00000000 </v>
     <v>      -0.11874748       0.20567668       0.00000000 </v>
     <v>       0.00000000       0.00000000       0.06666667 </v>
    </varray>
   </crystal>
   <varray name="positions" >
    <v>       0.00416659       0.00269259       0.11895424 </v>
    <v>       0.35562206       0.00279363       0.09784992 </v>
    <v>       0.00419067       0.35440686       0.09790694 </v>
    <v>       0.65264324       0.65117727       0.09787730 </v>
    <v>       0.32445977       0.32293092       0.10031455 </v>
    <v>       0.68417337       0.00279424       0.10032907 </v>
    <v>       0.00422448       0.68248505       0.10028386 </v>
    <v>       0.11103790       0.38899081       0.33728101 </v>
    <v>       0.27791194       0.22234123       0.33735589 </v>
    <v>       0.11129721       0.88902297       0.33729303 </v>
    <v>       0.27796933       0.72221889       0.33720629 </v>
    <v>       0.61107251       0.38883677       0.33720130 </v>
    <v>       0.77773810       0.22227007       0.33729031 </v>
    <v>       0.61092610       0.88883674       0.33734415 </v>
    <v>       0.77741629       0.72208041       0.33729146 </v>
   </varray>
  </structure>
  <varray name="forces" >
   <v>      -0.00320998       0.00242720      -0.19467075 </v>
   <v>       0.26208604       0.14659080       0.06307078 </v>
   <v>      -0.22363729       0.13591622       0.07476331 </v>
   <v>       0.01086736      -0.27450137       0.07131212 </v>
   <v>       0.00226019       0.57780770      -0.02155206 </v>
   <v>      -0.51570286      -0.30087189      -0.01368914 </v>
   <v>       0.49651523      -0.28619888      -0.01978763 </v>
   <v>       0.03841927      -0.00649365       0.00511633 </v>
   <v>      -0.02722941      -0.04101808       0.00918979 </v>
   <v>      -0.03104207      -0.05945470       0.00809497 </v>
   <v>      -0.07525398      -0.03294845      -0.00071032 </v>
   <v>      -0.01436970       0.01318581       0.00078371 </v>
   <v>       0.01120757      -0.00538910       0.00380180 </v>
   <v>       0.02173109       0.04431201       0.00904788 </v>
   <v>       0.04735853       0.08663639       0.00522918 </v>
  </varray>
  <varray name="stress" >
   <v>     -20.06415129       0.11295467      -0.55576352 </v>
   <v>       0.11295467     -20.13571991      -0.01932376 </v>
   <v>      -0.55576353      -0.01932373      -1.69141433 </v>
  </varray>
  <energy>
   <i name="e_fr_energy">   -127.06857750 </i>
   <i name="e_wo_entrp">   -127.06701345 </i>
   <i name="e_0_energy">   -127.06779548 </i>
  </energy>
  <time name="totalsc">   61.65   63.23</time>
 </calculation>
 <calculation>
  <scstep>
   <time name="dav">    5.47    5.50</time>
   <time name="total">    5.76    5.81</time>
   <energy>
    <i name="alphaZ">     57.92394122 </i>
    <i name="ewald">   4645.54932016 </i>
    <i name="hartreedc">  -6402.66603951 </i>
    <i name="XCdc">    180.13332857 </i>
    <i name="pawpsdc">   5675.78891157 </i>
    <i name="pawaedc">  -5680.17379751 </i>
    <i name="eentropy">     -0.00156451 </i>
    <i name="bandstr">   -505.31206978 </i>
    <i name="atom">   1903.26342058 </i>
    <i name="e_fr_energy">   -125.49454922 </i>
    <i name="e_wo_entrp">   -125.49298471 </i>
    <i name="e_0_energy">   -125.49376696 </i>
   </energy>
  </scstep>
  <scstep>
   <time name="dav">   10.79   10.85</time>
   <time name="total">   11.08   11.15</time>
   <energy>
    <i name="e_fr_energy">   -125.49225541 </i>
    <i name="e_wo_entrp">   -125.49069095 </i>
    <i name="e_0_energy">   -125.49147318 </i>
   </energy>
  </scstep>
  <scstep>
   <time name="dav">    9.55    9.61</time>
   <time name="total">    9.84    9.91</time>
   <energy>
    <i name="e_fr_energy">   -125.49201646 </i>
    <i name="e_wo_entrp">   -125.49045202 </i>
    <i name="e_0_energy">   -125.49123424 </i>
   </energy>
  </scstep>
  <scstep>
   <time name="dav">    9.12    9.18</time>
   <time name="total">    9.41    9.49</time>
   <energy>
    <i name="e_fr_energy">   -125.49200618 </i>
    <i name="e_wo_entrp">   -125.49044174 </i>
    <i name="e_0_energy">   -125.49122396 </i>
   </energy>
  </scstep>
  <scstep>
   <time name="dav">    9.10    9.16</time>
   <time name="total">    9.13    9.19</time>
   <energy>
    <i name="alphaZ">     57.92394122 </i>
    <i name="ewald">   4645.54932016 </i>
    <i name="hartreedc">  -6402.31282664 </i>
    <i name="XCdc">    180.12496717 </i>
    <i name="pawpsdc">   5661.61909045 </i>
    <i name="pawaedc">  -5665.99921691 </i>
    <i name="eentropy">     -0.00156444 </i>
    <i name="bandstr">   -505.65913858 </i>
    <i name="atom">   1903.26342058 </i>
    <i name="e_fr_energy">   -125.49200699 </i>
    <i name="e_wo_entrp">   -125.49044255 </i>
    <i name="e_0_energy">   -125.49122477 </i>
   </energy>
  </scstep>
  <structure>
   <crystal>
    <varray name="basis" >
     <v>       4.21061551       2.43100000       0.00000000 </v>
     <v>      -4.21061551       2.43100000       0.00000000 </v>
     <v>       0.00000000       0.00000000      15.00000000 </v>
    </varray>
    <i name="volume">    307.08018938 </i>
    <varray name="rec_basis" >
     <v>       0.11874748       0.20567668       0.00000000 </v>
     <v>      -0.11874748       0.20567668       0.00000000 </v>
     <v>       0.00000000       0.00000000       0.06666667 </v>
    </varray>
   </crystal>
   <varray name="positions" >
    <v>       0.00416031       0.00268267       0.11962558 </v>
    <v>       0.35626639       0.00282335       0.09767521 </v>
    <v>       0.00421386       0.35493931       0.09770639 </v>
    <v>       0.65205264       0.65063922       0.09768350 </v>
    <v>       0.32621504       0.32476448       0.10030997 </v>
    <v>       0.68228794       0.00278776       0.10030320 </v>
    <v>       0.00419584       0.68071997       0.10027502 </v>
    <v>       0.11107301       0.38894132       0.33727407 </v>
    <v>       0.27784685       0.22228331       0.33731271 </v>
    <v>       0.11120682       0.88895792       0.33728027 </v>
    <v>       0.27787646       0.72222018       0.33723551 </v>
    <v>       0.61109087       0.38886183       0.33723294 </v>
    <v>       0.77775714       0.22224659       0.33727887 </v>
    <v>       0.61101532       0.88886182       0.33730665 </v>
    <v>       0.77759108       0.72214872       0.33727946 </v>
   </varray>
  </structure>
  <varray name="forces" >
   <v>      -0.00250531       0.00197556      -0.30783189 </v>
   <v>       0.08579035       0.04406139       0.08671525 </v>
   <v>      -0.07449500       0.04395999       0.10074151 </v>
   <v>       0.01023542      -0.08903762       0.09688331 </v>
   <v>       0.00831645       0.11570584      -0.00988501 </v>
   <v>      -0.10108538      -0.05920999       0.00085066 </v>
   <v>       0.10317066      -0.05621775      -0.00770997 </v>
   <v>       0.01241047      -0.00263261       0.00474946 </v>
   <v>      -0.01334707      -0.01499178       0.01817950 </v>
   <v>      -0.01386910      -0.02281609       0.00814801 </v>
   <v>      -0.03053528      -0.01227256      -0.00951471 </v>
   <v>      -0.00685875       0.00458414      -0.00949656 </v>
   <v>       0.00203630      -0.00251017       0.00547247 </v>
   <v>       0.00562531       0.01694209       0.01629843 </v>
   <v>       0.01511094       0.03245954       0.00639954 </v>
  </varray>
  <varray name="stress" >
   <v>     -21.53615865       0.09060205      -0.55205471 </v>
   <v>       0.09060206     -21.63631274      -0.01958286 </v>
   <v>      -0.55205471      -0.01958289      -1.88181374 </v>
  </varray>
  <energy>
   <i name="e_fr_energy">   -127.07624795 </i>
   <i name="e_wo_entrp">   -127.07468351 </i>
   <i name="e_0_energy">   -127.07546573 </i>
  </energy>
  <time name="totalsc">   49.93   50.88</time>
 </calculation>
 <calculation>
  <scstep>
   <time name="dav">    5.47    5.51</time>
   <time name="total">    5.76    5.81</time>
   <energy>
    <i name="alphaZ">     57.92394122 </i>
    <i name="ewald">   4645.62901457 </i>
    <i name="hartreedc">  -6402.12666023 </i>
    <i name="XCdc">    180.14440865 </i>
    <i name="pawpsdc">   5661.58450692 </i>
    <i name="pawaedc">  -5665.96464243 </i>
    <i name="eentropy">     -0.00156628 </i>
    <i name="bandstr">   -505.95197553 </i>
    <i name="atom">   1903.26342058 </i>
    <i name="e_fr_energy">   -125.49955255 </i>
    <i name="e_wo_entrp">   -125.49798627 </i>
    <i name="e_0_energy">   -125.49876941 </i>
   </energy>
  </scstep>
  <scstep>
   <time name="dav">   11.43   11.50</time>
   <time name="total">   11.72   11.81</time>
   <energy>
    <i name="e_fr_energy">   -125.49963159 </i>
    <i name="e_wo_entrp">   -125.49806537 </i>
    <i name="e_0_energy">   -125.49884848 </i>
   </energy>
  </scstep>
  <scstep>
   <time name="dav">    8.46    8.52</time>
   <time name="total">    8.75    8.82</time>
   <energy>
    <i name="e_fr_energy">   -125.49963037 </i>
    <i name="e_wo_entrp">   -125.49806423 </i>
    <i name="e_0_energy">   -125.49884730 </i>
   </energy>
  </scstep>
  <scstep>
   <time name="dav">   10.99   11.06</time>
   <time name="total">   11.29   11.36</time>
   <energy>
    <i name="e_fr_energy">   -125.49963156 </i>
    <i name="e_wo_entrp">   -125.49806542 </i>
    <i name="e_0_energy">   -125.49884849 </i>
   </energy>
  </scstep>
  <scstep>
   <time name="dav">    9.07    9.12</time>
   <time name="total">    9.11    9.17</time>
   <energy>
    <i name="alphaZ">     57.92394122 </i>
    <i name="ewald">   4645.62901457 </i>
    <i name="hartreedc">  -6402.11281916 </i>
    <i name="XCdc">    180.14325011 </i>
    <i name="pawpsdc">   5667.12795875 </i>
    <i name="pawaedc">  -5671.51000893 </i>
    <i name="eentropy">     -0.00156615 </i>
    <i name="bandstr">   -505.96282290 </i>
    <i name="atom">   1903.26342058 </i>
    <i name="e_fr_energy">   -125.49963191 </i>
    <i name="e_wo_entrp">   -125.49806577 </i>
    <i name="e_0_energy">   -125.49884884 </i>
   </energy>
  </scstep>
  <structure>
   <crystal>
    <varray name="basis" >
     <v>       4.21061551       2.43100000       0.00000000 </v>
     <v>      -4.21061551       2.43100000       0.00000000 </v>
     <v>       0.00000000       0.00000000      15.00000000 </v>
    </varray>
    <i name="volume">    307.08018938 </i>
    <varray name="rec_basis" >
     <v>       0.11874748       0.20567668       0.00000000 </v>
     <v>      -0.11874748       0.20567668       0.00000000 </v>
     <v>       0.00000000       0.00000000       0.06666667 </v>
    </varray>
   </crystal>
   <varray name="positions" >
    <v>       0.00416822       0.00271835       0.11839212 </v>
    <v>       0.35677956       0.00275931       0.09801540 </v>
    <v>       0.00421066       0.35544966       0.09810038 </v>
    <v>       0.65160610       0.65006021       0.09806286 </v>
    <v>       0.32640802       0.32483183       0.10028357 </v>
    <v>       0.68218705       0.00278343       0.10031875 </v>
    <v>       0.00424031       0.68057428       0.10025709 </v>
    <v>       0.11109589       0.38887852       0.33729138 </v>
    <v>       0.27767633       0.22224728       0.33738734 </v>
    <v>       0.11097626       0.88885808       0.33731039 </v>
    <v>       0.27765541       0.72226754       0.33719311 </v>
    <v>       0.61108718       0.38892574       0.33718936 </v>
    <v>       0.77773556       0.22222542       0.33730054 </v>
    <v>       0.61115118       0.88897187       0.33737294 </v>
    <v>       0.77787184       0.72232692       0.33730412 </v>
   </varray>
  </structure>
  <varray name="forces" >
   <v>       0.00097279       0.00094169      -0.27894130 </v>
   <v>       0.06062473       0.03212345       0.05210544 </v>
   <v>      -0.04376133       0.03021463       0.05891144 </v>
   <v>       0.00613114      -0.05911093       0.05693837 </v>
   <v>       0.00254717       0.10769468       0.02179754 </v>
   <v>      -0.09280704      -0.05795483       0.02788548 </v>
   <v>       0.09381254      -0.05277712       0.02340083 </v>
   <v>      -0.04088461       0.00600057       0.00414164 </v>
   <v>       0.02670394       0.02363713       0.00405793 </v>
   <v>       0.01199348       0.05381042       0.00634113 </v>
   <v>       0.05199036       0.02579990       0.00547170 </v>
   <v>      -0.00389144      -0.00849566       0.00642334 </v>
   <v>      -0.01354869       0.00899363       0.00324340 </v>
   <v>      -0.02020615      -0.04138989       0.00392639 </v>
   <v>      -0.03967689      -0.06948769       0.00429666 </v>
  </varray>
  <varray name="stress" >
   <v>     -21.08176419       0.09074326      -0.51356597 </v>
   <v>       0.09074327     -21.29604948      -0.02133072 </v>
   <v>      -0.51356598      -0.02133071      -1.85913226 </v>
  </varray>
  <energy>
   <i name="e_fr_energy">   -127.08369535 </i>
   <i name="e_wo_entrp">   -127.08212920 </i>
   <i name="e_0_energy">   -127.08291228 </i>
  </energy>
  <time name="totalsc">   51.32   51.70</time>
 </calculation>
 <calculation>
  <scstep>
   <time name="dav">    5.44    5.47</time>
   <time name="total">    5.73    5.78</time>
   <energy>
    <i name="alphaZ">     57.92394122 </i>
    <i name="ewald">   4645.28036678 </i>
    <i name="hartreedc">  -6401.10105316 </i>
    <i name="XCdc">    180.19174591 </i>
    <i name="pawpsdc">   5667.16133040 </i>
    <i name="pawaedc">  -5671.54339656 </i>
    <i name="eentropy">     -0.00156505 </i>
    <i name="bandstr">   -506.68544515 </i>
    <i name="atom">   1903.26342058 </i>
    <i name="e_fr_energy">   -125.51065503 </i>
    <i name="e_wo_entrp">   -125.50908998 </i>
    <i name="e_0_energy">   -125.50987251 </i>
   </energy>
  </scstep>
  <scstep>
   <time name="dav">   11.54   11.61</time>
   <time name="total">   11.83   11.91</time>
   <energy>
    <i name="e_fr_energy">   -125.51152852 </i>
    <i name="e_wo_entrp">   -125.50996323 </i>
    <i name="e_0_energy">   -125.51074588 </i>
   </energy>
  </scstep>
  <scstep>
   <time name="dav">    8.57    8.63</time>
   <time name="total">    8.86    8.93</time>
   <energy>
    <i name="e_fr_energy">   -125.51150405 </i>
    <i name="e_wo_entrp">   -125.50993853 </i>
    <i name="e_0_energy">   -125.51072129 </i>
   </energy>
  </scstep>
  <scstep>
   <time name="dav">   11.69   11.76</time>
   <time name="total">   11.98   12.06</time>
   <energy>
    <i name="e_fr_energy">   -125.51151657 </i>
    <i name="e_wo_entrp">   -125.50995102 </i>
    <i name="e_0_energy">   -125.51073380 </i>
   </energy>
  </scstep>
  <scstep>
   <time name="dav">    8.61    8.67</time>
   <time name="total">    8.90    8.97</time>
   <energy>
    <i name="e_fr_energy">   -125.51152023 </i>
    <i name="e_wo_entrp">   -125.50995468 </i>
    <i name="e_0_energy">   -125.51073745 </i>
   </energy>
  </scstep>
  <scstep>
   <time name="dav">   10.34   10.41</time>
   <time name="total">   10.38   10.45</time>
   <energy>
    <i name="alphaZ">     57.92394122 </i>
    <i name="ewald">   4645.28036678 </i>
    <i name="hartreedc">  -6401.04108507 </i>
    <i name="XCdc">    180.18791583 </i>
    <i name="pawpsdc">   5680.98441489 </i>
    <i name="pawaedc">  -5685.37141608 </i>
    <i name="eentropy">     -0.00156554 </i>
    <i name="bandstr">   -506.73751309 </i>
    <i name="atom">   1903.26342058 </i>
    <i name="e_fr_energy">   -125.51152048 </i>
    <i name="e_wo_entrp">   -125.50995494 </i>
    <i name="e_0_energy">   -125.51073771 </i>
   </energy>
  </scstep>
  <structure>
   <crystal>
    <varray name="basis" >
     <v>       4.21061551       2.43100000       0.00000000 </v>
     <v>      -4.21061551       2.43100000       0.00000000 </v>
     <v>       0.00000000       0.00000000      15.00000000 </v>
    </varray>
    <i name="volume">    307.08018938 </i>
    <varray name="rec_basis" >
     <v>       0.11874748       0.20567668       0.00000000 </v>
     <v>      -0.11874748       0.20567668       0.00000000 </v>
     <v>       0.00000000       0.00000000       0.06666667 </v>
    </varray>
   </crystal>
   <varray name="positions" >
    <v>       0.00419197       0.00282539       0.11469174 </v>
    <v>       0.35831906       0.00256720       0.09903595 </v>
    <v>       0.00420105       0.35698071       0.09928234 </v>
    <v>       0.65026649       0.64832316       0.09920096 </v>
    <v>       0.32698695       0.32503389       0.10020438 </v>
    <v>       0.68188436       0.00277044       0.10036538 </v>
    <v>       0.00437374       0.68013724       0.10020331 </v>
    <v>       0.11116452       0.38869013       0.33734329 </v>
    <v>       0.27716477       0.22213920       0.33761124 </v>
    <v>       0.11028459       0.88855856       0.33740074 </v>
    <v>       0.27699226       0.72240962       0.33706589 </v>
    <v>       0.61107613       0.38911745       0.33705864 </v>
    <v>       0.77767081       0.22216192       0.33736558 </v>
    <v>       0.61155874       0.88930203       0.33757182 </v>
    <v>       0.77871411       0.72286150       0.33737808 </v>
   </varray>
  </structure>
  <varray name="forces" >
   <v>       0.01204361      -0.00273420      -0.22296399 </v>
   <v>      -0.03534879      -0.01560301      -0.04227424 </v>
   <v>       0.06725534      -0.02345562      -0.05606163 </v>
   <v>      -0.00544350       0.05339246      -0.05267108 </v>
   <v>      -0.01306691       0.06526176       0.11688291 </v>
   <v>      -0.05117030      -0.04365096       0.10983762 </v>
   <v>       0.04853173      -0.03230883       0.11673114 </v>
   <v>      -0.20158844       0.03249185       0.00210743 </v>
   <v>       0.14676589       0.14064440      -0.03824428 </v>
   <v>       0.09285356       0.28793953       0.00065535 </v>
   <v>       0.29916959       0.13798705       0.05062604 </v>
   <v>       0.00515618      -0.04776482       0.05434026 </v>
   <v>      -0.06071339       0.04286968      -0.00338581 </v>
   <v>      -0.09743232      -0.21415470      -0.03327729 </v>
   <v>      -0.20701225      -0.38091458      -0.00230242 </v>
  </varray>
  <varray name="stress" >
   <v>     -19.81651248       0.12416140      -0.41521930 </v>
   <v>       0.12416140     -20.35776830      -0.02485946 </v>
   <v>      -0.41521929      -0.02485947      -1.82492555 </v>
  </varray>
  <energy>
   <i name="e_fr_energy">   -127.09505149 </i>
   <i name="e_wo_entrp">   -127.09348595 </i>
   <i name="e_0_energy">   -127.09426872 </i>
  </energy>
  <time name="totalsc">   62.39   62.85</time>
 </calculation>
 <calculation>
  <scstep>
   <time name="dav">    5.49    5.53</time>
   <time name="total">    5.78    5.83</time>
   <energy>
    <i name="alphaZ">     57.92394122 </i>
    <i name="ewald">   4645.25797125 </i>
    <i name="hartreedc">  -6400.94200829 </i>
    <i name="XCdc">    180.19280161 </i>
    <i name="pawpsdc">   5680.98049800 </i>
    <i name="pawaedc">  -5685.36749667 </i>
    <i name="eentropy">     -0.00156697 </i>
    <i name="bandstr">   -506.82231114 </i>
    <i name="atom">   1903.26342058 </i>
    <i name="e_fr_energy">   -125.51475040 </i>
    <i name="e_wo_entrp">   -125.51318343 </i>
    <i name="e_0_energy">   -125.51396692 </i>
   </energy>
  </scstep>
  <scstep>
   <time name="dav">   11.45   11.52</time>
   <time name="total">   11.74   11.82</time>
   <energy>
    <i name="e_fr_energy">   -125.51475288 </i>
    <i name="e_wo_entrp">   -125.51318592 </i>
    <i name="e_0_energy">   -125.51396940 </i>
   </energy>
  </scstep>
  <scstep>
   <time name="dav">    8.58    8.64</time>
   <time name="total">    8.87    8.94</time>
   <energy>
    <i name="e_fr_energy">   -125.51474303 </i>
    <i name="e_wo_entrp">   -125.51317608 </i>
    <i name="e_0_energy">   -125.51395956 </i>
   </energy>
  </scstep>
  <scstep>
   <time name="dav">   11.10   11.17</time>
   <time name="total">   11.39   11.47</time>
   <energy>
    <i name="e_fr_energy">   -125.51474348 </i>
    <i name="e_wo_entrp">   -125.51317653 </i>
    <i name="e_0_energy">   -125.51396000 </i>
   </energy>
  </scstep>
  <scstep>
   <time name="dav">   10.19   10.25</time>
   <time name="total">   10.23   10.29</time>
   <energy>
    <i name="alphaZ">     57.92394122 </i>
    <i name="ewald">   4645.25797125 </i>
    <i name="hartreedc">  -6400.93650599 </i>
    <i name="XCdc">    180.19207879 </i>
    <i name="pawpsdc">   5682.29123167 </i>
    <i name="pawaedc">  -5686.67875577 </i>
    <i name="eentropy">     -0.00156695 </i>
    <i name="bandstr">   -506.82655886 </i>
    <i name="atom">   1903.26342058 </i>
    <i name="e_fr_energy">   -125.51474407 </i>
    <i name="e_wo_entrp">   -125.51317712 </i>
    <i name="e_0_energy">   -125.51396059 </i>
   </energy>
  </scstep>
  <structure>
   <crystal>
    <varray name="basis" >
     <v>       4.21061551       2.43100000       0.00000000 </v>
     <v>      -4.21061551       2.43100000       0.00000000 </v>
     <v>       0.00000000       0.00000000      15.00000000 </v>
    </varray>
    <i name="volume">    307.08018938 </i>
    <varray name="rec_basis" >
     <v>       0.11874748       0.20567668       0.00000000 </v>
     <v>      -0.11874748       0.20567668       0.00000000 </v>
     <v>       0.00000000       0.00000000       0.06666667 </v>
    </varray>
   </crystal>
   <varray name="positions" >
    <v>       0.00419895       0.00282899       0.11417241 </v>
    <v>       0.35847107       0.00254854       0.09914658 </v>
    <v>       0.00421479       0.35710623       0.09940823 </v>
    <v>       0.65015256       0.64816706       0.09932259 </v>
    <v>       0.32711319       0.32512899       0.10023149 </v>
    <v>       0.68177665       0.00275519       0.10040555 </v>
    <v>       0.00438578       0.68002569       0.10023346 </v>
    <v>       0.11109153       0.38881157       0.33735026 </v>
    <v>       0.27732113       0.22218027       0.33762640 </v>
    <v>       0.11053168       0.88874934       0.33741191 </v>
    <v>       0.27721293       0.72239319       0.33706635 </v>
    <v>       0.61103137       0.38909155       0.33705985 </v>
    <v>       0.77767052       0.22222974       0.33737241 </v>
    <v>       0.61134611       0.88918906       0.33758551 </v>
    <v>       0.77833129       0.72267302       0.33738634 </v>
   </varray>
  </structure>
  <varray name="forces" >
   <v>       0.01343334      -0.00298222      -0.21322099 </v>
   <v>      -0.04442788      -0.02042861      -0.04560965 </v>
   <v>       0.07317021      -0.02708513      -0.06130120 </v>
   <v>      -0.00660490       0.06162606      -0.05741043 </v>
   <v>      -0.01337552       0.04839988       0.11907288 </v>
   <v>      -0.03523905      -0.03425895       0.11063082 </v>
   <v>       0.03539654      -0.02442461       0.11846666 </v>
   <v>      -0.12840567       0.02088605       0.00191344 </v>
   <v>       0.08484858       0.10296638      -0.03994574 </v>
   <v>       0.06717457       0.18130785      -0.00023211 </v>
   <v>       0.19837695       0.09416472       0.05252777 </v>
   <v>       0.01080469      -0.03527130       0.05597298 </v>
   <v>      -0.04503922       0.02372464      -0.00356206 </v>
   <v>      -0.06858823      -0.13963389      -0.03488189 </v>
   <v>      -0.14152441      -0.24899086      -0.00242050 </v>
  </varray>
  <varray name="stress" >
   <v>     -19.81900495       0.07267243      -0.40382307 </v>
   <v>       0.07267242     -20.16975875      -0.02229056 </v>
   <v>      -0.40382307      -0.02229056      -1.81281274 </v>
  </varray>
  <energy>
   <i name="e_fr_energy">   -127.09820103 </i>
   <i name="e_wo_entrp">   -127.09663408 </i>
   <i name="e_0_energy">   -127.09741755 </i>
  </energy>
  <time name="totalsc">   52.72   53.47</time>
 </calculation>
 <calculation>
  <scstep>
   <time name="dav">    5.45    5.49</time>
   <time name="total">    5.74    5.79</time>
   <energy>
    <i name="alphaZ">     57.92394122 </i>
    <i name="ewald">   4645.11075710 </i>
    <i name="hartreedc">  -6400.59091177 </i>
    <i name="XCdc">    180.20574118 </i>
    <i name="pawpsdc">   5682.37665528 </i>
    <i name="pawaedc">  -5686.76418204 </i>
    <i name="eentropy">     -0.00155674 </i>
    <i name="bandstr">   -507.04357151 </i>
    <i name="atom">   1903.26342058 </i>
    <i name="e_fr_energy">   -125.51970671 </i>
    <i name="e_wo_entrp">   -125.51814996 </i>
    <i name="e_0_energy">   -125.51892833 </i>
   </energy>
  </scstep>
  <scstep>
   <time name="dav">   11.53   11.61</time>
   <time name="total">   11.82   11.91</time>
   <energy>
    <i name="e_fr_energy">   -125.51972215 </i>
    <i name="e_wo_entrp">   -125.51816460 </i>
    <i name="e_0_energy">   -125.51894337 </i>
   </energy>
  </scstep>
  <scstep>
   <time name="dav">    8.83    8.90</time>
   <time name="total">    9.12    9.20</time>
   <energy>
    <i name="e_fr_energy">   -125.51963511 </i>
    <i name="e_wo_entrp">   -125.51807671 </i>
    <i name="e_0_energy">   -125.51885591 </i>
   </energy>
  </scstep>
  <scstep>
   <time name="dav">   10.69   10.76</time>
   <time name="total">   10.98   11.07</time>
   <energy>
    <i name="e_fr_energy">   -125.51963763 </i>
    <i name="e_wo_entrp">   -125.51807910 </i>
    <i name="e_0_energy">   -125.51885837 </i>
   </energy>
  </scstep>
  <scstep>
   <time name="dav">    8.59    8.65</time>
   <time name="total">    8.88    8.95</time>
   <energy>
    <i name="e_fr_energy">   -125.51963950 </i>
    <i name="e_wo_entrp">   -125.51808095 </i>
    <i name="e_0_energy">   -125.51886022 </i>
   </energy>
  </scstep>
  <scstep>
   <time name="dav">   10.71   10.77</time>
   <time name="total">   10.74   10.81</time>
   <energy>
    <i name="alphaZ">     57.92394122 </i>
    <i name="ewald">   4645.11075710 </i>
    <i name="hartreedc">  -6400.64266178 </i>
    <i name="XCdc">    180.20442002 </i>
    <i name="pawpsdc">   5686.52838240 </i>
    <i name="pawaedc">  -5690.91746625 </i>
    <i name="eentropy">     -0.00155850 </i>
    <i name="bandstr">   -506.98887388 </i>
    <i name="atom">   1903.26342058 </i>
    <i name="e_fr_energy">   -125.51963909 </i>
    <i name="e_wo_entrp">   -125.51808059 </i>
    <i name="e_0_energy">   -125.51885984 </i>
   </energy>
  </scstep>
  <structure>
   <crystal>
    <varray name="basis" >
     <v>       4.21061551       2.43100000       0.00000000 </v>
     <v>      -4.21061551       2.43100000       0.00000000 </v>
     <v>       0.00000000       0.00000000      15.00000000 </v>
    </varray>
    <i name="volume">    307.08018938 </i>
    <varray name="rec_basis" >
     <v>       0.11874748       0.20567668       0.00000000 </v>
     <v>      -0.11874748       0.20567668       0.00000000 </v>
     <v>       0.00000000       0.00000000       0.06666667 </v>
    </varray>
   </crystal>
   <varray name="positions" >
    <v>       0.00421987       0.00283981       0.11261443 </v>
    <v>       0.35892709       0.00249254       0.09947846 </v>
    <v>       0.00425600       0.35748277       0.09978590 </v>
    <v>       0.64981074       0.64769877       0.09968748 </v>
    <v>       0.32749190       0.32541431       0.10031282 </v>
    <v>       0.68145355       0.00270944       0.10052607 </v>
    <v>       0.00442191       0.67969107       0.10032390 </v>
    <v>       0.11087256       0.38917589       0.33737115 </v>
    <v>       0.27779020       0.22230349       0.33767191 </v>
    <v>       0.11127297       0.88932168       0.33744544 </v>
    <v>       0.27787494       0.72234392       0.33706773 </v>
    <v>       0.61089711       0.38901382       0.33706345 </v>
    <v>       0.77766967       0.22243321       0.33739291 </v>
    <v>       0.61070821       0.88885014       0.33762659 </v>
    <v>       0.77718281       0.72210760       0.33741111 </v>
   </varray>
  </structure>
  <varray name="forces" >
   <v>       0.01749386      -0.00376394      -0.18820544 </v>
   <v>      -0.07508333      -0.03671514      -0.05483200 </v>
   <v>       0.09406737      -0.03997965      -0.07621515 </v>
   <v>      -0.01001539       0.09003847      -0.07079472 </v>
   <v>      -0.01404466      -0.00531338       0.12616906 </v>
   <v>       0.01539633      -0.00428844       0.11373717 </v>
   <v>      -0.00680445       0.00064348       0.12428288 </v>
   <v>       0.08766722      -0.01386158       0.00145786 </v>
   <v>      -0.09814892      -0.01036008      -0.04510142 </v>
   <v>      -0.00530089      -0.12907530      -0.00324594 </v>
   <v>      -0.10359031      -0.03981092       0.05828178 </v>
   <v>       0.02822438       0.00279435       0.06097123 </v>
   <v>       0.00099941      -0.03231677      -0.00401649 </v>
   <v>       0.02016884       0.08524388      -0.03965241 </v>
   <v>       0.04897055       0.13676502      -0.00283640 </v>
  </varray>
  <varray name="stress" >
   <v>     -19.80014748      -0.04436197      -0.36985547 </v>
   <v>      -0.04436196     -19.57411590      -0.01415725 </v>
   <v>      -0.36985545      -0.01415726      -1.81829961 </v>
  </varray>
  <energy>
   <i name="e_fr_energy">   -127.10284315 </i>
   <i name="e_wo_entrp">   -127.10128466 </i>
   <i name="e_0_energy">   -127.10206390 </i>
  </energy>
  <time name="totalsc">   62.00   62.81</time>
 </calculation>
 <calculation>
  <scstep>
   <time name="dav">    5.72    5.76</time>
   <time name="total">    6.01    6.06</time>
   <energy>
    <i name="alphaZ">     57.92394122 </i>
    <i name="ewald">   4645.07795073 </i>
    <i name="hartreedc">  -6400.58421186 </i>
    <i name="XCdc">    180.20624081 </i>
    <i name="pawpsdc">   5686.58387977 </i>
    <i name="pawaedc">  -5690.97296215 </i>
    <i name="eentropy">     -0.00155524 </i>
    <i name="bandstr">   -507.01646925 </i>
    <i name="atom">   1903.26342058 </i>
    <i name="e_fr_energy">   -125.51976539 </i>
    <i name="e_wo_entrp">   -125.51821015 </i>
    <i name="e_0_energy">   -125.51898777 </i>
   </energy>
  </scstep>
  <scstep>
   <time name="dav">   10.65   10.71</time>
   <time name="total">   10.94   11.02</time>
   <energy>
    <i name="e_fr_energy">   -125.51976562 </i>
    <i name="e_wo_entrp">   -125.51821024 </i>
    <i name="e_0_energy">   -125.51898793 </i>
   </energy>
  </scstep>
  <scstep>
   <time name="dav">    8.11    8.17</time>
   <time name="total">    8.40    8.47</time>
   <energy>
    <i name="e_fr_energy">   -125.51976385 </i>
    <i name="e_wo_entrp">   -125.51820833 </i>
    <i name="e_0_energy">   -125.51898609 </i>
   </energy>
  </scstep>
  <scstep>
   <time name="dav">   10.33   10.39</time>
   <time name="total">   10.36   10.43</time>
   <energy>
    <i name="alphaZ">     57.92394122 </i>
    <i name="ewald">   4645.07795073 </i>
    <i name="hartreedc">  -6400.59417826 </i>
    <i name="XCdc">    180.20612553 </i>
    <i name="pawpsdc">   5687.03612999 </i>
    <i name="pawaedc">  -5691.42542585 </i>
    <i name="eentropy">     -0.00155554 </i>
    <i name="bandstr">   -507.00617242 </i>
    <i name="atom">   1903.26342058 </i>
    <i name="e_fr_energy">   -125.51976403 </i>
    <i name="e_wo_entrp">   -125.51820848 </i>
    <i name="e_0_energy">   -125.51898626 </i>
   </energy>
  </scstep>
  <structure>
   <crystal>
    <varray name="basis" >
     <v>       4.21061551       2.43100000       0.00000000 </v>
     <v>      -4.21061551       2.43100000       0.00000000 </v>
     <v>       0.00000000       0.00000000      15.00000000 </v>
    </varray>
    <i name="volume">    307.08018938 </i>
    <varray name="rec_basis" >
     <v>       0.11874748       0.20567668       0.00000000 </v>
     <v>      -0.11874748       0.20567668       0.00000000 </v>
     <v>       0.00000000       0.00000000       0.06666667 </v>
    </varray>
   </crystal>
   <varray name="positions" >
    <v>       0.00422303       0.00284145       0.11237866 </v>
    <v>       0.35899611       0.00248407       0.09952868 </v>
    <v>       0.00426224       0.35753975       0.09984305 </v>
    <v>       0.64975902       0.64762790       0.09974270 </v>
    <v>       0.32754921       0.32545749       0.10032512 </v>
    <v>       0.68140466       0.00270251       0.10054430 </v>
    <v>       0.00442738       0.67964043       0.10033758 </v>
    <v>       0.11083942       0.38923102       0.33737432 </v>
    <v>       0.27786119       0.22232214       0.33767879 </v>
    <v>       0.11138516       0.88940829       0.33745051 </v>
    <v>       0.27797513       0.72233646       0.33706794 </v>
    <v>       0.61087679       0.38900206       0.33706400 </v>
    <v>       0.77766954       0.22246400       0.33739601 </v>
    <v>       0.61061168       0.88879885       0.33763280 </v>
    <v>       0.77700901       0.72202203       0.33741486 </v>
   </varray>
  </structure>
  <varray name="forces" >
   <v>       0.01813089      -0.00387878      -0.18481981 </v>
   <v>      -0.08027234      -0.03951655      -0.05601093 </v>
   <v>       0.09778337      -0.04223879      -0.07823070 </v>
   <v>      -0.01051784       0.09497919      -0.07258268 </v>
   <v>      -0.01415514      -0.01402531       0.12710016 </v>
   <v>       0.02359495       0.00054193       0.11404627 </v>
   <v>      -0.01368332       0.00472762       0.12501040 </v>
   <v>       0.12012885      -0.01911062       0.00141570 </v>
   <v>      -0.12578183      -0.02750102      -0.04586042 </v>
   <v>      -0.01578944      -0.17524305      -0.00369641 </v>
   <v>      -0.14939375      -0.06056399       0.05915545 </v>
   <v>       0.03089735       0.00869754       0.06173139 </v>
   <v>       0.00799968      -0.04084810      -0.00406182 </v>
   <v>       0.03379534       0.11978457      -0.04033192 </v>
   <v>       0.07726323       0.19419537      -0.00286468 </v>
  </varray>
  <varray name="stress" >
   <v>     -19.79331377      -0.05722297      -0.36500493 </v>
   <v>      -0.05722295     -19.47874685      -0.01289362 </v>
   <v>      -0.36500494      -0.01289358      -1.82159941 </v>
  </varray>
  <energy>
   <i name="e_fr_energy">   -127.10292581 </i>
   <i name="e_wo_entrp">   -127.10137027 </i>
   <i name="e_0_energy">   -127.10214804 </i>
  </energy>
  <time name="totalsc">   40.43   40.86</time>
 </calculation>
 <calculation>
  <scstep>
   <time name="dav">    5.49    5.52</time>
   <time name="total">    5.78    5.83</time>
   <energy>
    <i name="alphaZ">     57.92394122 </i>
    <i name="ewald">   4645.25364663 </i>
    <i name="hartreedc">  -6400.66255246 </i>
    <i name="XCdc">    180.21310448 </i>
    <i name="pawpsdc">   5687.11844759 </i>
    <i name="pawaedc">  -5691.50775332 </i>
    <i name="eentropy">     -0.00156128 </i>
    <i name="bandstr">   -507.12271030 </i>
    <i name="atom">   1903.26342058 </i>
    <i name="e_fr_energy">   -125.52201687 </i>
    <i name="e_wo_entrp">   -125.52045559 </i>
    <i name="e_0_energy">   -125.52123623 </i>
   </energy>
  </scstep>
  <scstep>
   <time name="dav">    9.85    9.91</time>
   <time name="total">   10.14   10.22</time>
   <energy>
    <i name="e_fr_energy">   -125.52203828 </i>
    <i name="e_wo_entrp">   -125.52047718 </i>
    <i name="e_0_energy">   -125.52125773 </i>
   </energy>
  </scstep>
  <scstep>
   <time name="dav">    8.38    8.44</time>
   <time name="total">    8.68    8.75</time>
   <energy>
    <i name="e_fr_energy">   -125.52203647 </i>
    <i name="e_wo_entrp">   -125.52047564 </i>
    <i name="e_0_energy">   -125.52125606 </i>
   </energy>
  </scstep>
  <scstep>
   <time name="dav">    9.78    9.84</time>
   <time name="total">    9.81    9.88</time>
   <energy>
    <i name="alphaZ">     57.92394122 </i>
    <i name="ewald">   4645.25364663 </i>
    <i name="hartreedc">  -6400.74210141 </i>
    <i name="XCdc">    180.21261835 </i>
    <i name="pawpsdc">   5689.31933432 </i>
    <i name="pawaedc">  -5693.70944080 </i>
    <i name="eentropy">     -0.00156084 </i>
    <i name="bandstr">   -507.04189461 </i>
    <i name="atom">   1903.26342058 </i>
    <i name="e_fr_energy">   -125.52203658 </i>
    <i name="e_wo_entrp">   -125.52047574 </i>
    <i name="e_0_energy">   -125.52125616 </i>
   </energy>
  </scstep>
  <structure>
   <crystal>
    <varray name="basis" >
     <v>       4.21061551       2.43100000       0.00000000 </v>
     <v>      -4.21061551       2.43100000       0.00000000 </v>
     <v>       0.00000000       0.00000000      15.00000000 </v>
    </varray>
    <i name="volume">    307.08018938 </i>
    <varray name="rec_basis" >
     <v>       0.11874748       0.20567668       0.00000000 </v>
     <v>      -0.11874748       0.20567668       0.00000000 </v>
     <v>       0.00000000       0.00000000       0.06666667 </v>
    </varray>
   </crystal>
   <varray name="positions" >
    <v>       0.00424171       0.00282200       0.11169401 </v>
    <v>       0.35902704       0.00247418       0.09962385 </v>
    <v>       0.00430105       0.35751974       0.09994366 </v>
    <v>       0.64977606       0.64761724       0.09984149 </v>
    <v>       0.32765539       0.32555530       0.10042326 </v>
    <v>       0.68130625       0.00266385       0.10065026 </v>
    <v>       0.00443578       0.67953516       0.10043804 </v>
    <v>       0.11083934       0.38922317       0.33738294 </v>
    <v>       0.27787367       0.22244247       0.33767156 </v>
    <v>       0.11136204       0.88935146       0.33746117 </v>
    <v>       0.27798370       0.72236002       0.33709989 </v>
    <v>       0.61086974       0.38895782       0.33709815 </v>
    <v>       0.77760984       0.22246607       0.33740157 </v>
    <v>       0.61059986       0.88883561       0.33762684 </v>
    <v>       0.77696808       0.72205435       0.33742266 </v>
   </varray>
  </structure>
  <varray name="forces" >
   <v>       0.01793563      -0.00351530      -0.16472690 </v>
   <v>      -0.06894866      -0.03321595      -0.04596110 </v>
   <v>       0.08052853      -0.03466415      -0.06904330 </v>
   <v>      -0.01083006       0.07892097      -0.06299370 </v>
   <v>      -0.01189852      -0.01965378       0.11133376 </v>
   <v>       0.02835236       0.00602827       0.09731274 </v>
   <v>      -0.01483087       0.00662498       0.10916718 </v>
   <v>       0.10146946      -0.01806782       0.00123949 </v>
   <v>      -0.09127249      -0.06009383      -0.04133303 </v>
   <v>      -0.04286648      -0.15467880      -0.00382854 </v>
   <v>      -0.14973334      -0.06944671       0.05456492 </v>
   <v>       0.00276859       0.02167400       0.05602741 </v>
   <v>       0.02445646      -0.02865741      -0.00279993 </v>
   <v>       0.03846397       0.11546010      -0.03682296 </v>
   <v>       0.09640544       0.19328544      -0.00213603 </v>
  </varray>
  <varray name="stress" >
   <v>     -19.55743394      -0.02286572      -0.35446227 </v>
   <v>      -0.02286572     -19.41143523      -0.01289876 </v>
   <v>      -0.35446227      -0.01289873      -1.80156602 </v>
  </varray>
  <energy>
   <i name="e_fr_energy">   -127.10504331 </i>
   <i name="e_wo_entrp">   -127.10348247 </i>
   <i name="e_0_energy">   -127.10426289 </i>
  </energy>
[...]
       <r>     2.7097     0.7839    30.9071 </r>
       <r>     2.8161     0.5780    30.9685 </r>
       <r>     2.9224     1.1868    31.0948 </r>
       <r>     3.0288     1.5108    31.2555 </r>
       <r>     3.1352     1.1369    31.3764 </r>
       <r>     3.2415     1.2929    31.5139 </r>
       <r>     3.3479     1.3574    31.6583 </r>
       <r>     3.4542     1.4590    31.8134 </r>
       <r>     3.5606     2.3433    32.0627 </r>
       <r>     3.6669     3.2220    32.4053 </r>
       <r>     3.7733     3.2156    32.7473 </r>
       <r>     3.8796     2.8269    33.0480 </r>
       <r>     3.9860     3.0548    33.3729 </r>
       <r>     4.0924     3.1729    33.7103 </r>
       <r>     4.1987     3.1260    34.0428 </r>
       <r>     4.3051     3.0355    34.3656 </r>
       <r>     4.4114     2.8712    34.6710 </r>
       <r>     4.5178     2.7400    34.9624 </r>
       <r>     4.6241     2.6650    35.2459 </r>
       <r>     4.7305     3.4855    35.6166 </r>
       <r>     4.8368     3.0467    35.9406 </r>
       <r>     4.9432     2.7048    36.2283 </r>
       <r>     5.0496     3.1957    36.5682 </r>
       <r>     5.1559     3.6745    36.9590 </r>
       <r>     5.2623     3.2531    37.3049 </r>
       <r>     5.3686     2.7286    37.5952 </r>
       <r>     5.4750     2.8277    37.8959 </r>
       <r>     5.5813     3.2010    38.2363 </r>
       <r>     5.6877     2.6590    38.5191 </r>
       <r>     5.7940     2.9780    38.8359 </r>
       <r>     5.9004     2.5992    39.1123 </r>
       <r>     6.0068     2.6034    39.3892 </r>
       <r>     6.1131     2.0230    39.6043 </r>
       <r>     6.2195     2.4515    39.8651 </r>
       <r>     6.3258     2.8606    40.1693 </r>
       <r>     6.4322     2.8961    40.4773 </r>
       <r>     6.5385     3.4831    40.8478 </r>
       <r>     6.6449     3.6509    41.2361 </r>
       <r>     6.7512     4.0409    41.6658 </r>
       <r>     6.8576     3.3697    42.0242 </r>
       <r>     6.9640     3.3802    42.3837 </r>
       <r>     7.0703     3.0850    42.7118 </r>
       <r>     7.1767     2.7449    43.0038 </r>
       <r>     7.2830     2.5923    43.2795 </r>
       <r>     7.3894     2.3356    43.5279 </r>
       <r>     7.4957     3.1920    43.8674 </r>
       <r>     7.6021     3.2363    44.2116 </r>
       <r>     7.7084     4.1953    44.6577 </r>
       <r>     7.8148     4.1623    45.1004 </r>
       <r>     7.9212     3.2555    45.4467 </r>
       <r>     8.0275     4.1769    45.8909 </r>
       <r>     8.1339     4.8327    46.4049 </r>
       <r>     8.2402     4.7278    46.9077 </r>
       <r>     8.3466     4.4405    47.3800 </r>
       <r>     8.4529     3.0190    47.7011 </r>
       <r>     8.5593     1.4793    47.8584 </r>
       <r>     8.6657     0.5830    47.9204 </r>
       <r>     8.7720     0.3900    47.9619 </r>
       <r>     8.8784     0.2891    47.9927 </r>
       <r>     8.9847     0.0664    47.9997 </r>
       <r>     9.0911     0.0027    48.0000 </r>
       <r>     9.1974     0.0000    48.0000 </r>
       <r>     9.3038     0.0000    48.0000 </r>
       <r>     9.4101     0.0000    48.0000 </r>
       <r>     9.5165     0.0000    48.0000 </r>
       <r>     9.6229     0.0000    48.0000 </r>
       <r>     9.7292     0.0000    48.0000 </r>
       <r>     9.8356     0.0000    48.0000 </r>
       <r>     9.9419     0.0000    48.0000 </r>
       <r>    10.0483     0.0000    48.0000 </r>
       <r>    10.1546     0.0000    48.0000 </r>
       <r>    10.2610     0.0000    48.0000 </r>
      </set>
      <set comment="spin 2">
       <r>   -21.6457     0.0000     0.0000 </r>
       <r>   -21.5394     0.0000     0.0000 </r>
       <r>   -21.4330     0.0000     0.0000 </r>
       <r>   -21.3267     0.0000     0.0000 </r>
       <r>   -21.2203     0.0000     0.0000 </r>
       <r>   -21.1140     0.0000     0.0000 </r>
       <r>   -21.0076     0.0000     0.0000 </r>
       <r>   -20.9013     0.0000     0.0000 </r>
       <r>   -20.7949     0.0000     0.0000 </r>
       <r>   -20.6885     0.0000     0.0000 </r>
       <r>   -20.5822     0.0000     0.0000 </r>
       <r>   -20.4758     0.0000     0.0000 </r>
       <r>   -20.3695     0.0009     0.0001 </r>
       <r>   -20.2631     0.0351     0.0038 </r>
       <r>   -20.1568     0.2540     0.0308 </r>
       <r>   -20.0504     0.5334     0.0876 </r>
       <r>   -19.9441     0.5819     0.1495 </r>
       <r>   -19.8377     0.6341     0.2169 </r>
       <r>   -19.7313     0.5358     0.2739 </r>
       <r>   -19.6250     0.6919     0.3475 </r>
       <r>   -19.5186     0.5407     0.4050 </r>
       <r>   -19.4123     0.5512     0.4636 </r>
       <r>   -19.3059     0.7708     0.5456 </r>
       <r>   -19.1996     0.4869     0.5974 </r>
       <r>   -19.0932     0.5054     0.6511 </r>
       <r>   -18.9869     0.7867     0.7348 </r>
       <r>   -18.8805     0.6647     0.8055 </r>
       <r>   -18.7741     0.3777     0.8456 </r>
       <r>   -18.6678     0.5757     0.9069 </r>
       <r>   -18.5614     0.8848     1.0010 </r>
       <r>   -18.4551     0.5810     1.0628 </r>
       <r>   -18.3487     0.4846     1.1143 </r>
       <r>   -18.2424     0.3906     1.1559 </r>
       <r>   -18.1360     0.8651     1.2479 </r>
       <r>   -18.0296     0.8368     1.3369 </r>
       <r>   -17.9233     0.4446     1.3842 </r>
       <r>   -17.8169     0.4304     1.4299 </r>
       <r>   -17.7106     0.5321     1.4865 </r>
       <r>   -17.6042     0.8140     1.5731 </r>
       <r>   -17.4979     0.8622     1.6648 </r>
       <r>   -17.3915     0.7429     1.7438 </r>
       <r>   -17.2852     0.8963     1.8391 </r>
       <r>   -17.1788     1.3666     1.9845 </r>
       <r>   -17.0724     1.9088     2.1875 </r>
       <r>   -16.9661     2.0400     2.4045 </r>
       <r>   -16.8597     2.2959     2.6487 </r>
       <r>   -16.7534     2.7225     2.9382 </r>
       <r>   -16.6470     1.8537     3.1354 </r>
       <r>   -16.5407     0.5444     3.1933 </r>
       <r>   -16.4343     0.9754     3.2970 </r>
       <r>   -16.3280     1.0078     3.4042 </r>
       <r>   -16.2216     0.5800     3.4659 </r>
       <r>   -16.1152     0.5273     3.5219 </r>
       <r>   -16.0089     0.5057     3.5757 </r>
       <r>   -15.9025     0.4732     3.6261 </r>
       <r>   -15.7962     0.5083     3.6801 </r>
       <r>   -15.6898     1.0823     3.7952 </r>
       <r>   -15.5835     0.9852     3.9000 </r>
       <r>   -15.4771     0.4923     3.9524 </r>
       <r>   -15.3708     0.4952     4.0051 </r>
       <r>   -15.2644     0.4472     4.0526 </r>
       <r>   -15.1580     0.6117     4.1177 </r>
       <r>   -15.0517     0.8322     4.2062 </r>
       <r>   -14.9453     1.4907     4.3647 </r>
       <r>   -14.8390     2.2183     4.6007 </r>
       <r>   -14.7326     2.3818     4.8540 </r>
       <r>   -14.6263     2.1656     5.0843 </r>
       <r>   -14.5199     1.2898     5.2215 </r>
       <r>   -14.4136     1.0657     5.3348 </r>
       <r>   -14.3072     2.0445     5.5523 </r>
       <r>   -14.2008     1.8748     5.7517 </r>
       <r>   -14.0945     1.3998     5.9005 </r>
       <r>   -13.9881     1.3698     6.0462 </r>
       <r>   -13.8818     1.7147     6.2286 </r>
       <r>   -13.7754     2.5768     6.5027 </r>
       <r>   -13.6691     2.4908     6.7676 </r>
       <r>   -13.5627     2.2477     7.0066 </r>
       <r>   -13.4564     1.2633     7.1410 </r>
       <r>   -13.3500     0.8090     7.2270 </r>
       <r>   -13.2436     0.4338     7.2732 </r>
       <r>   -13.1373     0.5448     7.3311 </r>
       <r>   -13.0309     0.9095     7.4278 </r>
       <r>   -12.9246     0.8575     7.5190 </r>
       <r>   -12.8182     0.6276     7.5858 </r>
       <r>   -12.7119     0.9207     7.6837 </r>
       <r>   -12.6055     0.8898     7.7783 </r>
       <r>   -12.4991     0.7043     7.8533 </r>
       <r>   -12.3928     0.6837     7.9260 </r>
       <r>   -12.2864     0.4143     7.9700 </r>
       <r>   -12.1801     0.8814     8.0638 </r>
       <r>   -12.0737     1.0030     8.1704 </r>
       <r>   -11.9674     0.3887     8.2118 </r>
       <r>   -11.8610     0.4387     8.2584 </r>
       <r>   -11.7547     0.4488     8.3062 </r>
       <r>   -11.6483     0.8318     8.3946 </r>
       <r>   -11.5419     0.8212     8.4820 </r>
       <r>   -11.4356     0.4387     8.5286 </r>
       <r>   -11.3292     0.2645     8.5568 </r>
       <r>   -11.2229     0.6164     8.6223 </r>
       <r>   -11.1165     0.7435     8.7014 </r>
       <r>   -11.0102     0.6400     8.7695 </r>
       <r>   -10.9038     0.9688     8.8725 </r>
       <r>   -10.7975     0.7731     8.9547 </r>
       <r>   -10.6911     0.3297     8.9898 </r>
       <r>   -10.5847     1.0483     9.1013 </r>
       <r>   -10.4784     1.7067     9.2828 </r>
       <r>   -10.3720     1.9573     9.4910 </r>
       <r>   -10.2657     1.7989     9.6823 </r>
       <r>   -10.1593     1.9039     9.8848 </r>
       <r>   -10.0530     2.3885    10.1388 </r>
       <r>    -9.9466     2.3661    10.3905 </r>
       <r>    -9.8403     1.2303    10.5213 </r>
       <r>    -9.7339     0.9095    10.6180 </r>
       <r>    -9.6275     1.8579    10.8156 </r>
       <r>    -9.5212     1.9612    11.0242 </r>
       <r>    -9.4148     2.1052    11.2481 </r>
       <r>    -9.3085     1.9808    11.4588 </r>
       <r>    -9.2021     1.7878    11.6489 </r>
       <r>    -9.0958     1.3534    11.7929 </r>
       <r>    -8.9894     1.0774    11.9075 </r>
       <r>    -8.8831     2.0030    12.1205 </r>
       <r>    -8.7767     2.5362    12.3902 </r>
       <r>    -8.6703     1.8991    12.5922 </r>
       <r>    -8.5640     0.9884    12.6973 </r>
       <r>    -8.4576     1.5104    12.8580 </r>
       <r>    -8.3513     2.5930    13.1338 </r>
       <r>    -8.2449     2.1753    13.3651 </r>
       <r>    -8.1386     1.5592    13.5309 </r>
       <r>    -8.0322     2.1479    13.7594 </r>
       <r>    -7.9258     3.2376    14.1037 </r>
       <r>    -7.8195     3.2371    14.4480 </r>
       <r>    -7.7131     2.3426    14.6972 </r>
       <r>    -7.6068     1.3382    14.8395 </r>
       <r>    -7.5004     1.1211    14.9587 </r>
       <r>    -7.3941     2.3197    15.2054 </r>
       <r>    -7.2877     2.3535    15.4557 </r>
       <r>    -7.1814     1.5934    15.6252 </r>
       <r>    -7.0750     1.3174    15.7653 </r>
       <r>    -6.9686     2.0879    15.9874 </r>
       <r>    -6.8623     2.4224    16.2450 </r>
       <r>    -6.7559     2.7082    16.5330 </r>
       <r>    -6.6496     2.6497    16.8149 </r>
       <r>    -6.5432     2.1592    17.0445 </r>
       <r>    -6.4369     2.6434    17.3256 </r>
       <r>    -6.3305     2.3140    17.5717 </r>
       <r>    -6.2242     2.5044    17.8381 </r>
       <r>    -6.1178     3.4188    18.2017 </r>
       <r>    -6.0114     2.7761    18.4970 </r>
       <r>    -5.9051     4.0354    18.9261 </r>
       <r>    -5.7987     3.7718    19.3273 </r>
       <r>    -5.6924     2.1591    19.5569 </r>
       <r>    -5.5860     2.3576    19.8077 </r>
       <r>    -5.4797     4.2097    20.2554 </r>
       <r>    -5.3733     4.6888    20.7541 </r>
       <r>    -5.2670     2.8718    21.0595 </r>
       <r>    -5.1606     2.0306    21.2755 </r>
       <r>    -5.0542     1.3873    21.4230 </r>
       <r>    -4.9479     1.5300    21.5858 </r>
       <r>    -4.8415     1.7774    21.7748 </r>
       <r>    -4.7352     1.2754    21.9104 </r>
       <r>    -4.6288     0.9330    22.0097 </r>
       <r>    -4.5225     1.2589    22.1436 </r>
       <r>    -4.4161     2.3654    22.3951 </r>
       <r>    -4.3098     2.8307    22.6962 </r>
       <r>    -4.2034     2.4954    22.9616 </r>
       <r>    -4.0970     2.3307    23.2095 </r>
       <r>    -3.9907     2.7390    23.5008 </r>
       <r>    -3.8843     2.9724    23.8169 </r>
       <r>    -3.7780     2.3399    24.0658 </r>
       <r>    -3.6716     2.4129    24.3224 </r>
       <r>    -3.5653     2.6392    24.6031 </r>
       <r>    -3.4589     2.0391    24.8200 </r>
       <r>    -3.3526     1.6869    24.9994 </r>
       <r>    -3.2462     1.5887    25.1683 </r>
       <r>    -3.1398     2.2151    25.4039 </r>
       <r>    -3.0335     2.3577    25.6547 </r>
       <r>    -2.9271     1.5363    25.8181 </r>
       <r>    -2.8208     1.5422    25.9821 </r>
       <r>    -2.7144     1.0007    26.0885 </r>
       <r>    -2.6081     1.2373    26.2201 </r>
       <r>    -2.5017     2.4045    26.4759 </r>
       <r>    -2.3953     1.9992    26.6885 </r>
       <r>    -2.2890     0.5770    26.7499 </r>
       <r>    -2.1826     0.6571    26.8197 </r>
       <r>    -2.0763     1.3373    26.9620 </r>
       <r>    -1.9699     1.2724    27.0973 </r>
       <r>    -1.8636     1.4344    27.2499 </r>
       <r>    -1.7572     1.4497    27.4040 </r>
       <r>    -1.6509     1.2451    27.5365 </r>
       <r>    -1.5445     0.9371    27.6361 </r>
       <r>    -1.4381     0.5423    27.6938 </r>
       <r>    -1.3318     0.5211    27.7492 </r>
       <r>    -1.2254     0.5195    27.8045 </r>
       <r>    -1.1191     0.4896    27.8566 </r>
       <r>    -1.0127     0.7405    27.9353 </r>
       <r>    -0.9064     0.3876    27.9765 </r>
       <r>    -0.8000     0.0803    27.9851 </r>
       <r>    -0.6937     0.0096    27.9861 </r>
       <r>    -0.5873     0.0004    27.9861 </r>
       <r>    -0.4809     0.0094    27.9871 </r>
       <r>    -0.3746     0.0909    27.9968 </r>
       <r>    -0.2682     0.1309    28.0107 </r>
       <r>    -0.1619     0.0289    28.0138 </r>
       <r>    -0.0555     0.0009    28.0139 </r>
       <r>     0.0508     0.0000    28.0139 </r>
       <r>     0.1572     0.0064    28.0146 </r>
       <r>     0.2635     0.1382    28.0293 </r>
       <r>     0.3699     0.4252    28.0745 </r>
       <r>     0.4763     0.2116    28.0970 </r>
       <r>     0.5826     0.1617    28.1142 </r>
       <r>     0.6890     0.4690    28.1641 </r>
       <r>     0.7953     0.7504    28.2439 </r>
       <r>     0.9017     1.5038    28.4038 </r>
       <r>     1.0080     3.2523    28.7497 </r>
       <r>     1.1144     2.2623    28.9903 </r>
       <r>     1.2207     0.6212    29.0564 </r>
       <r>     1.3271     0.4442    29.1036 </r>
       <r>     1.4335     1.0639    29.2168 </r>
       <r>     1.5398     1.9498    29.4241 </r>
       <r>     1.6462     2.5809    29.6986 </r>
       <r>     1.7525     1.7417    29.8839 </r>
       <r>     1.8589     0.8209    29.9712 </r>
       <r>     1.9652     1.0488    30.0827 </r>
       <r>     2.0716     1.2455    30.2152 </r>
       <r>     2.1779     0.8806    30.3088 </r>
       <r>     2.2843     1.1342    30.4295 </r>
       <r>     2.3907     0.8955    30.5247 </r>
       <r>     2.4970     1.4163    30.6753 </r>
       <r>     2.6034     1.3948    30.8237 </r>
       <r>     2.7097     0.7839    30.9071 </r>
       <r>     2.8161     0.5777    30.9685 </r>
       <r>     2.9224     1.1855    31.0946 </r>
       <r>     3.0288     1.5108    31.2553 </r>
       <r>     3.1352     1.1371    31.3762 </r>
       <r>     3.2415     1.2920    31.5136 </r>
       <r>     3.3479     1.3580    31.6581 </r>
       <r>     3.4542     1.4595    31.8133 </r>
       <r>     3.5606     2.3421    32.0624 </r>
       <r>     3.6669     3.2221    32.4051 </r>
       <r>     3.7733     3.2153    32.7470 </r>
       <r>     3.8796     2.8272    33.0477 </r>
       <r>     3.9860     3.0545    33.3726 </r>
       <r>     4.0924     3.1728    33.7100 </r>
       <r>     4.1987     3.1257    34.0425 </r>
       <r>     4.3051     3.0357    34.3654 </r>
       <r>     4.4114     2.8706    34.6707 </r>
       <r>     4.5178     2.7401    34.9621 </r>
       <r>     4.6241     2.6614    35.2451 </r>
       <r>     4.7305     3.4820    35.6155 </r>
       <r>     4.8368     3.0468    35.9395 </r>
       <r>     4.9432     2.7059    36.2273 </r>
       <r>     5.0496     3.1911    36.5667 </r>
       <r>     5.1559     3.6766    36.9577 </r>
       <r>     5.2623     3.2556    37.3040 </r>
       <r>     5.3686     2.7292    37.5943 </r>
       <r>     5.4750     2.8257    37.8948 </r>
       <r>     5.5813     3.2026    38.2354 </r>
       <r>     5.6877     2.6532    38.5176 </r>
       <r>     5.7940     2.9822    38.8348 </r>
       <r>     5.9004     2.6031    39.1116 </r>
       <r>     6.0068     2.6033    39.3885 </r>
       <r>     6.1131     2.0226    39.6036 </r>
       <r>     6.2195     2.4453    39.8637 </r>
       <r>     6.3258     2.8612    40.1680 </r>
       <r>     6.4322     2.8960    40.4760 </r>
       <r>     6.5385     3.4850    40.8466 </r>
       <r>     6.6449     3.6472    41.2345 </r>
       <r>     6.7512     4.0371    41.6639 </r>
       <r>     6.8576     3.3694    42.0223 </r>
       <r>     6.9640     3.3802    42.3818 </r>
       <r>     7.0703     3.0917    42.7106 </r>
       <r>     7.1767     2.7456    43.0026 </r>
       <r>     7.2830     2.5966    43.2788 </r>
       <r>     7.3894     2.3253    43.5261 </r>
       <r>     7.4957     3.1902    43.8654 </r>
       <r>     7.6021     3.2396    44.2099 </r>
       <r>     7.7084     4.1911    44.6557 </r>
       <r>     7.8148     4.1632    45.0985 </r>
       <r>     7.9212     3.2580    45.4450 </r>
       <r>     8.0275     4.1706    45.8885 </r>
       <r>     8.1339     4.8394    46.4032 </r>
       <r>     8.2402     4.7336    46.9067 </r>
       <r>     8.3466     4.4390    47.3788 </r>
       <r>     8.4529     3.0246    47.7005 </r>
       <r>     8.5593     1.4830    47.8582 </r>
       <r>     8.6657     0.5847    47.9204 </r>
       <r>     8.7720     0.3902    47.9619 </r>
       <r>     8.8784     0.2892    47.9926 </r>
       <r>     8.9847     0.0665    47.9997 </r>
       <r>     9.0911     0.0027    48.0000 </r>
       <r>     9.1974     0.0000    48.0000 </r>
       <r>     9.3038     0.0000    48.0000 </r>
       <r>     9.4101     0.0000    48.0000 </r>
       <r>     9.5165     0.0000    48.0000 </r>
       <r>     9.6229     0.0000    48.0000 </r>
       <r>     9.7292     0.0000    48.0000 </r>
       <r>     9.8356     0.0000    48.0000 </r>
       <r>     9.9419     0.0000    48.0000 </r>
       <r>    10.0483     0.0000    48.0000 </r>
       <r>    10.1546     0.0000    48.0000 </r>
       <r>    10.2610     0.0000    48.0000 </r>
      </set>
     </set>
    </array>
   </total>
  </dos>
 </calculation>
 <structure name="finalpos" >
  <crystal>
   <varray name="basis" >
    <v>       4.21061551       2.43100000       0.00000000 </v>
    <v>      -4.21061551       2.43100000       0.00000000 </v>
    <v>       0.00000000       0.00000000      15.00000000 </v>
   </varray>
   <i name="volume">    307.08018938 </i>
   <varray name="rec_basis" >
    <v>       0.11874748       0.20567668       0.00000000 </v>
    <v>      -0.11874748       0.20567668       0.00000000 </v>
    <v>       0.00000000       0.00000000       0.06666667 </v>
   </varray>
  </crystal>
  <varray name="positions" >
   <v>       0.03068969      -0.02088924       0.10321117 </v>
   <v>       0.38562563      -0.02098990       0.09987424 </v>
   <v>       0.03018911       0.33373204       0.10000908 </v>
   <v>       0.67554157       0.62397120       0.09994908 </v>
   <v>       0.35398235       0.30219395       0.10002256 </v>
   <v>       0.70743488      -0.02051490       0.10045073 </v>
   <v>       0.03135935       0.65612924       0.10007353 </v>
   <v>       0.08805198       0.40960399       0.33854141 </v>
   <v>       0.25476557       0.24317601       0.33848689 </v>
   <v>       0.08799021       0.90957057       0.33841302 </v>
   <v>       0.25478369       0.74307687       0.33853944 </v>
   <v>       0.58775470       0.40949424       0.33852968 </v>
   <v>       0.75456185       0.24307645       0.33856866 </v>
   <v>       0.58768647       0.90931701       0.33864331 </v>
   <v>       0.75443250       0.74293092       0.33846655 </v>
  </varray>
 </structure>
</modeling>
