  16  16   0   4
  0.2017587E+02  0.4985000E-09  0.4985000E-09  0.1500000E-08  0.5000000E-15
  1.000000000000000E-004
  CAR 
 Lattice                                 
      9.48825840    -21.04751988  301     -0.22397883      1.00000000
    -21.048  0.0000E+00  0.0000E+00  0.0000E+00  0.0000E+00
    -20.946  0.0000E+00  0.0000E+00  0.0000E+00  0.0000E+00
    -20.844  0.0000E+00  0.0000E+00  0.0000E+00  0.0000E+00
    -20.742  0.0000E+00  0.0000E+00  0.0000E+00  0.0000E+00
    -20.640  0.0000E+00  0.0000E+00  0.0000E+00  0.0000E+00
    -20.539  0.0000E+00  0.0000E+00  0.0000E+00  0.0000E+00
    -20.437  0.0000E+00  0.0000E+00  0.0000E+00  0.0000E+00
    -20.335  0.0000E+00  0.0000E+00  0.0000E+00  0.0000E+00
    -20.233  0.1184E-18  0.1184E-18  0.1205E-19  0.1205E-19
    -20.131  0.7337E-14  0.7337E-14  0.7468E-15  0.7468E-15
    -20.030  0.5445E-10  0.5445E-10  0.5543E-11  0.5543E-11
    -19.928  0.5973E-07  0.5973E-07  0.6085E-08  0.6085E-08
    -19.826  0.1046E-04  0.1046E-04  0.1071E-05  0.1071E-05
    -19.724  0.3211E-03  0.3211E-03  0.3376E-04  0.3376E-04
    -19.623  0.2087E-02  0.2087E-02  0.2462E-03  0.2462E-03
    -19.521  0.4302E-02  0.4302E-02  0.6841E-03  0.6841E-03
    -19.419  0.4770E-02  0.4770E-02  0.1170E-02  0.1170E-02
    -19.317  0.5124E-02  0.5124E-02  0.1691E-02  0.1691E-02
    -19.215  0.4454E-02  0.4454E-02  0.2145E-02  0.2145E-02
    -19.114  0.5561E-02  0.5561E-02  0.2711E-02  0.2711E-02
    -19.012  0.4458E-02  0.4458E-02  0.3164E-02  0.3164E-02
    -18.910  0.4557E-02  0.4557E-02  0.3628E-02  0.3628E-02
    -18.808  0.6173E-02  0.6173E-02  0.4257E-02  0.4257E-02
    -18.706  0.4047E-02  0.4047E-02  0.4668E-02  0.4668E-02
    -18.605  0.4192E-02  0.4192E-02  0.5095E-02  0.5095E-02
    -18.503  0.6339E-02  0.6339E-02  0.5740E-02  0.5740E-02
    -18.401  0.5393E-02  0.5393E-02  0.6289E-02  0.6289E-02
    -18.299  0.3177E-02  0.3177E-02  0.6613E-02  0.6613E-02
    -18.198  0.4763E-02  0.4763E-02  0.7097E-02  0.7097E-02
    -18.096  0.7086E-02  0.7086E-02  0.7819E-02  0.7819E-02
    -17.994  0.4811E-02  0.4811E-02  0.8308E-02  0.8308E-02
    -17.892  0.3905E-02  0.3905E-02  0.8706E-02  0.8706E-02
    -17.790  0.3372E-02  0.3372E-02  0.9049E-02  0.9049E-02
    -17.689  0.6995E-02  0.6995E-02  0.9761E-02  0.9761E-02
    -17.587  0.6741E-02  0.6741E-02  0.1045E-01  0.1045E-01
    -17.485  0.3675E-02  0.3675E-02  0.1082E-01  0.1082E-01
    -17.383  0.3559E-02  0.3559E-02  0.1118E-01  0.1118E-01
    -17.281  0.4427E-02  0.4427E-02  0.1163E-01  0.1163E-01
    -17.180  0.6682E-02  0.6682E-02  0.1231E-01  0.1231E-01
    -17.078  0.6897E-02  0.6897E-02  0.1302E-01  0.1302E-01
    -16.976  0.4826E-02  0.4826E-02  0.1351E-01  0.1351E-01
    -16.874  0.2527E-02  0.2527E-02  0.1376E-01  0.1376E-01
    -16.773  0.3850E-02  0.3850E-02  0.1416E-01  0.1416E-01
    -16.671  0.7032E-02  0.7032E-02  0.1487E-01  0.1487E-01
    -16.569  0.6730E-02  0.6730E-02  0.1556E-01  0.1556E-01
    -16.467  0.5600E-02  0.5600E-02  0.1613E-01  0.1613E-01
    -16.365  0.4640E-02  0.4640E-02  0.1660E-01  0.1660E-01
    -16.264  0.3251E-02  0.3251E-02  0.1693E-01  0.1693E-01
    -16.162  0.2813E-02  0.2813E-02  0.1722E-01  0.1722E-01
    -16.060  0.9440E-02  0.9440E-02  0.1818E-01  0.1818E-01
    -15.958  0.1194E-01  0.1194E-01  0.1939E-01  0.1939E-01
    -15.856  0.1081E-01  0.1081E-01  0.2049E-01  0.2049E-01
    -15.755  0.1064E-01  0.1064E-01  0.2158E-01  0.2158E-01
    -15.653  0.1079E-01  0.1079E-01  0.2267E-01  0.2267E-01
    -15.551  0.1025E-01  0.1025E-01  0.2372E-01  0.2372E-01
    -15.449  0.1210E-01  0.1210E-01  0.2495E-01  0.2495E-01
    -15.348  0.1714E-01  0.1714E-01  0.2669E-01  0.2669E-01
    -15.246  0.1582E-01  0.1582E-01  0.2830E-01  0.2830E-01
    -15.144  0.1415E-01  0.1415E-01  0.2974E-01  0.2974E-01
    -15.042  0.1025E-01  0.1025E-01  0.3079E-01  0.3079E-01
    -14.940  0.8391E-02  0.8391E-02  0.3164E-01  0.3164E-01
    -14.839  0.6329E-02  0.6329E-02  0.3229E-01  0.3229E-01
    -14.737  0.8964E-02  0.8964E-02  0.3320E-01  0.3320E-01
    -14.635  0.1149E-01  0.1149E-01  0.3437E-01  0.3437E-01
    -14.533  0.1178E-01  0.1178E-01  0.3557E-01  0.3557E-01
    -14.431  0.1305E-01  0.1305E-01  0.3690E-01  0.3690E-01
    -14.330  0.1083E-01  0.1083E-01  0.3800E-01  0.3800E-01
    -14.228  0.8969E-02  0.8969E-02  0.3891E-01  0.3891E-01
    -14.126  0.9482E-02  0.9482E-02  0.3988E-01  0.3988E-01
    -14.024  0.1407E-01  0.1407E-01  0.4131E-01  0.4131E-01
    -13.923  0.9189E-02  0.9189E-02  0.4224E-01  0.4224E-01
    -13.821  0.4070E-02  0.4070E-02  0.4266E-01  0.4266E-01
    -13.719  0.2561E-02  0.2561E-02  0.4292E-01  0.4292E-01
    -13.617  0.5485E-02  0.5485E-02  0.4348E-01  0.4348E-01
    -13.515  0.6208E-02  0.6208E-02  0.4411E-01  0.4411E-01
    -13.414  0.6369E-02  0.6369E-02  0.4476E-01  0.4476E-01
    -13.312  0.6822E-02  0.6822E-02  0.4545E-01  0.4545E-01
    -13.210  0.7345E-02  0.7345E-02  0.4620E-01  0.4620E-01
    -13.108  0.7214E-02  0.7214E-02  0.4693E-01  0.4693E-01
    -13.006  0.6532E-02  0.6532E-02  0.4760E-01  0.4760E-01
    -12.905  0.6008E-02  0.6008E-02  0.4821E-01  0.4821E-01
    -12.803  0.8588E-02  0.8588E-02  0.4908E-01  0.4908E-01
    -12.701  0.1236E-01  0.1236E-01  0.5034E-01  0.5034E-01
    -12.599  0.1216E-01  0.1216E-01  0.5158E-01  0.5158E-01
    -12.498  0.1407E-01  0.1407E-01  0.5301E-01  0.5301E-01
    -12.396  0.1513E-01  0.1513E-01  0.5455E-01  0.5455E-01
    -12.294  0.1338E-01  0.1338E-01  0.5591E-01  0.5591E-01
    -12.192  0.1710E-01  0.1710E-01  0.5765E-01  0.5765E-01
    -12.090  0.1509E-01  0.1509E-01  0.5919E-01  0.5919E-01
    -11.989  0.1614E-01  0.1614E-01  0.6083E-01  0.6083E-01
    -11.887  0.1754E-01  0.1754E-01  0.6262E-01  0.6262E-01
    -11.785  0.1064E-01  0.1064E-01  0.6370E-01  0.6370E-01
    -11.683  0.6455E-02  0.6455E-02  0.6436E-01  0.6436E-01
    -11.581  0.4891E-02  0.4891E-02  0.6486E-01  0.6486E-01
    -11.480  0.6491E-02  0.6491E-02  0.6552E-01  0.6552E-01
    -11.378  0.6349E-02  0.6349E-02  0.6616E-01  0.6616E-01
    -11.276  0.5459E-02  0.5459E-02  0.6672E-01  0.6672E-01
    -11.174  0.4461E-02  0.4461E-02  0.6717E-01  0.6717E-01
    -11.072  0.4249E-02  0.4249E-02  0.6761E-01  0.6761E-01
    -10.971  0.5252E-02  0.5252E-02  0.6814E-01  0.6814E-01
    -10.869  0.1028E-01  0.1028E-01  0.6919E-01  0.6919E-01
    -10.767  0.1227E-01  0.1227E-01  0.7044E-01  0.7044E-01
    -10.665  0.1226E-01  0.1226E-01  0.7168E-01  0.7168E-01
    -10.564  0.1472E-01  0.1472E-01  0.7318E-01  0.7318E-01
    -10.462  0.1443E-01  0.1443E-01  0.7465E-01  0.7465E-01
    -10.360  0.1073E-01  0.1073E-01  0.7574E-01  0.7574E-01
    -10.258  0.1020E-01  0.1020E-01  0.7678E-01  0.7678E-01
    -10.156  0.1043E-01  0.1043E-01  0.7784E-01  0.7784E-01
    -10.055  0.9776E-02  0.9776E-02  0.7884E-01  0.7884E-01
     -9.953  0.6718E-02  0.6718E-02  0.7952E-01  0.7952E-01
     -9.851  0.1128E-01  0.1128E-01  0.8067E-01  0.8067E-01
     -9.749  0.1058E-01  0.1058E-01  0.8175E-01  0.8175E-01
     -9.647  0.1454E-01  0.1454E-01  0.8323E-01  0.8323E-01
     -9.546  0.1792E-01  0.1792E-01  0.8505E-01  0.8505E-01
     -9.444  0.1094E-01  0.1094E-01  0.8616E-01  0.8616E-01
     -9.342  0.1657E-01  0.1657E-01  0.8785E-01  0.8785E-01
     -9.240  0.1838E-01  0.1838E-01  0.8972E-01  0.8972E-01
     -9.139  0.1310E-01  0.1310E-01  0.9106E-01  0.9106E-01
     -9.037  0.9103E-02  0.9103E-02  0.9198E-01  0.9198E-01
     -8.935  0.1739E-01  0.1739E-01  0.9375E-01  0.9375E-01
     -8.833  0.2369E-01  0.2369E-01  0.9616E-01  0.9616E-01
     -8.731  0.1041E-01  0.1041E-01  0.9722E-01  0.9722E-01
     -8.630  0.5828E-02  0.5828E-02  0.9782E-01  0.9782E-01
     -8.528  0.1450E-01  0.1450E-01  0.9929E-01  0.9929E-01
     -8.426  0.1762E-01  0.1762E-01  0.1011E+00  0.1011E+00
     -8.324  0.1428E-01  0.1428E-01  0.1025E+00  0.1025E+00
     -8.222  0.1560E-01  0.1560E-01  0.1041E+00  0.1041E+00
     -8.121  0.1282E-01  0.1282E-01  0.1054E+00  0.1054E+00
     -8.019  0.1097E-01  0.1097E-01  0.1065E+00  0.1065E+00
     -7.917  0.1389E-01  0.1389E-01  0.1080E+00  0.1080E+00
     -7.815  0.1853E-01  0.1853E-01  0.1098E+00  0.1098E+00
     -7.714  0.2371E-01  0.2371E-01  0.1123E+00  0.1123E+00
     -7.612  0.1717E-01  0.1717E-01  0.1140E+00  0.1140E+00
     -7.510  0.1280E-01  0.1280E-01  0.1153E+00  0.1153E+00
     -7.408  0.1272E-01  0.1272E-01  0.1166E+00  0.1166E+00
     -7.306  0.1704E-01  0.1704E-01  0.1183E+00  0.1183E+00
     -7.205  0.1999E-01  0.1999E-01  0.1204E+00  0.1204E+00
     -7.103  0.1690E-01  0.1690E-01  0.1221E+00  0.1221E+00
     -7.001  0.1905E-01  0.1905E-01  0.1240E+00  0.1240E+00
     -6.899  0.1823E-01  0.1823E-01  0.1259E+00  0.1259E+00
     -6.797  0.2160E-01  0.2160E-01  0.1281E+00  0.1281E+00
     -6.696  0.2804E-01  0.2804E-01  0.1309E+00  0.1309E+00
     -6.594  0.3606E-01  0.3606E-01  0.1346E+00  0.1346E+00
     -6.492  0.3490E-01  0.3490E-01  0.1382E+00  0.1382E+00
     -6.390  0.1914E-01  0.1914E-01  0.1401E+00  0.1401E+00
     -6.289  0.1602E-01  0.1602E-01  0.1417E+00  0.1417E+00
     -6.187  0.1834E-01  0.1834E-01  0.1436E+00  0.1436E+00
     -6.085  0.1794E-01  0.1794E-01  0.1454E+00  0.1454E+00
     -5.983  0.1718E-01  0.1718E-01  0.1472E+00  0.1472E+00
     -5.881  0.1391E-01  0.1391E-01  0.1486E+00  0.1486E+00
     -5.780  0.1720E-01  0.1720E-01  0.1504E+00  0.1504E+00
     -5.678  0.2004E-01  0.2004E-01  0.1524E+00  0.1524E+00
     -5.576  0.1272E-01  0.1272E-01  0.1537E+00  0.1537E+00
     -5.474  0.8319E-02  0.8319E-02  0.1545E+00  0.1545E+00
     -5.372  0.1382E-01  0.1382E-01  0.1559E+00  0.1559E+00
     -5.271  0.2127E-01  0.2127E-01  0.1581E+00  0.1581E+00
     -5.169  0.1649E-01  0.1649E-01  0.1598E+00  0.1598E+00
     -5.067  0.1151E-01  0.1151E-01  0.1610E+00  0.1610E+00
     -4.965  0.1502E-01  0.1502E-01  0.1625E+00  0.1625E+00
     -4.864  0.2069E-01  0.2069E-01  0.1646E+00  0.1646E+00
     -4.762  0.1229E-01  0.1229E-01  0.1658E+00  0.1658E+00
     -4.660  0.7955E-02  0.7955E-02  0.1667E+00  0.1667E+00
     -4.558  0.1628E-01  0.1628E-01  0.1683E+00  0.1683E+00
     -4.456  0.2004E-01  0.2004E-01  0.1703E+00  0.1703E+00
     -4.355  0.2194E-01  0.2194E-01  0.1726E+00  0.1726E+00
     -4.253  0.2291E-01  0.2291E-01  0.1749E+00  0.1749E+00
     -4.151  0.1846E-01  0.1846E-01  0.1768E+00  0.1768E+00
     -4.049  0.2074E-01  0.2074E-01  0.1789E+00  0.1789E+00
     -3.947  0.2478E-01  0.2478E-01  0.1814E+00  0.1814E+00
     -3.846  0.2897E-01  0.2897E-01  0.1844E+00  0.1844E+00
     -3.744  0.2617E-01  0.2617E-01  0.1870E+00  0.1870E+00
     -3.642  0.2068E-01  0.2068E-01  0.1891E+00  0.1891E+00
     -3.540  0.1974E-01  0.1974E-01  0.1912E+00  0.1912E+00
     -3.439  0.1687E-01  0.1687E-01  0.1929E+00  0.1929E+00
     -3.337  0.1252E-01  0.1252E-01  0.1941E+00  0.1941E+00
     -3.235  0.7096E-02  0.7096E-02  0.1949E+00  0.1949E+00
     -3.133  0.8388E-02  0.8388E-02  0.1957E+00  0.1957E+00
     -3.031  0.1529E-01  0.1529E-01  0.1973E+00  0.1973E+00
     -2.930  0.1596E-01  0.1596E-01  0.1989E+00  0.1989E+00
     -2.828  0.1199E-01  0.1199E-01  0.2001E+00  0.2001E+00
     -2.726  0.1181E-01  0.1181E-01  0.2013E+00  0.2013E+00
     -2.624  0.1135E-01  0.1135E-01  0.2025E+00  0.2025E+00
     -2.522  0.1116E-01  0.1116E-01  0.2036E+00  0.2036E+00
     -2.421  0.1591E-01  0.1591E-01  0.2052E+00  0.2052E+00
     -2.319  0.1303E-01  0.1303E-01  0.2066E+00  0.2066E+00
     -2.217  0.9821E-02  0.9821E-02  0.2076E+00  0.2076E+00
     -2.115  0.1031E-01  0.1031E-01  0.2086E+00  0.2086E+00
     -2.014  0.7686E-02  0.7686E-02  0.2094E+00  0.2094E+00
     -1.912  0.4867E-02  0.4867E-02  0.2099E+00  0.2099E+00
     -1.810  0.5996E-02  0.5996E-02  0.2105E+00  0.2105E+00
     -1.708  0.9617E-02  0.9617E-02  0.2115E+00  0.2115E+00
     -1.606  0.9756E-02  0.9756E-02  0.2125E+00  0.2125E+00
     -1.505  0.9166E-02  0.9166E-02  0.2134E+00  0.2134E+00
     -1.403  0.6458E-02  0.6458E-02  0.2141E+00  0.2141E+00
     -1.301  0.5186E-02  0.5186E-02  0.2146E+00  0.2146E+00
     -1.199  0.4784E-02  0.4784E-02  0.2151E+00  0.2151E+00
     -1.097  0.5848E-02  0.5848E-02  0.2157E+00  0.2157E+00
     -0.996  0.8082E-02  0.8082E-02  0.2165E+00  0.2165E+00
     -0.894  0.5903E-02  0.5903E-02  0.2171E+00  0.2171E+00
     -0.792  0.3085E-02  0.3085E-02  0.2174E+00  0.2174E+00
     -0.690  0.1377E-02  0.1377E-02  0.2175E+00  0.2175E+00
     -0.589  0.1184E-02  0.1184E-02  0.2177E+00  0.2177E+00
     -0.487  0.3432E-02  0.3432E-02  0.2180E+00  0.2180E+00
     -0.385  0.3325E-02  0.3325E-02  0.2184E+00  0.2184E+00
     -0.283  0.2042E-02  0.2042E-02  0.2186E+00  0.2186E+00
     -0.181  0.3597E-02  0.3597E-02  0.2189E+00  0.2189E+00
     -0.080  0.4715E-02  0.4715E-02  0.2194E+00  0.2194E+00
      0.022  0.3525E-02  0.3525E-02  0.2198E+00  0.2198E+00
      0.124  0.3715E-02  0.3715E-02  0.2201E+00  0.2201E+00
      0.226  0.8317E-02  0.8317E-02  0.2210E+00  0.2210E+00
      0.328  0.1207E-01  0.1207E-01  0.2222E+00  0.2222E+00
      0.429  0.1146E-01  0.1146E-01  0.2234E+00  0.2234E+00
      0.531  0.9500E-02  0.9500E-02  0.2244E+00  0.2244E+00
      0.633  0.3666E-02  0.3666E-02  0.2247E+00  0.2247E+00
      0.735  0.5673E-02  0.5673E-02  0.2253E+00  0.2253E+00
      0.836  0.1167E-01  0.1167E-01  0.2265E+00  0.2265E+00
      0.938  0.7582E-02  0.7582E-02  0.2273E+00  0.2273E+00
      1.040  0.1974E-02  0.1974E-02  0.2275E+00  0.2275E+00
      1.142  0.4620E-02  0.4620E-02  0.2279E+00  0.2279E+00
      1.244  0.1483E-01  0.1483E-01  0.2294E+00  0.2294E+00
      1.345  0.2038E-01  0.2038E-01  0.2315E+00  0.2315E+00
      1.447  0.1588E-01  0.1588E-01  0.2331E+00  0.2331E+00
      1.549  0.1156E-01  0.1156E-01  0.2343E+00  0.2343E+00
      1.651  0.7442E-02  0.7442E-02  0.2351E+00  0.2351E+00
      1.753  0.9582E-02  0.9582E-02  0.2360E+00  0.2360E+00
      1.854  0.1196E-01  0.1196E-01  0.2373E+00  0.2373E+00
      1.956  0.1051E-01  0.1051E-01  0.2383E+00  0.2383E+00
      2.058  0.1361E-01  0.1361E-01  0.2397E+00  0.2397E+00
      2.160  0.1351E-01  0.1351E-01  0.2411E+00  0.2411E+00
      2.261  0.1094E-01  0.1094E-01  0.2422E+00  0.2422E+00
      2.363  0.8350E-02  0.8350E-02  0.2431E+00  0.2431E+00
      2.465  0.4716E-02  0.4716E-02  0.2435E+00  0.2435E+00
      2.567  0.9041E-02  0.9041E-02  0.2445E+00  0.2445E+00
      2.669  0.1298E-01  0.1298E-01  0.2458E+00  0.2458E+00
      2.770  0.1514E-01  0.1514E-01  0.2473E+00  0.2473E+00
      2.872  0.1627E-01  0.1627E-01  0.2490E+00  0.2490E+00
      2.974  0.1220E-01  0.1220E-01  0.2502E+00  0.2502E+00
      3.076  0.1243E-01  0.1244E-01  0.2515E+00  0.2515E+00
      3.178  0.1624E-01  0.1624E-01  0.2531E+00  0.2531E+00
      3.279  0.1463E-01  0.1463E-01  0.2546E+00  0.2546E+00
      3.381  0.1288E-01  0.1288E-01  0.2559E+00  0.2559E+00
      3.483  0.1943E-01  0.1943E-01  0.2579E+00  0.2579E+00
      3.585  0.2459E-01  0.2459E-01  0.2604E+00  0.2604E+00
      3.686  0.2158E-01  0.2158E-01  0.2626E+00  0.2626E+00
      3.788  0.1883E-01  0.1883E-01  0.2645E+00  0.2645E+00
      3.890  0.2157E-01  0.2158E-01  0.2667E+00  0.2667E+00
      3.992  0.2449E-01  0.2449E-01  0.2692E+00  0.2692E+00
      4.094  0.2006E-01  0.2006E-01  0.2713E+00  0.2713E+00
      4.195  0.1724E-01  0.1724E-01  0.2730E+00  0.2730E+00
      4.297  0.2006E-01  0.2007E-01  0.2751E+00  0.2751E+00
      4.399  0.2251E-01  0.2251E-01  0.2773E+00  0.2773E+00
      4.501  0.2507E-01  0.2507E-01  0.2799E+00  0.2799E+00
      4.603  0.1771E-01  0.1771E-01  0.2817E+00  0.2817E+00
      4.704  0.1848E-01  0.1848E-01  0.2836E+00  0.2836E+00
      4.806  0.2766E-01  0.2767E-01  0.2864E+00  0.2864E+00
      4.908  0.3307E-01  0.3307E-01  0.2898E+00  0.2898E+00
      5.010  0.2398E-01  0.2398E-01  0.2922E+00  0.2922E+00
      5.111  0.2462E-01  0.2463E-01  0.2947E+00  0.2947E+00
      5.213  0.2178E-01  0.2177E-01  0.2969E+00  0.2969E+00
      5.315  0.1909E-01  0.1909E-01  0.2989E+00  0.2989E+00
      5.417  0.2620E-01  0.2621E-01  0.3015E+00  0.3015E+00
      5.519  0.2929E-01  0.2928E-01  0.3045E+00  0.3045E+00
      5.620  0.2667E-01  0.2666E-01  0.3072E+00  0.3072E+00
      5.722  0.2487E-01  0.2488E-01  0.3098E+00  0.3098E+00
      5.824  0.2716E-01  0.2716E-01  0.3125E+00  0.3125E+00
      5.926  0.2135E-01  0.2133E-01  0.3147E+00  0.3147E+00
      6.028  0.2405E-01  0.2406E-01  0.3172E+00  0.3172E+00
      6.129  0.2933E-01  0.2933E-01  0.3201E+00  0.3201E+00
      6.231  0.2048E-01  0.2047E-01  0.3222E+00  0.3222E+00
      6.333  0.1705E-01  0.1705E-01  0.3240E+00  0.3240E+00
      6.435  0.2628E-01  0.2629E-01  0.3266E+00  0.3266E+00
      6.536  0.3048E-01  0.3048E-01  0.3297E+00  0.3297E+00
      6.638  0.2729E-01  0.2729E-01  0.3325E+00  0.3325E+00
      6.740  0.2465E-01  0.2464E-01  0.3350E+00  0.3350E+00
      6.842  0.2355E-01  0.2354E-01  0.3374E+00  0.3374E+00
      6.944  0.2786E-01  0.2787E-01  0.3403E+00  0.3403E+00
      7.045  0.3203E-01  0.3205E-01  0.3435E+00  0.3435E+00
      7.147  0.3975E-01  0.3976E-01  0.3476E+00  0.3476E+00
      7.249  0.3870E-01  0.3870E-01  0.3515E+00  0.3515E+00
      7.351  0.3466E-01  0.3466E-01  0.3550E+00  0.3550E+00
      7.453  0.2946E-01  0.2945E-01  0.3580E+00  0.3580E+00
      7.554  0.2588E-01  0.2589E-01  0.3607E+00  0.3607E+00
      7.656  0.3491E-01  0.3491E-01  0.3642E+00  0.3642E+00
      7.758  0.3145E-01  0.3144E-01  0.3674E+00  0.3674E+00
      7.860  0.3100E-01  0.3099E-01  0.3706E+00  0.3706E+00
      7.961  0.2422E-01  0.2421E-01  0.3730E+00  0.3730E+00
      8.063  0.1193E-01  0.1193E-01  0.3742E+00  0.3743E+00
      8.165  0.5987E-02  0.5983E-02  0.3749E+00  0.3749E+00
      8.267  0.1323E-02  0.1321E-02  0.3750E+00  0.3750E+00
      8.369  0.6268E-04  0.6245E-04  0.3750E+00  0.3750E+00
      8.470  0.4826E-06  0.4798E-06  0.3750E+00  0.3750E+00
      8.572  0.5334E-09  0.5292E-09  0.3750E+00  0.3750E+00
      8.674  0.7988E-13  0.7909E-13  0.3750E+00  0.3750E+00
      8.776  0.1420E-17  0.1420E-17  0.3750E+00  0.3750E+00
      8.878  0.0000E+00  0.0000E+00  0.3750E+00  0.3750E+00
      8.979  0.0000E+00  0.0000E+00  0.3750E+00  0.3750E+00
      9.081  0.0000E+00  0.0000E+00  0.3750E+00  0.3750E+00
      9.183  0.0000E+00  0.0000E+00  0.3750E+00  0.3750E+00
      9.285  0.0000E+00  0.0000E+00  0.3750E+00  0.3750E+00
      9.386  0.0000E+00  0.0000E+00  0.3750E+00  0.3750E+00
      9.488  0.0000E+00  0.0000E+00  0.3750E+00  0.3750E+00
