Lattice                                 
           1
     4.317137    2.492500    0.000000
    -4.317137    2.492500    0.000000
     0.000000    0.000000   15.000000
   B    C 
     8     8
Direct configuration=     1
   0.66888689  0.00000000  0.10000000
   0.33111211  0.00000000  0.10000000
   0.00000000  0.33111211  0.10000000
   0.00000000  0.66888689  0.10000000
   0.33111211  0.33111211  0.10000000
   0.66888689  0.66888689  0.10000000
   0.66666600  0.33333300  0.09922189
   0.33333300  0.66666600  0.10077811
   0.33333267  0.16666633  0.47060000
   0.49999967  0.99999933  0.47060000
   0.33333267  0.66666633  0.47060000
   0.49999967  0.49999933  0.47060000
   0.83333267  0.16666633  0.47060000
   0.99999967  0.99999933  0.47060000
   0.83333267  0.66666633  0.47060000
   0.99999967  0.49999933  0.47060000
Direct configuration=     2
   0.67043010 -0.00000000  0.10002560
   0.32956889 -0.00000000  0.10002560
   0.00000000  0.32956890  0.10002560
   0.00000000  0.67043011  0.10002560
   0.32956889  0.32956890  0.10002560
   0.67043010  0.67043011  0.10002560
   0.66666600  0.33333300  0.09924529
   0.33333300  0.66666600  0.10081197
   0.33332662  0.16666331  0.47057391
   0.50000087  0.00000174  0.47057339
   0.33333267  0.66666633  0.47057273
   0.50000087  0.49999813  0.47057339
   0.83333569  0.16666331  0.47057391
   0.99999967  0.99999933  0.47057451
   0.83333569  0.66667238  0.47057391
   0.99999726  0.49999813  0.47057339
Direct configuration=     3
   0.66968956 -0.00000000  0.10001332
   0.33030944 -0.00000000  0.10001332
   0.00000000  0.33030944  0.10001332
   0.00000000  0.66968956  0.10001332
   0.33030944  0.33030944  0.10001332
   0.66968956  0.66968956  0.10001332
   0.66666600  0.33333300  0.09923406
   0.33333300  0.66666600  0.10079572
   0.33332952  0.16666476  0.47058643
   0.50000029  0.00000058  0.47058616
   0.33333267  0.66666633  0.47058582
   0.50000029  0.49999871  0.47058616
   0.83333424  0.16666476  0.47058643
   0.99999967  0.99999933  0.47058674
   0.83333424  0.66666948  0.47058643
   0.99999842  0.49999871  0.47058616
Direct configuration=     4
   0.66969329 -0.00000000  0.10001338
   0.33030571 -0.00000000  0.10001338
   0.00000000  0.33030571  0.10001338
   0.00000000  0.66969329  0.10001338
   0.33030571  0.33030571  0.10001338
   0.66969329  0.66969329  0.10001338
   0.66666600  0.33333300  0.09923411
   0.33333300  0.66666600  0.10079580
   0.33332951  0.16666475  0.47058637
   0.50000029  0.00000059  0.47058609
   0.33333267  0.66666633  0.47058575
   0.50000029  0.49999871  0.47058609
   0.83333425  0.16666475  0.47058637
   0.99999967  0.99999933  0.47058668
   0.83333425  0.66666949  0.47058637
   0.99999841  0.49999871  0.47058609
Direct configuration=     5
   0.66969177 -0.00000000  0.10001335
   0.33030723 -0.00000000  0.10001335
   0.00000000  0.33030723  0.10001335
   0.00000000  0.66969177  0.10001335
   0.33030723  0.33030723  0.10001335
   0.66969177  0.66969177  0.10001335
   0.66666600  0.33333300  0.09923409
   0.33333300  0.66666600  0.10079577
   0.33332952  0.16666476  0.47058639
   0.50000029  0.00000059  0.47058612
   0.33333267  0.66666633  0.47058578
   0.50000029  0.49999871  0.47058612
   0.83333424  0.16666476  0.47058639
   0.99999967  0.99999933  0.47058671
   0.83333424  0.66666948  0.47058639
   0.99999841  0.49999871  0.47058612
Direct configuration=     6
   0.66969066 -0.00000000  0.10001333
   0.33030833 -0.00000000  0.10001333
   0.00000000  0.33030834  0.10001333
   0.00000000  0.66969067  0.10001333
   0.33030833  0.33030834  0.10001333
   0.66969066  0.66969067  0.10001333
   0.66666600  0.33333300  0.09923407
   0.33333300  0.66666600  0.10079575
   0.33332952  0.16666476  0.47058641
   0.50000029  0.00000059  0.47058614
   0.33333267  0.66666633  0.47058580
   0.50000029  0.49999871  0.47058614
   0.83333424  0.16666476  0.47058641
   0.99999967  0.99999933  0.47058673
   0.83333424  0.66666948  0.47058641
   0.99999841  0.49999871  0.47058614
Direct configuration=     7
   0.66969011 -0.00000000  0.10001333
   0.33030889 -0.00000000  0.10001333
   0.00000000  0.33030889  0.10001333
   0.00000000  0.66969011  0.10001333
   0.33030889  0.33030889  0.10001333
   0.66969011  0.66969011  0.10001333
   0.66666600  0.33333300  0.09923407
   0.33333300  0.66666600  0.10079573
   0.33332952  0.16666476  0.47058642
   0.50000029  0.00000058  0.47058615
   0.33333267  0.66666633  0.47058581
   0.50000029  0.49999871  0.47058615
   0.83333424  0.16666476  0.47058642
   0.99999967  0.99999933  0.47058673
   0.83333424  0.66666948  0.47058642
   0.99999842  0.49999871  0.47058615
Direct configuration=     8
   0.66969011 -0.00000002  0.10003675
   0.33030887 -0.00000002  0.10003675
   0.00000002  0.33030889  0.10003675
   0.00000002  0.66969013  0.10003675
   0.33030887  0.33030889  0.10003675
   0.66969011  0.66969013  0.10003675
   0.66666600  0.33333300  0.09925797
   0.33333300  0.66666600  0.10082334
   0.33333413  0.16666706  0.47056261
   0.49999934 -0.00000132  0.47056195
   0.33333267  0.66666633  0.47056119
   0.49999934  0.49999966  0.47056195
   0.83333194  0.16666706  0.47056261
   0.99999967  0.99999933  0.47056331
   0.83333194  0.66666487  0.47056261
   0.00000032  0.49999966  0.47056195
Direct configuration=     9
   0.66969010 -0.00000008  0.10010704
   0.33030882 -0.00000008  0.10010704
   0.00000008  0.33030890  0.10010704
   0.00000008  0.66969018  0.10010704
   0.33030882  0.33030890  0.10010704
   0.66969010  0.66969018  0.10010704
   0.66666600  0.33333300  0.09932969
   0.33333300  0.66666600  0.10090618
   0.33334795  0.16667397  0.47049117
   0.49999649 -0.00000703  0.47048936
   0.33333267  0.66666633  0.47048733
   0.49999649  0.50000251  0.47048936
   0.83332503  0.16667397  0.47049117
   0.99999967  0.99999933  0.47049303
   0.83332503  0.66665105  0.47049117
   0.00000603  0.50000251  0.47048936
Direct configuration=    10
   0.66969009 -0.00000019  0.10024760
   0.33030873 -0.00000019  0.10024760
   0.00000019  0.33030891  0.10024760
   0.00000019  0.66969027  0.10024760
   0.33030873  0.33030891  0.10024760
   0.66969009  0.66969027  0.10024760
   0.66666600  0.33333300  0.09947312
   0.33333300  0.66666600  0.10107184
   0.33337559  0.16668779  0.47034828
   0.49999078 -0.00001844  0.47034417
   0.33333267  0.66666633  0.47033961
   0.49999078  0.50000822  0.47034417
   0.83331121  0.16668779  0.47034828
   0.99999967  0.99999933  0.47035246
   0.83331121  0.66662341  0.47034828
   0.00001744  0.50000822  0.47034417
Direct configuration=    11
   0.66969006 -0.00000041  0.10052874
   0.33030854 -0.00000041  0.10052874
   0.00000041  0.33030894  0.10052874
   0.00000041  0.66969046  0.10052874
   0.33030854  0.33030894  0.10052874
   0.66969006  0.66969046  0.10052874
   0.66666600  0.33333300  0.09975999
   0.33333300  0.66666600  0.10140317
   0.33343087  0.16671543  0.47006252
   0.49997936 -0.00004127  0.47005379
   0.33333267  0.66666633  0.47004417
   0.49997936  0.50001964  0.47005379
   0.83328357  0.16671543  0.47006252
   0.99999967  0.99999933  0.47007134
   0.83328357  0.66656813  0.47006252
   0.00004027  0.50001964  0.47005379
Direct configuration=    12
   0.66968999 -0.00000085  0.10109100
   0.33030816 -0.00000085  0.10109100
   0.00000085  0.33030901  0.10109100
   0.00000085  0.66969084  0.10109100
   0.33030816  0.33030901  0.10109100
   0.66968999  0.66969084  0.10109100
   0.66666600  0.33333300  0.10033373
   0.33333300  0.66666600  0.10206583
   0.33354142  0.16677071  0.46949098
   0.49995654 -0.00008693  0.46947304
   0.33333267  0.66666633  0.46945330
   0.49995654  0.50004246  0.46947304
   0.83322829  0.16677071  0.46949098
   0.99999967  0.99999933  0.46950908
   0.83322829  0.66645758  0.46949098
   0.00008593  0.50004246  0.46947304
Direct configuration=    13
   0.66968987 -0.00000173  0.10221553
   0.33030740 -0.00000173  0.10221553
   0.00000173  0.33030913  0.10221553
   0.00000173  0.66969160  0.10221553
   0.33030740  0.33030913  0.10221553
   0.66968987  0.66969160  0.10221553
   0.66666600  0.33333300  0.10148121
   0.33333300  0.66666600  0.10339115
   0.33376253  0.16688127  0.46834792
   0.49991088 -0.00017825  0.46831153
   0.33333267  0.66666633  0.46827155
   0.49991088  0.50008812  0.46831153
   0.83311773  0.16688127  0.46834792
   0.99999967  0.99999933  0.46838457
   0.83311773  0.66623647  0.46834792
   0.00017725  0.50008812  0.46831153
Direct configuration=    14
   0.66968962 -0.00000350  0.10446459
   0.33030588 -0.00000350  0.10446459
   0.00000350  0.33030938  0.10446459
   0.00000350  0.66969312  0.10446459
   0.33030588  0.33030938  0.10446459
   0.66968962  0.66969312  0.10446459
   0.66666600  0.33333300  0.10377616
   0.33333300  0.66666600  0.10604179
   0.33420476  0.16710238  0.46606178
   0.49981956 -0.00036089  0.46598851
   0.33333267  0.66666633  0.46590806
   0.49981956  0.50017944  0.46598851
   0.83289662  0.16710238  0.46606178
   0.99999967  0.99999933  0.46613556
   0.83289662  0.66579424  0.46606178
   0.00035989  0.50017944  0.46598851
Direct configuration=    15
   0.66968913 -0.00000703  0.10896271
   0.33030284 -0.00000703  0.10896271
   0.00000703  0.33030987  0.10896271
   0.00000703  0.66969616  0.10896271
   0.33030284  0.33030987  0.10896271
   0.66968913  0.66969616  0.10896271
   0.66666600  0.33333300  0.10836607
   0.33333300  0.66666600  0.11134308
   0.33508921  0.16754461  0.46148952
   0.49963692 -0.00072616  0.46134248
   0.33333267  0.66666633  0.46118107
   0.49963692  0.50036208  0.46134248
   0.83245439  0.16754461  0.46148952
   0.99999967  0.99999933  0.46163753
   0.83245439  0.66490979  0.46148952
   0.00072516  0.50036208  0.46134248
Direct configuration=    16
   0.66968814 -0.00001410  0.11795895
   0.33029676 -0.00001410  0.11795895
   0.00001410  0.33031086  0.11795895
   0.00001410  0.66970224  0.11795895
   0.33029676  0.33031086  0.11795895
   0.66968814  0.66970224  0.11795895
   0.66666600  0.33333300  0.11754588
   0.33333300  0.66666600  0.12194565
   0.33685812  0.16842906  0.45234499
   0.49927164 -0.00145672  0.45205042
   0.33333267  0.66666633  0.45172709
   0.49927164  0.50072736  0.45205042
   0.83156994  0.16842906  0.45234499
   0.99999967  0.99999933  0.45264147
   0.83156994  0.66314088  0.45234499
   0.00145572  0.50072736  0.45205042
Direct configuration=    17
   0.66968814 -0.00001410  0.11795984
   0.33029676 -0.00001410  0.11795984
   0.00001410  0.33031086  0.11795984
   0.00001410  0.66970224  0.11795984
   0.33029676  0.33031086  0.11795984
   0.66968814  0.66970224  0.11795984
   0.66666600  0.33333300  0.11754679
   0.33333300  0.66666600  0.12194669
   0.33685819  0.16842909  0.45234408
   0.49927163 -0.00145674  0.45204950
   0.33333267  0.66666633  0.45172616
   0.49927163  0.50072737  0.45204950
   0.83156991  0.16842909  0.45234408
   0.99999967  0.99999933  0.45264058
   0.83156991  0.66314081  0.45234408
   0.00145574  0.50072737  0.45204950
Direct configuration=    18
   0.66968814 -0.00001410  0.11796251
   0.33029676 -0.00001410  0.11796251
   0.00001410  0.33031086  0.11796251
   0.00001410  0.66970224  0.11796251
   0.33029676  0.33031086  0.11796251
   0.66968814  0.66970224  0.11796251
   0.66666600  0.33333300  0.11754951
   0.33333300  0.66666600  0.12194984
   0.33685840  0.16842920  0.45234136
   0.49927159 -0.00145683  0.45204674
   0.33333267  0.66666633  0.45172335
   0.49927159  0.50072741  0.45204674
   0.83156980  0.16842920  0.45234136
   0.99999967  0.99999933  0.45263790
   0.83156980  0.66314060  0.45234136
   0.00145583  0.50072741  0.45204674
Direct configuration=    19
   0.66968813 -0.00001411  0.11796786
   0.33029676 -0.00001411  0.11796786
   0.00001411  0.33031087  0.11796786
   0.00001411  0.66970224  0.11796786
   0.33029676  0.33031087  0.11796786
   0.66968813  0.66970224  0.11796786
   0.66666600  0.33333300  0.11755496
   0.33333300  0.66666600  0.12195613
   0.33685881  0.16842941  0.45233593
   0.49927151 -0.00145699  0.45204122
   0.33333267  0.66666633  0.45171775
   0.49927151  0.50072749  0.45204122
   0.83156959  0.16842941  0.45233593
   0.99999967  0.99999933  0.45263255
   0.83156959  0.66314019  0.45233593
   0.00145599  0.50072749  0.45204122
Direct configuration=    20
   0.66968812 -0.00001413  0.11797855
   0.33029676 -0.00001413  0.11797855
   0.00001413  0.33031088  0.11797855
   0.00001413  0.66970224  0.11797855
   0.33029676  0.33031088  0.11797855
   0.66968812  0.66970224  0.11797855
   0.66666600  0.33333300  0.11756585
   0.33333300  0.66666600  0.12196871
   0.33685965  0.16842983  0.45232506
   0.49927134 -0.00145732  0.45203019
   0.33333267  0.66666633  0.45170654
   0.49927134  0.50072766  0.45203019
   0.83156917  0.16842983  0.45232506
   0.99999967  0.99999933  0.45262184
   0.83156917  0.66313935  0.45232506
   0.00145632  0.50072766  0.45203019
Direct configuration=    21
   0.66968809 -0.00001416  0.11799993
   0.33029675 -0.00001416  0.11799993
   0.00001416  0.33031091  0.11799993
   0.00001416  0.66970225  0.11799993
   0.33029675  0.33031091  0.11799993
   0.66968809  0.66970225  0.11799993
   0.66666600  0.33333300  0.11758764
   0.33333300  0.66666600  0.12199388
   0.33686133  0.16843066  0.45230332
   0.49927102 -0.00145797  0.45200813
   0.33333267  0.66666633  0.45168413
   0.49927102  0.50072798  0.45200813
   0.83156834  0.16843066  0.45230332
   0.99999967  0.99999933  0.45260042
   0.83156834  0.66313767  0.45230332
   0.00145697  0.50072798  0.45200813
Direct configuration=    22
   0.66968803 -0.00001423  0.11804270
   0.33029674 -0.00001423  0.11804270
   0.00001423  0.33031097  0.11804270
   0.00001423  0.66970226  0.11804270
   0.33029674  0.33031097  0.11804270
   0.66968803  0.66970226  0.11804270
   0.66666600  0.33333300  0.11763121
   0.33333300  0.66666600  0.12204421
   0.33686468  0.16843234  0.45225984
   0.49927036 -0.00145927  0.45196400
   0.33333267  0.66666633  0.45163930
   0.49927036  0.50072864  0.45196400
   0.83156666  0.16843234  0.45225984
   0.99999967  0.99999933  0.45255758
   0.83156666  0.66313432  0.45225984
   0.00145827  0.50072864  0.45196400
Direct configuration=    23
   0.66968792 -0.00001437  0.11812823
   0.33029672 -0.00001437  0.11812823
   0.00001437  0.33031108  0.11812823
   0.00001437  0.66970228  0.11812823
   0.33029672  0.33031108  0.11812823
   0.66968792  0.66970228  0.11812823
   0.66666600  0.33333300  0.11771835
   0.33333300  0.66666600  0.12214487
   0.33687138  0.16843569  0.45217287
   0.49926906 -0.00146188  0.45187574
   0.33333267  0.66666633  0.45154964
   0.49926906  0.50072994  0.45187574
   0.83156331  0.16843569  0.45217287
   0.99999967  0.99999933  0.45247190
   0.83156331  0.66312762  0.45217287
   0.00146088  0.50072994  0.45187574
Direct configuration=    24
   0.66968769 -0.00001464  0.11829930
   0.33029667 -0.00001464  0.11829930
   0.00001464  0.33031131  0.11829930
   0.00001464  0.66970233  0.11829930
   0.33029667  0.33031131  0.11829930
   0.66968769  0.66970233  0.11829930
   0.66666600  0.33333300  0.11789264
   0.33333300  0.66666600  0.12234620
   0.33688479  0.16844239  0.45199895
   0.49926645 -0.00146710  0.45169923
   0.33333267  0.66666633  0.45137031
   0.49926645  0.50073255  0.45169923
   0.83155661  0.16844239  0.45199895
   0.99999967  0.99999933  0.45230055
   0.83155661  0.66311421  0.45199895
   0.00146610  0.50073255  0.45169923
Direct configuration=    25
   0.66968723 -0.00001519  0.11864142
   0.33029659 -0.00001519  0.11864142
   0.00001519  0.33031177  0.11864142
   0.00001519  0.66970241  0.11864142
   0.33029659  0.33031177  0.11864142
   0.66968723  0.66970241  0.11864142
   0.66666600  0.33333300  0.11824120
   0.33333300  0.66666600  0.12274885
   0.33691159  0.16845580  0.45165111
   0.49926123 -0.00147754  0.45134620
   0.33333267  0.66666633  0.45101167
   0.49926123  0.50073777  0.45134620
   0.83154320  0.16845580  0.45165111
   0.99999967  0.99999933  0.45195784
   0.83154320  0.66308741  0.45165111
   0.00147654  0.50073777  0.45134620
Direct configuration=    26
   0.66968631 -0.00001628  0.11932568
   0.33029641 -0.00001628  0.11932568
   0.00001628  0.33031269  0.11932568
   0.00001628  0.66970259  0.11932568
   0.33029641  0.33031269  0.11932568
   0.66968631  0.66970259  0.11932568
   0.66666600  0.33333300  0.11893834
   0.33333300  0.66666600  0.12355414
   0.33696521  0.16848261  0.45095541
   0.49925079 -0.00149842  0.45064014
   0.33333267  0.66666633  0.45029437
   0.49925079  0.50074821  0.45064014
   0.83151639  0.16848261  0.45095541
   0.99999967  0.99999933  0.45127242
   0.83151639  0.66303379  0.45095541
   0.00149742  0.50074821  0.45064014
Direct configuration=    27
   0.66968448 -0.00001846  0.12069419
   0.33029606 -0.00001846  0.12069419
   0.00001846  0.33031452  0.12069419
   0.00001846  0.66970294  0.12069419
   0.33029606  0.33031452  0.12069419
   0.66968448  0.66970294  0.12069419
   0.66666600  0.33333300  0.12033260
   0.33333300  0.66666600  0.12516474
   0.33707245  0.16853622  0.44956403
   0.49922991 -0.00154018  0.44922802
   0.33333267  0.66666633  0.44885979
   0.49922991  0.50076909  0.44922802
   0.83146278  0.16853622  0.44956403
   0.99999967  0.99999933  0.44990159
   0.83146278  0.66292655  0.44956403
   0.00153918  0.50076909  0.44922802
Direct configuration=    28
   0.66968080 -0.00002283  0.12343121
   0.33029536 -0.00002283  0.12343121
   0.00002283  0.33031820  0.12343121
   0.00002283  0.66970364  0.12343121
   0.33029536  0.33031820  0.12343121
   0.66968080  0.66970364  0.12343121
   0.66666600  0.33333300  0.12312114
   0.33333300  0.66666600  0.12838593
   0.33728692  0.16864346  0.44678126
   0.49918815 -0.00162371  0.44640378
   0.33333267  0.66666633  0.44599062
   0.49918815  0.50081085  0.44640378
   0.83135554  0.16864346  0.44678126
   0.99999967  0.99999933  0.44715992
   0.83135554  0.66271208  0.44678126
   0.00162271  0.50081085  0.44640378
Direct configuration=    29
   0.66967346 -0.00003158  0.12890526
   0.33029396 -0.00003158  0.12890526
   0.00003158  0.33032554  0.12890526
   0.00003158  0.66970504  0.12890526
   0.33029396  0.33032554  0.12890526
   0.66967346  0.66970504  0.12890526
   0.66666600  0.33333300  0.12869821
   0.33333300  0.66666600  0.13482832
   0.33771586  0.16885793  0.44121572
   0.49910463 -0.00179075  0.44075531
   0.33333267  0.66666633  0.44025227
   0.49910463  0.50089437  0.44075531
   0.83114107  0.16885793  0.44121572
   0.99999967  0.99999933  0.44167657
   0.83114107  0.66228314  0.44121572
   0.00178975  0.50089437  0.44075531
Direct configuration=    30
   0.66965877 -0.00004906  0.13985335
   0.33029117 -0.00004906  0.13985335
   0.00004906  0.33034023  0.13985335
   0.00004906  0.66970783  0.13985335
   0.33029117  0.33034023  0.13985335
   0.66965877  0.66970783  0.13985335
   0.66666600  0.33333300  0.13985235
   0.33333300  0.66666600  0.14771309
   0.33857374  0.16928687  0.43008464
   0.49893758 -0.00212483  0.42945836
   0.33333267  0.66666633  0.42877559
   0.49893758  0.50106142  0.42945836
   0.83071213  0.16928687  0.43008464
   0.99999967  0.99999933  0.43070988
   0.83071213  0.66142526  0.43008464
   0.00212383  0.50106142  0.42945836
Direct configuration=    31
   0.66962940 -0.00008403  0.16174953
   0.33028557 -0.00008403  0.16174953
   0.00008403  0.33036960  0.16174953
   0.00008403  0.66971343  0.16174953
   0.33028557  0.33036960  0.16174953
   0.66962940  0.66971343  0.16174953
   0.66666600  0.33333300  0.16216064
   0.33333300  0.66666600  0.17348262
   0.34028950  0.17014475  0.40782247
   0.49860350 -0.00279300  0.40686447
   0.33333267  0.66666633  0.40582222
   0.49860350  0.50139550  0.40686447
   0.82985425  0.17014475  0.40782247
   0.99999967  0.99999933  0.40877650
   0.82985425  0.65970950  0.40782247
   0.00279200  0.50139550  0.40686447
Direct configuration=    32
   0.66959736 -0.00011304  0.16650046
   0.33028859 -0.00011304  0.16650046
   0.00011304  0.33040164  0.16650046
   0.00011304  0.66971041  0.16650046
   0.33028859  0.33040164  0.16650046
   0.66959736  0.66971041  0.16650046
   0.66666600  0.33333300  0.16698683
   0.33333300  0.66666600  0.17905673
   0.34007488  0.17003744  0.40299065
   0.49865865 -0.00268270  0.40197242
   0.33333267  0.66666633  0.40086270
   0.49865865  0.50134035  0.40197242
   0.82996156  0.17003744  0.40299065
   0.99999967  0.99999933  0.40400176
   0.82996156  0.65992412  0.40299065
   0.00268170  0.50134035  0.40197242
Direct configuration=    33
   0.66959998 -0.00011067  0.16611189
   0.33028835 -0.00011067  0.16611189
   0.00011067  0.33039902  0.16611189
   0.00011067  0.66971065  0.16611189
   0.33028835  0.33039902  0.16611189
   0.66959998  0.66971065  0.16611189
   0.66666600  0.33333300  0.16659211
   0.33333300  0.66666600  0.17860084
   0.34009243  0.17004622  0.40338583
   0.49865414 -0.00269172  0.40237253
   0.33333267  0.66666633  0.40126832
   0.49865414  0.50134486  0.40237253
   0.82995278  0.17004622  0.40338583
   0.99999967  0.99999933  0.40439227
   0.82995278  0.65990657  0.40338583
   0.00269072  0.50134486  0.40237253
Direct configuration=    34
   0.66957347 -0.00013333  0.16599254
   0.33029219 -0.00013333  0.16599254
   0.00013333  0.33042553  0.16599254
   0.00013333  0.66970681  0.16599254
   0.33029219  0.33042553  0.16599254
   0.66957347  0.66970681  0.16599254
   0.66666600  0.33333300  0.16645596
   0.33333300  0.66666600  0.17844263
   0.33953798  0.16976899  0.40350551
   0.49877464 -0.00245073  0.40250672
   0.33333267  0.66666633  0.40141431
   0.49877464  0.50122436  0.40250672
   0.83023001  0.16976899  0.40350551
   0.99999967  0.99999933  0.40449516
   0.83023001  0.66046102  0.40350551
   0.00244973  0.50122436  0.40250672
Direct configuration=    35
   0.66949395 -0.00020132  0.16563449
   0.33030373 -0.00020132  0.16563449
   0.00020132  0.33050505  0.16563449
   0.00020132  0.66969527  0.16563449
   0.33030373  0.33050505  0.16563449
   0.66949395  0.66969527  0.16563449
   0.66666600  0.33333300  0.16604752
   0.33333300  0.66666600  0.17796799
   0.33787465  0.16893732  0.40386453
   0.49913613 -0.00172774  0.40290928
   0.33333267  0.66666633  0.40185226
   0.49913613  0.50086287  0.40290928
   0.83106168  0.16893732  0.40386453
   0.99999967  0.99999933  0.40480383
   0.83106168  0.66212435  0.40386453
   0.00172674  0.50086287  0.40290928
Direct configuration=    36
   0.66933491 -0.00033729  0.16491839
   0.33032679 -0.00033729  0.16491839
   0.00033729  0.33066409  0.16491839
   0.00033729  0.66967221  0.16491839
   0.33032679  0.33066409  0.16491839
   0.66933491  0.66967221  0.16491839
   0.66666600  0.33333300  0.16523062
   0.33333300  0.66666600  0.17701871
   0.33454797  0.16727399  0.40458257
   0.49985912 -0.00028175  0.40371442
   0.33333267  0.66666633  0.40272816
   0.49985912  0.50013988  0.40371442
   0.83272501  0.16727399  0.40458257
   0.99999967  0.99999933  0.40542118
   0.83272501  0.66545103  0.40458257
   0.00028075  0.50013988  0.40371442
Direct configuration=    37
   0.66927599 -0.00038767  0.16465309
   0.33033534 -0.00038767  0.16465309
   0.00038767  0.33072301  0.16465309
   0.00038767  0.66966366  0.16465309
   0.33033534  0.33072301  0.16465309
   0.66927599  0.66966366  0.16465309
   0.66666600  0.33333300  0.16492798
   0.33333300  0.66666600  0.17666702
   0.33331552  0.16665776  0.40484858
   0.50012698  0.00025395  0.40401271
   0.33333267  0.66666633  0.40305266
   0.50012698  0.49987202  0.40401271
   0.83334124  0.16665776  0.40484858
   0.99999967  0.99999933  0.40564989
   0.83334124  0.66668348  0.40484858
  -0.00025495  0.49987202  0.40401271
Direct configuration=    38
   0.66927718 -0.00038665  0.16465847
   0.33033517 -0.00038665  0.16465847
   0.00038665  0.33072182  0.16465847
   0.00038665  0.66966383  0.16465847
   0.33033517  0.33072182  0.16465847
   0.66927718  0.66966383  0.16465847
   0.66666600  0.33333300  0.16493411
   0.33333300  0.66666600  0.17667415
   0.33334048  0.16667024  0.40484320
   0.50012155  0.00024310  0.40400667
   0.33333267  0.66666633  0.40304609
   0.50012155  0.49987745  0.40400667
   0.83332876  0.16667024  0.40484320
   0.99999967  0.99999933  0.40564525
   0.83332876  0.66665852  0.40484320
  -0.00024410  0.49987745  0.40400667
Direct configuration=    39
   0.66925144 -0.00039697  0.16466689
   0.33035060 -0.00039697  0.16466689
   0.00039697  0.33074756  0.16466689
   0.00039697  0.66964840  0.16466689
   0.33035060  0.33074756  0.16466689
   0.66925144  0.66964840  0.16466689
   0.66666600  0.33333300  0.16489716
   0.33333300  0.66666600  0.17663189
   0.33332658  0.16666329  0.40482947
   0.50009999  0.00019998  0.40402845
   0.33333267  0.66666633  0.40310047
   0.50009999  0.49989901  0.40402845
   0.83333571  0.16666329  0.40482947
   0.99999967  0.99999933  0.40559535
   0.83333571  0.66667242  0.40482947
  -0.00020098  0.49989901  0.40402845
Direct configuration=    40
   0.66917419 -0.00042792  0.16469218
   0.33039689 -0.00042792  0.16469218
   0.00042792  0.33082481  0.16469218
   0.00042792  0.66960211  0.16469218
   0.33039689  0.33082481  0.16469218
   0.66917419  0.66960211  0.16469218
   0.66666600  0.33333300  0.16478629
   0.33333300  0.66666600  0.17650512
   0.33328487  0.16664243  0.40478830
   0.50003531  0.00007061  0.40409380
   0.33333267  0.66666633  0.40326363
   0.50003531  0.49996369  0.40409380
   0.83335657  0.16664243  0.40478830
   0.99999967  0.99999933  0.40544562
   0.83335657  0.66671413  0.40478830
  -0.00007161  0.49996369  0.40409380
Direct configuration=    41
   0.66901971 -0.00048982  0.16474274
   0.33048947 -0.00048982  0.16474274
   0.00048982  0.33097929  0.16474274
   0.00048982  0.66950953  0.16474274
   0.33048947  0.33097929  0.16474274
   0.66901971  0.66950953  0.16474274
   0.66666600  0.33333300  0.16456456
   0.33333300  0.66666600  0.17625159
   0.33320146  0.16660073  0.40470595
   0.49990594 -0.00018813  0.40422449
   0.33333267  0.66666633  0.40358994
   0.49990594  0.50009306  0.40422449
   0.83339827  0.16660073  0.40470595
   0.99999967  0.99999933  0.40514617
   0.83339827  0.66679754  0.40470595
   0.00018713  0.50009306  0.40422449
Direct configuration=    42
   0.66871074 -0.00061363  0.16484386
   0.33067464 -0.00061363  0.16484386
   0.00061363  0.33128826  0.16484386
   0.00061363  0.66932436  0.16484386
   0.33067464  0.33128826  0.16484386
   0.66871074  0.66932436  0.16484386
   0.66666600  0.33333300  0.16412110
   0.33333300  0.66666600  0.17574452
   0.33303463  0.16651731  0.40454126
   0.49964720 -0.00070560  0.40448587
   0.33333267  0.66666633  0.40424256
   0.49964720  0.50035180  0.40448587
   0.83348169  0.16651731  0.40454126
   0.99999967  0.99999933  0.40454726
   0.83348169  0.66696437  0.40454126
   0.00070460  0.50035180  0.40448587
Direct configuration=    43
   0.66875891 -0.00056754  0.16487306
   0.33067255 -0.00056754  0.16487306
   0.00056754  0.33124009  0.16487306
   0.00056754  0.66932645  0.16487306
   0.33067255  0.33124009  0.16487306
   0.66875891  0.66932645  0.16487306
   0.66666600  0.33333300  0.16401310
   0.33333300  0.66666600  0.17562795
   0.33311705  0.16655853  0.40450952
   0.49973694 -0.00052612  0.40453091
   0.33333267  0.66666633  0.40436322
   0.49973694  0.50026206  0.40453091
   0.83344047  0.16655853  0.40450952
   0.99999967  0.99999933  0.40443606
   0.83344047  0.66688195  0.40450952
   0.00052512  0.50026206  0.40453091
Direct configuration=    44
   0.66890344 -0.00042928  0.16496068
   0.33066627 -0.00042928  0.16496068
   0.00042928  0.33109556  0.16496068
   0.00042928  0.66933273  0.16496068
   0.33066627  0.33109556  0.16496068
   0.66890344  0.66933273  0.16496068
   0.66666600  0.33333300  0.16368909
   0.33333300  0.66666600  0.17527825
   0.33336433  0.16668216  0.40441429
   0.50000616  0.00001232  0.40466602
   0.33333267  0.66666633  0.40472522
   0.50000616  0.49999284  0.40466602
   0.83331684  0.16668216  0.40441429
   0.99999967  0.99999933  0.40410246
   0.83331684  0.66663467  0.40441429
  -0.00001332  0.49999284  0.40466602
Direct configuration=    45
   0.66895973 -0.00037545  0.16499479
   0.33066383 -0.00037545  0.16499479
   0.00037545  0.33103927  0.16499479
   0.00037545  0.66933517  0.16499479
   0.33066383  0.33103927  0.16499479
   0.66895973  0.66933517  0.16499479
   0.66666600  0.33333300  0.16356292
   0.33333300  0.66666600  0.17514208
   0.33346061  0.16673031  0.40437721
   0.50011099  0.00022199  0.40471863
   0.33333267  0.66666633  0.40486618
   0.50011099  0.49988801  0.40471863
   0.83326869  0.16673031  0.40437721
   0.99999967  0.99999933  0.40397255
   0.83326869  0.66653839  0.40437721
  -0.00022299  0.49988801  0.40471863
Direct configuration=    46
   0.66908282 -0.00032731  0.16502592
   0.33058887 -0.00032731  0.16502592
   0.00032731  0.33091618  0.16502592
   0.00032731  0.66941013  0.16502592
   0.33058887  0.33091618  0.16502592
   0.66908282  0.66941013  0.16502592
   0.66666600  0.33333300  0.16346923
   0.33333300  0.66666600  0.17504667
   0.33342556  0.16671278  0.40437410
   0.50009192  0.00018383  0.40472026
   0.33333267  0.66666633  0.40488172
   0.50009192  0.49990708  0.40472026
   0.83328622  0.16671278  0.40437410
   0.99999967  0.99999933  0.40396380
   0.83328622  0.66657344  0.40437410
  -0.00018483  0.49990708  0.40472026
Direct configuration=    47
   0.66945209 -0.00018290  0.16511931
   0.33036401 -0.00018290  0.16511931
   0.00018290  0.33054691  0.16511931
   0.00018290  0.66963499  0.16511931
   0.33036401  0.33054691  0.16511931
   0.66945209  0.66963499  0.16511931
   0.66666600  0.33333300  0.16318816
   0.33333300  0.66666600  0.17476044
   0.33332041  0.16666021  0.40436475
   0.50003468  0.00006936  0.40472514
   0.33333267  0.66666633  0.40492833
   0.50003468  0.49996432  0.40472514
   0.83333879  0.16666021  0.40436475