Lattice                                 
           1
     4.330993    2.500500    0.000000
    -4.330993    2.500500    0.000000
     0.000000    0.000000   15.000000
   B    C 
     8     8
Direct configuration=     1
   0.66888689  0.00000000  0.10000000
   0.33111211  0.00000000  0.10000000
   0.00000000  0.33111211  0.10000000
   0.00000000  0.66888689  0.10000000
   0.33111211  0.33111211  0.10000000
   0.66888689  0.66888689  0.10000000
   0.66666600  0.33333300  0.09922189
   0.33333300  0.66666600  0.10077811
   0.24999933  0.24999967  0.46906667
   0.41666633  0.08333267  0.46906667
   0.24999933  0.74999967  0.46906667
   0.41666633  0.58333267  0.46906667
   0.74999933  0.24999967  0.46906667
   0.91666633  0.08333267  0.46906667
   0.74999933  0.74999967  0.46906667
   0.91666633  0.58333267  0.46906667
Direct configuration=     2
   0.67003106 -0.00000014  0.10002627
   0.32996809 -0.00000016  0.10002634
   0.00000014  0.32996794  0.10002627
   0.00000016  0.67003091  0.10002634
   0.32996777  0.32996772  0.10002635
   0.67003128  0.67003123  0.10002635
   0.66666608  0.33333292  0.09925048
   0.33333255  0.66666645  0.10080886
   0.24999512  0.24999494  0.46903978
   0.41666301  0.08333419  0.46903923
   0.24999892  0.75000008  0.46903883
   0.41666706  0.58333194  0.46903947
   0.75000220  0.24999680  0.46903960
   0.91666735  0.08333165  0.46904014
   0.75000406  0.75000388  0.46903978
   0.91666481  0.58333599  0.46903923
Direct configuration=     3
   0.66950208 -0.00000008  0.10001412
   0.33049700 -0.00000009  0.10001416
   0.00000008  0.33049692  0.10001412
   0.00000009  0.66950200  0.10001416
   0.33049683  0.33049680  0.10001417
   0.66950220  0.66950217  0.10001417
   0.66666604  0.33333296  0.09923726
   0.33333276  0.66666624  0.10079465
   0.24999707  0.24999712  0.46905221
   0.41666454  0.08333349  0.46905191
   0.24999911  0.74999989  0.46905170
   0.41666673  0.58333227  0.46905204
   0.75000088  0.24999812  0.46905212
   0.91666688  0.08333212  0.46905240
   0.75000188  0.75000193  0.46905221
   0.91666551  0.58333446  0.46905191
Direct configuration=     4
   0.66950592 -0.00000008  0.10001421
   0.33049316 -0.00000009  0.10001425
   0.00000008  0.33049308  0.10001421
   0.00000009  0.66950584  0.10001425
   0.33049299  0.33049296  0.10001426
   0.66950604  0.66950601  0.10001426
   0.66666604  0.33333296  0.09923736
   0.33333276  0.66666624  0.10079475
   0.24999705  0.24999711  0.46905212
   0.41666453  0.08333349  0.46905182
   0.24999911  0.74999989  0.46905161
   0.41666673  0.58333227  0.46905195
   0.75000088  0.24999812  0.46905203
   0.91666689  0.08333211  0.46905232
   0.75000189  0.75000195  0.46905212
   0.91666551  0.58333447  0.46905182
Direct configuration=     5
   0.66950609 -0.00000010  0.10003856
   0.33049314 -0.00000006  0.10003866
   0.00000010  0.33049291  0.10003856
   0.00000006  0.66950586  0.10003866
   0.33049300  0.33049295  0.10003868
   0.66950605  0.66950600  0.10003868
   0.66666601  0.33333299  0.09926567
   0.33333273  0.66666627  0.10082060
   0.24999997  0.25000116  0.46902725
   0.41666741  0.08333184  0.46902656
   0.24999900  0.75000000  0.46902609
   0.41666644  0.58333256  0.46902686
   0.74999819  0.25000081  0.46902703
   0.91666646  0.08333254  0.46902768
   0.74999784  0.74999903  0.46902725
   0.91666716  0.58333159  0.46902656
Direct configuration=     6
   0.66950661 -0.00000019  0.10011160
   0.33049309  0.00000002  0.10011189
   0.00000019  0.33049239  0.10011160
  -0.00000002  0.66950591  0.10011189
   0.33049302  0.33049291  0.10011194
   0.66950609  0.66950598  0.10011194
   0.66666593  0.33333307  0.09935062
   0.33333267  0.66666633  0.10089814
   0.25000873  0.25001333  0.46895262
   0.41667603  0.08332688  0.46895078
   0.24999870  0.75000030  0.46894953
   0.41666558  0.58333342  0.46895157
   0.74999009  0.25000891  0.46895204
   0.91666518  0.08333382  0.46895377
   0.74998567  0.74999027  0.46895262
   0.91667212  0.58332297  0.46895078
Direct configuration=     7
   0.66950764 -0.00000035  0.10025768
   0.33049298  0.00000019  0.10025835
   0.00000035  0.33049136  0.10025768
  -0.00000019  0.66950602  0.10025835
   0.33049307  0.33049283  0.10025848
   0.66950617  0.66950593  0.10025848
   0.66666577  0.33333323  0.09952051
   0.33333253  0.66666647  0.10105322
   0.25002624  0.25003766  0.46880337
   0.41669328  0.08331696  0.46879922
   0.24999808  0.75000092  0.46879642
   0.41666386  0.58333514  0.46880098
   0.74997389  0.25002511  0.46880206
   0.91666263  0.08333637  0.46880595
   0.74996134  0.74997276  0.46880337
   0.91668204  0.58330572  0.46879922
