  15  15   0   4
  0.2011985E+02  0.4820000E-09  0.4820000E-09  0.1500000E-08  0.5000000E-15
  1.000000000000000E-004
  CAR 
 Lattice                                 
     10.37745236    -21.72636147  301     -0.20889543      1.00000000
    -21.726  0.0000E+00  0.0000E+00  0.0000E+00  0.0000E+00
    -21.619  0.0000E+00  0.0000E+00  0.0000E+00  0.0000E+00
    -21.512  0.0000E+00  0.0000E+00  0.0000E+00  0.0000E+00
    -21.405  0.0000E+00  0.0000E+00  0.0000E+00  0.0000E+00
    -21.298  0.0000E+00  0.0000E+00  0.0000E+00  0.0000E+00
    -21.191  0.0000E+00  0.0000E+00  0.0000E+00  0.0000E+00
    -21.084  0.0000E+00  0.0000E+00  0.0000E+00  0.0000E+00
    -20.977  0.0000E+00  0.0000E+00  0.0000E+00  0.0000E+00
    -20.870  0.0000E+00  0.0000E+00  0.0000E+00  0.0000E+00
    -20.763  0.6145E-15  0.6145E-15  0.6576E-16  0.6576E-16
    -20.656  0.1099E-10  0.1099E-10  0.1176E-11  0.1176E-11
    -20.549  0.2336E-07  0.2336E-07  0.2501E-08  0.2501E-08
    -20.442  0.6508E-05  0.6508E-05  0.6989E-06  0.6989E-06
    -20.335  0.2659E-03  0.2659E-03  0.2916E-04  0.2916E-04
    -20.228  0.1952E-02  0.1952E-02  0.2380E-03  0.2380E-03
    -20.121  0.4114E-02  0.4114E-02  0.6782E-03  0.6782E-03
    -20.014  0.4467E-02  0.4467E-02  0.1156E-02  0.1156E-02
    -19.907  0.4903E-02  0.4903E-02  0.1681E-02  0.1681E-02
    -19.800  0.4097E-02  0.4097E-02  0.2119E-02  0.2119E-02
    -19.693  0.5316E-02  0.5316E-02  0.2688E-02  0.2688E-02
    -19.586  0.4246E-02  0.4246E-02  0.3143E-02  0.3143E-02
    -19.479  0.4098E-02  0.4098E-02  0.3581E-02  0.3581E-02
    -19.372  0.5974E-02  0.5974E-02  0.4221E-02  0.4221E-02
    -19.265  0.3928E-02  0.3928E-02  0.4641E-02  0.4641E-02
    -19.158  0.3654E-02  0.3654E-02  0.5032E-02  0.5032E-02
    -19.051  0.6007E-02  0.6007E-02  0.5675E-02  0.5675E-02
    -18.944  0.5313E-02  0.5313E-02  0.6243E-02  0.6243E-02
    -18.837  0.3091E-02  0.3091E-02  0.6574E-02  0.6574E-02
    -18.730  0.3910E-02  0.3910E-02  0.6993E-02  0.6993E-02
    -18.623  0.6898E-02  0.6898E-02  0.7731E-02  0.7731E-02
    -18.516  0.4773E-02  0.4773E-02  0.8242E-02  0.8242E-02
    -18.409  0.3836E-02  0.3836E-02  0.8652E-02  0.8652E-02
    -18.302  0.2835E-02  0.2835E-02  0.8956E-02  0.8956E-02
    -18.195  0.6027E-02  0.6027E-02  0.9601E-02  0.9601E-02
    -18.088  0.6929E-02  0.6929E-02  0.1034E-01  0.1034E-01
    -17.981  0.3902E-02  0.3902E-02  0.1076E-01  0.1076E-01
    -17.874  0.3019E-02  0.3019E-02  0.1108E-01  0.1108E-01
    -17.767  0.3981E-02  0.3981E-02  0.1151E-01  0.1151E-01
    -17.660  0.5641E-02  0.5641E-02  0.1211E-01  0.1211E-01
    -17.553  0.7145E-02  0.7145E-02  0.1288E-01  0.1288E-01
    -17.446  0.7071E-02  0.7071E-02  0.1363E-01  0.1363E-01
    -17.339  0.8565E-02  0.8565E-02  0.1455E-01  0.1455E-01
    -17.232  0.9965E-02  0.9965E-02  0.1562E-01  0.1562E-01
    -17.125  0.1435E-01  0.1435E-01  0.1715E-01  0.1715E-01
    -17.018  0.1652E-01  0.1652E-01  0.1892E-01  0.1892E-01
    -16.911  0.1909E-01  0.1909E-01  0.2096E-01  0.2096E-01
    -16.804  0.2096E-01  0.2096E-01  0.2321E-01  0.2321E-01
    -16.697  0.1233E-01  0.1233E-01  0.2453E-01  0.2453E-01
    -16.590  0.2955E-02  0.2955E-02  0.2484E-01  0.2484E-01
    -16.483  0.5303E-02  0.5303E-02  0.2541E-01  0.2541E-01
    -16.376  0.8931E-02  0.8931E-02  0.2637E-01  0.2637E-01
    -16.269  0.5033E-02  0.5033E-02  0.2691E-01  0.2691E-01
    -16.162  0.4255E-02  0.4255E-02  0.2736E-01  0.2736E-01
    -16.055  0.3697E-02  0.3697E-02  0.2776E-01  0.2776E-01
    -15.948  0.4080E-02  0.4080E-02  0.2819E-01  0.2819E-01
    -15.841  0.3094E-02  0.3094E-02  0.2852E-01  0.2852E-01
    -15.734  0.6477E-02  0.6477E-02  0.2922E-01  0.2922E-01
    -15.627  0.8918E-02  0.8918E-02  0.3017E-01  0.3017E-01
    -15.520  0.4923E-02  0.4923E-02  0.3070E-01  0.3070E-01
    -15.413  0.3726E-02  0.3726E-02  0.3110E-01  0.3110E-01
    -15.306  0.3332E-02  0.3332E-02  0.3145E-01  0.3145E-01
    -15.199  0.3959E-02  0.3959E-02  0.3188E-01  0.3188E-01
    -15.092  0.6078E-02  0.6078E-02  0.3253E-01  0.3253E-01
    -14.985  0.1190E-01  0.1190E-01  0.3380E-01  0.3380E-01
    -14.878  0.1836E-01  0.1836E-01  0.3577E-01  0.3577E-01
    -14.771  0.1976E-01  0.1976E-01  0.3788E-01  0.3788E-01
    -14.664  0.1542E-01  0.1542E-01  0.3953E-01  0.3953E-01
    -14.557  0.1193E-01  0.1193E-01  0.4081E-01  0.4081E-01
    -14.449  0.8496E-02  0.8496E-02  0.4172E-01  0.4172E-01
    -14.342  0.1092E-01  0.1092E-01  0.4289E-01  0.4289E-01
    -14.235  0.1577E-01  0.1577E-01  0.4457E-01  0.4457E-01
    -14.128  0.1529E-01  0.1529E-01  0.4621E-01  0.4621E-01
    -14.021  0.1089E-01  0.1089E-01  0.4738E-01  0.4738E-01
    -13.914  0.1347E-01  0.1347E-01  0.4882E-01  0.4882E-01
    -13.807  0.1854E-01  0.1854E-01  0.5080E-01  0.5080E-01
    -13.700  0.1746E-01  0.1746E-01  0.5267E-01  0.5267E-01
    -13.593  0.1699E-01  0.1699E-01  0.5449E-01  0.5449E-01
    -13.486  0.1118E-01  0.1118E-01  0.5569E-01  0.5569E-01
    -13.379  0.6264E-02  0.6264E-02  0.5636E-01  0.5636E-01
    -13.272  0.3554E-02  0.3554E-02  0.5674E-01  0.5674E-01
    -13.165  0.3179E-02  0.3179E-02  0.5708E-01  0.5708E-01
    -13.058  0.5638E-02  0.5638E-02  0.5768E-01  0.5768E-01
    -12.951  0.7369E-02  0.7369E-02  0.5847E-01  0.5847E-01
    -12.844  0.5222E-02  0.5222E-02  0.5903E-01  0.5903E-01
    -12.737  0.5577E-02  0.5577E-02  0.5962E-01  0.5962E-01
    -12.630  0.6844E-02  0.6844E-02  0.6036E-01  0.6036E-01
    -12.523  0.6205E-02  0.6205E-02  0.6102E-01  0.6102E-01
    -12.416  0.5569E-02  0.5569E-02  0.6162E-01  0.6162E-01
    -12.309  0.4205E-02  0.4205E-02  0.6207E-01  0.6207E-01
    -12.202  0.4195E-02  0.4195E-02  0.6252E-01  0.6252E-01
    -12.095  0.8153E-02  0.8153E-02  0.6339E-01  0.6339E-01
    -11.988  0.5384E-02  0.5384E-02  0.6396E-01  0.6396E-01
    -11.881  0.2984E-02  0.2984E-02  0.6428E-01  0.6428E-01
    -11.774  0.3593E-02  0.3593E-02  0.6467E-01  0.6467E-01
    -11.667  0.3928E-02  0.3928E-02  0.6509E-01  0.6509E-01
    -11.560  0.6799E-02  0.6799E-02  0.6582E-01  0.6582E-01
    -11.453  0.5880E-02  0.5880E-02  0.6644E-01  0.6644E-01
    -11.346  0.2335E-02  0.2335E-02  0.6669E-01  0.6669E-01
    -11.239  0.2990E-02  0.2990E-02  0.6701E-01  0.6701E-01
    -11.132  0.5652E-02  0.5652E-02  0.6762E-01  0.6762E-01
    -11.025  0.5838E-02  0.5838E-02  0.6824E-01  0.6824E-01
    -10.918  0.6663E-02  0.6663E-02  0.6896E-01  0.6896E-01
    -10.811  0.7450E-02  0.7450E-02  0.6975E-01  0.6975E-01
    -10.704  0.4199E-02  0.4199E-02  0.7020E-01  0.7020E-01
    -10.597  0.7421E-02  0.7421E-02  0.7100E-01  0.7100E-01
    -10.490  0.1329E-01  0.1329E-01  0.7242E-01  0.7242E-01
    -10.383  0.1453E-01  0.1453E-01  0.7398E-01  0.7398E-01
    -10.276  0.1619E-01  0.1619E-01  0.7571E-01  0.7571E-01
    -10.169  0.1678E-01  0.1678E-01  0.7750E-01  0.7750E-01
    -10.062  0.1608E-01  0.1608E-01  0.7922E-01  0.7922E-01
     -9.955  0.1477E-01  0.1477E-01  0.8081E-01  0.8081E-01
     -9.848  0.1072E-01  0.1072E-01  0.8195E-01  0.8195E-01
     -9.741  0.1135E-01  0.1135E-01  0.8317E-01  0.8317E-01
     -9.634  0.1309E-01  0.1309E-01  0.8457E-01  0.8457E-01
     -9.527  0.9677E-02  0.9677E-02  0.8560E-01  0.8560E-01
     -9.420  0.1514E-01  0.1514E-01  0.8722E-01  0.8722E-01
     -9.313  0.2104E-01  0.2104E-01  0.8948E-01  0.8948E-01
     -9.206  0.1459E-01  0.1459E-01  0.9104E-01  0.9104E-01
     -9.099  0.9116E-02  0.9116E-02  0.9201E-01  0.9201E-01
     -8.992  0.6095E-02  0.6095E-02  0.9267E-01  0.9267E-01
     -8.885  0.1415E-01  0.1415E-01  0.9418E-01  0.9418E-01
     -8.778  0.2305E-01  0.2305E-01  0.9665E-01  0.9665E-01
     -8.671  0.1401E-01  0.1401E-01  0.9814E-01  0.9814E-01
     -8.564  0.8440E-02  0.8440E-02  0.9905E-01  0.9905E-01
     -8.457  0.1141E-01  0.1141E-01  0.1003E+00  0.1003E+00
     -8.350  0.1776E-01  0.1776E-01  0.1022E+00  0.1022E+00
     -8.243  0.1850E-01  0.1850E-01  0.1041E+00  0.1041E+00
     -8.136  0.1394E-01  0.1394E-01  0.1056E+00  0.1056E+00
     -8.029  0.1606E-01  0.1606E-01  0.1074E+00  0.1074E+00
     -7.922  0.2216E-01  0.2216E-01  0.1097E+00  0.1097E+00
     -7.815  0.2352E-01  0.2352E-01  0.1122E+00  0.1122E+00
     -7.708  0.2099E-01  0.2099E-01  0.1145E+00  0.1145E+00
     -7.601  0.1310E-01  0.1310E-01  0.1159E+00  0.1159E+00
     -7.494  0.6723E-02  0.6723E-02  0.1166E+00  0.1166E+00
     -7.387  0.1403E-01  0.1403E-01  0.1181E+00  0.1181E+00
     -7.280  0.1867E-01  0.1867E-01  0.1201E+00  0.1201E+00
     -7.173  0.1313E-01  0.1313E-01  0.1215E+00  0.1215E+00
     -7.066  0.1248E-01  0.1248E-01  0.1229E+00  0.1229E+00
     -6.959  0.1535E-01  0.1535E-01  0.1245E+00  0.1245E+00
     -6.852  0.1771E-01  0.1771E-01  0.1264E+00  0.1264E+00
     -6.745  0.1769E-01  0.1769E-01  0.1283E+00  0.1283E+00
     -6.638  0.2170E-01  0.2170E-01  0.1306E+00  0.1306E+00
     -6.531  0.2290E-01  0.2290E-01  0.1331E+00  0.1331E+00
     -6.424  0.2188E-01  0.2188E-01  0.1354E+00  0.1354E+00
     -6.317  0.1727E-01  0.1727E-01  0.1372E+00  0.1372E+00
     -6.210  0.1747E-01  0.1747E-01  0.1391E+00  0.1391E+00
     -6.103  0.2226E-01  0.2226E-01  0.1415E+00  0.1415E+00
     -5.995  0.2788E-01  0.2788E-01  0.1445E+00  0.1445E+00
     -5.888  0.3080E-01  0.3080E-01  0.1478E+00  0.1478E+00
     -5.781  0.2407E-01  0.2407E-01  0.1504E+00  0.1504E+00
     -5.674  0.1974E-01  0.1974E-01  0.1525E+00  0.1525E+00
     -5.567  0.2306E-01  0.2306E-01  0.1549E+00  0.1549E+00
     -5.460  0.3091E-01  0.3091E-01  0.1582E+00  0.1582E+00
     -5.353  0.3177E-01  0.3177E-01  0.1616E+00  0.1616E+00
     -5.246  0.2227E-01  0.2227E-01  0.1640E+00  0.1640E+00
     -5.139  0.1681E-01  0.1681E-01  0.1658E+00  0.1658E+00
     -5.032  0.1124E-01  0.1124E-01  0.1670E+00  0.1670E+00
     -4.925  0.8264E-02  0.8264E-02  0.1679E+00  0.1679E+00
     -4.818  0.1258E-01  0.1258E-01  0.1693E+00  0.1693E+00
     -4.711  0.1372E-01  0.1372E-01  0.1707E+00  0.1707E+00
     -4.604  0.9189E-02  0.9189E-02  0.1717E+00  0.1717E+00
     -4.497  0.8551E-02  0.8551E-02  0.1726E+00  0.1726E+00
     -4.390  0.1219E-01  0.1219E-01  0.1739E+00  0.1739E+00
     -4.283  0.2195E-01  0.2195E-01  0.1763E+00  0.1763E+00
     -4.176  0.2424E-01  0.2424E-01  0.1789E+00  0.1789E+00
     -4.069  0.1858E-01  0.1858E-01  0.1809E+00  0.1809E+00
     -3.962  0.1858E-01  0.1858E-01  0.1828E+00  0.1828E+00
     -3.855  0.2459E-01  0.2459E-01  0.1855E+00  0.1855E+00
     -3.748  0.2056E-01  0.2056E-01  0.1877E+00  0.1877E+00
     -3.641  0.1948E-01  0.1948E-01  0.1898E+00  0.1898E+00
     -3.534  0.1891E-01  0.1891E-01  0.1918E+00  0.1918E+00
     -3.427  0.1707E-01  0.1707E-01  0.1936E+00  0.1936E+00
     -3.320  0.1159E-01  0.1159E-01  0.1949E+00  0.1949E+00
     -3.213  0.1341E-01  0.1341E-01  0.1963E+00  0.1963E+00
     -3.106  0.1862E-01  0.1862E-01  0.1983E+00  0.1983E+00
     -2.999  0.1717E-01  0.1717E-01  0.2001E+00  0.2001E+00
     -2.892  0.1276E-01  0.1276E-01  0.2015E+00  0.2015E+00
     -2.785  0.1244E-01  0.1244E-01  0.2028E+00  0.2028E+00
     -2.678  0.8807E-02  0.8807E-02  0.2038E+00  0.2038E+00
     -2.571  0.9537E-02  0.9537E-02  0.2048E+00  0.2048E+00
     -2.464  0.1497E-01  0.1497E-01  0.2064E+00  0.2064E+00
     -2.357  0.1812E-01  0.1812E-01  0.2083E+00  0.2083E+00
     -2.250  0.6277E-02  0.6277E-02  0.2090E+00  0.2090E+00
     -2.143  0.5376E-02  0.5376E-02  0.2096E+00  0.2096E+00
     -2.036  0.9432E-02  0.9432E-02  0.2106E+00  0.2106E+00
     -1.929  0.9001E-02  0.9001E-02  0.2115E+00  0.2115E+00
     -1.822  0.9945E-02  0.9945E-02  0.2126E+00  0.2126E+00
     -1.715  0.1072E-01  0.1072E-01  0.2137E+00  0.2137E+00
     -1.608  0.1016E-01  0.1016E-01  0.2148E+00  0.2148E+00
     -1.501  0.9444E-02  0.9444E-02  0.2158E+00  0.2158E+00
     -1.394  0.3842E-02  0.3842E-02  0.2163E+00  0.2163E+00
     -1.287  0.3594E-02  0.3594E-02  0.2166E+00  0.2166E+00
     -1.180  0.4905E-02  0.4905E-02  0.2172E+00  0.2172E+00
     -1.073  0.2986E-02  0.2986E-02  0.2175E+00  0.2175E+00
     -0.966  0.4132E-02  0.4132E-02  0.2179E+00  0.2179E+00
     -0.859  0.4875E-02  0.4875E-02  0.2184E+00  0.2184E+00
     -0.752  0.1638E-02  0.1638E-02  0.2186E+00  0.2186E+00
     -0.645  0.1517E-03  0.1517E-03  0.2186E+00  0.2186E+00
     -0.538  0.3307E-05  0.3307E-05  0.2186E+00  0.2186E+00
     -0.431  0.1728E-05  0.1728E-05  0.2186E+00  0.2186E+00
     -0.324  0.1038E-03  0.1038E-03  0.2187E+00  0.2187E+00
     -0.217  0.8181E-03  0.8181E-03  0.2187E+00  0.2187E+00
     -0.110  0.9410E-03  0.9410E-03  0.2188E+00  0.2188E+00
     -0.003  0.1597E-03  0.1597E-03  0.2189E+00  0.2189E+00
      0.104  0.3598E-05  0.3598E-05  0.2189E+00  0.2189E+00
      0.211  0.3179E-06  0.3179E-06  0.2189E+00  0.2189E+00
      0.318  0.5325E-04  0.5325E-04  0.2189E+00  0.2189E+00
      0.425  0.1131E-02  0.1131E-02  0.2190E+00  0.2190E+00
      0.532  0.3339E-02  0.3339E-02  0.2193E+00  0.2193E+00
      0.639  0.1747E-02  0.1747E-02  0.2195E+00  0.2195E+00
      0.746  0.3193E-02  0.3193E-02  0.2199E+00  0.2199E+00
      0.853  0.7007E-02  0.7007E-02  0.2206E+00  0.2206E+00
      0.960  0.1022E-01  0.1022E-01  0.2217E+00  0.2217E+00
      1.067  0.2062E-01  0.2062E-01  0.2239E+00  0.2239E+00
      1.174  0.2033E-01  0.2033E-01  0.2261E+00  0.2261E+00
      1.281  0.7255E-02  0.7255E-02  0.2269E+00  0.2269E+00
      1.388  0.1172E-02  0.1172E-02  0.2270E+00  0.2270E+00
      1.495  0.2554E-02  0.2554E-02  0.2273E+00  0.2273E+00
      1.602  0.1069E-01  0.1069E-01  0.2284E+00  0.2284E+00
      1.709  0.2014E-01  0.2014E-01  0.2306E+00  0.2306E+00
      1.816  0.1583E-01  0.1583E-01  0.2323E+00  0.2323E+00
      1.923  0.1050E-01  0.1050E-01  0.2334E+00  0.2334E+00
      2.030  0.8997E-02  0.8997E-02  0.2344E+00  0.2344E+00
      2.137  0.1010E-01  0.1010E-01  0.2354E+00  0.2354E+00
      2.244  0.7898E-02  0.7898E-02  0.2363E+00  0.2363E+00
      2.351  0.7950E-02  0.7950E-02  0.2371E+00  0.2371E+00
      2.459  0.7683E-02  0.7683E-02  0.2380E+00  0.2380E+00
      2.566  0.4670E-02  0.4670E-02  0.2385E+00  0.2385E+00
      2.673  0.1037E-01  0.1037E-01  0.2396E+00  0.2396E+00
      2.780  0.1297E-01  0.1297E-01  0.2409E+00  0.2409E+00
      2.887  0.7248E-02  0.7248E-02  0.2417E+00  0.2417E+00
      2.994  0.6741E-02  0.6741E-02  0.2424E+00  0.2424E+00
      3.101  0.8022E-02  0.8022E-02  0.2433E+00  0.2433E+00
      3.208  0.1195E-01  0.1195E-01  0.2446E+00  0.2446E+00
      3.315  0.1070E-01  0.1070E-01  0.2457E+00  0.2457E+00
      3.422  0.9974E-02  0.9974E-02  0.2468E+00  0.2468E+00
      3.529  0.8320E-02  0.8320E-02  0.2477E+00  0.2477E+00
      3.636  0.1214E-01  0.1214E-01  0.2490E+00  0.2490E+00
      3.743  0.2167E-01  0.2167E-01  0.2513E+00  0.2513E+00
      3.850  0.2333E-01  0.2333E-01  0.2538E+00  0.2538E+00
      3.957  0.2015E-01  0.2015E-01  0.2560E+00  0.2560E+00
      4.064  0.1981E-01  0.1981E-01  0.2581E+00  0.2581E+00
      4.171  0.2345E-01  0.2345E-01  0.2606E+00  0.2606E+00
      4.278  0.2593E-01  0.2593E-01  0.2634E+00  0.2634E+00
      4.385  0.2648E-01  0.2648E-01  0.2662E+00  0.2662E+00
      4.492  0.2374E-01  0.2374E-01  0.2687E+00  0.2687E+00
      4.599  0.2646E-01  0.2646E-01  0.2716E+00  0.2716E+00
      4.706  0.2240E-01  0.2240E-01  0.2740E+00  0.2740E+00
      4.813  0.2209E-01  0.2209E-01  0.2763E+00  0.2763E+00
      4.920  0.2735E-01  0.2735E-01  0.2793E+00  0.2793E+00
      5.027  0.2641E-01  0.2641E-01  0.2821E+00  0.2821E+00
      5.134  0.2368E-01  0.2368E-01  0.2846E+00  0.2846E+00
      5.241  0.2516E-01  0.2516E-01  0.2873E+00  0.2873E+00
      5.348  0.2003E-01  0.2003E-01  0.2895E+00  0.2895E+00
      5.455  0.1851E-01  0.1851E-01  0.2914E+00  0.2914E+00
      5.562  0.2190E-01  0.2190E-01  0.2938E+00  0.2938E+00
      5.669  0.3247E-01  0.3247E-01  0.2973E+00  0.2973E+00
      5.776  0.2629E-01  0.2629E-01  0.3001E+00  0.3001E+00
      5.883  0.2014E-01  0.2014E-01  0.3022E+00  0.3022E+00
      5.990  0.1774E-01  0.1774E-01  0.3041E+00  0.3041E+00
      6.097  0.2124E-01  0.2124E-01  0.3064E+00  0.3064E+00
      6.204  0.1891E-01  0.1891E-01  0.3084E+00  0.3084E+00
      6.311  0.1586E-01  0.1586E-01  0.3101E+00  0.3101E+00
      6.418  0.1937E-01  0.1937E-01  0.3122E+00  0.3122E+00
      6.525  0.2397E-01  0.2397E-01  0.3148E+00  0.3148E+00
      6.632  0.2681E-01  0.2681E-01  0.3176E+00  0.3176E+00
      6.739  0.2367E-01  0.2367E-01  0.3202E+00  0.3202E+00
      6.846  0.3000E-01  0.3000E-01  0.3234E+00  0.3234E+00
      6.953  0.3260E-01  0.3260E-01  0.3269E+00  0.3269E+00
      7.060  0.2797E-01  0.2797E-01  0.3298E+00  0.3298E+00
      7.167  0.2606E-01  0.2605E-01  0.3326E+00  0.3326E+00
      7.274  0.2139E-01  0.2139E-01  0.3349E+00  0.3349E+00
      7.381  0.1613E-01  0.1613E-01  0.3366E+00  0.3366E+00
      7.488  0.2109E-01  0.2109E-01  0.3389E+00  0.3389E+00
      7.595  0.2493E-01  0.2493E-01  0.3416E+00  0.3416E+00
      7.702  0.2048E-01  0.2048E-01  0.3438E+00  0.3438E+00
      7.809  0.2194E-01  0.2194E-01  0.3461E+00  0.3461E+00
      7.916  0.2666E-01  0.2666E-01  0.3490E+00  0.3490E+00
      8.023  0.2844E-01  0.2844E-01  0.3520E+00  0.3520E+00
      8.130  0.3809E-01  0.3809E-01  0.3561E+00  0.3561E+00
      8.237  0.3085E-01  0.3085E-01  0.3594E+00  0.3594E+00
      8.344  0.2704E-01  0.2704E-01  0.3623E+00  0.3623E+00
      8.451  0.3056E-01  0.3056E-01  0.3656E+00  0.3656E+00
      8.558  0.3046E-01  0.3046E-01  0.3688E+00  0.3688E+00
      8.665  0.2642E-01  0.2642E-01  0.3716E+00  0.3716E+00
      8.772  0.1790E-01  0.1790E-01  0.3736E+00  0.3736E+00
      8.879  0.8781E-02  0.8781E-02  0.3745E+00  0.3745E+00
      8.986  0.3930E-02  0.3930E-02  0.3749E+00  0.3749E+00
      9.093  0.7757E-03  0.7757E-03  0.3750E+00  0.3750E+00
      9.200  0.2665E-04  0.2665E-04  0.3750E+00  0.3750E+00
      9.307  0.1195E-06  0.1195E-06  0.3750E+00  0.3750E+00
      9.414  0.6283E-10  0.6284E-10  0.3750E+00  0.3750E+00
      9.521  0.3669E-14  0.3670E-14  0.3750E+00  0.3750E+00
      9.628  0.0000E+00  0.0000E+00  0.3750E+00  0.3750E+00
      9.735  0.0000E+00  0.0000E+00  0.3750E+00  0.3750E+00
      9.842  0.0000E+00  0.0000E+00  0.3750E+00  0.3750E+00
      9.949  0.0000E+00  0.0000E+00  0.3750E+00  0.3750E+00
     10.056  0.0000E+00  0.0000E+00  0.3750E+00  0.3750E+00
     10.163  0.0000E+00  0.0000E+00  0.3750E+00  0.3750E+00
     10.270  0.0000E+00  0.0000E+00  0.3750E+00  0.3750E+00
     10.377  0.0000E+00  0.0000E+00  0.3750E+00  0.3750E+00
