  16  16   0  16
  0.2060716E+02  0.5038000E-09  0.5038000E-09  0.1500000E-08  0.5000000E-15
  1.000000000000000E-004
  CAR 
 Lattice                                 
      9.77352680    -21.31513903  301     -0.96277413      1.00000000
    -21.315  0.0000E+00  0.0000E+00  0.0000E+00  0.0000E+00
    -21.212  0.0000E+00  0.0000E+00  0.0000E+00  0.0000E+00
    -21.108  0.0000E+00  0.0000E+00  0.0000E+00  0.0000E+00
    -21.004  0.0000E+00  0.0000E+00  0.0000E+00  0.0000E+00
    -20.901  0.0000E+00  0.0000E+00  0.0000E+00  0.0000E+00
    -20.797  0.0000E+00  0.0000E+00  0.0000E+00  0.0000E+00
    -20.693  0.0000E+00  0.0000E+00  0.0000E+00  0.0000E+00
    -20.590  0.0000E+00  0.0000E+00  0.0000E+00  0.0000E+00
    -20.486  0.2906E-19  0.2906E-19  0.3012E-20  0.3012E-20
    -20.382  0.3142E-14  0.3142E-14  0.3256E-15  0.3256E-15
    -20.279  0.3194E-10  0.3194E-10  0.3311E-11  0.3311E-11
    -20.175  0.4455E-07  0.4455E-07  0.4620E-08  0.4620E-08
    -20.072  0.9220E-05  0.9220E-05  0.9601E-06  0.9601E-06
    -19.968  0.3125E-03  0.3125E-03  0.3334E-04  0.3334E-04
    -19.864  0.2123E-02  0.2123E-02  0.2533E-03  0.2533E-03
    -19.761  0.4398E-02  0.4398E-02  0.7091E-03  0.7091E-03
    -19.657  0.4894E-02  0.4894E-02  0.1216E-02  0.1216E-02
    -19.553  0.5160E-02  0.5160E-02  0.1751E-02  0.1751E-02
    -19.450  0.4633E-02  0.4633E-02  0.2231E-02  0.2231E-02
    -19.346  0.5668E-02  0.5668E-02  0.2818E-02  0.2818E-02
    -19.243  0.4267E-02  0.4267E-02  0.3261E-02  0.3261E-02
    -19.139  0.5236E-02  0.5236E-02  0.3803E-02  0.3803E-02
    -19.035  0.5909E-02  0.5909E-02  0.4416E-02  0.4416E-02
    -18.932  0.3653E-02  0.3653E-02  0.4794E-02  0.4794E-02
    -18.828  0.5290E-02  0.5290E-02  0.5342E-02  0.5342E-02
    -18.724  0.6357E-02  0.6357E-02  0.6001E-02  0.6001E-02
    -18.621  0.4450E-02  0.4450E-02  0.6462E-02  0.6462E-02
    -18.517  0.3361E-02  0.3361E-02  0.6810E-02  0.6810E-02
    -18.414  0.6712E-02  0.6712E-02  0.7506E-02  0.7506E-02
    -18.310  0.6028E-02  0.6028E-02  0.8131E-02  0.8131E-02
    -18.206  0.4240E-02  0.4240E-02  0.8570E-02  0.8570E-02
    -18.103  0.3481E-02  0.3481E-02  0.8931E-02  0.8931E-02
    -17.999  0.7521E-02  0.7521E-02  0.9710E-02  0.9710E-02
    -17.895  0.1260E-01  0.1260E-01  0.1102E-01  0.1102E-01
    -17.792  0.1148E-01  0.1148E-01  0.1221E-01  0.1221E-01
    -17.688  0.1124E-01  0.1124E-01  0.1337E-01  0.1337E-01
    -17.584  0.1319E-01  0.1319E-01  0.1474E-01  0.1474E-01
    -17.481  0.1713E-01  0.1713E-01  0.1651E-01  0.1651E-01
    -17.377  0.2137E-01  0.2137E-01  0.1873E-01  0.1873E-01
    -17.274  0.1899E-01  0.1899E-01  0.2070E-01  0.2070E-01
    -17.170  0.7969E-02  0.7969E-02  0.2152E-01  0.2152E-01
    -17.066  0.4618E-02  0.4618E-02  0.2200E-01  0.2200E-01
    -16.963  0.7198E-02  0.7198E-02  0.2275E-01  0.2275E-01
    -16.859  0.6788E-02  0.6788E-02  0.2345E-01  0.2345E-01
    -16.755  0.5566E-02  0.5566E-02  0.2403E-01  0.2403E-01
    -16.652  0.4611E-02  0.4611E-02  0.2450E-01  0.2450E-01
    -16.548  0.2780E-02  0.2780E-02  0.2479E-01  0.2479E-01
    -16.445  0.4128E-02  0.4128E-02  0.2522E-01  0.2522E-01
    -16.341  0.9229E-02  0.9229E-02  0.2618E-01  0.2618E-01
    -16.237  0.6437E-02  0.6437E-02  0.2684E-01  0.2684E-01
    -16.134  0.4792E-02  0.4792E-02  0.2734E-01  0.2734E-01
    -16.030  0.4296E-02  0.4296E-02  0.2779E-01  0.2779E-01
    -15.926  0.4230E-02  0.4230E-02  0.2822E-01  0.2822E-01
    -15.823  0.3696E-02  0.3696E-02  0.2861E-01  0.2861E-01
    -15.719  0.8970E-02  0.8970E-02  0.2954E-01  0.2954E-01
    -15.616  0.1352E-01  0.1352E-01  0.3094E-01  0.3094E-01
    -15.512  0.1413E-01  0.1413E-01  0.3240E-01  0.3240E-01
    -15.408  0.1627E-01  0.1627E-01  0.3409E-01  0.3409E-01
    -15.305  0.1413E-01  0.1413E-01  0.3555E-01  0.3555E-01
    -15.201  0.1201E-01  0.1201E-01  0.3680E-01  0.3680E-01
    -15.097  0.1385E-01  0.1385E-01  0.3823E-01  0.3823E-01
    -14.994  0.1850E-01  0.1850E-01  0.4015E-01  0.4015E-01
    -14.890  0.1533E-01  0.1533E-01  0.4174E-01  0.4174E-01
    -14.787  0.1352E-01  0.1352E-01  0.4314E-01  0.4314E-01
    -14.683  0.1015E-01  0.1015E-01  0.4419E-01  0.4419E-01
    -14.579  0.1011E-01  0.1011E-01  0.4524E-01  0.4524E-01
    -14.476  0.1547E-01  0.1547E-01  0.4684E-01  0.4684E-01
    -14.372  0.2067E-01  0.2067E-01  0.4898E-01  0.4898E-01
    -14.268  0.1479E-01  0.1479E-01  0.5052E-01  0.5052E-01
    -14.165  0.9408E-02  0.9408E-02  0.5149E-01  0.5149E-01
    -14.061  0.7576E-02  0.7576E-02  0.5228E-01  0.5228E-01
    -13.957  0.8003E-02  0.8003E-02  0.5310E-01  0.5310E-01
    -13.854  0.7870E-02  0.7870E-02  0.5392E-01  0.5392E-01
    -13.750  0.5823E-02  0.5823E-02  0.5452E-01  0.5452E-01
    -13.647  0.3415E-02  0.3415E-02  0.5488E-01  0.5488E-01
    -13.543  0.4651E-02  0.4651E-02  0.5536E-01  0.5536E-01
    -13.439  0.4430E-02  0.4430E-02  0.5582E-01  0.5582E-01
    -13.336  0.6018E-02  0.6018E-02  0.5644E-01  0.5644E-01
    -13.232  0.5903E-02  0.5903E-02  0.5705E-01  0.5705E-01
    -13.128  0.6305E-02  0.6305E-02  0.5771E-01  0.5771E-01
    -13.025  0.8044E-02  0.8044E-02  0.5854E-01  0.5854E-01
    -12.921  0.7321E-02  0.7321E-02  0.5930E-01  0.5930E-01
    -12.818  0.8530E-02  0.8530E-02  0.6018E-01  0.6018E-01
    -12.714  0.6023E-02  0.6023E-02  0.6081E-01  0.6081E-01
    -12.610  0.6657E-02  0.6657E-02  0.6150E-01  0.6150E-01
    -12.507  0.5436E-02  0.5436E-02  0.6206E-01  0.6206E-01
    -12.403  0.3881E-02  0.3881E-02  0.6246E-01  0.6246E-01
    -12.299  0.8550E-02  0.8550E-02  0.6335E-01  0.6335E-01
    -12.196  0.7163E-02  0.7163E-02  0.6409E-01  0.6409E-01
    -12.092  0.6723E-02  0.6723E-02  0.6479E-01  0.6479E-01
    -11.989  0.1178E-01  0.1178E-01  0.6601E-01  0.6601E-01
    -11.885  0.1624E-01  0.1624E-01  0.6769E-01  0.6769E-01
    -11.781  0.1531E-01  0.1531E-01  0.6928E-01  0.6928E-01
    -11.678  0.1460E-01  0.1460E-01  0.7079E-01  0.7079E-01
    -11.574  0.1592E-01  0.1592E-01  0.7244E-01  0.7244E-01
    -11.470  0.1573E-01  0.1573E-01  0.7407E-01  0.7407E-01
    -11.367  0.8429E-02  0.8429E-02  0.7494E-01  0.7494E-01
    -11.263  0.9116E-02  0.9116E-02  0.7589E-01  0.7589E-01
    -11.160  0.1156E-01  0.1156E-01  0.7709E-01  0.7709E-01
    -11.056  0.1217E-01  0.1217E-01  0.7835E-01  0.7835E-01
    -10.952  0.6471E-02  0.6471E-02  0.7902E-01  0.7902E-01
    -10.849  0.5477E-02  0.5477E-02  0.7959E-01  0.7959E-01
    -10.745  0.1444E-01  0.1444E-01  0.8108E-01  0.8108E-01
    -10.641  0.1836E-01  0.1836E-01  0.8298E-01  0.8298E-01
    -10.538  0.9325E-02  0.9325E-02  0.8395E-01  0.8395E-01
    -10.434  0.5940E-02  0.5940E-02  0.8457E-01  0.8457E-01
    -10.330  0.1082E-01  0.1082E-01  0.8569E-01  0.8569E-01
    -10.227  0.1919E-01  0.1919E-01  0.8768E-01  0.8768E-01
    -10.123  0.1653E-01  0.1653E-01  0.8939E-01  0.8939E-01
    -10.020  0.8699E-02  0.8699E-02  0.9029E-01  0.9029E-01
     -9.916  0.8779E-02  0.8779E-02  0.9120E-01  0.9120E-01
     -9.812  0.9390E-02  0.9390E-02  0.9217E-01  0.9217E-01
     -9.709  0.1186E-01  0.1186E-01  0.9340E-01  0.9340E-01
     -9.605  0.9259E-02  0.9259E-02  0.9436E-01  0.9436E-01
     -9.501  0.1065E-01  0.1065E-01  0.9547E-01  0.9547E-01
     -9.398  0.9573E-02  0.9573E-02  0.9646E-01  0.9646E-01
     -9.294  0.9608E-02  0.9608E-02  0.9745E-01  0.9745E-01
     -9.191  0.9481E-02  0.9481E-02  0.9844E-01  0.9844E-01
     -9.087  0.3298E-02  0.3298E-02  0.9878E-01  0.9878E-01
     -8.983  0.4714E-02  0.4714E-02  0.9927E-01  0.9927E-01
     -8.880  0.1289E-01  0.1289E-01  0.1006E+00  0.1006E+00
     -8.776  0.1878E-01  0.1878E-01  0.1025E+00  0.1025E+00
     -8.672  0.1653E-01  0.1653E-01  0.1043E+00  0.1043E+00
     -8.569  0.8746E-02  0.8746E-02  0.1052E+00  0.1052E+00
     -8.465  0.8536E-02  0.8536E-02  0.1061E+00  0.1061E+00
     -8.362  0.9991E-02  0.9991E-02  0.1071E+00  0.1071E+00
     -8.258  0.1777E-01  0.1777E-01  0.1089E+00  0.1089E+00
     -8.154  0.2374E-01  0.2374E-01  0.1114E+00  0.1114E+00
     -8.051  0.2301E-01  0.2301E-01  0.1138E+00  0.1138E+00
     -7.947  0.1606E-01  0.1606E-01  0.1154E+00  0.1154E+00
     -7.843  0.1348E-01  0.1348E-01  0.1168E+00  0.1168E+00
     -7.740  0.1411E-01  0.1411E-01  0.1183E+00  0.1183E+00
     -7.636  0.2497E-01  0.2497E-01  0.1209E+00  0.1209E+00
     -7.532  0.2770E-01  0.2770E-01  0.1238E+00  0.1238E+00
     -7.429  0.2126E-01  0.2126E-01  0.1260E+00  0.1260E+00
     -7.325  0.2101E-01  0.2101E-01  0.1281E+00  0.1281E+00
     -7.222  0.2392E-01  0.2392E-01  0.1306E+00  0.1306E+00
     -7.118  0.2390E-01  0.2390E-01  0.1331E+00  0.1331E+00
     -7.014  0.2669E-01  0.2669E-01  0.1359E+00  0.1359E+00
     -6.911  0.2280E-01  0.2280E-01  0.1382E+00  0.1382E+00
     -6.807  0.1949E-01  0.1949E-01  0.1402E+00  0.1402E+00
     -6.703  0.2684E-01  0.2684E-01  0.1430E+00  0.1430E+00
     -6.600  0.2439E-01  0.2439E-01  0.1455E+00  0.1455E+00
     -6.496  0.2208E-01  0.2208E-01  0.1478E+00  0.1478E+00
     -6.393  0.2484E-01  0.2484E-01  0.1504E+00  0.1504E+00
     -6.289  0.2399E-01  0.2399E-01  0.1529E+00  0.1529E+00
     -6.185  0.2318E-01  0.2318E-01  0.1553E+00  0.1553E+00
     -6.082  0.1829E-01  0.1829E-01  0.1572E+00  0.1572E+00
     -5.978  0.1727E-01  0.1727E-01  0.1590E+00  0.1590E+00
     -5.874  0.2095E-01  0.2095E-01  0.1612E+00  0.1612E+00
     -5.771  0.2602E-01  0.2602E-01  0.1639E+00  0.1639E+00
     -5.667  0.2043E-01  0.2043E-01  0.1660E+00  0.1660E+00
     -5.564  0.2000E-01  0.2000E-01  0.1680E+00  0.1680E+00
     -5.460  0.2253E-01  0.2253E-01  0.1704E+00  0.1704E+00
     -5.356  0.2716E-01  0.2716E-01  0.1732E+00  0.1732E+00
     -5.253  0.2713E-01  0.2713E-01  0.1760E+00  0.1760E+00
     -5.149  0.1619E-01  0.1619E-01  0.1777E+00  0.1777E+00
     -5.045  0.1107E-01  0.1107E-01  0.1788E+00  0.1788E+00
     -4.942  0.1713E-01  0.1713E-01  0.1806E+00  0.1806E+00
     -4.838  0.1930E-01  0.1930E-01  0.1826E+00  0.1826E+00
     -4.735  0.1761E-01  0.1761E-01  0.1844E+00  0.1844E+00
     -4.631  0.1575E-01  0.1575E-01  0.1861E+00  0.1861E+00
     -4.527  0.1653E-01  0.1653E-01  0.1878E+00  0.1878E+00
     -4.424  0.1909E-01  0.1909E-01  0.1898E+00  0.1898E+00
     -4.320  0.2060E-01  0.2060E-01  0.1919E+00  0.1919E+00
     -4.216  0.2548E-01  0.2548E-01  0.1945E+00  0.1945E+00
     -4.113  0.3997E-01  0.3997E-01  0.1987E+00  0.1987E+00
     -4.009  0.3725E-01  0.3725E-01  0.2025E+00  0.2025E+00
     -3.905  0.2712E-01  0.2712E-01  0.2053E+00  0.2053E+00
     -3.802  0.1805E-01  0.1805E-01  0.2072E+00  0.2072E+00
     -3.698  0.1387E-01  0.1387E-01  0.2086E+00  0.2086E+00
     -3.595  0.1483E-01  0.1483E-01  0.2102E+00  0.2102E+00
     -3.491  0.1709E-01  0.1709E-01  0.2120E+00  0.2120E+00
     -3.387  0.2210E-01  0.2210E-01  0.2142E+00  0.2142E+00
     -3.284  0.1646E-01  0.1646E-01  0.2159E+00  0.2159E+00
     -3.180  0.1435E-01  0.1435E-01  0.2174E+00  0.2174E+00
     -3.076  0.1603E-01  0.1603E-01  0.2191E+00  0.2191E+00
     -2.973  0.1926E-01  0.1926E-01  0.2211E+00  0.2211E+00
     -2.869  0.2609E-01  0.2609E-01  0.2238E+00  0.2238E+00
     -2.766  0.1640E-01  0.1640E-01  0.2255E+00  0.2255E+00
     -2.662  0.1343E-01  0.1343E-01  0.2269E+00  0.2269E+00
     -2.558  0.2072E-01  0.2072E-01  0.2290E+00  0.2290E+00
     -2.455  0.2185E-01  0.2185E-01  0.2313E+00  0.2313E+00
     -2.351  0.1875E-01  0.1875E-01  0.2332E+00  0.2332E+00
     -2.247  0.2130E-01  0.2130E-01  0.2354E+00  0.2354E+00
     -2.144  0.1839E-01  0.1839E-01  0.2374E+00  0.2374E+00
     -2.040  0.6531E-02  0.6531E-02  0.2380E+00  0.2380E+00
     -1.937  0.3296E-02  0.3296E-02  0.2384E+00  0.2384E+00
     -1.833  0.7842E-02  0.7842E-02  0.2392E+00  0.2392E+00
     -1.729  0.6233E-02  0.6233E-02  0.2398E+00  0.2398E+00
     -1.626  0.4368E-02  0.4368E-02  0.2403E+00  0.2403E+00
     -1.522  0.7345E-02  0.7345E-02  0.2410E+00  0.2410E+00
     -1.418  0.5927E-02  0.5927E-02  0.2417E+00  0.2417E+00
     -1.315  0.3065E-02  0.3065E-02  0.2420E+00  0.2420E+00
     -1.211  0.9046E-03  0.9046E-03  0.2421E+00  0.2421E+00
     -1.108  0.1002E-03  0.1002E-03  0.2421E+00  0.2421E+00
     -1.004  0.4054E-03  0.4054E-03  0.2421E+00  0.2421E+00
     -0.900  0.2434E-02  0.2434E-02  0.2424E+00  0.2424E+00
     -0.797  0.3941E-02  0.3941E-02  0.2428E+00  0.2428E+00
     -0.693  0.4671E-02  0.4671E-02  0.2433E+00  0.2433E+00
     -0.589  0.9798E-02  0.9798E-02  0.2443E+00  0.2443E+00
     -0.486  0.1057E-01  0.1057E-01  0.2454E+00  0.2454E+00
     -0.382  0.9566E-02  0.9566E-02  0.2464E+00  0.2464E+00
     -0.278  0.1245E-01  0.1245E-01  0.2477E+00  0.2477E+00
     -0.175  0.1170E-01  0.1170E-01  0.2489E+00  0.2489E+00
     -0.071  0.7053E-02  0.7053E-02  0.2496E+00  0.2496E+00
      0.032  0.2820E-02  0.2820E-02  0.2499E+00  0.2499E+00
      0.136  0.9031E-03  0.9031E-03  0.2500E+00  0.2500E+00
      0.240  0.9050E-03  0.9050E-03  0.2501E+00  0.2501E+00
      0.343  0.5075E-02  0.5075E-02  0.2506E+00  0.2506E+00
      0.447  0.9993E-02  0.9993E-02  0.2516E+00  0.2516E+00
      0.551  0.8335E-02  0.8335E-02  0.2525E+00  0.2525E+00
      0.654  0.3688E-02  0.3688E-02  0.2529E+00  0.2529E+00
      0.758  0.5327E-02  0.5327E-02  0.2534E+00  0.2534E+00
      0.861  0.1175E-01  0.1175E-01  0.2547E+00  0.2547E+00
      0.965  0.1320E-01  0.1320E-01  0.2560E+00  0.2560E+00
      1.069  0.1199E-01  0.1199E-01  0.2573E+00  0.2573E+00
      1.172  0.5922E-02  0.5922E-02  0.2579E+00  0.2579E+00
      1.276  0.4464E-02  0.4464E-02  0.2583E+00  0.2583E+00
      1.380  0.5499E-02  0.5499E-02  0.2589E+00  0.2589E+00
      1.483  0.5076E-02  0.5076E-02  0.2594E+00  0.2594E+00
      1.587  0.6177E-02  0.6177E-02  0.2601E+00  0.2601E+00
      1.690  0.9999E-02  0.9999E-02  0.2611E+00  0.2611E+00
      1.794  0.1037E-01  0.1037E-01  0.2622E+00  0.2622E+00
      1.898  0.4543E-02  0.4543E-02  0.2627E+00  0.2627E+00
      2.001  0.2260E-02  0.2260E-02  0.2629E+00  0.2629E+00
      2.105  0.6778E-02  0.6778E-02  0.2636E+00  0.2636E+00
      2.209  0.1565E-01  0.1564E-01  0.2652E+00  0.2652E+00
      2.312  0.1506E-01  0.1506E-01  0.2668E+00  0.2668E+00
      2.416  0.1146E-01  0.1146E-01  0.2680E+00  0.2680E+00
      2.520  0.1137E-01  0.1137E-01  0.2691E+00  0.2691E+00
      2.623  0.1196E-01  0.1196E-01  0.2704E+00  0.2704E+00
      2.727  0.1144E-01  0.1144E-01  0.2716E+00  0.2716E+00
      2.830  0.8203E-02  0.8201E-02  0.2724E+00  0.2724E+00
      2.934  0.7168E-02  0.7165E-02  0.2732E+00  0.2732E+00
      3.038  0.1232E-01  0.1232E-01  0.2744E+00  0.2744E+00
      3.141  0.1330E-01  0.1330E-01  0.2758E+00  0.2758E+00
      3.245  0.1344E-01  0.1344E-01  0.2772E+00  0.2772E+00
      3.349  0.1278E-01  0.1278E-01  0.2785E+00  0.2785E+00
      3.452  0.8205E-02  0.8205E-02  0.2794E+00  0.2794E+00
      3.556  0.1007E-01  0.1006E-01  0.2804E+00  0.2804E+00
      3.659  0.1259E-01  0.1260E-01  0.2817E+00  0.2817E+00
      3.763  0.1047E-01  0.1047E-01  0.2828E+00  0.2828E+00
      3.867  0.1119E-01  0.1118E-01  0.2840E+00  0.2840E+00
      3.970  0.1723E-01  0.1722E-01  0.2858E+00  0.2858E+00
      4.074  0.1710E-01  0.1711E-01  0.2875E+00  0.2875E+00
      4.178  0.1179E-01  0.1179E-01  0.2888E+00  0.2888E+00
      4.281  0.1559E-01  0.1558E-01  0.2904E+00  0.2904E+00
      4.385  0.1830E-01  0.1829E-01  0.2923E+00  0.2923E+00
      4.488  0.1353E-01  0.1353E-01  0.2937E+00  0.2937E+00
      4.592  0.1290E-01  0.1291E-01  0.2950E+00  0.2950E+00
      4.696  0.1258E-01  0.1257E-01  0.2963E+00  0.2963E+00
      4.799  0.1662E-01  0.1661E-01  0.2980E+00  0.2980E+00
      4.903  0.1809E-01  0.1809E-01  0.2999E+00  0.2999E+00
      5.007  0.1947E-01  0.1948E-01  0.3019E+00  0.3019E+00
      5.110  0.1769E-01  0.1769E-01  0.3038E+00  0.3038E+00
      5.214  0.1653E-01  0.1654E-01  0.3055E+00  0.3055E+00
      5.317  0.1407E-01  0.1407E-01  0.3069E+00  0.3069E+00
      5.421  0.1864E-01  0.1863E-01  0.3089E+00  0.3089E+00
      5.525  0.2024E-01  0.2025E-01  0.3110E+00  0.3110E+00
      5.628  0.1470E-01  0.1471E-01  0.3125E+00  0.3125E+00
      5.732  0.1388E-01  0.1388E-01  0.3139E+00  0.3139E+00
      5.836  0.1739E-01  0.1739E-01  0.3157E+00  0.3157E+00
      5.939  0.2182E-01  0.2183E-01  0.3180E+00  0.3180E+00
      6.043  0.2385E-01  0.2384E-01  0.3205E+00  0.3205E+00
      6.147  0.2891E-01  0.2890E-01  0.3235E+00  0.3234E+00
      6.250  0.2736E-01  0.2736E-01  0.3263E+00  0.3263E+00
      6.354  0.2486E-01  0.2487E-01  0.3289E+00  0.3289E+00
      6.457  0.2130E-01  0.2131E-01  0.3311E+00  0.3311E+00
      6.561  0.1578E-01  0.1578E-01  0.3327E+00  0.3327E+00
      6.665  0.2478E-01  0.2477E-01  0.3353E+00  0.3353E+00
      6.768  0.3453E-01  0.3453E-01  0.3389E+00  0.3389E+00
      6.872  0.2952E-01  0.2953E-01  0.3419E+00  0.3419E+00
      6.976  0.2882E-01  0.2882E-01  0.3449E+00  0.3449E+00
      7.079  0.3297E-01  0.3297E-01  0.3483E+00  0.3483E+00
      7.183  0.3312E-01  0.3312E-01  0.3517E+00  0.3517E+00
      7.286  0.2697E-01  0.2696E-01  0.3545E+00  0.3545E+00
      7.390  0.3572E-01  0.3573E-01  0.3582E+00  0.3582E+00
      7.494  0.3742E-01  0.3742E-01  0.3621E+00  0.3621E+00
      7.597  0.2655E-01  0.2654E-01  0.3649E+00  0.3649E+00
      7.701  0.2659E-01  0.2658E-01  0.3676E+00  0.3676E+00
      7.805  0.2709E-01  0.2709E-01  0.3704E+00  0.3704E+00
      7.908  0.1967E-01  0.1968E-01  0.3725E+00  0.3725E+00
      8.012  0.1249E-01  0.1251E-01  0.3738E+00  0.3738E+00
      8.115  0.6227E-02  0.6235E-02  0.3744E+00  0.3744E+00
      8.219  0.1930E-02  0.1934E-02  0.3746E+00  0.3746E+00
      8.323  0.1452E-02  0.1451E-02  0.3748E+00  0.3748E+00
      8.426  0.1716E-02  0.1717E-02  0.3749E+00  0.3749E+00
      8.530  0.5244E-03  0.5257E-03  0.3750E+00  0.3750E+00
      8.634  0.2552E-04  0.2564E-04  0.3750E+00  0.3750E+00
      8.737  0.1734E-06  0.1746E-06  0.3750E+00  0.3750E+00
      8.841  0.1526E-09  0.1541E-09  0.3750E+00  0.3750E+00
      8.944  0.1673E-13  0.1693E-13  0.3750E+00  0.3750E+00
      9.048  0.0000E+00  0.0000E+00  0.3750E+00  0.3750E+00
      9.152  0.0000E+00  0.0000E+00  0.3750E+00  0.3750E+00
      9.255  0.0000E+00  0.0000E+00  0.3750E+00  0.3750E+00
      9.359  0.0000E+00  0.0000E+00  0.3750E+00  0.3750E+00
      9.463  0.0000E+00  0.0000E+00  0.3750E+00  0.3750E+00
      9.566  0.0000E+00  0.0000E+00  0.3750E+00  0.3750E+00
      9.670  0.0000E+00  0.0000E+00  0.3750E+00  0.3750E+00
      9.774  0.0000E+00  0.0000E+00  0.3750E+00  0.3750E+00
