  16  16   0  16
  0.2012733E+02  0.4979000E-09  0.4979000E-09  0.1500000E-08  0.5000000E-15
  1.000000000000000E-004
  CAR 
 SC                                      
      9.83232411    -21.20258214  301     -0.21314782      1.00000000
    -21.203  0.0000E+00  0.0000E+00
    -21.099  0.0000E+00  0.0000E+00
    -20.996  0.0000E+00  0.0000E+00
    -20.892  0.0000E+00  0.0000E+00
    -20.789  0.0000E+00  0.0000E+00
    -20.685  0.0000E+00  0.0000E+00
    -20.582  0.0000E+00  0.0000E+00
    -20.478  0.0000E+00  0.0000E+00
    -20.375  0.8869E-17  0.9175E-18
    -20.272  0.9810E-12  0.1015E-12
    -20.168  0.9238E-08  0.9558E-09
    -20.065  0.1191E-04  0.1233E-05
    -19.961  0.2339E-02  0.2432E-03
    -19.858  0.7876E-01  0.8391E-02
    -19.754  0.5316E+00  0.6339E-01
    -19.651  0.1106E+01  0.1778E+00
    -19.547  0.1213E+01  0.3033E+00
    -19.444  0.1293E+01  0.4371E+00
    -19.340  0.1269E+01  0.5684E+00
    -19.237  0.1075E+01  0.6796E+00
    -19.134  0.1578E+01  0.8428E+00
    -19.030  0.1085E+01  0.9551E+00
    -18.927  0.1005E+01  0.1059E+01
    -18.823  0.1645E+01  0.1229E+01
    -18.720  0.1404E+01  0.1375E+01
    -18.616  0.7427E+00  0.1451E+01
    -18.513  0.1253E+01  0.1581E+01
    -18.409  0.1739E+01  0.1761E+01
    -18.306  0.1420E+01  0.1908E+01
    -18.203  0.8404E+00  0.1995E+01
    -18.099  0.7862E+00  0.2076E+01
    -17.996  0.1868E+01  0.2269E+01
    -17.892  0.1704E+01  0.2446E+01
    -17.789  0.1032E+01  0.2552E+01
    -17.685  0.1053E+01  0.2661E+01
    -17.582  0.6624E+00  0.2730E+01
    -17.478  0.1733E+01  0.2909E+01
    -17.375  0.2035E+01  0.3120E+01
    -17.271  0.1286E+01  0.3253E+01
    -17.168  0.6744E+00  0.3322E+01
    -17.065  0.1067E+01  0.3433E+01
    -16.961  0.1080E+01  0.3545E+01
    -16.858  0.1778E+01  0.3728E+01
    -16.754  0.1938E+01  0.3929E+01
    -16.651  0.1377E+01  0.4071E+01
    -16.547  0.9186E+00  0.4166E+01
    -16.444  0.4622E+00  0.4214E+01
    -16.340  0.1329E+01  0.4352E+01
    -16.237  0.1966E+01  0.4555E+01
    -16.134  0.1731E+01  0.4734E+01
    -16.030  0.1532E+01  0.4893E+01
    -15.927  0.1347E+01  0.5032E+01
    -15.823  0.1900E+01  0.5228E+01
    -15.720  0.1880E+01  0.5423E+01
    -15.616  0.2709E+01  0.5703E+01
    -15.513  0.4289E+01  0.6147E+01
    -15.409  0.3538E+01  0.6513E+01
    -15.306  0.3079E+01  0.6831E+01
    -15.203  0.3052E+01  0.7147E+01
    -15.099  0.3585E+01  0.7518E+01
    -14.996  0.3182E+01  0.7847E+01
    -14.892  0.3087E+01  0.8166E+01
    -14.789  0.3617E+01  0.8541E+01
    -14.685  0.3251E+01  0.8877E+01
    -14.582  0.2330E+01  0.9118E+01
    -14.478  0.1878E+01  0.9312E+01
    -14.375  0.9386E+00  0.9409E+01
    -14.271  0.1613E+01  0.9576E+01
    -14.168  0.3196E+01  0.9907E+01
    -14.065  0.3690E+01  0.1029E+02
    -13.961  0.3099E+01  0.1061E+02
    -13.858  0.1686E+01  0.1078E+02
    -13.754  0.8817E+00  0.1087E+02
    -13.651  0.8673E+00  0.1096E+02
    -13.547  0.2054E+01  0.1118E+02
    -13.444  0.2067E+01  0.1139E+02
    -13.340  0.2240E+01  0.1162E+02
    -13.237  0.1891E+01  0.1182E+02
    -13.134  0.1886E+01  0.1201E+02
    -13.030  0.2527E+01  0.1227E+02
    -12.927  0.1285E+01  0.1241E+02
    -12.823  0.1832E+01  0.1260E+02
    -12.720  0.3050E+01  0.1291E+02
    -12.616  0.2454E+01  0.1317E+02
    -12.513  0.2245E+01  0.1340E+02
    -12.409  0.2816E+01  0.1369E+02
    -12.306  0.2960E+01  0.1400E+02
    -12.202  0.4143E+01  0.1443E+02
    -12.099  0.2943E+01  0.1473E+02
    -11.996  0.2909E+01  0.1503E+02
    -11.892  0.4637E+01  0.1551E+02
    -11.789  0.4628E+01  0.1599E+02
    -11.685  0.3198E+01  0.1632E+02
    -11.582  0.3128E+01  0.1664E+02
    -11.478  0.2430E+01  0.1689E+02
    -11.375  0.1215E+01  0.1702E+02
    -11.271  0.1202E+01  0.1714E+02
    -11.168  0.1291E+01  0.1728E+02
    -11.065  0.1631E+01  0.1745E+02
    -10.961  0.1488E+01  0.1760E+02
    -10.858  0.7541E+00  0.1768E+02
    -10.754  0.1787E+01  0.1786E+02
    -10.651  0.2996E+01  0.1817E+02
    -10.547  0.3444E+01  0.1853E+02
    -10.444  0.2515E+01  0.1879E+02
    -10.340  0.4163E+01  0.1922E+02
    -10.237  0.5313E+01  0.1977E+02
    -10.133  0.2889E+01  0.2007E+02
    -10.030  0.1387E+01  0.2021E+02
     -9.927  0.1251E+01  0.2034E+02
     -9.823  0.2472E+01  0.2060E+02
     -9.720  0.2740E+01  0.2088E+02
     -9.616  0.3632E+01  0.2126E+02
     -9.513  0.3517E+01  0.2162E+02
     -9.409  0.3233E+01  0.2196E+02
     -9.306  0.3825E+01  0.2235E+02
     -9.202  0.2936E+01  0.2265E+02
     -9.099  0.3192E+01  0.2299E+02
     -8.996  0.5347E+01  0.2354E+02
     -8.892  0.4620E+01  0.2402E+02
     -8.789  0.2938E+01  0.2432E+02
     -8.685  0.3094E+01  0.2464E+02
     -8.582  0.4404E+01  0.2510E+02
     -8.478  0.4817E+01  0.2559E+02
     -8.375  0.3368E+01  0.2594E+02
     -8.271  0.2150E+01  0.2617E+02
     -8.168  0.3231E+01  0.2650E+02
     -8.064  0.4085E+01  0.2692E+02
     -7.961  0.4652E+01  0.2740E+02
     -7.858  0.6023E+01  0.2803E+02
     -7.754  0.5554E+01  0.2860E+02
     -7.651  0.3287E+01  0.2894E+02
     -7.547  0.3316E+01  0.2928E+02
     -7.444  0.4760E+01  0.2978E+02
     -7.340  0.5927E+01  0.3039E+02
     -7.237  0.4635E+01  0.3087E+02
     -7.133  0.3556E+01  0.3124E+02
     -7.030  0.5277E+01  0.3178E+02
     -6.927  0.5957E+01  0.3240E+02
     -6.823  0.4499E+01  0.3286E+02
     -6.720  0.5146E+01  0.3340E+02
     -6.616  0.5833E+01  0.3400E+02
     -6.513  0.6172E+01  0.3464E+02
     -6.409  0.7850E+01  0.3545E+02
     -6.306  0.7770E+01  0.3625E+02
     -6.202  0.5907E+01  0.3687E+02
     -6.099  0.4209E+01  0.3730E+02
     -5.995  0.4268E+01  0.3774E+02
     -5.892  0.3580E+01  0.3811E+02
     -5.789  0.4139E+01  0.3854E+02
     -5.685  0.4958E+01  0.3905E+02
     -5.582  0.3872E+01  0.3945E+02
     -5.478  0.2523E+01  0.3972E+02
     -5.375  0.3174E+01  0.4004E+02
     -5.271  0.4123E+01  0.4047E+02
     -5.168  0.4798E+01  0.4097E+02
     -5.064  0.4319E+01  0.4141E+02
     -4.961  0.2771E+01  0.4170E+02
     -4.858  0.2441E+01  0.4195E+02
     -4.754  0.4054E+01  0.4237E+02
     -4.651  0.5180E+01  0.4291E+02
     -4.547  0.3738E+01  0.4329E+02
     -4.444  0.2709E+01  0.4358E+02
     -4.340  0.3430E+01  0.4393E+02
     -4.237  0.4441E+01  0.4439E+02
     -4.133  0.4957E+01  0.4490E+02
     -4.030  0.6465E+01  0.4557E+02
     -3.926  0.5165E+01  0.4611E+02
     -3.823  0.5327E+01  0.4666E+02
     -3.720  0.6696E+01  0.4735E+02
     -3.616  0.7109E+01  0.4808E+02
     -3.513  0.6372E+01  0.4874E+02
     -3.409  0.4938E+01  0.4925E+02
     -3.306  0.2919E+01  0.4956E+02
     -3.202  0.2602E+01  0.4983E+02
     -3.099  0.4320E+01  0.5027E+02
     -2.995  0.4702E+01  0.5076E+02
     -2.892  0.3140E+01  0.5108E+02
     -2.789  0.2162E+01  0.5131E+02
     -2.685  0.1769E+01  0.5149E+02
     -2.582  0.3076E+01  0.5181E+02
     -2.478  0.4325E+01  0.5226E+02
     -2.375  0.3962E+01  0.5267E+02
     -2.271  0.2169E+01  0.5289E+02
     -2.168  0.1935E+01  0.5309E+02
     -2.064  0.1796E+01  0.5328E+02
     -1.961  0.2064E+01  0.5349E+02
     -1.857  0.2263E+01  0.5372E+02
     -1.754  0.2058E+01  0.5394E+02
     -1.651  0.2020E+01  0.5415E+02
     -1.547  0.2564E+01  0.5441E+02
     -1.444  0.2256E+01  0.5464E+02
     -1.340  0.1405E+01  0.5479E+02
     -1.237  0.1492E+01  0.5494E+02
     -1.133  0.9549E+00  0.5504E+02
     -1.030  0.1735E+01  0.5522E+02
     -0.926  0.2475E+01  0.5548E+02
     -0.823  0.1237E+01  0.5561E+02
     -0.720  0.5313E+00  0.5566E+02
     -0.616  0.3923E+00  0.5570E+02
     -0.513  0.9481E+00  0.5580E+02
     -0.409  0.6947E+00  0.5587E+02
     -0.306  0.5652E+00  0.5593E+02
     -0.202  0.7560E+00  0.5601E+02
     -0.099  0.1118E+01  0.5612E+02
      0.005  0.1334E+01  0.5626E+02
      0.108  0.9666E+00  0.5636E+02
      0.212  0.1182E+01  0.5648E+02
      0.315  0.1278E+01  0.5662E+02
      0.418  0.1662E+01  0.5679E+02
      0.522  0.2951E+01  0.5709E+02
      0.625  0.4283E+01  0.5754E+02
      0.729  0.3307E+01  0.5788E+02
      0.832  0.1450E+01  0.5803E+02
      0.936  0.1195E+01  0.5815E+02
      1.039  0.1631E+01  0.5832E+02
      1.143  0.2132E+01  0.5854E+02
      1.246  0.3042E+01  0.5886E+02
      1.349  0.5135E+01  0.5939E+02
      1.453  0.5508E+01  0.5996E+02
      1.556  0.2409E+01  0.6021E+02
      1.660  0.1235E+01  0.6033E+02
      1.763  0.1801E+01  0.6052E+02
      1.867  0.1654E+01  0.6069E+02
      1.970  0.2626E+01  0.6096E+02
      2.074  0.3133E+01  0.6129E+02
      2.177  0.3512E+01  0.6165E+02
      2.280  0.3772E+01  0.6204E+02
      2.384  0.2504E+01  0.6230E+02
      2.487  0.1494E+01  0.6246E+02
      2.591  0.9123E+00  0.6255E+02
      2.694  0.1992E+01  0.6276E+02
      2.798  0.2922E+01  0.6306E+02
      2.901  0.5276E+01  0.6360E+02
      3.005  0.4892E+01  0.6411E+02
      3.108  0.3349E+01  0.6446E+02
      3.212  0.2486E+01  0.6471E+02
      3.315  0.3707E+01  0.6510E+02
      3.418  0.4573E+01  0.6557E+02
      3.522  0.3129E+01  0.6589E+02
      3.625  0.3996E+01  0.6631E+02
      3.729  0.6086E+01  0.6694E+02
      3.832  0.5991E+01  0.6756E+02
      3.936  0.5745E+01  0.6815E+02
      4.039  0.6019E+01  0.6877E+02
      4.143  0.5350E+01  0.6933E+02
      4.246  0.4827E+01  0.6983E+02
      4.349  0.4528E+01  0.7029E+02
      4.453  0.4644E+01  0.7077E+02
      4.556  0.5716E+01  0.7137E+02
      4.660  0.6469E+01  0.7204E+02
      4.763  0.5178E+01  0.7257E+02
      4.867  0.6586E+01  0.7325E+02
      4.970  0.9478E+01  0.7423E+02
      5.074  0.7252E+01  0.7498E+02
      5.177  0.5471E+01  0.7555E+02
      5.281  0.5891E+01  0.7616E+02
      5.384  0.7043E+01  0.7689E+02
      5.487  0.5519E+01  0.7746E+02
      5.591  0.7299E+01  0.7821E+02
      5.694  0.8690E+01  0.7911E+02
      5.798  0.5418E+01  0.7967E+02
      5.901  0.4477E+01  0.8014E+02
      6.005  0.6550E+01  0.8081E+02
      6.108  0.5787E+01  0.8141E+02
      6.212  0.5057E+01  0.8194E+02
      6.315  0.5458E+01  0.8250E+02
      6.418  0.5946E+01  0.8312E+02
      6.522  0.5438E+01  0.8368E+02
      6.625  0.6440E+01  0.8434E+02
      6.729  0.6163E+01  0.8498E+02
      6.832  0.7198E+01  0.8573E+02
      6.936  0.8627E+01  0.8662E+02
      7.039  0.9114E+01  0.8756E+02
      7.143  0.9114E+01  0.8850E+02
      7.246  0.8503E+01  0.8938E+02
      7.350  0.6986E+01  0.9011E+02
      7.453  0.6888E+01  0.9082E+02
      7.556  0.8798E+01  0.9173E+02
      7.660  0.9465E+01  0.9271E+02
      7.763  0.1049E+02  0.9379E+02
      7.867  0.9033E+01  0.9473E+02
      7.970  0.5987E+01  0.9535E+02
      8.074  0.3579E+01  0.9572E+02
      8.177  0.2018E+01  0.9593E+02
      8.281  0.5273E+00  0.9598E+02
      8.384  0.7513E-01  0.9599E+02
      8.487  0.8445E-01  0.9600E+02
      8.591  0.2678E-01  0.9600E+02
      8.694  0.1322E-02  0.9600E+02
      8.798  0.9162E-05  0.9600E+02
      8.901  0.8289E-08  0.9600E+02
      9.005  0.9403E-12  0.9600E+02
      9.108  0.0000E+00  0.9600E+02
      9.212  0.0000E+00  0.9600E+02
      9.315  0.0000E+00  0.9600E+02
      9.419  0.0000E+00  0.9600E+02
      9.522  0.0000E+00  0.9600E+02
      9.625  0.0000E+00  0.9600E+02
      9.729  0.0000E+00  0.9600E+02
      9.832  0.0000E+00  0.9600E+02
