<?xml version="1.0" encoding="ISO-8859-1"?>
<modeling>
 <generator>
  <i name="program" type="string">vasp </i>
  <i name="version" type="string">6.3.2  </i>
  <i name="subversion" type="string">27Jun22 (build Dec 22 2022 13:13:19) complex                          parallel </i>
  <i name="platform" type="string">LinuxIFC </i>
  <i name="date" type="string">2023 09 11 </i>
  <i name="time" type="string">16:02:26 </i>
 </generator>
 <incar>
  <i type="string" name="SYSTEM">SC</i>
  <i type="int" name="ISTART">     0</i>
  <i type="string" name="PREC">Accurate</i>
  <i type="string" name="ALGO">Normal</i>
  <i type="int" name="ICHARG">     2</i>
  <i type="int" name="NELM">    64</i>
  <i name="EDIFF">      0.00000100</i>
  <i name="EDIFFG">     -0.00100000</i>
  <i name="ENCUT">    450.00000000</i>
  <i type="int" name="ISMEAR">     0</i>
  <i name="SIGMA">      0.10000000</i>
  <i type="logical" name="LWAVE"> T  </i>
  <i type="logical" name="LCHARG"> T  </i>
  <i type="string" name="GGA">PE</i>
  <i type="int" name="IVDW">    12</i>
 </incar>
 <primitive_cell>
  <structure name="primitive_cell" >
   <crystal>
    <varray name="basis" >
     <v>       4.31194049       2.48950000       0.00000000 </v>
     <v>      -4.31194049       2.48950000       0.00000000 </v>
     <v>       0.00000000       0.00000000      15.00000000 </v>
    </varray>
    <i name="volume">    322.03727516 </i>
    <varray name="rec_basis" >
     <v>       0.11595707       0.20084354       0.00000000 </v>
     <v>      -0.11595707       0.20084354       0.00000000 </v>
     <v>       0.00000000       0.00000000       0.06666667 </v>
    </varray>
   </crystal>
   <varray name="positions" >
    <v>       0.68285955       0.98574321       0.10120496 </v>
    <v>       0.34582221       0.98571217       0.10120830 </v>
    <v>       0.01425679       0.31713945       0.10120496 </v>
    <v>       0.01428783       0.65417679       0.10120830 </v>
    <v>       0.34572526       0.31709865       0.10006198 </v>
    <v>       0.68290035       0.65427374       0.10006198 </v>
    <v>       0.68063631       0.31936269       0.08791609 </v>
    <v>       0.34739245       0.65260655       0.11379388 </v>
    <v>       0.23572668       0.26419444       0.33449661 </v>
    <v>       0.40241503       0.09754522       0.33449697 </v>
    <v>       0.23574612       0.76425288       0.33462817 </v>
    <v>       0.40242111       0.59757789       0.33457528 </v>
    <v>       0.73577348       0.26422552       0.33447922 </v>
    <v>       0.90243818       0.09756082       0.33433640 </v>
    <v>       0.73580456       0.76427232       0.33449661 </v>
    <v>       0.90245378       0.59758397       0.33449697 </v>
   </varray>
  </structure>
  <varray name="primitive_index" >
   <v type="int" >        1 </v>
   <v type="int" >        2 </v>
   <v type="int" >        3 </v>
   <v type="int" >        4 </v>
   <v type="int" >        5 </v>
   <v type="int" >        6 </v>
   <v type="int" >        7 </v>
   <v type="int" >        8 </v>
   <v type="int" >        9 </v>
   <v type="int" >       10 </v>
   <v type="int" >       11 </v>
   <v type="int" >       12 </v>
   <v type="int" >       13 </v>
   <v type="int" >       14 </v>
   <v type="int" >       15 </v>
   <v type="int" >       16 </v>
  </varray>
 </primitive_cell>
 <kpoints>
  <generation param="Gamma">
   <v type="int" name="divisions">      11       11        1 </v>
   <v name="usershift">      0.00000000       0.00000000       0.00000000 </v>
   <v name="genvec1">      0.09090909      -0.00000000       0.00000000 </v>
   <v name="genvec2">     -0.00000000       0.09090909       0.00000000 </v>
   <v name="genvec3">      0.00000000       0.00000000       1.00000000 </v>
   <v name="shift">      0.00000000       0.00000000       0.00000000 </v>
  </generation>
  <varray name="kpointlist" >
   <v>       0.00000000       0.00000000       0.00000000 </v>
   <v>       0.09090909       0.00000000       0.00000000 </v>
   <v>      -0.09090909       0.09090909       0.00000000 </v>
   <v>       0.18181818      -0.00000000       0.00000000 </v>
   <v>      -0.18181818       0.18181818       0.00000000 </v>
   <v>       0.27272727       0.00000000       0.00000000 </v>
   <v>      -0.27272727       0.27272727       0.00000000 </v>
   <v>       0.36363636       0.00000000       0.00000000 </v>
   <v>      -0.36363636       0.36363636       0.00000000 </v>
   <v>       0.45454545      -0.00000000       0.00000000 </v>
   <v>      -0.45454545       0.45454545       0.00000000 </v>
   <v>       0.09090909       0.09090909       0.00000000 </v>
   <v>      -0.09090909       0.18181818       0.00000000 </v>
   <v>       0.18181818       0.09090909       0.00000000 </v>
   <v>      -0.09090909       0.27272727       0.00000000 </v>
   <v>      -0.27272727       0.18181818       0.00000000 </v>
   <v>       0.27272727       0.09090909       0.00000000 </v>
   <v>      -0.09090909       0.36363636       0.00000000 </v>
   <v>      -0.36363636       0.27272727       0.00000000 </v>
   <v>       0.36363636       0.09090909       0.00000000 </v>
   <v>      -0.09090909       0.45454545       0.00000000 </v>
   <v>      -0.45454545       0.36363636       0.00000000 </v>
   <v>       0.45454545       0.09090909       0.00000000 </v>
   <v>       0.45454545       0.45454545       0.00000000 </v>
   <v>       0.18181818       0.18181818       0.00000000 </v>
   <v>      -0.18181818       0.36363636       0.00000000 </v>
   <v>       0.27272727       0.18181818       0.00000000 </v>
   <v>      -0.18181818       0.45454545       0.00000000 </v>
   <v>      -0.45454545       0.27272727       0.00000000 </v>
   <v>       0.36363636       0.18181818       0.00000000 </v>
   <v>      -0.18181818      -0.45454545       0.00000000 </v>
   <v>       0.45454545       0.36363636       0.00000000 </v>
   <v>       0.27272727       0.27272727       0.00000000 </v>
   <v>      -0.27272727      -0.45454545       0.00000000 </v>
   <v>       0.36363636       0.27272727       0.00000000 </v>
   <v>       0.36363636       0.36363636       0.00000000 </v>
  </varray>
  <varray name="weights" >
   <v>       0.00826446 </v>
   <v>       0.03305785 </v>
   <v>       0.01652893 </v>
   <v>       0.03305785 </v>
   <v>       0.01652893 </v>
   <v>       0.03305785 </v>
   <v>       0.01652893 </v>
   <v>       0.03305785 </v>
   <v>       0.01652893 </v>
   <v>       0.03305785 </v>
   <v>       0.01652893 </v>
   <v>       0.01652893 </v>
   <v>       0.03305785 </v>
   <v>       0.03305785 </v>
   <v>       0.03305785 </v>
   <v>       0.03305785 </v>
   <v>       0.03305785 </v>
   <v>       0.03305785 </v>
   <v>       0.03305785 </v>
   <v>       0.03305785 </v>
   <v>       0.03305785 </v>
   <v>       0.03305785 </v>
   <v>       0.03305785 </v>
   <v>       0.01652893 </v>
   <v>       0.01652893 </v>
   <v>       0.03305785 </v>
   <v>       0.03305785 </v>
   <v>       0.03305785 </v>
   <v>       0.03305785 </v>
   <v>       0.03305785 </v>
   <v>       0.03305785 </v>
   <v>       0.03305785 </v>
   <v>       0.01652893 </v>
   <v>       0.03305785 </v>
   <v>       0.03305785 </v>
   <v>       0.01652893 </v>
  </varray>
 </kpoints>
 <parameters>
  <separator name="general" >
   <i type="string" name="SYSTEM">SC</i>
   <i type="logical" name="LCOMPAT"> F  </i>
  </separator>
  <separator name="electronic" >
   <i type="string" name="PREC">accura</i>
   <i name="ENMAX">    450.00000000</i>
   <i name="ENAUG">    644.87300000</i>
   <i name="EDIFF">      0.00000100</i>
   <i type="int" name="IALGO">    38</i>
   <i type="int" name="IWAVPR">    10</i>
   <i type="int" name="NBANDS">    48</i>
   <i type="int" name="NBANDSLOW">    -1</i>
   <i type="int" name="NBANDSHIGH">    -1</i>
   <i name="NELECT">     56.00000000</i>
   <i type="int" name="TURBO">     0</i>
   <i type="int" name="IRESTART">     0</i>
   <i type="int" name="NREBOOT">     0</i>
   <i type="int" name="NMIN">     0</i>
   <i name="EREF">      0.00000000</i>
   <separator name="electronic smearing" >
    <i type="int" name="ISMEAR">     0</i>
    <i name="SIGMA">      0.10000000</i>
    <i name="KSPACING">      0.50000000</i>
    <i type="logical" name="KGAMMA"> T  </i>
    <i type="logical" name="KBLOWUP"> T  </i>
   </separator>
   <separator name="electronic projectors" >
    <i type="logical" name="LREAL"> F  </i>
    <v name="ROPT">      0.00000000      0.00000000</v>
    <i type="int" name="LMAXPAW">  -100</i>
    <i type="int" name="LMAXMIX">     2</i>
    <i type="logical" name="NLSPLINE"> F  </i>
   </separator>
   <separator name="electronic startup" >
    <i type="int" name="ISTART">     0</i>
    <i type="int" name="ICHARG">     2</i>
    <i type="int" name="INIWAV">     1</i>
   </separator>
   <separator name="electronic spin" >
    <i type="int" name="ISPIN">     1</i>
    <i type="logical" name="LNONCOLLINEAR"> F  </i>
    <v name="MAGMOM">      1.00000000      1.00000000      1.00000000      1.00000000      1.00000000      1.00000000      1.00000000      1.00000000      1.00000000      1.00000000      1.00000000      1.00000000      1.00000000      1.00000000      1.00000000      1.00000000</v>
    <i name="NUPDOWN">     -1.00000000</i>
    <i type="logical" name="LSORBIT"> F  </i>
    <v name="SAXIS">      0.00000000      0.00000000      1.00000000</v>
    <i type="logical" name="LSPIRAL"> F  </i>
    <v name="QSPIRAL">      0.00000000      0.00000000      0.00000000</v>
    <i type="logical" name="LZEROZ"> F  </i>
   </separator>
   <separator name="electronic exchange-correlation" >
    <i type="logical" name="LASPH"> F  </i>
    <i type="logical" name="LMETAGGA"> F  </i>
   </separator>
   <separator name="electronic convergence" >
    <i type="int" name="NELM">    64</i>
    <i type="int" name="NELMDL">    -5</i>
    <i type="int" name="NELMIN">     2</i>
    <i name="ENINI">    450.00000000</i>
    <separator name="electronic convergence detail" >
     <i type="logical" name="LDIAG"> T  </i>
     <i type="logical" name="LSUBROT"> F  </i>
     <i name="WEIMIN">      0.00000000</i>
     <i name="EBREAK">      0.00000001</i>
     <i name="DEPER">      0.30000000</i>
     <i type="int" name="NRMM">     4</i>
     <i name="TIME">      0.40000000</i>
    </separator>
   </separator>
   <separator name="electronic mixer" >
    <i name="AMIX">      0.40000000</i>
    <i name="BMIX">      1.00000000</i>
    <i name="AMIN">      0.10000000</i>
    <i name="AMIX_MAG">      1.60000000</i>
    <i name="BMIX_MAG">      1.00000000</i>
    <separator name="electronic mixer details" >
     <i type="int" name="IMIX">     4</i>
     <i type="logical" name="MIXFIRST"> F  </i>
     <i type="int" name="MAXMIX">   -45</i>
     <i name="WC">    100.00000000</i>
     <i type="int" name="INIMIX">     1</i>
     <i type="int" name="MIXPRE">     1</i>
     <i type="int" name="MREMOVE">     5</i>
    </separator>
   </separator>
   <separator name="electronic dipolcorrection" >
    <i type="logical" name="LDIPOL"> F  </i>
    <i type="logical" name="LMONO"> F  </i>
    <i type="int" name="IDIPOL">     0</i>
    <i name="EPSILON">      1.00000000</i>
    <v name="DIPOL">   -100.00000000   -100.00000000   -100.00000000</v>
    <i name="EFIELD">      0.00000000</i>
   </separator>
  </separator>
  <separator name="grids" >
   <i type="int" name="NGX">    36</i>
   <i type="int" name="NGY">    36</i>
   <i type="int" name="NGZ">   108</i>
   <i type="int" name="NGXF">    72</i>
   <i type="int" name="NGYF">    72</i>
   <i type="int" name="NGZF">   216</i>
   <i type="logical" name="ADDGRID"> F  </i>
  </separator>
  <separator name="ionic" >
   <i type="int" name="NSW">     0</i>
   <i type="int" name="IBRION">    -1</i>
   <i type="int" name="MDALGO">     0</i>
   <i type="int" name="ISIF">     2</i>
   <i name="PSTRESS">      0.00000000</i>
   <i name="EDIFFG">     -0.00100000</i>
   <i type="int" name="NFREE">     0</i>
   <i name="POTIM">      0.50000000</i>
   <i name="SMASS">     -3.00000000</i>
   <i name="SCALEE">      1.00000000</i>
  </separator>
  <separator name="ionic md" >
   <i name="TEBEG">      0.00010000</i>
   <i name="TEEND">      0.00010000</i>
   <i type="int" name="NBLOCK">     1</i>
   <i type="int" name="KBLOCK">     1</i>
   <i type="int" name="NPACO">   256</i>
   <i name="APACO">     10.00000000</i>
  </separator>
  <separator name="symmetry" >
   <i type="int" name="ISYM">     2</i>
   <i name="SYMPREC">      0.00001000</i>
  </separator>
  <separator name="dos" >
   <i type="int" name="LORBIT">     0</i>
   <v name="RWIGS">     -1.00000000     -1.00000000</v>
   <i type="int" name="NEDOS">   301</i>
   <i name="EMIN">     10.00000000</i>
   <i name="EMAX">    -10.00000000</i>
   <i name="EFERMI">      0.00000000</i>
  </separator>
  <separator name="writing" >
   <i type="int" name="NWRITE">     2</i>
   <i type="logical" name="LWAVE"> T  </i>
   <i type="logical" name="LDOWNSAMPLE"> F  </i>
   <i type="logical" name="LCHARG"> T  </i>
   <i type="logical" name="LPARD"> F  </i>
   <i type="logical" name="LVTOT"> F  </i>
   <i type="logical" name="LVHAR"> F  </i>
   <i type="logical" name="LELF"> F  </i>
   <i type="logical" name="LOPTICS"> F  </i>
   <v name="STM">      0.00000000      0.00000000      0.00000000      0.00000000      0.00000000      0.00000000      0.00000000</v>
  </separator>
  <separator name="performance" >
   <i type="int" name="NPAR">    48</i>
   <i type="int" name="NSIM">     4</i>
   <i type="int" name="NBLK">    -1</i>
   <i type="logical" name="LPLANE"> T  </i>
   <i type="logical" name="LSCALAPACK"> T  </i>
   <i type="logical" name="LSCAAWARE"> F  </i>
   <i type="logical" name="LSCALU"> F  </i>
   <i type="logical" name="LASYNC"> F  </i>
   <i type="logical" name="LORBITALREAL"> F  </i>
  </separator>
  <separator name="miscellaneous" >
   <i type="int" name="IDIOT">     3</i>
   <i type="int" name="PHON_NSTRUCT">    -1</i>
   <i type="logical" name="LMUSIC"> F  </i>
   <v name="POMASS">     10.81100000     12.01100000</v>
   <v name="DARWINR">      0.00000000      0.00000000</v>
   <v name="DARWINV">      1.00000000      1.00000000</v>
   <i type="logical" name="LCORR"> T  </i>
  </separator>
  <i type="logical" name="GGA_COMPAT"> T  </i>
  <i type="logical" name="LBERRY"> F  </i>
  <i type="int" name="ICORELEVEL">     0</i>
  <i type="logical" name="LDAU"> F  </i>
  <i type="int" name="I_CONSTRAINED_M">     0</i>
  <separator name="electronic exchange-correlation" >
   <i type="string" name="GGA">PE</i>
   <i type="int" name="VOSKOWN">     0</i>
   <i type="logical" name="LHFCALC"> F  </i>
   <i type="string" name="PRECFOCK"></i>
   <i type="logical" name="LSYMGRAD"> F  </i>
   <i type="logical" name="LHFONE"> F  </i>
   <i type="logical" name="LRHFCALC"> F  </i>
   <i type="logical" name="LTHOMAS"> F  </i>
   <i type="logical" name="LMODELHF"> F  </i>
   <i type="logical" name="LFOCKACE"> F  </i>
   <i name="ENCUT4O">     -1.00000000</i>
   <i type="int" name="EXXOEP">     0</i>
   <i type="int" name="FOURORBIT">     0</i>
   <i name="AEXX">      0.00000000</i>
   <i name="HFALPHA">      0.00000000</i>
   <i name="MCALPHA">      0.00000000</i>
   <i name="ALDAX">      1.00000000</i>
   <i name="AGGAX">      1.00000000</i>
   <i name="ALDAC">      1.00000000</i>
   <i name="AGGAC">      1.00000000</i>
   <i type="int" name="NKREDX">     1</i>
   <i type="int" name="NKREDY">     1</i>
   <i type="int" name="NKREDZ">     1</i>
   <i type="logical" name="SHIFTRED"> F  </i>
   <i type="logical" name="ODDONLY"> F  </i>
   <i type="logical" name="EVENONLY"> F  </i>
   <i type="int" name="LMAXFOCK">     0</i>
   <i type="int" name="NMAXFOCKAE">     0</i>
   <i type="logical" name="LFOCKAEDFT"> F  </i>
   <i name="HFSCREEN">      0.00000000</i>
   <i name="HFSCREENC">      0.00000000</i>
   <i type="int" name="NBANDSGWLOW">     0</i>
  </separator>
  <separator name="vdW DFT" >
   <i type="logical" name="LUSE_VDW"> F  </i>
   <i name="Zab_VDW">     -0.84910000</i>
   <i name="PARAM1">      0.12340000</i>
   <i name="PARAM2">      1.00000000</i>
   <i name="PARAM3">      0.00000000</i>
  </separator>
  <separator name="model GW" >
   <i type="int" name="MODEL_GW">     0</i>
   <i name="MODEL_EPS0">     12.07639782</i>
   <i name="MODEL_ALPHA">      1.00000000</i>
  </separator>
  <separator name="linear response parameters" >
   <i type="logical" name="LEPSILON"> F  </i>
   <i type="logical" name="LRPA"> F  </i>
   <i type="logical" name="LNABLA"> F  </i>
   <i type="logical" name="LVEL"> F  </i>
   <i name="CSHIFT">      0.10000000</i>
   <i name="OMEGAMAX">     -1.00000000</i>
   <i name="DEG_THRESHOLD">      0.00200000</i>
   <i name="RTIME">     -0.10000000</i>
   <i name="WPLASMAI">      0.00000000</i>
   <v name="DFIELD">      0.00000000      0.00000000      0.00000000</v>
   <v name="WPLASMA">      0.00000000      0.00000000      0.00000000      0.00000000      0.00000000      0.00000000      0.00000000      0.00000000      0.00000000</v>
  </separator>
  <separator name="orbital magnetization" >
   <i type="logical" name="NUCIND"> F  </i>
   <v name="MAGPOS">      0.00000000      0.00000000      0.00000000</v>
   <i type="logical" name="LNICSALL"> T  </i>
   <i type="logical" name="ORBITALMAG"> F  </i>
   <i type="logical" name="LMAGBLOCH"> F  </i>
   <i type="logical" name="LCHIMAG"> F  </i>
   <i type="logical" name="LGAUGE"> T  </i>
   <i type="int" name="MAGATOM">     0</i>
   <v name="MAGDIPOL">      0.00000000      0.00000000      0.00000000</v>
   <v name="AVECCONST">      0.00000000      0.00000000      0.00000000</v>
  </separator>
  <separator name="response functions" >
   <i type="logical" name="LFINITE_TEMPERATURE"> F  </i>
   <i type="logical" name="LADDER"> F  </i>
   <i type="logical" name="LRPAFORCE"> F  </i>
   <i type="logical" name="LFXC"> F  </i>
   <i type="logical" name="LHARTREE"> T  </i>
   <i type="int" name="IBSE">     0</i>
   <v type="int" name="KPOINT">    -1     0     0     0</v>
   <i type="logical" name="LTCTC"> F  </i>
   <i type="logical" name="LTCTE"> F  </i>
   <i type="logical" name="LTETE"> F  </i>
   <i type="logical" name="LTRIPLET"> F  </i>
   <i type="logical" name="LFXCEPS"> F  </i>
   <i type="logical" name="LFXHEG"> F  </i>
   <i type="int" name="NATURALO">     2</i>
   <i type="logical" name="LHOLEGF"> F  </i>
   <i type="logical" name="L2ORDER"> F  </i>
   <i type="logical" name="LDMP1"> F  </i>
   <i type="logical" name="LMP2LT"> F  </i>
   <i type="logical" name="LSMP2LT"> F  </i>
   <i type="logical" name="LGWLF"> F  </i>
   <i name="ENCUTGW">     -2.00000000</i>
   <i name="ENCUTGWSOFT">     -2.00000000</i>
   <i name="ENCUTLF">     -1.00000000</i>
   <i type="logical" name="LESF_SPLINES"> F  </i>
   <i type="int" name="LMAXMP2">    -1</i>
   <i name="SCISSOR">      0.00000000</i>
   <i type="int" name="NOMEGA">     0</i>
   <i type="int" name="NOMEGAR">     0</i>
   <i type="int" name="NBANDSGW">    -1</i>
   <i type="int" name="NBANDSO">    -1</i>
   <i type="int" name="NBANDSV">    -1</i>
   <i type="int" name="NELMGW">     1</i>
   <i type="int" name="NELMHF">     1</i>
   <i type="int" name="DIM">     3</i>
   <i type="int" name="IESPILON">     4</i>
   <i type="int" name="ANTIRES">     0</i>
   <i name="OMEGAMAX">    -30.00000000</i>
   <i name="OMEGAMIN">    -30.00000000</i>
   <i name="OMEGATL">   -200.00000000</i>
   <i type="int" name="OMEGAGRID">     0</i>
   <i name="CSHIFT">     -0.10000000</i>
   <i type="logical" name="LSELFENERGY"> F  </i>
   <i type="logical" name="LSPECTRAL"> F  </i>
   <i type="logical" name="LSPECTRALGW"> F  </i>
   <i type="logical" name="LSINGLES"> F  </i>
   <i type="logical" name="LFERMIGW"> F  </i>
   <i type="logical" name="ODDONLYGW"> F  </i>
   <i type="logical" name="EVENONLYGW"> F  </i>
   <i type="int" name="NKREDLFX">     1</i>
   <i type="int" name="NKREDLFY">     1</i>
   <i type="int" name="NKREDLFZ">     1</i>
   <i type="int" name="MAXMEM">  2800</i>
   <i type="int" name="TELESCOPE">     0</i>
   <i type="int" name="NTAUPAR">    -1</i>
   <i type="int" name="NOMEGAPAR">    -1</i>
   <i name="DAMP_NEWTON">      0.80000001</i>
   <i name="LAMBDA">      1.00000000</i>
  </separator>
  <separator name="External order field" >
   <i name="OFIELD_KAPPA">      0.00000000</i>
   <v name="OFIELD_K">      0.00000000      0.00000000      0.00000000</v>
   <i name="OFIELD_Q6_NEAR">      0.00000000</i>
   <i name="OFIELD_Q6_FAR">      0.00000000</i>
   <i name="OFIELD_A">      0.00000000</i>
  </separator>
  <separator name="optional k-points parameters" >
   <i type="int" name="KPOINTS_OPT_MODE">     1</i>
   <i type="logical" name="LKPOINTS_OPT"> F  </i>
  </separator>
  <separator name="solvation model" >
   <i type="logical" name="LSOL"> F  </i>
  </separator>
 </parameters>
 <atominfo>
  <atoms>      16 </atoms>
  <types>       2 </types>
  <array name="atoms" >
   <dimension dim="1">ion</dimension>
   <field type="string">element</field>
   <field type="int">atomtype</field>
   <set>
    <rc><c>B </c><c>   1</c></rc>
    <rc><c>B </c><c>   1</c></rc>
    <rc><c>B </c><c>   1</c></rc>
    <rc><c>B </c><c>   1</c></rc>
    <rc><c>B </c><c>   1</c></rc>
    <rc><c>B </c><c>   1</c></rc>
    <rc><c>B </c><c>   1</c></rc>
    <rc><c>B </c><c>   1</c></rc>
    <rc><c>C </c><c>   2</c></rc>
    <rc><c>C </c><c>   2</c></rc>
    <rc><c>C </c><c>   2</c></rc>
    <rc><c>C </c><c>   2</c></rc>
    <rc><c>C </c><c>   2</c></rc>
    <rc><c>C </c><c>   2</c></rc>
    <rc><c>C </c><c>   2</c></rc>
    <rc><c>C </c><c>   2</c></rc>
   </set>
  </array>
  <array name="atomtypes" >
   <dimension dim="1">type</dimension>
   <field type="int">atomspertype</field>
   <field type="string">element</field>
   <field>mass</field>
   <field>valence</field>
   <field type="string">pseudopotential</field>
   <set>
    <rc><c>   8</c><c>B </c><c>     10.81100000</c><c>      3.00000000</c><c>  PAW_PBE B 06Sep2000                   </c></rc>
    <rc><c>   8</c><c>C </c><c>     12.01100000</c><c>      4.00000000</c><c>  PAW_PBE C 08Apr2002                   </c></rc>
   </set>
  </array>
 </atominfo>
 <structure name="initialpos" >
  <crystal>
   <varray name="basis" >
    <v>       4.31194049       2.48950000       0.00000000 </v>
    <v>      -4.31194049       2.48950000       0.00000000 </v>
    <v>       0.00000000       0.00000000      15.00000000 </v>
   </varray>
   <i name="volume">    322.03727516 </i>
   <varray name="rec_basis" >
    <v>       0.11595707       0.20084354       0.00000000 </v>
    <v>      -0.11595707       0.20084354       0.00000000 </v>
    <v>       0.00000000       0.00000000       0.06666667 </v>
   </varray>
  </crystal>
  <varray name="positions" >
   <v>       0.68285955       0.98574321       0.10120496 </v>
   <v>       0.34582221       0.98571217       0.10120830 </v>
   <v>       0.01425679       0.31713945       0.10120496 </v>
   <v>       0.01428783       0.65417679       0.10120830 </v>
   <v>       0.34572526       0.31709865       0.10006198 </v>
   <v>       0.68290035       0.65427374       0.10006198 </v>
   <v>       0.68063631       0.31936269       0.08791609 </v>
   <v>       0.34739245       0.65260655       0.11379388 </v>
   <v>       0.23572668       0.26419444       0.33449661 </v>
   <v>       0.40241503       0.09754522       0.33449697 </v>
   <v>       0.23574612       0.76425288       0.33462817 </v>
   <v>       0.40242111       0.59757789       0.33457528 </v>
   <v>       0.73577348       0.26422552       0.33447922 </v>
   <v>       0.90243818       0.09756082       0.33433640 </v>
   <v>       0.73580456       0.76427232       0.33449661 </v>
   <v>       0.90245378       0.59758397       0.33449697 </v>
  </varray>
 </structure>
 <calculation>
  <scstep>
   <time name="dav">    1.37    1.40</time>
   <time name="total">    1.39    1.42</time>
   <energy>
    <i name="alphaZ">     60.47074313 </i>
    <i name="ewald">   4479.77314580 </i>
    <i name="hartreedc">  -5894.49328343 </i>
    <i name="XCdc">    161.29408100 </i>
    <i name="pawpsdc">   1216.17529508 </i>
    <i name="pawaedc">  -1213.88798198 </i>
    <i name="eentropy">     -0.01870972 </i>
    <i name="bandstr">   -370.44294398 </i>
    <i name="atom">   1746.50554237 </i>
    <i name="e_fr_energy">    185.37588828 </i>
    <i name="e_wo_entrp">    185.39459799 </i>
    <i name="e_0_energy">    185.38524314 </i>
   </energy>
  </scstep>
  <scstep>
   <time name="dav">    2.17    2.21</time>
   <time name="total">    2.17    2.21</time>
   <energy>
    <i name="e_fr_energy">   -124.18144797 </i>
    <i name="e_wo_entrp">   -124.17719217 </i>
    <i name="e_0_energy">   -124.17932007 </i>
   </energy>
  </scstep>
  <scstep>
   <time name="dav">    2.65    2.67</time>
   <time name="total">    2.65    2.67</time>
   <energy>
    <i name="e_fr_energy">   -133.76814541 </i>
    <i name="e_wo_entrp">   -133.76359144 </i>
    <i name="e_0_energy">   -133.76586843 </i>
   </energy>
  </scstep>
  <scstep>
   <time name="dav">    2.10    2.12</time>
   <time name="total">    2.10    2.13</time>
   <energy>
    <i name="e_fr_energy">   -133.78569830 </i>
    <i name="e_wo_entrp">   -133.78108166 </i>
    <i name="e_0_energy">   -133.78338998 </i>
   </energy>
  </scstep>
  <scstep>
   <time name="dav">    2.54    2.57</time>
   <time name="total">    2.62    2.66</time>
   <energy>
    <i name="e_fr_energy">   -133.78575353 </i>
    <i name="e_wo_entrp">   -133.78113687 </i>
    <i name="e_0_energy">   -133.78344520 </i>
   </energy>
  </scstep>
  <scstep>
   <time name="dav">    2.42    2.44</time>
   <time name="total">    2.52    2.55</time>
   <energy>
    <i name="e_fr_energy">   -126.86260235 </i>
    <i name="e_wo_entrp">   -126.86113427 </i>
    <i name="e_0_energy">   -126.86186831 </i>
   </energy>
  </scstep>
  <scstep>
   <time name="dav">    2.94    2.97</time>
   <time name="total">    3.04    3.08</time>
   <energy>
    <i name="e_fr_energy">   -124.14933562 </i>
    <i name="e_wo_entrp">   -124.14644935 </i>
    <i name="e_0_energy">   -124.14789249 </i>
   </energy>
  </scstep>
  <scstep>
   <time name="dav">    2.45    2.47</time>
   <time name="total">    2.54    2.58</time>
   <energy>
    <i name="e_fr_energy">   -124.08076284 </i>
    <i name="e_wo_entrp">   -124.07833093 </i>
    <i name="e_0_energy">   -124.07954689 </i>
   </energy>
  </scstep>
  <scstep>
   <time name="dav">    2.72    2.75</time>
   <time name="total">    2.82    2.85</time>
   <energy>
    <i name="e_fr_energy">   -124.06266308 </i>
    <i name="e_wo_entrp">   -124.05968848 </i>
    <i name="e_0_energy">   -124.06117578 </i>
   </energy>
  </scstep>
  <scstep>
   <time name="dav">    2.69    2.71</time>
   <time name="total">    2.78    2.80</time>
   <energy>
    <i name="e_fr_energy">   -124.04968941 </i>
    <i name="e_wo_entrp">   -124.04566447 </i>
    <i name="e_0_energy">   -124.04767694 </i>
   </energy>
  </scstep>
  <scstep>
   <time name="dav">    2.15    2.17</time>
   <time name="total">    2.24    2.27</time>
   <energy>
    <i name="e_fr_energy">   -124.04634977 </i>
    <i name="e_wo_entrp">   -124.04202273 </i>
    <i name="e_0_energy">   -124.04418625 </i>
   </energy>
  </scstep>
  <scstep>
   <time name="dav">    1.80    1.81</time>
   <time name="total">    1.89    1.91</time>
   <energy>
    <i name="e_fr_energy">   -124.04706329 </i>
    <i name="e_wo_entrp">   -124.04337498 </i>
    <i name="e_0_energy">   -124.04521914 </i>
   </energy>
  </scstep>
  <scstep>
   <time name="dav">    2.44    2.46</time>
   <time name="total">    2.54    2.57</time>
   <energy>
    <i name="e_fr_energy">   -124.04762349 </i>
    <i name="e_wo_entrp">   -124.04372572 </i>
    <i name="e_0_energy">   -124.04567460 </i>
   </energy>
  </scstep>
  <scstep>
   <time name="dav">    2.31    2.33</time>
   <time name="total">    2.41    2.43</time>
   <energy>
    <i name="e_fr_energy">   -124.05062956 </i>
    <i name="e_wo_entrp">   -124.04676558 </i>
    <i name="e_0_energy">   -124.04869757 </i>
   </energy>
  </scstep>
  <scstep>
   <time name="dav">    2.18    2.20</time>
   <time name="total">    2.27    2.29</time>
   <energy>
    <i name="e_fr_energy">   -124.05176133 </i>
    <i name="e_wo_entrp">   -124.04787970 </i>
    <i name="e_0_energy">   -124.04982051 </i>
   </energy>
  </scstep>
  <scstep>
   <time name="dav">    2.37    2.39</time>
   <time name="total">    2.46    2.48</time>
   <energy>
    <i name="e_fr_energy">   -124.05219016 </i>
    <i name="e_wo_entrp">   -124.04829586 </i>
    <i name="e_0_energy">   -124.05024301 </i>
   </energy>
  </scstep>
  <scstep>
   <time name="dav">    2.19    2.21</time>
   <time name="total">    2.28    2.31</time>
   <energy>
    <i name="e_fr_energy">   -124.05227459 </i>
    <i name="e_wo_entrp">   -124.04839380 </i>
    <i name="e_0_energy">   -124.05033420 </i>
   </energy>
  </scstep>
  <scstep>
   <time name="dav">    2.45    2.46</time>
   <time name="total">    2.54    2.56</time>
   <energy>
    <i name="e_fr_energy">   -124.05227936 </i>
    <i name="e_wo_entrp">   -124.04839094 </i>
    <i name="e_0_energy">   -124.05033515 </i>
   </energy>
  </scstep>
  <scstep>
   <time name="dav">    2.33    2.34</time>
   <time name="total">    2.42    2.44</time>
   <energy>
    <i name="e_fr_energy">   -124.05228042 </i>
    <i name="e_wo_entrp">   -124.04839188 </i>
    <i name="e_0_energy">   -124.05033615 </i>
   </energy>
  </scstep>
  <scstep>
   <time name="dav">    2.26    2.27</time>
   <time name="total">    2.27    2.29</time>
   <energy>
    <i name="alphaZ">     60.47074313 </i>
    <i name="ewald">   4479.77314580 </i>
    <i name="hartreedc">  -6089.57483063 </i>
    <i name="XCdc">    168.41963046 </i>
    <i name="pawpsdc">   5765.86884157 </i>
    <i name="pawaedc">  -5765.23229674 </i>
    <i name="eentropy">     -0.00388925 </i>
    <i name="bandstr">   -490.27916758 </i>
    <i name="atom">   1746.50554237 </i>
    <i name="e_fr_energy">   -124.05228087 </i>
    <i name="e_wo_entrp">   -124.04839163 </i>
    <i name="e_0_energy">   -124.05033625 </i>
   </energy>
  </scstep>
  <structure>
   <crystal>
    <varray name="basis" >
     <v>       4.31194049       2.48950000       0.00000000 </v>
     <v>      -4.31194049       2.48950000       0.00000000 </v>
     <v>       0.00000000       0.00000000      15.00000000 </v>
    </varray>
    <i name="volume">    322.03727516 </i>
    <varray name="rec_basis" >
     <v>       0.11595707       0.20084354       0.00000000 </v>
     <v>      -0.11595707       0.20084354       0.00000000 </v>
     <v>       0.00000000       0.00000000       0.06666667 </v>
    </varray>
   </crystal>
   <varray name="positions" >
    <v>       0.68285955       0.98574321       0.10120496 </v>
    <v>       0.34582221       0.98571217       0.10120830 </v>
    <v>       0.01425679       0.31713945       0.10120496 </v>
    <v>       0.01428783       0.65417679       0.10120830 </v>
    <v>       0.34572526       0.31709865       0.10006198 </v>
    <v>       0.68290035       0.65427374       0.10006198 </v>
    <v>       0.68063631       0.31936269       0.08791609 </v>
    <v>       0.34739245       0.65260655       0.11379388 </v>
    <v>       0.23572668       0.26419444       0.33449661 </v>
    <v>       0.40241503       0.09754522       0.33449697 </v>
    <v>       0.23574612       0.76425288       0.33462817 </v>
    <v>       0.40242111       0.59757789       0.33457528 </v>
    <v>       0.73577348       0.26422552       0.33447922 </v>
    <v>       0.90243818       0.09756082       0.33433640 </v>
    <v>       0.73580456       0.76427232       0.33449661 </v>
    <v>       0.90245378       0.59758397       0.33449697 </v>
   </varray>
  </structure>
  <varray name="forces" >
   <v>       0.01118617      -0.00855213       0.00017348 </v>
   <v>       0.00957772       0.01562680      -0.00097527 </v>
   <v>       0.01118617       0.00855213       0.00017348 </v>
   <v>       0.00957772      -0.01562680      -0.00097527 </v>
   <v>      -0.00843168       0.00096567      -0.00091251 </v>
   <v>      -0.00843168      -0.00096567      -0.00091251 </v>
   <v>       0.00703232      -0.00000000      -0.01926132 </v>
   <v>      -0.00926903      -0.00000000       0.00288048 </v>
   <v>       0.00249517       0.01136844      -0.00106343 </v>
   <v>      -0.01139035       0.01471776       0.00622989 </v>
   <v>       0.00512044      -0.00000000      -0.01088372 </v>
   <v>       0.00799910      -0.00000000       0.01265227 </v>
   <v>      -0.00921502      -0.00000000      -0.00842269 </v>
   <v>      -0.00854185      -0.00000000       0.01613066 </v>
   <v>       0.00249517      -0.01136844      -0.00106343 </v>
   <v>      -0.01139035      -0.01471776       0.00622989 </v>
  </varray>
  <varray name="stress" >
   <v>      -1.72576035       0.00000000      -0.40161284 </v>
   <v>       0.00000000      -1.80542540       0.00000000 </v>
   <v>      -0.40161283       0.00000000      -1.21357611 </v>
  </varray>
  <energy>
   <i name="e_fr_energy">   -125.91809458 </i>
   <i name="e_wo_entrp">   -125.91420534 </i>
   <i name="e_0_energy">   -125.91614996 </i>
  </energy>
  <time name="totalsc">   51.01   51.59</time>
  <eigenvalues>
   <array>
    <dimension dim="1">band</dimension>
    <dimension dim="2">kpoint</dimension>
    <dimension dim="3">spin</dimension>
    <field>eigene</field>
    <field>occ</field>
    <set>
     <set comment="spin 1">
      <set comment="kpoint 1">
       <r>  -19.7919    1.0000 </r>
       <r>  -15.8734    1.0000 </r>
       <r>  -14.6795    1.0000 </r>
       <r>  -14.6768    1.0000 </r>
       <r>  -14.6743    1.0000 </r>
       <r>  -13.5526    1.0000 </r>
       <r>  -13.5513    1.0000 </r>
       <r>  -13.5503    1.0000 </r>
       <r>  -11.6826    1.0000 </r>
       <r>  -11.4976    1.0000 </r>
       <r>  -11.4969    1.0000 </r>
       <r>   -9.2983    1.0000 </r>
       <r>   -9.2967    1.0000 </r>
       <r>   -8.0961    1.0000 </r>
       <r>   -7.3027    1.0000 </r>
       <r>   -6.8310    1.0000 </r>
       <r>   -6.8309    1.0000 </r>
       <r>   -6.8284    1.0000 </r>
       <r>   -6.5369    1.0000 </r>
       <r>   -3.5418    1.0000 </r>
       <r>   -3.5411    1.0000 </r>
       <r>   -2.8721    1.0000 </r>
       <r>   -2.8443    1.0000 </r>
       <r>   -2.8395    1.0000 </r>
       <r>   -1.5086    1.0000 </r>
       <r>   -1.5074    1.0000 </r>
       <r>   -0.3864    0.9929 </r>
       <r>   -0.3159    0.9268 </r>
       <r>   -0.1823    0.3315 </r>
       <r>    0.8066    0.0000 </r>
       <r>    0.9011    0.0000 </r>
       <r>    1.1340    0.0000 </r>
       <r>    1.1374    0.0000 </r>
       <r>    1.3138    0.0000 </r>
       <r>    1.7216    0.0000 </r>
       <r>    1.7976    0.0000 </r>
       <r>    2.9899    0.0000 </r>
       <r>    3.5971    0.0000 </r>
       <r>    4.5019    0.0000 </r>
       <r>    4.8098    0.0000 </r>
       <r>    6.5905    0.0000 </r>
       <r>    6.5915    0.0000 </r>
       <r>    6.5958    0.0000 </r>
       <r>    7.0571    0.0000 </r>
       <r>    7.6376    0.0000 </r>
       <r>    7.6384    0.0000 </r>
       <r>    7.6847    0.0000 </r>
       <r>    8.4216    0.0000 </r>
      </set>
      <set comment="kpoint 2">
       <r>  -19.7439    1.0000 </r>
       <r>  -15.8350    1.0000 </r>
       <r>  -15.2137    1.0000 </r>
       <r>  -14.8223    1.0000 </r>
       <r>  -14.8219    1.0000 </r>
       <r>  -13.3276    1.0000 </r>
       <r>  -13.3273    1.0000 </r>
       <r>  -12.9432    1.0000 </r>
       <r>  -12.1890    1.0000 </r>
       <r>  -11.5365    1.0000 </r>
       <r>  -11.0219    1.0000 </r>
       <r>   -9.3658    1.0000 </r>
       <r>   -9.1975    1.0000 </r>
       <r>   -8.0354    1.0000 </r>
       <r>   -7.1187    1.0000 </r>
       <r>   -6.9801    1.0000 </r>
       <r>   -6.9785    1.0000 </r>
       <r>   -6.7827    1.0000 </r>
       <r>   -6.4782    1.0000 </r>
       <r>   -3.7408    1.0000 </r>
       <r>   -3.6439    1.0000 </r>
       <r>   -3.1557    1.0000 </r>
       <r>   -2.8960    1.0000 </r>
       <r>   -2.8781    1.0000 </r>
       <r>   -1.9858    1.0000 </r>
       <r>   -1.9208    1.0000 </r>
       <r>   -0.9478    1.0000 </r>
       <r>   -0.2875    0.8534 </r>
       <r>    0.3095    0.0000 </r>
       <r>    0.8638    0.0000 </r>
       <r>    1.0126    0.0000 </r>
       <r>    1.2479    0.0000 </r>
       <r>    1.3920    0.0000 </r>
       <r>    1.4801    0.0000 </r>
       <r>    2.1564    0.0000 </r>
       <r>    2.2488    0.0000 </r>
       <r>    3.0703    0.0000 </r>
       <r>    3.6758    0.0000 </r>
       <r>    4.6718    0.0000 </r>
       <r>    4.8903    0.0000 </r>
       <r>    6.6184    0.0000 </r>
       <r>    6.8155    0.0000 </r>
       <r>    6.8193    0.0000 </r>
       <r>    7.1094    0.0000 </r>
       <r>    7.6500    0.0000 </r>
       <r>    7.7444    0.0000 </r>
       <r>    7.8441    0.0000 </r>
       <r>    8.0536    0.0000 </r>
      </set>
      <set comment="kpoint 3">
       <r>  -19.7439    1.0000 </r>
       <r>  -15.8349    1.0000 </r>
       <r>  -15.2137    1.0000 </r>
       <r>  -14.8242    1.0000 </r>
       <r>  -14.8200    1.0000 </r>
       <r>  -13.3283    1.0000 </r>
       <r>  -13.3269    1.0000 </r>
       <r>  -12.9430    1.0000 </r>
       <r>  -12.1897    1.0000 </r>
       <r>  -11.5352    1.0000 </r>
       <r>  -11.0224    1.0000 </r>
       <r>   -9.3647    1.0000 </r>
       <r>   -9.1988    1.0000 </r>
       <r>   -8.0353    1.0000 </r>
       <r>   -7.1190    1.0000 </r>
       <r>   -6.9800    1.0000 </r>
       <r>   -6.9783    1.0000 </r>
       <r>   -6.7829    1.0000 </r>
       <r>   -6.4781    1.0000 </r>
       <r>   -3.7402    1.0000 </r>
       <r>   -3.6445    1.0000 </r>
       <r>   -3.1450    1.0000 </r>
       <r>   -2.9027    1.0000 </r>
       <r>   -2.8840    1.0000 </r>
       <r>   -1.9777    1.0000 </r>
       <r>   -1.9303    1.0000 </r>
       <r>   -0.9541    1.0000 </r>
       <r>   -0.2796    0.8263 </r>
       <r>    0.3338    0.0000 </r>
       <r>    0.8629    0.0000 </r>
       <r>    1.0304    0.0000 </r>
       <r>    1.2399    0.0000 </r>
       <r>    1.2887    0.0000 </r>
       <r>    1.5434    0.0000 </r>
       <r>    2.1906    0.0000 </r>
       <r>    2.2234    0.0000 </r>
       <r>    3.0696    0.0000 </r>
       <r>    3.6745    0.0000 </r>
       <r>    4.6755    0.0000 </r>
       <r>    4.8889    0.0000 </r>
       <r>    6.6191    0.0000 </r>
       <r>    6.8160    0.0000 </r>
       <r>    6.8180    0.0000 </r>
       <r>    7.1095    0.0000 </r>
       <r>    7.6510    0.0000 </r>
       <r>    7.7421    0.0000 </r>
       <r>    7.8447    0.0000 </r>
       <r>    8.0536    0.0000 </r>
      </set>
      <set comment="kpoint 4">
       <r>  -19.5999    1.0000 </r>
       <r>  -16.0164    1.0000 </r>
       <r>  -15.7205    1.0000 </r>
       <r>  -15.0852    1.0000 </r>
       <r>  -15.0849    1.0000 </r>
       <r>  -12.8323    1.0000 </r>
       <r>  -12.8320    1.0000 </r>
       <r>  -12.7689    1.0000 </r>
       <r>  -11.9283    1.0000 </r>
       <r>  -11.6284    1.0000 </r>
       <r>  -10.6125    1.0000 </r>
       <r>   -9.3857    1.0000 </r>
       <r>   -8.9266    1.0000 </r>
       <r>   -7.8589    1.0000 </r>
       <r>   -7.3941    1.0000 </r>
       <r>   -7.3927    1.0000 </r>
       <r>   -6.7069    1.0000 </r>
       <r>   -6.6418    1.0000 </r>
       <r>   -6.3036    1.0000 </r>
       <r>   -4.3019    1.0000 </r>
       <r>   -3.9272    1.0000 </r>
       <r>   -3.8274    1.0000 </r>
       <r>   -3.0085    1.0000 </r>
       <r>   -2.9824    1.0000 </r>
       <r>   -2.7986    1.0000 </r>
       <r>   -2.6510    1.0000 </r>
       <r>   -1.7710    1.0000 </r>
       <r>   -0.5175    1.0000 </r>
       <r>    0.2986    0.0000 </r>
       <r>    1.3193    0.0000 </r>
       <r>    1.4202    0.0000 </r>
       <r>    1.7170    0.0000 </r>
       <r>    1.9381    0.0000 </r>
       <r>    2.3413    0.0000 </r>
       <r>    2.9534    0.0000 </r>
       <r>    3.0094    0.0000 </r>
       <r>    3.3736    0.0000 </r>
       <r>    3.9070    0.0000 </r>
       <r>    5.0128    0.0000 </r>
       <r>    5.2278    0.0000 </r>
       <r>    6.6938    0.0000 </r>
       <r>    6.9679    0.0000 </r>
       <r>    7.3085    0.0000 </r>
       <r>    7.4530    0.0000 </r>
       <r>    7.4571    0.0000 </r>
       <r>    7.6878    0.0000 </r>
       <r>    7.9026    0.0000 </r>
       <r>    8.0352    0.0000 </r>
      </set>
      <set comment="kpoint 5">
       <r>  -19.5999    1.0000 </r>
       <r>  -16.0164    1.0000 </r>
       <r>  -15.7204    1.0000 </r>
       <r>  -15.0867    1.0000 </r>
       <r>  -15.0835    1.0000 </r>
       <r>  -12.8323    1.0000 </r>
       <r>  -12.8320    1.0000 </r>
       <r>  -12.7701    1.0000 </r>
       <r>  -11.9282    1.0000 </r>
       <r>  -11.6272    1.0000 </r>
       <r>  -10.6123    1.0000 </r>
       <r>   -9.3850    1.0000 </r>
       <r>   -8.9278    1.0000 </r>
       <r>   -7.8584    1.0000 </r>
       <r>   -7.3941    1.0000 </r>
       <r>   -7.3924    1.0000 </r>
       <r>   -6.7079    1.0000 </r>
       <r>   -6.6421    1.0000 </r>
       <r>   -6.3032    1.0000 </r>
       <r>   -4.3014    1.0000 </r>
       <r>   -3.9277    1.0000 </r>
       <r>   -3.8195    1.0000 </r>
       <r>   -3.0089    1.0000 </r>
       <r>   -3.0001    1.0000 </r>
       <r>   -2.7874    1.0000 </r>
       <r>   -2.6571    1.0000 </r>
       <r>   -1.7740    1.0000 </r>
       <r>   -0.5166    1.0000 </r>
       <r>    0.3297    0.0000 </r>
       <r>    1.3630    0.0000 </r>
       <r>    1.3687    0.0000 </r>
       <r>    1.7140    0.0000 </r>
       <r>    1.9034    0.0000 </r>
       <r>    2.3602    0.0000 </r>
       <r>    2.9626    0.0000 </r>
       <r>    3.0049    0.0000 </r>
       <r>    3.3698    0.0000 </r>
       <r>    3.9019    0.0000 </r>
       <r>    5.0206    0.0000 </r>
       <r>    5.2288    0.0000 </r>
       <r>    6.6940    0.0000 </r>
       <r>    6.9673    0.0000 </r>
       <r>    7.3104    0.0000 </r>
       <r>    7.4520    0.0000 </r>
       <r>    7.4577    0.0000 </r>
       <r>    7.6862    0.0000 </r>
       <r>    7.8965    0.0000 </r>
       <r>    8.0368    0.0000 </r>
      </set>
      <set comment="kpoint 6">
       <r>  -19.3604    1.0000 </r>
       <r>  -16.7811    1.0000 </r>
       <r>  -15.5364    1.0000 </r>
       <r>  -15.3204    1.0000 </r>
       <r>  -15.3200    1.0000 </r>
       <r>  -13.3201    1.0000 </r>
       <r>  -12.2242    1.0000 </r>
       <r>  -12.2235    1.0000 </r>
       <r>  -11.7318    1.0000 </r>
       <r>  -10.8163    1.0000 </r>
       <r>  -10.5072    1.0000 </r>
       <r>   -9.0832    1.0000 </r>
       <r>   -8.5458    1.0000 </r>
       <r>   -7.9894    1.0000 </r>
       <r>   -7.9882    1.0000 </r>
       <r>   -7.5707    1.0000 </r>
       <r>   -6.4113    1.0000 </r>
       <r>   -6.3322    1.0000 </r>
       <r>   -6.0204    1.0000 </r>
       <r>   -5.1399    1.0000 </r>
       <r>   -4.5960    1.0000 </r>
       <r>   -4.3331    1.0000 </r>
       <r>   -3.6837    1.0000 </r>
       <r>   -3.2832    1.0000 </r>
       <r>   -3.1050    1.0000 </r>
       <r>   -3.0754    1.0000 </r>
       <r>   -2.6160    1.0000 </r>
       <r>   -0.8109    1.0000 </r>
       <r>    0.1283    0.0000 </r>
       <r>    1.6898    0.0000 </r>
       <r>    1.7241    0.0000 </r>
       <r>    2.6168    0.0000 </r>
       <r>    2.8285    0.0000 </r>
       <r>    3.4068    0.0000 </r>
       <r>    3.5076    0.0000 </r>
       <r>    3.9463    0.0000 </r>
       <r>    3.9817    0.0000 </r>
       <r>    4.3207    0.0000 </r>
       <r>    5.3566    0.0000 </r>
       <r>    5.6834    0.0000 </r>
       <r>    5.9133    0.0000 </r>
       <r>    6.8030    0.0000 </r>
       <r>    7.1376    0.0000 </r>
       <r>    7.5376    0.0000 </r>
       <r>    7.6484    0.0000 </r>
       <r>    7.7400    0.0000 </r>
       <r>    7.8000    0.0000 </r>
       <r>    7.9729    0.0000 </r>
      </set>
      <set comment="kpoint 7">
       <r>  -19.3604    1.0000 </r>
       <r>  -16.7810    1.0000 </r>
       <r>  -15.5363    1.0000 </r>
       <r>  -15.3214    1.0000 </r>
       <r>  -15.3190    1.0000 </r>
       <r>  -13.3212    1.0000 </r>
       <r>  -12.2241    1.0000 </r>
       <r>  -12.2238    1.0000 </r>
       <r>  -11.7307    1.0000 </r>
       <r>  -10.8161    1.0000 </r>
       <r>  -10.5065    1.0000 </r>
       <r>   -9.0828    1.0000 </r>
       <r>   -8.5473    1.0000 </r>
       <r>   -7.9895    1.0000 </r>
       <r>   -7.9877    1.0000 </r>
       <r>   -7.5700    1.0000 </r>
       <r>   -6.4115    1.0000 </r>
       <r>   -6.3344    1.0000 </r>
       <r>   -6.0196    1.0000 </r>
       <r>   -5.1395    1.0000 </r>
       <r>   -4.5902    1.0000 </r>
       <r>   -4.3335    1.0000 </r>
       <r>   -3.6839    1.0000 </r>
       <r>   -3.2945    1.0000 </r>
       <r>   -3.1055    1.0000 </r>
       <r>   -3.0727    1.0000 </r>
       <r>   -2.6194    1.0000 </r>
       <r>   -0.8104    1.0000 </r>
       <r>    0.1474    0.0000 </r>
       <r>    1.7029    0.0000 </r>
       <r>    1.7121    0.0000 </r>
       <r>    2.6150    0.0000 </r>
       <r>    2.8196    0.0000 </r>
       <r>    3.4017    0.0000 </r>
       <r>    3.5129    0.0000 </r>
       <r>    3.9464    0.0000 </r>
       <r>    3.9793    0.0000 </r>
       <r>    4.3057    0.0000 </r>
       <r>    5.3631    0.0000 </r>
       <r>    5.6916    0.0000 </r>
       <r>    5.9161    0.0000 </r>
       <r>    6.8003    0.0000 </r>
       <r>    7.1389    0.0000 </r>
       <r>    7.5329    0.0000 </r>
       <r>    7.6544    0.0000 </r>
       <r>    7.7456    0.0000 </r>
       <r>    7.8021    0.0000 </r>
       <r>    7.9785    0.0000 </r>
      </set>
      <set comment="kpoint 8">
       <r>  -19.0263    1.0000 </r>
       <r>  -17.4724    1.0000 </r>
       <r>  -15.4878    1.0000 </r>
       <r>  -15.4869    1.0000 </r>
       <r>  -15.2963    1.0000 </r>
       <r>  -13.8108    1.0000 </r>
       <r>  -11.8158    1.0000 </r>
       <r>  -11.5818    1.0000 </r>
       <r>  -11.5811    1.0000 </r>
       <r>  -10.5705    1.0000 </r>
       <r>   -9.6536    1.0000 </r>
       <r>   -8.6562    1.0000 </r>
       <r>   -8.6553    1.0000 </r>
       <r>   -8.5748    1.0000 </r>
       <r>   -8.1377    1.0000 </r>
       <r>   -7.1747    1.0000 </r>
       <r>   -6.2594    1.0000 </r>
       <r>   -6.1615    1.0000 </r>
       <r>   -6.0975    1.0000 </r>
       <r>   -5.6674    1.0000 </r>
       <r>   -5.3122    1.0000 </r>
       <r>   -4.7977    1.0000 </r>
       <r>   -4.4041    1.0000 </r>
       <r>   -3.6039    1.0000 </r>
       <r>   -3.4703    1.0000 </r>
       <r>   -3.1780    1.0000 </r>
       <r>   -3.1087    1.0000 </r>
       <r>   -1.0292    1.0000 </r>
       <r>   -0.0145    0.0025 </r>
       <r>    1.9985    0.0000 </r>
       <r>    2.0093    0.0000 </r>
       <r>    3.4500    0.0000 </r>
       <r>    3.8322    0.0000 </r>
       <r>    4.0173    0.0000 </r>
       <r>    4.5129    0.0000 </r>
       <r>    4.6096    0.0000 </r>
       <r>    4.8702    0.0000 </r>
       <r>    4.9056    0.0000 </r>
       <r>    4.9647    0.0000 </r>
       <r>    5.6090    0.0000 </r>
       <r>    5.9609    0.0000 </r>
       <r>    6.5173    0.0000 </r>
       <r>    6.9283    0.0000 </r>
       <r>    7.0204    0.0000 </r>
       <r>    7.0361    0.0000 </r>
       <r>    7.2354    0.0000 </r>
       <r>    7.5551    0.0000 </r>
       <r>    7.9260    0.0000 </r>
      </set>
      <set comment="kpoint 9">
       <r>  -19.0263    1.0000 </r>
       <r>  -17.4723    1.0000 </r>
       <r>  -15.4890    1.0000 </r>
       <r>  -15.4857    1.0000 </r>
       <r>  -15.2958    1.0000 </r>
       <r>  -13.8122    1.0000 </r>
       <r>  -11.8150    1.0000 </r>
       <r>  -11.5820    1.0000 </r>
       <r>  -11.5810    1.0000 </r>
       <r>  -10.5696    1.0000 </r>
       <r>   -9.6534    1.0000 </r>
       <r>   -8.6565    1.0000 </r>
       <r>   -8.6548    1.0000 </r>
       <r>   -8.5743    1.0000 </r>
       <r>   -8.1392    1.0000 </r>
       <r>   -7.1737    1.0000 </r>
       <r>   -6.2623    1.0000 </r>
       <r>   -6.1612    1.0000 </r>
       <r>   -6.0978    1.0000 </r>
       <r>   -5.6664    1.0000 </r>
       <r>   -5.3083    1.0000 </r>
       <r>   -4.7981    1.0000 </r>
       <r>   -4.4035    1.0000 </r>
       <r>   -3.6148    1.0000 </r>
       <r>   -3.4644    1.0000 </r>
       <r>   -3.1744    1.0000 </r>
       <r>   -3.1181    1.0000 </r>
       <r>   -1.0285    1.0000 </r>
       <r>   -0.0017    0.0014 </r>
       <r>    2.0042    0.0000 </r>
       <r>    2.0099    0.0000 </r>
       <r>    3.4516    0.0000 </r>
       <r>    3.8347    0.0000 </r>
       <r>    4.0159    0.0000 </r>
       <r>    4.4980    0.0000 </r>
       <r>    4.6245    0.0000 </r>
       <r>    4.8709    0.0000 </r>
       <r>    4.8784    0.0000 </r>
       <r>    4.9502    0.0000 </r>
       <r>    5.6223    0.0000 </r>
       <r>    5.9633    0.0000 </r>
       <r>    6.5290    0.0000 </r>
       <r>    6.9347    0.0000 </r>
       <r>    7.0159    0.0000 </r>
       <r>    7.0385    0.0000 </r>
       <r>    7.2494    0.0000 </r>
       <r>    7.5560    0.0000 </r>
       <r>    7.9558    0.0000 </r>
      </set>
      <set comment="kpoint 10">
       <r>  -18.5988    1.0000 </r>
       <r>  -18.0799    1.0000 </r>
       <r>  -15.5728    1.0000 </r>
       <r>  -15.5722    1.0000 </r>
       <r>  -15.0668    1.0000 </r>
       <r>  -14.1687    1.0000 </r>
       <r>  -11.8606    1.0000 </r>
       <r>  -11.0546    1.0000 </r>
       <r>  -11.0540    1.0000 </r>
       <r>  -10.6282    1.0000 </r>
       <r>   -9.2065    1.0000 </r>
       <r>   -9.2058    1.0000 </r>
       <r>   -8.4683    1.0000 </r>
       <r>   -8.1434    1.0000 </r>
       <r>   -7.8403    1.0000 </r>
       <r>   -7.2901    1.0000 </r>
       <r>   -6.6970    1.0000 </r>
       <r>   -6.4352    1.0000 </r>
       <r>   -6.0472    1.0000 </r>
       <r>   -5.7115    1.0000 </r>
       <r>   -5.2698    1.0000 </r>
       <r>   -5.1966    1.0000 </r>
       <r>   -4.8594    1.0000 </r>
       <r>   -4.1231    1.0000 </r>
       <r>   -3.5558    1.0000 </r>
       <r>   -3.2327    1.0000 </r>
       <r>   -3.1892    1.0000 </r>
       <r>   -1.1420    1.0000 </r>
       <r>   -0.0922    0.0436 </r>
       <r>    2.1812    0.0000 </r>
       <r>    2.1862    0.0000 </r>
       <r>    4.0803    0.0000 </r>
       <r>    4.3132    0.0000 </r>
       <r>    4.6292    0.0000 </r>
       <r>    4.8318    0.0000 </r>
       <r>    4.9551    0.0000 </r>
       <r>    5.1536    0.0000 </r>
       <r>    5.4941    0.0000 </r>
       <r>    5.5757    0.0000 </r>
       <r>    5.7956    0.0000 </r>
       <r>    6.0052    0.0000 </r>
       <r>    6.2381    0.0000 </r>
       <r>    6.3490    0.0000 </r>
       <r>    6.5269    0.0000 </r>
       <r>    6.7213    0.0000 </r>
       <r>    7.1201    0.0000 </r>
       <r>    7.1647    0.0000 </r>
       <r>    7.2722    0.0000 </r>
      </set>
      <set comment="kpoint 11">
       <r>  -18.5988    1.0000 </r>
       <r>  -18.0799    1.0000 </r>
       <r>  -15.5740    1.0000 </r>
       <r>  -15.5711    1.0000 </r>
       <r>  -15.0659    1.0000 </r>
       <r>  -14.1706    1.0000 </r>
       <r>  -11.8596    1.0000 </r>
       <r>  -11.0547    1.0000 </r>
       <r>  -11.0543    1.0000 </r>
       <r>  -10.6271    1.0000 </r>
       <r>   -9.2069    1.0000 </r>
       <r>   -9.2051    1.0000 </r>
       <r>   -8.4681    1.0000 </r>
       <r>   -8.1417    1.0000 </r>
       <r>   -7.8426    1.0000 </r>
       <r>   -7.2898    1.0000 </r>
       <r>   -6.6961    1.0000 </r>
       <r>   -6.4390    1.0000 </r>
       <r>   -6.0438    1.0000 </r>
       <r>   -5.7118    1.0000 </r>
       <r>   -5.2701    1.0000 </r>
       <r>   -5.1944    1.0000 </r>
       <r>   -4.8591    1.0000 </r>
       <r>   -4.1272    1.0000 </r>
       <r>   -3.5573    1.0000 </r>
       <r>   -3.2294    1.0000 </r>
       <r>   -3.1972    1.0000 </r>
       <r>   -1.1412    1.0000 </r>
       <r>   -0.0821    0.0319 </r>
       <r>    2.1866    0.0000 </r>
       <r>    2.1897    0.0000 </r>
       <r>    4.0825    0.0000 </r>
       <r>    4.3152    0.0000 </r>
       <r>    4.6262    0.0000 </r>
       <r>    4.8434    0.0000 </r>
       <r>    4.9534    0.0000 </r>
       <r>    5.1473    0.0000 </r>
       <r>    5.4965    0.0000 </r>
       <r>    5.5663    0.0000 </r>
       <r>    5.7134    0.0000 </r>
       <r>    6.0766    0.0000 </r>
       <r>    6.2394    0.0000 </r>
       <r>    6.3522    0.0000 </r>
       <r>    6.5204    0.0000 </r>
       <r>    6.7340    0.0000 </r>
       <r>    7.1102    0.0000 </r>
       <r>    7.1701    0.0000 </r>
       <r>    7.2432    0.0000 </r>
      </set>
      <set comment="kpoint 12">
       <r>  -19.6478    1.0000 </r>
       <r>  -15.7592    1.0000 </r>
       <r>  -15.5837    1.0000 </r>
       <r>  -15.5788    1.0000 </r>
       <r>  -14.5523    1.0000 </r>
       <r>  -13.4333    1.0000 </r>
       <r>  -12.6099    1.0000 </r>
       <r>  -12.4283    1.0000 </r>
       <r>  -12.4254    1.0000 </r>
       <r>  -11.6283    1.0000 </r>
       <r>  -10.6556    1.0000 </r>
       <r>   -9.4467    1.0000 </r>
       <r>   -8.9908    1.0000 </r>
       <r>   -7.9173    1.0000 </r>
       <r>   -7.4422    1.0000 </r>
       <r>   -6.8853    1.0000 </r>
       <r>   -6.8836    1.0000 </r>
       <r>   -6.8251    1.0000 </r>
       <r>   -6.3616    1.0000 </r>
       <r>   -4.1086    1.0000 </r>
       <r>   -3.8493    1.0000 </r>
       <r>   -3.4488    1.0000 </r>
       <r>   -3.4031    1.0000 </r>
       <r>   -2.6724    1.0000 </r>
       <r>   -2.6160    1.0000 </r>
       <r>   -2.4140    1.0000 </r>
       <r>   -1.5294    1.0000 </r>
       <r>   -0.5629    1.0000 </r>
       <r>    0.5054    0.0000 </r>
       <r>    1.0482    0.0000 </r>
       <r>    1.3916    0.0000 </r>
       <r>    1.5595    0.0000 </r>
       <r>    1.8544    0.0000 </r>
       <r>    1.8953    0.0000 </r>
       <r>    2.6858    0.0000 </r>
       <r>    2.8746    0.0000 </r>
       <r>    3.2804    0.0000 </r>
       <r>    3.8315    0.0000 </r>
       <r>    4.9264    0.0000 </r>
       <r>    5.0973    0.0000 </r>
       <r>    6.8671    0.0000 </r>
       <r>    6.8690    0.0000 </r>
       <r>    7.1777    0.0000 </r>
       <r>    7.4279    0.0000 </r>
       <r>    7.4342    0.0000 </r>
       <r>    7.7182    0.0000 </r>
       <r>    7.9113    0.0000 </r>
       <r>    8.0299    0.0000 </r>
      </set>
      <set comment="kpoint 13">
       <r>  -19.6478    1.0000 </r>
       <r>  -15.7591    1.0000 </r>
       <r>  -15.5827    1.0000 </r>
       <r>  -15.5798    1.0000 </r>
       <r>  -14.5522    1.0000 </r>
       <r>  -13.4334    1.0000 </r>
       <r>  -12.6108    1.0000 </r>
       <r>  -12.4281    1.0000 </r>
       <r>  -12.4254    1.0000 </r>
       <r>  -11.6271    1.0000 </r>
       <r>  -10.6559    1.0000 </r>
       <r>   -9.4456    1.0000 </r>
       <r>   -8.9921    1.0000 </r>
       <r>   -7.9170    1.0000 </r>
       <r>   -7.4419    1.0000 </r>
       <r>   -6.8854    1.0000 </r>
       <r>   -6.8837    1.0000 </r>
       <r>   -6.8258    1.0000 </r>
       <r>   -6.3613    1.0000 </r>
       <r>   -4.1081    1.0000 </r>
       <r>   -3.8498    1.0000 </r>
       <r>   -3.4432    1.0000 </r>
       <r>   -3.3985    1.0000 </r>
       <r>   -2.6934    1.0000 </r>
       <r>   -2.6212    1.0000 </r>
       <r>   -2.4026    1.0000 </r>
       <r>   -1.5328    1.0000 </r>
       <r>   -0.5711    1.0000 </r>
       <r>    0.6311    0.0000 </r>
       <r>    0.9609    0.0000 </r>
       <r>    1.3704    0.0000 </r>
       <r>    1.4990    0.0000 </r>
       <r>    1.8713    0.0000 </r>
       <r>    1.9305    0.0000 </r>
       <r>    2.7091    0.0000 </r>
       <r>    2.8598    0.0000 </r>
       <r>    3.2778    0.0000 </r>
       <r>    3.8288    0.0000 </r>
       <r>    4.9339    0.0000 </r>
       <r>    5.0948    0.0000 </r>
       <r>    6.8666    0.0000 </r>
       <r>    6.8705    0.0000 </r>
       <r>    7.1783    0.0000 </r>
       <r>    7.4274    0.0000 </r>
       <r>    7.4332    0.0000 </r>
       <r>    7.7142    0.0000 </r>
       <r>    7.9136    0.0000 </r>
       <r>    8.0336    0.0000 </r>
      </set>
      <set comment="kpoint 14">
       <r>  -19.4561    1.0000 </r>
       <r>  -16.3730    1.0000 </r>
       <r>  -15.8833    1.0000 </r>
       <r>  -15.6082    1.0000 </r>
       <r>  -14.5704    1.0000 </r>
       <r>  -13.1181    1.0000 </r>
       <r>  -13.0988    1.0000 </r>
       <r>  -11.8316    1.0000 </r>
       <r>  -11.7763    1.0000 </r>
       <r>  -11.3577    1.0000 </r>
       <r>  -10.3453    1.0000 </r>
       <r>   -9.3891    1.0000 </r>
       <r>   -8.6304    1.0000 </r>
       <r>   -8.0907    1.0000 </r>
       <r>   -7.6854    1.0000 </r>
       <r>   -7.2484    1.0000 </r>
       <r>   -6.6968    1.0000 </r>
       <r>   -6.4478    1.0000 </r>
       <r>   -6.1320    1.0000 </r>
       <r>   -4.7810    1.0000 </r>
       <r>   -4.2215    1.0000 </r>
       <r>   -4.1723    1.0000 </r>
       <r>   -3.6784    1.0000 </r>
       <r>   -3.3717    1.0000 </r>
       <r>   -3.0413    1.0000 </r>
       <r>   -2.5417    1.0000 </r>
       <r>   -2.2898    1.0000 </r>
       <r>   -0.9996    1.0000 </r>
       <r>    0.5642    0.0000 </r>
       <r>    1.1514    0.0000 </r>
       <r>    2.0080    0.0000 </r>
       <r>    2.2074    0.0000 </r>
       <r>    2.3905    0.0000 </r>
       <r>    2.8575    0.0000 </r>
       <r>    3.3353    0.0000 </r>
       <r>    3.6029    0.0000 </r>
       <r>    3.8874    0.0000 </r>
       <r>    4.1889    0.0000 </r>
       <r>    5.2436    0.0000 </r>
       <r>    5.5458    0.0000 </r>
       <r>    6.3882    0.0000 </r>
       <r>    6.9626    0.0000 </r>
       <r>    7.2279    0.0000 </r>
       <r>    7.4424    0.0000 </r>
       <r>    7.5243    0.0000 </r>
       <r>    7.6410    0.0000 </r>
       <r>    7.8045    0.0000 </r>
       <r>    8.1294    0.0000 </r>
      </set>
      <set comment="kpoint 15">
       <r>  -19.4561    1.0000 </r>
       <r>  -16.3730    1.0000 </r>
       <r>  -15.8833    1.0000 </r>
       <r>  -15.6081    1.0000 </r>
       <r>  -14.5704    1.0000 </r>
       <r>  -13.1163    1.0000 </r>
       <r>  -13.1015    1.0000 </r>
       <r>  -11.8309    1.0000 </r>
       <r>  -11.7760    1.0000 </r>
       <r>  -11.3577    1.0000 </r>
       <r>  -10.3455    1.0000 </r>
       <r>   -9.3881    1.0000 </r>
       <r>   -8.6315    1.0000 </r>
       <r>   -8.0905    1.0000 </r>
       <r>   -7.6851    1.0000 </r>
       <r>   -7.2486    1.0000 </r>
       <r>   -6.6968    1.0000 </r>
       <r>   -6.4488    1.0000 </r>
       <r>   -6.1318    1.0000 </r>
       <r>   -4.7807    1.0000 </r>
       <r>   -4.2218    1.0000 </r>
       <r>   -4.1720    1.0000 </r>
       <r>   -3.6651    1.0000 </r>
       <r>   -3.3829    1.0000 </r>
       <r>   -3.0447    1.0000 </r>
       <r>   -2.5473    1.0000 </r>
       <r>   -2.2877    1.0000 </r>
       <r>   -1.0084    1.0000 </r>
       <r>    0.6694    0.0000 </r>
       <r>    1.0593    0.0000 </r>
       <r>    2.0025    0.0000 </r>
       <r>    2.1723    0.0000 </r>
       <r>    2.4218    0.0000 </r>
       <r>    2.8665    0.0000 </r>
       <r>    3.3339    0.0000 </r>
       <r>    3.6101    0.0000 </r>
       <r>    3.8799    0.0000 </r>
       <r>    4.1875    0.0000 </r>
       <r>    5.2471    0.0000 </r>
       <r>    5.5463    0.0000 </r>
       <r>    6.3876    0.0000 </r>
       <r>    6.9635    0.0000 </r>
       <r>    7.2309    0.0000 </r>
       <r>    7.4394    0.0000 </r>
       <r>    7.5302    0.0000 </r>
       <r>    7.6403    0.0000 </r>
       <r>    7.8043    0.0000 </r>
       <r>    8.1239    0.0000 </r>
      </set>
      <set comment="kpoint 16">
       <r>  -19.4561    1.0000 </r>
       <r>  -16.3730    1.0000 </r>
       <r>  -15.8834    1.0000 </r>
       <r>  -15.6080    1.0000 </r>
       <r>  -14.5704    1.0000 </r>
       <r>  -13.1168    1.0000 </r>
       <r>  -13.1014    1.0000 </r>
       <r>  -11.8315    1.0000 </r>
       <r>  -11.7750    1.0000 </r>
       <r>  -11.3576    1.0000 </r>
       <r>  -10.3450    1.0000 </r>
       <r>   -9.3883    1.0000 </r>
       <r>   -8.6319    1.0000 </r>
       <r>   -8.0905    1.0000 </r>
       <r>   -7.6848    1.0000 </r>
       <r>   -7.2484    1.0000 </r>
       <r>   -6.6971    1.0000 </r>
       <r>   -6.4496    1.0000 </r>
       <r>   -6.1314    1.0000 </r>
       <r>   -4.7805    1.0000 </r>
       <r>   -4.2220    1.0000 </r>
       <r>   -4.1651    1.0000 </r>
       <r>   -3.6772    1.0000 </r>
       <r>   -3.3760    1.0000 </r>
       <r>   -3.0481    1.0000 </r>
       <r>   -2.5476    1.0000 </r>
       <r>   -2.2893    1.0000 </r>
       <r>   -1.0051    1.0000 </r>
       <r>    0.6694    0.0000 </r>
       <r>    1.0686    0.0000 </r>
       <r>    1.9971    0.0000 </r>
       <r>    2.1861    0.0000 </r>
       <r>    2.4036    0.0000 </r>
       <r>    2.8675    0.0000 </r>
       <r>    3.3346    0.0000 </r>
       <r>    3.6079    0.0000 </r>
       <r>    3.8825    0.0000 </r>
       <r>    4.1805    0.0000 </r>
       <r>    5.2500    0.0000 </r>
       <r>    5.5511    0.0000 </r>
       <r>    6.3872    0.0000 </r>
       <r>    6.9624    0.0000 </r>
       <r>    7.2329    0.0000 </r>
       <r>    7.4444    0.0000 </r>
       <r>    7.5288    0.0000 </r>
       <r>    7.6307    0.0000 </r>
       <r>    7.8044    0.0000 </r>
       <r>    8.1325    0.0000 </r>
      </set>
      <set comment="kpoint 17">
       <r>  -19.1693    1.0000 </r>
       <r>  -17.1023    1.0000 </r>
       <r>  -16.1040    1.0000 </r>
       <r>  -15.3937    1.0000 </r>
       <r>  -14.7025    1.0000 </r>
       <r>  -13.6097    1.0000 </r>
       <r>  -12.5269    1.0000 </r>
       <r>  -11.9151    1.0000 </r>
       <r>  -11.1922    1.0000 </r>
       <r>  -10.3005    1.0000 </r>
       <r>  -10.2223    1.0000 </r>
       <r>   -8.9964    1.0000 </r>
       <r>   -8.8282    1.0000 </r>
       <r>   -8.2128    1.0000 </r>
       <r>   -7.7848    1.0000 </r>
       <r>   -7.3431    1.0000 </r>
       <r>   -6.4213    1.0000 </r>
       <r>   -6.2810    1.0000 </r>
       <r>   -5.8041    1.0000 </r>
       <r>   -5.6849    1.0000 </r>
       <r>   -4.9325    1.0000 </r>
       <r>   -4.6836    1.0000 </r>
       <r>   -4.0666    1.0000 </r>
       <r>   -3.8364    1.0000 </r>
       <r>   -3.5085    1.0000 </r>
       <r>   -3.0793    1.0000 </r>
       <r>   -2.4718    1.0000 </r>
       <r>   -1.3286    1.0000 </r>
       <r>    0.5194    0.0000 </r>
       <r>    1.2250    0.0000 </r>
       <r>    2.6694    0.0000 </r>
       <r>    2.8710    0.0000 </r>
       <r>    3.1360    0.0000 </r>
       <r>    3.7610    0.0000 </r>
       <r>    4.0135    0.0000 </r>
       <r>    4.3982    0.0000 </r>
       <r>    4.6083    0.0000 </r>
       <r>    4.8805    0.0000 </r>
       <r>    5.3171    0.0000 </r>
       <r>    5.6290    0.0000 </r>
       <r>    5.9096    0.0000 </r>
       <r>    6.5915    0.0000 </r>
       <r>    6.7993    0.0000 </r>
       <r>    7.1262    0.0000 </r>
       <r>    7.3639    0.0000 </r>
       <r>    7.7333    0.0000 </r>
       <r>    7.8050    0.0000 </r>
       <r>    7.8885    0.0000 </r>
      </set>
      <set comment="kpoint 18">
       <r>  -19.1693    1.0000 </r>
       <r>  -17.1023    1.0000 </r>
       <r>  -16.1040    1.0000 </r>
       <r>  -15.3936    1.0000 </r>
       <r>  -14.7025    1.0000 </r>
       <r>  -13.6102    1.0000 </r>
       <r>  -12.5272    1.0000 </r>
       <r>  -11.9145    1.0000 </r>
       <r>  -11.1921    1.0000 </r>
       <r>  -10.3006    1.0000 </r>
       <r>  -10.2223    1.0000 </r>
       <r>   -8.9955    1.0000 </r>
       <r>   -8.8280    1.0000 </r>
       <r>   -8.2137    1.0000 </r>
       <r>   -7.7850    1.0000 </r>
       <r>   -7.3428    1.0000 </r>
       <r>   -6.4213    1.0000 </r>
       <r>   -6.2817    1.0000 </r>
       <r>   -5.8043    1.0000 </r>
       <r>   -5.6847    1.0000 </r>
       <r>   -4.9326    1.0000 </r>
       <r>   -4.6837    1.0000 </r>
       <r>   -4.0605    1.0000 </r>
       <r>   -3.8392    1.0000 </r>
       <r>   -3.5082    1.0000 </r>
       <r>   -3.0845    1.0000 </r>
       <r>   -2.4722    1.0000 </r>
       <r>   -1.3349    1.0000 </r>
       <r>    0.5697    0.0000 </r>
       <r>    1.1838    0.0000 </r>
       <r>    2.6611    0.0000 </r>
       <r>    2.8743    0.0000 </r>
       <r>    3.1357    0.0000 </r>
       <r>    3.7630    0.0000 </r>
       <r>    4.0158    0.0000 </r>
       <r>    4.3966    0.0000 </r>
       <r>    4.6111    0.0000 </r>
       <r>    4.8768    0.0000 </r>
       <r>    5.3202    0.0000 </r>
       <r>    5.6283    0.0000 </r>
       <r>    5.9072    0.0000 </r>
       <r>    6.5949    0.0000 </r>
       <r>    6.7993    0.0000 </r>
       <r>    7.1274    0.0000 </r>
       <r>    7.3595    0.0000 </r>
       <r>    7.7317    0.0000 </r>
       <r>    7.7919    0.0000 </r>
       <r>    7.8933    0.0000 </r>
      </set>
      <set comment="kpoint 19">
       <r>  -19.1693    1.0000 </r>
       <r>  -17.1023    1.0000 </r>
       <r>  -16.1040    1.0000 </r>
       <r>  -15.3934    1.0000 </r>
       <r>  -14.7025    1.0000 </r>
       <r>  -13.6110    1.0000 </r>
       <r>  -12.5272    1.0000 </r>
       <r>  -11.9139    1.0000 </r>
       <r>  -11.1922    1.0000 </r>
       <r>  -10.2997    1.0000 </r>
       <r>  -10.2222    1.0000 </r>
       <r>   -8.9959    1.0000 </r>
       <r>   -8.8279    1.0000 </r>
       <r>   -8.2144    1.0000 </r>
       <r>   -7.7847    1.0000 </r>
       <r>   -7.3422    1.0000 </r>
       <r>   -6.4216    1.0000 </r>
       <r>   -6.2835    1.0000 </r>
       <r>   -5.8037    1.0000 </r>
       <r>   -5.6845    1.0000 </r>
       <r>   -4.9278    1.0000 </r>
       <r>   -4.6841    1.0000 </r>
       <r>   -4.0653    1.0000 </r>
       <r>   -3.8384    1.0000 </r>
       <r>   -3.5113    1.0000 </r>
       <r>   -3.0849    1.0000 </r>
       <r>   -2.4739    1.0000 </r>
       <r>   -1.3315    1.0000 </r>
       <r>    0.5705    0.0000 </r>
       <r>    1.1938    0.0000 </r>
       <r>    2.6645    0.0000 </r>
       <r>    2.8694    0.0000 </r>
       <r>    3.1396    0.0000 </r>
       <r>    3.7598    0.0000 </r>
       <r>    4.0061    0.0000 </r>
       <r>    4.4006    0.0000 </r>
       <r>    4.6030    0.0000 </r>
       <r>    4.8700    0.0000 </r>
       <r>    5.3184    0.0000 </r>
       <r>    5.6319    0.0000 </r>
       <r>    5.9187    0.0000 </r>
       <r>    6.5969    0.0000 </r>
       <r>    6.7945    0.0000 </r>
       <r>    7.1321    0.0000 </r>
       <r>    7.3605    0.0000 </r>
       <r>    7.7298    0.0000 </r>
       <r>    7.7901    0.0000 </r>
       <r>    7.9089    0.0000 </r>
      </set>
      <set comment="kpoint 20">
       <r>  -18.7885    1.0000 </r>
       <r>  -17.7520    1.0000 </r>
       <r>  -16.2382    1.0000 </r>
       <r>  -15.1433    1.0000 </r>
       <r>  -14.8061    1.0000 </r>
       <r>  -14.0360    1.0000 </r>
       <r>  -12.0083    1.0000 </r>
       <r>  -11.9208    1.0000 </r>
       <r>  -10.5874    1.0000 </r>
       <r>  -10.3494    1.0000 </r>
       <r>   -9.5291    1.0000 </r>
       <r>   -9.0536    1.0000 </r>
       <r>   -8.4867    1.0000 </r>
       <r>   -8.3567    1.0000 </r>
       <r>   -7.8463    1.0000 </r>
       <r>   -6.9006    1.0000 </r>
       <r>   -6.7406    1.0000 </r>
       <r>   -6.4796    1.0000 </r>
       <r>   -6.0657    1.0000 </r>
       <r>   -5.7097    1.0000 </r>
       <r>   -5.3352    1.0000 </r>
       <r>   -5.1722    1.0000 </r>
       <r>   -4.5326    1.0000 </r>
       <r>   -4.0378    1.0000 </r>
       <r>   -3.7327    1.0000 </r>
       <r>   -3.6010    1.0000 </r>
       <r>   -2.4585    1.0000 </r>
       <r>   -1.5239    1.0000 </r>
       <r>    0.4602    0.0000 </r>
       <r>    1.3275    0.0000 </r>
       <r>    2.9830    0.0000 </r>
       <r>    3.6646    0.0000 </r>
       <r>    3.9317    0.0000 </r>
       <r>    4.3370    0.0000 </r>
       <r>    4.5050    0.0000 </r>
       <r>    4.9416    0.0000 </r>
       <r>    5.1554    0.0000 </r>
       <r>    5.2574    0.0000 </r>
       <r>    5.5854    0.0000 </r>
       <r>    5.7083    0.0000 </r>
       <r>    5.9800    0.0000 </r>
       <r>    6.1528    0.0000 </r>
       <r>    6.4014    0.0000 </r>
       <r>    6.6074    0.0000 </r>
       <r>    7.0281    0.0000 </r>
       <r>    7.2918    0.0000 </r>
       <r>    7.6133    0.0000 </r>
       <r>    7.6557    0.0000 </r>
      </set>
      <set comment="kpoint 21">
       <r>  -18.7885    1.0000 </r>
       <r>  -17.7520    1.0000 </r>
       <r>  -16.2382    1.0000 </r>
       <r>  -15.1432    1.0000 </r>
       <r>  -14.8061    1.0000 </r>
       <r>  -14.0363    1.0000 </r>
       <r>  -12.0086    1.0000 </r>
       <r>  -11.9204    1.0000 </r>
       <r>  -10.5873    1.0000 </r>
       <r>  -10.3495    1.0000 </r>
       <r>   -9.5290    1.0000 </r>
       <r>   -9.0537    1.0000 </r>
       <r>   -8.4859    1.0000 </r>
       <r>   -8.3569    1.0000 </r>
       <r>   -7.8468    1.0000 </r>
       <r>   -6.9006    1.0000 </r>
       <r>   -6.7405    1.0000 </r>
       <r>   -6.4796    1.0000 </r>
       <r>   -6.0657    1.0000 </r>
       <r>   -5.7107    1.0000 </r>
       <r>   -5.3352    1.0000 </r>
       <r>   -5.1724    1.0000 </r>
       <r>   -4.5325    1.0000 </r>
       <r>   -4.0310    1.0000 </r>
       <r>   -3.7384    1.0000 </r>
       <r>   -3.6019    1.0000 </r>
       <r>   -2.4591    1.0000 </r>
       <r>   -1.5271    1.0000 </r>
       <r>    0.4792    0.0000 </r>
       <r>    1.3132    0.0000 </r>
       <r>    2.9809    0.0000 </r>
       <r>    3.6665    0.0000 </r>
       <r>    3.9319    0.0000 </r>
       <r>    4.3382    0.0000 </r>
       <r>    4.5034    0.0000 </r>
       <r>    4.9385    0.0000 </r>
       <r>    5.1556    0.0000 </r>
       <r>    5.2595    0.0000 </r>
       <r>    5.5812    0.0000 </r>
       <r>    5.7100    0.0000 </r>
       <r>    5.9824    0.0000 </r>
       <r>    6.1465    0.0000 </r>
       <r>    6.3966    0.0000 </r>
       <r>    6.6148    0.0000 </r>
       <r>    7.0262    0.0000 </r>
       <r>    7.3057    0.0000 </r>
       <r>    7.6097    0.0000 </r>
       <r>    7.6560    0.0000 </r>
      </set>
      <set comment="kpoint 22">
       <r>  -18.7885    1.0000 </r>
       <r>  -17.7520    1.0000 </r>
       <r>  -16.2382    1.0000 </r>
       <r>  -15.1426    1.0000 </r>
       <r>  -14.8061    1.0000 </r>
       <r>  -14.0377    1.0000 </r>
       <r>  -12.0078    1.0000 </r>
       <r>  -11.9205    1.0000 </r>
       <r>  -10.5875    1.0000 </r>
       <r>  -10.3485    1.0000 </r>
       <r>   -9.5290    1.0000 </r>
       <r>   -9.0535    1.0000 </r>
       <r>   -8.4858    1.0000 </r>
       <r>   -8.3567    1.0000 </r>
       <r>   -7.8478    1.0000 </r>
       <r>   -6.8995    1.0000 </r>
       <r>   -6.7403    1.0000 </r>
       <r>   -6.4822    1.0000 </r>
       <r>   -6.0660    1.0000 </r>
       <r>   -5.7078    1.0000 </r>
       <r>   -5.3337    1.0000 </r>
       <r>   -5.1727    1.0000 </r>
       <r>   -4.5324    1.0000 </r>
       <r>   -4.0360    1.0000 </r>
       <r>   -3.7387    1.0000 </r>
       <r>   -3.6034    1.0000 </r>
       <r>   -2.4610    1.0000 </r>
       <r>   -1.5246    1.0000 </r>
       <r>    0.4835    0.0000 </r>
       <r>    1.3211    0.0000 </r>
       <r>    2.9847    0.0000 </r>
       <r>    3.6661    0.0000 </r>
       <r>    3.9321    0.0000 </r>
       <r>    4.3366    0.0000 </r>
       <r>    4.5053    0.0000 </r>
       <r>    4.9363    0.0000 </r>
       <r>    5.1237    0.0000 </r>
       <r>    5.2718    0.0000 </r>
       <r>    5.5803    0.0000 </r>
       <r>    5.7034    0.0000 </r>
       <r>    5.9865    0.0000 </r>
       <r>    6.1570    0.0000 </r>
       <r>    6.4118    0.0000 </r>
       <r>    6.5979    0.0000 </r>
       <r>    7.0356    0.0000 </r>
       <r>    7.2929    0.0000 </r>
       <r>    7.6186    0.0000 </r>
       <r>    7.6599    0.0000 </r>
      </set>
      <set comment="kpoint 23">
       <r>  -18.3172    1.0000 </r>
       <r>  -18.3134    1.0000 </r>
       <r>  -16.2832    1.0000 </r>
       <r>  -14.9909    1.0000 </r>
       <r>  -14.8432    1.0000 </r>
       <r>  -14.2482    1.0000 </r>
       <r>  -12.0399    1.0000 </r>
       <r>  -11.5953    1.0000 </r>
       <r>  -10.3741    1.0000 </r>
       <r>  -10.2744    1.0000 </r>
       <r>   -9.8880    1.0000 </r>
       <r>   -8.6631    1.0000 </r>
       <r>   -8.2124    1.0000 </r>
       <r>   -7.8813    1.0000 </r>
       <r>   -7.8792    1.0000 </r>
       <r>   -7.6884    1.0000 </r>
       <r>   -6.7187    1.0000 </r>
       <r>   -6.3727    1.0000 </r>
       <r>   -6.2718    1.0000 </r>
       <r>   -5.6440    1.0000 </r>
       <r>   -5.6420    1.0000 </r>
       <r>   -5.0903    1.0000 </r>
       <r>   -4.7041    1.0000 </r>
       <r>   -4.2929    1.0000 </r>
       <r>   -3.9100    1.0000 </r>
       <r>   -3.5770    1.0000 </r>
       <r>   -2.4578    1.0000 </r>
       <r>   -1.5893    1.0000 </r>
       <r>    0.4402    0.0000 </r>
       <r>    1.3717    0.0000 </r>
       <r>    3.0977    0.0000 </r>
       <r>    4.1256    0.0000 </r>
       <r>    4.1452    0.0000 </r>
       <r>    4.5257    0.0000 </r>
       <r>    4.6956    0.0000 </r>
       <r>    5.1021    0.0000 </r>
       <r>    5.3230    0.0000 </r>
       <r>    5.5595    0.0000 </r>
       <r>    5.5812    0.0000 </r>
       <r>    5.6674    0.0000 </r>
       <r>    6.2421    0.0000 </r>
       <r>    6.3272    0.0000 </r>
       <r>    6.3568    0.0000 </r>
       <r>    6.4857    0.0000 </r>
       <r>    6.5177    0.0000 </r>
       <r>    6.9625    0.0000 </r>
       <r>    7.2468    0.0000 </r>
       <r>    7.5018    0.0000 </r>
      </set>
      <set comment="kpoint 24">
       <r>  -18.3177    1.0000 </r>
       <r>  -18.3129    1.0000 </r>
       <r>  -16.2832    1.0000 </r>
       <r>  -14.9898    1.0000 </r>
       <r>  -14.8432    1.0000 </r>
       <r>  -14.2503    1.0000 </r>
       <r>  -12.0390    1.0000 </r>
       <r>  -11.5954    1.0000 </r>
       <r>  -10.3732    1.0000 </r>
       <r>  -10.2744    1.0000 </r>
       <r>   -9.8880    1.0000 </r>
       <r>   -8.6629    1.0000 </r>
       <r>   -8.2115    1.0000 </r>
       <r>   -7.8812    1.0000 </r>
       <r>   -7.8788    1.0000 </r>
       <r>   -7.6897    1.0000 </r>
       <r>   -6.7208    1.0000 </r>
       <r>   -6.3753    1.0000 </r>
       <r>   -6.2665    1.0000 </r>
       <r>   -5.6444    1.0000 </r>
       <r>   -5.6423    1.0000 </r>
       <r>   -5.0879    1.0000 </r>
       <r>   -4.7044    1.0000 </r>
       <r>   -4.2949    1.0000 </r>
       <r>   -3.9141    1.0000 </r>
       <r>   -3.5781    1.0000 </r>
       <r>   -2.4599    1.0000 </r>
       <r>   -1.5883    1.0000 </r>
       <r>    0.4509    0.0000 </r>
       <r>    1.3754    0.0000 </r>
       <r>    3.1015    0.0000 </r>
       <r>    4.1287    0.0000 </r>
       <r>    4.1468    0.0000 </r>
       <r>    4.5169    0.0000 </r>
       <r>    4.6943    0.0000 </r>
       <r>    5.0975    0.0000 </r>
       <r>    5.3241    0.0000 </r>
       <r>    5.5621    0.0000 </r>
       <r>    5.5807    0.0000 </r>
       <r>    5.6725    0.0000 </r>
       <r>    6.1970    0.0000 </r>
       <r>    6.3201    0.0000 </r>
       <r>    6.3363    0.0000 </r>
       <r>    6.4941    0.0000 </r>
       <r>    6.5810    0.0000 </r>
       <r>    6.9545    0.0000 </r>
       <r>    7.2311    0.0000 </r>
       <r>    7.5026    0.0000 </r>
      </set>
      <set comment="kpoint 25">
       <r>  -19.2170    1.0000 </r>
       <r>  -16.6470    1.0000 </r>
       <r>  -16.6425    1.0000 </r>
       <r>  -15.4267    1.0000 </r>
       <r>  -14.1789    1.0000 </r>
       <r>  -13.5198    1.0000 </r>
       <r>  -13.1061    1.0000 </r>
       <r>  -12.0121    1.0000 </r>
       <r>  -10.7404    1.0000 </r>
       <r>  -10.7372    1.0000 </r>
       <r>   -9.9653    1.0000 </r>
       <r>   -9.3683    1.0000 </r>
       <r>   -8.8849    1.0000 </r>
       <r>   -8.2137    1.0000 </r>
       <r>   -7.3995    1.0000 </r>
       <r>   -7.0105    1.0000 </r>
       <r>   -7.0089    1.0000 </r>
       <r>   -6.3147    1.0000 </r>
       <r>   -5.8554    1.0000 </r>
       <r>   -5.4696    1.0000 </r>
       <r>   -4.7003    1.0000 </r>
       <r>   -4.4783    1.0000 </r>
       <r>   -4.4017    1.0000 </r>
       <r>   -3.8658    1.0000 </r>
       <r>   -3.4736    1.0000 </r>
       <r>   -2.9007    1.0000 </r>
       <r>   -2.1540    1.0000 </r>
       <r>   -1.5743    1.0000 </r>
       <r>    0.6859    0.0000 </r>
       <r>    1.3328    0.0000 </r>
       <r>    2.2138    0.0000 </r>
       <r>    2.8188    0.0000 </r>
       <r>    3.3244    0.0000 </r>
       <r>    3.3830    0.0000 </r>
       <r>    3.6881    0.0000 </r>
       <r>    4.3476    0.0000 </r>
       <r>    4.6039    0.0000 </r>
       <r>    4.9069    0.0000 </r>
       <r>    5.6015    0.0000 </r>
       <r>    5.6763    0.0000 </r>
       <r>    5.8721    0.0000 </r>
       <r>    6.1982    0.0000 </r>
       <r>    7.2578    0.0000 </r>
       <r>    7.3007    0.0000 </r>
       <r>    7.6416    0.0000 </r>
       <r>    7.6712    0.0000 </r>
       <r>    7.7399    0.0000 </r>
       <r>    7.9188    0.0000 </r>
      </set>
      <set comment="kpoint 26">
       <r>  -19.2170    1.0000 </r>
       <r>  -16.6465    1.0000 </r>
       <r>  -16.6430    1.0000 </r>
       <r>  -15.4265    1.0000 </r>
       <r>  -14.1789    1.0000 </r>
       <r>  -13.5207    1.0000 </r>
       <r>  -13.1065    1.0000 </r>
       <r>  -12.0110    1.0000 </r>
       <r>  -10.7399    1.0000 </r>
       <r>  -10.7376    1.0000 </r>
       <r>   -9.9653    1.0000 </r>
       <r>   -9.3673    1.0000 </r>
       <r>   -8.8847    1.0000 </r>
       <r>   -8.2150    1.0000 </r>
       <r>   -7.3988    1.0000 </r>
       <r>   -7.0107    1.0000 </r>
       <r>   -7.0090    1.0000 </r>
       <r>   -6.3163    1.0000 </r>
       <r>   -5.8554    1.0000 </r>
       <r>   -5.4692    1.0000 </r>
       <r>   -4.7008    1.0000 </r>
       <r>   -4.4753    1.0000 </r>
       <r>   -4.3984    1.0000 </r>
       <r>   -3.8698    1.0000 </r>
       <r>   -3.4730    1.0000 </r>
       <r>   -2.9083    1.0000 </r>
       <r>   -2.1513    1.0000 </r>
       <r>   -1.5840    1.0000 </r>
       <r>    0.7837    0.0000 </r>
       <r>    1.2468    0.0000 </r>
       <r>    2.2162    0.0000 </r>
       <r>    2.8043    0.0000 </r>
       <r>    3.3312    0.0000 </r>
       <r>    3.3908    0.0000 </r>
       <r>    3.6845    0.0000 </r>
       <r>    4.3461    0.0000 </r>
       <r>    4.6045    0.0000 </r>
       <r>    4.9024    0.0000 </r>
       <r>    5.6146    0.0000 </r>
       <r>    5.6684    0.0000 </r>
       <r>    5.8711    0.0000 </r>
       <r>    6.2010    0.0000 </r>
       <r>    7.2578    0.0000 </r>
       <r>    7.2949    0.0000 </r>
       <r>    7.6481    0.0000 </r>
       <r>    7.6690    0.0000 </r>
       <r>    7.7470    0.0000 </r>
       <r>    7.9223    0.0000 </r>
      </set>
      <set comment="kpoint 27">
       <r>  -18.8836    1.0000 </r>
       <r>  -17.3336    1.0000 </r>
       <r>  -16.8276    1.0000 </r>
       <r>  -15.1886    1.0000 </r>
       <r>  -14.0725    1.0000 </r>
       <r>  -13.9245    1.0000 </r>
       <r>  -12.7235    1.0000 </r>
       <r>  -12.2034    1.0000 </r>
[...]
       <r>   -8.0228    1.0000 </r>
       <r>   -7.4657    1.0000 </r>
       <r>   -7.4315    1.0000 </r>
       <r>   -7.2925    1.0000 </r>
       <r>   -6.5433    1.0000 </r>
       <r>   -6.5414    1.0000 </r>
       <r>   -6.0632    1.0000 </r>
       <r>   -5.9580    1.0000 </r>
       <r>   -5.4137    1.0000 </r>
       <r>   -4.7462    1.0000 </r>
       <r>   -4.3461    1.0000 </r>
       <r>   -3.9834    1.0000 </r>
       <r>   -3.7737    1.0000 </r>
       <r>   -2.5579    1.0000 </r>
       <r>   -0.9695    1.0000 </r>
       <r>   -0.1126    0.0775 </r>
       <r>    2.3257    0.0000 </r>
       <r>    3.2664    0.0000 </r>
       <r>    3.6977    0.0000 </r>
       <r>    3.9392    0.0000 </r>
       <r>    4.4783    0.0000 </r>
       <r>    4.6434    0.0000 </r>
       <r>    5.0173    0.0000 </r>
       <r>    5.1544    0.0000 </r>
       <r>    5.3107    0.0000 </r>
       <r>    5.8463    0.0000 </r>
       <r>    5.9088    0.0000 </r>
       <r>    5.9867    0.0000 </r>
       <r>    6.0010    0.0000 </r>
       <r>    6.1203    0.0000 </r>
       <r>    6.6449    0.0000 </r>
       <r>    6.7759    0.0000 </r>
       <r>    7.0457    0.0000 </r>
       <r>    7.5286    0.0000 </r>
       <r>    7.7662    0.0000 </r>
      </set>
      <set comment="kpoint 36">
       <r>  -18.0357    1.0000 </r>
       <r>  -18.0310    1.0000 </r>
       <r>  -17.5197    1.0000 </r>
       <r>  -14.7379    1.0000 </r>
       <r>  -14.4627    1.0000 </r>
       <r>  -13.3807    1.0000 </r>
       <r>  -12.6952    1.0000 </r>
       <r>  -12.4925    1.0000 </r>
       <r>  -10.7523    1.0000 </r>
       <r>   -9.2420    1.0000 </r>
       <r>   -8.7619    1.0000 </r>
       <r>   -8.7498    1.0000 </r>
       <r>   -8.0248    1.0000 </r>
       <r>   -8.0220    1.0000 </r>
       <r>   -7.4658    1.0000 </r>
       <r>   -7.4327    1.0000 </r>
       <r>   -7.2920    1.0000 </r>
       <r>   -6.5436    1.0000 </r>
       <r>   -6.5417    1.0000 </r>
       <r>   -6.0636    1.0000 </r>
       <r>   -5.9555    1.0000 </r>
       <r>   -5.4156    1.0000 </r>
       <r>   -4.7447    1.0000 </r>
       <r>   -4.3470    1.0000 </r>
       <r>   -3.9836    1.0000 </r>
       <r>   -3.7752    1.0000 </r>
       <r>   -2.5564    1.0000 </r>
       <r>   -0.9767    1.0000 </r>
       <r>   -0.1037    0.0608 </r>
       <r>    2.3364    0.0000 </r>
       <r>    3.2520    0.0000 </r>
       <r>    3.7003    0.0000 </r>
       <r>    3.9364    0.0000 </r>
       <r>    4.4758    0.0000 </r>
       <r>    4.6362    0.0000 </r>
       <r>    5.0490    0.0000 </r>
       <r>    5.1454    0.0000 </r>
       <r>    5.3061    0.0000 </r>
       <r>    5.8304    0.0000 </r>
       <r>    5.8855    0.0000 </r>
       <r>    5.9863    0.0000 </r>
       <r>    6.0244    0.0000 </r>
       <r>    6.1230    0.0000 </r>
       <r>    6.6555    0.0000 </r>
       <r>    6.7928    0.0000 </r>
       <r>    7.0282    0.0000 </r>
       <r>    7.5325    0.0000 </r>
       <r>    7.7593    0.0000 </r>
      </set>
     </set>
    </set>
   </array>
  </eigenvalues>
  <separator name="orbital magnetization" >
   <v name="MAGDIPOLOUT">      0.00000000      0.00000000      0.00000000</v>
  </separator>
  <dos>
   <i name="efermi">     -0.21314782 </i>
   <total>
    <array>
     <dimension dim="1">gridpoints</dimension>
     <dimension dim="2">spin</dimension>
     <field>energy</field>
     <field>total</field>
     <field>integrated</field>
     <set>
      <set comment="spin 1">
       <r>   -21.2026     0.0000     0.0000 </r>
       <r>   -21.0991     0.0000     0.0000 </r>
       <r>   -20.9957     0.0000     0.0000 </r>
       <r>   -20.8922     0.0000     0.0000 </r>
       <r>   -20.7888     0.0000     0.0000 </r>
       <r>   -20.6853     0.0000     0.0000 </r>
       <r>   -20.5819     0.0000     0.0000 </r>
       <r>   -20.4784     0.0000     0.0000 </r>
       <r>   -20.3750     0.0000     0.0000 </r>
       <r>   -20.2715     0.0000     0.0000 </r>
       <r>   -20.1681     0.0000     0.0000 </r>
       <r>   -20.0646     0.0000     0.0000 </r>
       <r>   -19.9612     0.0023     0.0002 </r>
       <r>   -19.8577     0.0788     0.0084 </r>
       <r>   -19.7543     0.5316     0.0634 </r>
       <r>   -19.6508     1.1063     0.1778 </r>
       <r>   -19.5474     1.2125     0.3033 </r>
       <r>   -19.4439     1.2933     0.4371 </r>
       <r>   -19.3405     1.2695     0.5684 </r>
       <r>   -19.2370     1.0749     0.6796 </r>
       <r>   -19.1336     1.5781     0.8428 </r>
       <r>   -19.0301     1.0852     0.9551 </r>
       <r>   -18.9267     1.0054     1.0591 </r>
       <r>   -18.8232     1.6451     1.2293 </r>
       <r>   -18.7198     1.4041     1.3745 </r>
       <r>   -18.6163     0.7427     1.4514 </r>
       <r>   -18.5129     1.2525     1.5809 </r>
       <r>   -18.4094     1.7395     1.7609 </r>
       <r>   -18.3060     1.4202     1.9078 </r>
       <r>   -18.2025     0.8404     1.9948 </r>
       <r>   -18.0991     0.7862     2.0761 </r>
       <r>   -17.9956     1.8681     2.2693 </r>
       <r>   -17.8922     1.7035     2.4456 </r>
       <r>   -17.7887     1.0325     2.5524 </r>
       <r>   -17.6853     1.0526     2.6613 </r>
       <r>   -17.5818     0.6624     2.7298 </r>
       <r>   -17.4784     1.7333     2.9091 </r>
       <r>   -17.3749     2.0346     3.1196 </r>
       <r>   -17.2715     1.2856     3.2526 </r>
       <r>   -17.1680     0.6744     3.3224 </r>
       <r>   -17.0646     1.0672     3.4328 </r>
       <r>   -16.9611     1.0803     3.5445 </r>
       <r>   -16.8577     1.7783     3.7285 </r>
       <r>   -16.7542     1.9376     3.9289 </r>
       <r>   -16.6508     1.3770     4.0714 </r>
       <r>   -16.5473     0.9186     4.1664 </r>
       <r>   -16.4439     0.4622     4.2142 </r>
       <r>   -16.3404     1.3291     4.3517 </r>
       <r>   -16.2370     1.9658     4.5551 </r>
       <r>   -16.1335     1.7305     4.7341 </r>
       <r>   -16.0301     1.5322     4.8926 </r>
       <r>   -15.9266     1.3465     5.0319 </r>
       <r>   -15.8232     1.9001     5.2285 </r>
       <r>   -15.7197     1.8801     5.4230 </r>
       <r>   -15.6163     2.7085     5.7032 </r>
       <r>   -15.5128     4.2885     6.1468 </r>
       <r>   -15.4094     3.5382     6.5128 </r>
       <r>   -15.3059     3.0793     6.8314 </r>
       <r>   -15.2025     3.0524     7.1471 </r>
       <r>   -15.0991     3.5847     7.5180 </r>
       <r>   -14.9956     3.1818     7.8471 </r>
       <r>   -14.8922     3.0866     8.1664 </r>
       <r>   -14.7887     3.6170     8.5406 </r>
       <r>   -14.6853     3.2512     8.8770 </r>
       <r>   -14.5818     2.3299     9.1180 </r>
       <r>   -14.4784     1.8784     9.3123 </r>
       <r>   -14.3749     0.9386     9.4094 </r>
       <r>   -14.2715     1.6129     9.5763 </r>
       <r>   -14.1680     3.1961     9.9069 </r>
       <r>   -14.0646     3.6897    10.2886 </r>
       <r>   -13.9611     3.0987    10.6091 </r>
       <r>   -13.8577     1.6859    10.7836 </r>
       <r>   -13.7542     0.8817    10.8748 </r>
       <r>   -13.6508     0.8673    10.9645 </r>
       <r>   -13.5473     2.0543    11.1770 </r>
       <r>   -13.4439     2.0675    11.3909 </r>
       <r>   -13.3404     2.2398    11.6226 </r>
       <r>   -13.2370     1.8905    11.8182 </r>
       <r>   -13.1335     1.8864    12.0133 </r>
       <r>   -13.0301     2.5272    12.2748 </r>
       <r>   -12.9266     1.2848    12.4077 </r>
       <r>   -12.8232     1.8321    12.5972 </r>
       <r>   -12.7197     3.0505    12.9128 </r>
       <r>   -12.6163     2.4537    13.1666 </r>
       <r>   -12.5128     2.2455    13.3989 </r>
       <r>   -12.4094     2.8157    13.6902 </r>
       <r>   -12.3059     2.9603    13.9964 </r>
       <r>   -12.2025     4.1432    14.4250 </r>
       <r>   -12.0990     2.9427    14.7294 </r>
       <r>   -11.9956     2.9086    15.0303 </r>
       <r>   -11.8921     4.6369    15.5100 </r>
       <r>   -11.7887     4.6280    15.9888 </r>
       <r>   -11.6852     3.1978    16.3196 </r>
       <r>   -11.5818     3.1283    16.6432 </r>
       <r>   -11.4783     2.4300    16.8946 </r>
       <r>   -11.3749     1.2148    17.0203 </r>
       <r>   -11.2714     1.2022    17.1447 </r>
       <r>   -11.1680     1.2906    17.2782 </r>
       <r>   -11.0645     1.6309    17.4469 </r>
       <r>   -10.9611     1.4879    17.6008 </r>
       <r>   -10.8576     0.7541    17.6788 </r>
       <r>   -10.7542     1.7871    17.8637 </r>
       <r>   -10.6507     2.9963    18.1736 </r>
       <r>   -10.5473     3.4440    18.5299 </r>
       <r>   -10.4438     2.5151    18.7901 </r>
       <r>   -10.3404     4.1635    19.2208 </r>
       <r>   -10.2369     5.3133    19.7705 </r>
       <r>   -10.1335     2.8892    20.0694 </r>
       <r>   -10.0300     1.3872    20.2129 </r>
       <r>    -9.9266     1.2512    20.3423 </r>
       <r>    -9.8231     2.4720    20.5980 </r>
       <r>    -9.7197     2.7400    20.8815 </r>
       <r>    -9.6162     3.6323    21.2573 </r>
       <r>    -9.5128     3.5166    21.6211 </r>
       <r>    -9.4093     3.2331    21.9555 </r>
       <r>    -9.3059     3.8254    22.3513 </r>
       <r>    -9.2024     2.9360    22.6550 </r>
       <r>    -9.0990     3.1922    22.9852 </r>
       <r>    -8.9955     5.3467    23.5383 </r>
       <r>    -8.8921     4.6204    24.0163 </r>
       <r>    -8.7886     2.9381    24.3203 </r>
       <r>    -8.6852     3.0943    24.6404 </r>
       <r>    -8.5817     4.4043    25.0960 </r>
       <r>    -8.4783     4.8165    25.5943 </r>
       <r>    -8.3748     3.3685    25.9427 </r>
       <r>    -8.2714     2.1496    26.1651 </r>
       <r>    -8.1679     3.2307    26.4993 </r>
       <r>    -8.0645     4.0851    26.9219 </r>
       <r>    -7.9610     4.6515    27.4031 </r>
       <r>    -7.8576     6.0234    28.0262 </r>
       <r>    -7.7541     5.5535    28.6008 </r>
       <r>    -7.6507     3.2869    28.9408 </r>
       <r>    -7.5472     3.3157    29.2838 </r>
       <r>    -7.4438     4.7604    29.7763 </r>
       <r>    -7.3403     5.9275    30.3895 </r>
       <r>    -7.2369     4.6347    30.8689 </r>
       <r>    -7.1334     3.5562    31.2368 </r>
       <r>    -7.0300     5.2770    31.7827 </r>
       <r>    -6.9265     5.9567    32.3989 </r>
       <r>    -6.8231     4.4994    32.8644 </r>
       <r>    -6.7196     5.1460    33.3967 </r>
       <r>    -6.6162     5.8335    34.0002 </r>
       <r>    -6.5127     6.1725    34.6387 </r>
       <r>    -6.4093     7.8498    35.4508 </r>
       <r>    -6.3058     7.7701    36.2546 </r>
       <r>    -6.2024     5.9072    36.8657 </r>
       <r>    -6.0989     4.2089    37.3011 </r>
       <r>    -5.9955     4.2679    37.7426 </r>
       <r>    -5.8920     3.5802    38.1130 </r>
       <r>    -5.7886     4.1388    38.5412 </r>
       <r>    -5.6851     4.9577    39.0540 </r>
       <r>    -5.5817     3.8723    39.4546 </r>
       <r>    -5.4782     2.5235    39.7157 </r>
       <r>    -5.3748     3.1740    40.0440 </r>
       <r>    -5.2713     4.1230    40.4706 </r>
       <r>    -5.1679     4.7978    40.9669 </r>
       <r>    -5.0644     4.3195    41.4137 </r>
       <r>    -4.9610     2.7712    41.7004 </r>
       <r>    -4.8575     2.4410    41.9530 </r>
       <r>    -4.7541     4.0536    42.3723 </r>
       <r>    -4.6506     5.1804    42.9082 </r>
       <r>    -4.5472     3.7377    43.2949 </r>
       <r>    -4.4437     2.7088    43.5751 </r>
       <r>    -4.3403     3.4304    43.9300 </r>
       <r>    -4.2368     4.4411    44.3894 </r>
       <r>    -4.1334     4.9569    44.9022 </r>
       <r>    -4.0299     6.4655    45.5710 </r>
       <r>    -3.9265     5.1651    46.1054 </r>
       <r>    -3.8230     5.3269    46.6564 </r>
       <r>    -3.7196     6.6961    47.3491 </r>
       <r>    -3.6161     7.1087    48.0845 </r>
       <r>    -3.5127     6.3717    48.7437 </r>
       <r>    -3.4092     4.9383    49.2545 </r>
       <r>    -3.3058     2.9195    49.5566 </r>
       <r>    -3.2023     2.6018    49.8257 </r>
       <r>    -3.0989     4.3197    50.2726 </r>
       <r>    -2.9954     4.7021    50.7590 </r>
       <r>    -2.8920     3.1396    51.0838 </r>
       <r>    -2.7885     2.1622    51.3075 </r>
       <r>    -2.6851     1.7688    51.4905 </r>
       <r>    -2.5816     3.0762    51.8087 </r>
       <r>    -2.4782     4.3253    52.2562 </r>
       <r>    -2.3747     3.9619    52.6660 </r>
       <r>    -2.2713     2.1689    52.8904 </r>
       <r>    -2.1678     1.9348    53.0905 </r>
       <r>    -2.0644     1.7961    53.2764 </r>
       <r>    -1.9609     2.0645    53.4899 </r>
       <r>    -1.8575     2.2634    53.7241 </r>
       <r>    -1.7540     2.0582    53.9370 </r>
       <r>    -1.6506     2.0196    54.1459 </r>
       <r>    -1.5471     2.5635    54.4111 </r>
       <r>    -1.4437     2.2561    54.6445 </r>
       <r>    -1.3402     1.4050    54.7898 </r>
       <r>    -1.2368     1.4920    54.9442 </r>
       <r>    -1.1333     0.9549    55.0430 </r>
       <r>    -1.0299     1.7346    55.2224 </r>
       <r>    -0.9264     2.4751    55.4785 </r>
       <r>    -0.8230     1.2371    55.6064 </r>
       <r>    -0.7195     0.5313    55.6614 </r>
       <r>    -0.6161     0.3923    55.7020 </r>
       <r>    -0.5126     0.9481    55.8001 </r>
       <r>    -0.4092     0.6947    55.8719 </r>
       <r>    -0.3057     0.5652    55.9304 </r>
       <r>    -0.2023     0.7560    56.0086 </r>
       <r>    -0.0988     1.1183    56.1243 </r>
       <r>     0.0046     1.3338    56.2623 </r>
       <r>     0.1081     0.9666    56.3623 </r>
       <r>     0.2115     1.1823    56.4846 </r>
       <r>     0.3150     1.2782    56.6168 </r>
       <r>     0.4184     1.6618    56.7887 </r>
       <r>     0.5219     2.9513    57.0940 </r>
       <r>     0.6253     4.2826    57.5371 </r>
       <r>     0.7288     3.3070    57.8792 </r>
       <r>     0.8322     1.4504    58.0292 </r>
       <r>     0.9357     1.1947    58.1528 </r>
       <r>     1.0391     1.6310    58.3215 </r>
       <r>     1.1426     2.1321    58.5421 </r>
       <r>     1.2460     3.0419    58.8568 </r>
       <r>     1.3494     5.1346    59.3880 </r>
       <r>     1.4529     5.5084    59.9578 </r>
       <r>     1.5563     2.4089    60.2070 </r>
       <r>     1.6598     1.2349    60.3347 </r>
       <r>     1.7632     1.8014    60.5211 </r>
       <r>     1.8667     1.6542    60.6922 </r>
       <r>     1.9701     2.6263    60.9639 </r>
       <r>     2.0736     3.1328    61.2880 </r>
       <r>     2.1770     3.5121    61.6513 </r>
       <r>     2.2805     3.7723    62.0416 </r>
       <r>     2.3839     2.5038    62.3006 </r>
       <r>     2.4874     1.4941    62.4552 </r>
       <r>     2.5908     0.9123    62.5495 </r>
       <r>     2.6943     1.9920    62.7556 </r>
       <r>     2.7977     2.9224    63.0579 </r>
       <r>     2.9012     5.2759    63.6037 </r>
       <r>     3.0046     4.8924    64.1098 </r>
       <r>     3.1081     3.3487    64.4563 </r>
       <r>     3.2115     2.4856    64.7134 </r>
       <r>     3.3150     3.7073    65.0969 </r>
       <r>     3.4184     4.5728    65.5700 </r>
       <r>     3.5219     3.1288    65.8937 </r>
       <r>     3.6253     3.9956    66.3070 </r>
       <r>     3.7288     6.0863    66.9366 </r>
       <r>     3.8322     5.9906    67.5563 </r>
       <r>     3.9357     5.7445    68.1506 </r>
       <r>     4.0391     6.0191    68.7733 </r>
       <r>     4.1426     5.3500    69.3267 </r>
       <r>     4.2460     4.8272    69.8261 </r>
       <r>     4.3495     4.5276    70.2945 </r>
       <r>     4.4529     4.6437    70.7749 </r>
       <r>     4.5564     5.7156    71.3662 </r>
       <r>     4.6598     6.4688    72.0354 </r>
       <r>     4.7633     5.1781    72.5710 </r>
       <r>     4.8667     6.5857    73.2523 </r>
       <r>     4.9702     9.4778    74.2328 </r>
       <r>     5.0736     7.2521    74.9830 </r>
       <r>     5.1771     5.4711    75.5490 </r>
       <r>     5.2805     5.8907    76.1584 </r>
       <r>     5.3840     7.0434    76.8871 </r>
       <r>     5.4874     5.5190    77.4580 </r>
       <r>     5.5909     7.2994    78.2131 </r>
       <r>     5.6943     8.6901    79.1121 </r>
       <r>     5.7978     5.4184    79.6726 </r>
       <r>     5.9012     4.4772    80.1358 </r>
       <r>     6.0047     6.5501    80.8134 </r>
       <r>     6.1081     5.7874    81.4121 </r>
       <r>     6.2116     5.0573    81.9353 </r>
       <r>     6.3150     5.4577    82.4999 </r>
       <r>     6.4185     5.9464    83.1151 </r>
       <r>     6.5219     5.4385    83.6777 </r>
       <r>     6.6254     6.4400    84.3439 </r>
       <r>     6.7288     6.1625    84.9814 </r>
       <r>     6.8323     7.1985    85.7261 </r>
       <r>     6.9357     8.6266    86.6185 </r>
       <r>     7.0392     9.1138    87.5613 </r>
       <r>     7.1426     9.1136    88.5041 </r>
       <r>     7.2461     8.5025    89.3837 </r>
       <r>     7.3495     6.9859    90.1064 </r>
       <r>     7.4530     6.8879    90.8189 </r>
       <r>     7.5564     8.7983    91.7291 </r>
       <r>     7.6599     9.4648    92.7083 </r>
       <r>     7.7633    10.4875    93.7932 </r>
       <r>     7.8668     9.0333    94.7277 </r>
       <r>     7.9702     5.9867    95.3470 </r>
       <r>     8.0737     3.5788    95.7172 </r>
       <r>     8.1771     2.0185    95.9260 </r>
       <r>     8.2806     0.5273    95.9806 </r>
       <r>     8.3840     0.0751    95.9884 </r>
       <r>     8.4875     0.0845    95.9971 </r>
       <r>     8.5909     0.0268    95.9999 </r>
       <r>     8.6944     0.0013    96.0000 </r>
       <r>     8.7978     0.0000    96.0000 </r>
       <r>     8.9013     0.0000    96.0000 </r>
       <r>     9.0047     0.0000    96.0000 </r>
       <r>     9.1082     0.0000    96.0000 </r>
       <r>     9.2116     0.0000    96.0000 </r>
       <r>     9.3151     0.0000    96.0000 </r>
       <r>     9.4185     0.0000    96.0000 </r>
       <r>     9.5220     0.0000    96.0000 </r>
       <r>     9.6254     0.0000    96.0000 </r>
       <r>     9.7289     0.0000    96.0000 </r>
       <r>     9.8323     0.0000    96.0000 </r>
      </set>
     </set>
    </array>
   </total>
  </dos>
 </calculation>
 <structure name="finalpos" >
  <crystal>
   <varray name="basis" >
    <v>       4.31194049       2.48950000       0.00000000 </v>
    <v>      -4.31194049       2.48950000       0.00000000 </v>
    <v>       0.00000000       0.00000000      15.00000000 </v>
   </varray>
   <i name="volume">    322.03727516 </i>
   <varray name="rec_basis" >
    <v>       0.11595707       0.20084354       0.00000000 </v>
    <v>      -0.11595707       0.20084354       0.00000000 </v>
    <v>       0.00000000       0.00000000       0.06666667 </v>
   </varray>
  </crystal>
  <varray name="positions" >
   <v>       0.68285955       0.98574321       0.10120496 </v>
   <v>       0.34582221       0.98571217       0.10120830 </v>
   <v>       0.01425679       0.31713945       0.10120496 </v>
   <v>       0.01428783       0.65417679       0.10120830 </v>
   <v>       0.34572526       0.31709865       0.10006198 </v>
   <v>       0.68290035       0.65427374       0.10006198 </v>
   <v>       0.68063631       0.31936269       0.08791609 </v>
   <v>       0.34739245       0.65260655       0.11379388 </v>
   <v>       0.23572668       0.26419444       0.33449661 </v>
   <v>       0.40241503       0.09754522       0.33449697 </v>
   <v>       0.23574612       0.76425288       0.33462817 </v>
   <v>       0.40242111       0.59757789       0.33457528 </v>
   <v>       0.73577348       0.26422552       0.33447922 </v>
   <v>       0.90243818       0.09756082       0.33433640 </v>
   <v>       0.73580456       0.76427232       0.33449661 </v>
   <v>       0.90245378       0.59758397       0.33449697 </v>
  </varray>
 </structure>
</modeling>
