  16  16   0   4
  0.2060716E+02  0.5038000E-09  0.5038000E-09  0.1500000E-08  0.5000000E-15
  1.000000000000000E-004
  CAR 
 Lattice                                 
      9.70358351    -21.34296299  301     -0.97385877      1.00000000
    -21.343  0.0000E+00  0.0000E+00  0.0000E+00  0.0000E+00
    -21.239  0.0000E+00  0.0000E+00  0.0000E+00  0.0000E+00
    -21.136  0.0000E+00  0.0000E+00  0.0000E+00  0.0000E+00
    -21.032  0.0000E+00  0.0000E+00  0.0000E+00  0.0000E+00
    -20.929  0.0000E+00  0.0000E+00  0.0000E+00  0.0000E+00
    -20.826  0.0000E+00  0.0000E+00  0.0000E+00  0.0000E+00
    -20.722  0.0000E+00  0.0000E+00  0.0000E+00  0.0000E+00
    -20.619  0.0000E+00  0.0000E+00  0.0000E+00  0.0000E+00
    -20.515  0.2910E-19  0.2910E-19  0.3012E-20  0.3012E-20
    -20.412  0.3356E-14  0.3356E-14  0.3473E-15  0.3473E-15
    -20.308  0.3331E-10  0.3331E-10  0.3448E-11  0.3448E-11
    -20.205  0.4563E-07  0.4563E-07  0.4725E-08  0.4725E-08
    -20.101  0.9324E-05  0.9324E-05  0.9697E-06  0.9697E-06
    -19.998  0.3136E-03  0.3136E-03  0.3343E-04  0.3343E-04
    -19.894  0.2124E-02  0.2124E-02  0.2532E-03  0.2532E-03
    -19.791  0.4397E-02  0.4397E-02  0.7082E-03  0.7082E-03
    -19.687  0.4893E-02  0.4893E-02  0.1215E-02  0.1215E-02
    -19.584  0.5162E-02  0.5162E-02  0.1749E-02  0.1749E-02
    -19.480  0.4630E-02  0.4630E-02  0.2228E-02  0.2228E-02
    -19.377  0.5669E-02  0.5669E-02  0.2815E-02  0.2815E-02
    -19.273  0.4275E-02  0.4275E-02  0.3257E-02  0.3257E-02
    -19.170  0.5217E-02  0.5217E-02  0.3797E-02  0.3797E-02
    -19.066  0.5928E-02  0.5928E-02  0.4411E-02  0.4411E-02
    -18.963  0.3662E-02  0.3662E-02  0.4790E-02  0.4790E-02
    -18.859  0.5257E-02  0.5257E-02  0.5334E-02  0.5334E-02
    -18.756  0.6369E-02  0.6369E-02  0.5993E-02  0.5993E-02
    -18.652  0.4487E-02  0.4487E-02  0.6457E-02  0.6457E-02
    -18.549  0.3333E-02  0.3333E-02  0.6802E-02  0.6802E-02
    -18.445  0.6668E-02  0.6668E-02  0.7492E-02  0.7492E-02
    -18.342  0.6080E-02  0.6080E-02  0.8121E-02  0.8121E-02
    -18.238  0.4251E-02  0.4251E-02  0.8561E-02  0.8561E-02
    -18.135  0.3370E-02  0.3370E-02  0.8910E-02  0.8910E-02
    -18.031  0.6230E-02  0.6230E-02  0.9555E-02  0.9555E-02
    -17.928  0.1052E-01  0.1052E-01  0.1064E-01  0.1064E-01
    -17.824  0.1067E-01  0.1067E-01  0.1175E-01  0.1175E-01
    -17.721  0.1080E-01  0.1080E-01  0.1287E-01  0.1287E-01
    -17.617  0.1255E-01  0.1255E-01  0.1416E-01  0.1416E-01
    -17.514  0.1569E-01  0.1569E-01  0.1579E-01  0.1579E-01
    -17.410  0.1912E-01  0.1912E-01  0.1777E-01  0.1777E-01
    -17.307  0.2061E-01  0.2061E-01  0.1990E-01  0.1990E-01
    -17.203  0.1355E-01  0.1355E-01  0.2130E-01  0.2130E-01
    -17.100  0.6444E-02  0.6444E-02  0.2197E-01  0.2197E-01
    -16.996  0.7287E-02  0.7287E-02  0.2272E-01  0.2272E-01
    -16.893  0.6828E-02  0.6828E-02  0.2343E-01  0.2343E-01
    -16.789  0.5608E-02  0.5608E-02  0.2401E-01  0.2401E-01
    -16.686  0.4641E-02  0.4641E-02  0.2449E-01  0.2449E-01
    -16.582  0.2859E-02  0.2859E-02  0.2479E-01  0.2479E-01
    -16.479  0.3927E-02  0.3927E-02  0.2519E-01  0.2519E-01
    -16.376  0.9174E-02  0.9174E-02  0.2614E-01  0.2614E-01
    -16.272  0.6592E-02  0.6592E-02  0.2682E-01  0.2682E-01
    -16.169  0.4811E-02  0.4811E-02  0.2732E-01  0.2732E-01
    -16.065  0.4304E-02  0.4304E-02  0.2777E-01  0.2777E-01
    -15.962  0.4266E-02  0.4266E-02  0.2821E-01  0.2821E-01
    -15.858  0.3602E-02  0.3602E-02  0.2858E-01  0.2858E-01
    -15.755  0.8127E-02  0.8127E-02  0.2942E-01  0.2942E-01
    -15.651  0.1077E-01  0.1077E-01  0.3054E-01  0.3054E-01
    -15.548  0.1157E-01  0.1157E-01  0.3173E-01  0.3173E-01
    -15.444  0.1497E-01  0.1497E-01  0.3328E-01  0.3328E-01
    -15.341  0.1604E-01  0.1604E-01  0.3494E-01  0.3494E-01
    -15.237  0.1321E-01  0.1321E-01  0.3631E-01  0.3631E-01
    -15.134  0.1419E-01  0.1419E-01  0.3778E-01  0.3778E-01
    -15.030  0.1745E-01  0.1745E-01  0.3959E-01  0.3959E-01
    -14.927  0.1638E-01  0.1638E-01  0.4128E-01  0.4128E-01
    -14.823  0.1306E-01  0.1306E-01  0.4263E-01  0.4263E-01
    -14.720  0.9852E-02  0.9852E-02  0.4365E-01  0.4365E-01
    -14.616  0.9408E-02  0.9408E-02  0.4463E-01  0.4463E-01
    -14.513  0.1480E-01  0.1480E-01  0.4616E-01  0.4616E-01
    -14.409  0.1883E-01  0.1883E-01  0.4811E-01  0.4811E-01
    -14.306  0.1560E-01  0.1560E-01  0.4972E-01  0.4972E-01
    -14.202  0.1135E-01  0.1135E-01  0.5090E-01  0.5090E-01
    -14.099  0.9060E-02  0.9060E-02  0.5183E-01  0.5183E-01
    -13.995  0.7969E-02  0.7969E-02  0.5266E-01  0.5266E-01
    -13.892  0.8784E-02  0.8784E-02  0.5357E-01  0.5357E-01
    -13.788  0.7859E-02  0.7859E-02  0.5438E-01  0.5438E-01
    -13.685  0.4534E-02  0.4534E-02  0.5485E-01  0.5485E-01
    -13.581  0.4694E-02  0.4694E-02  0.5534E-01  0.5534E-01
    -13.478  0.4380E-02  0.4380E-02  0.5579E-01  0.5579E-01
    -13.374  0.5828E-02  0.5828E-02  0.5639E-01  0.5639E-01
    -13.271  0.6014E-02  0.6014E-02  0.5701E-01  0.5701E-01
    -13.167  0.6121E-02  0.6121E-02  0.5765E-01  0.5765E-01
    -13.064  0.8033E-02  0.8033E-02  0.5848E-01  0.5848E-01
    -12.960  0.7276E-02  0.7276E-02  0.5923E-01  0.5923E-01
    -12.857  0.8569E-02  0.8569E-02  0.6012E-01  0.6012E-01
    -12.753  0.6220E-02  0.6220E-02  0.6076E-01  0.6076E-01
    -12.650  0.6465E-02  0.6465E-02  0.6143E-01  0.6143E-01
    -12.546  0.5805E-02  0.5805E-02  0.6203E-01  0.6203E-01
    -12.443  0.3630E-02  0.3630E-02  0.6241E-01  0.6241E-01
    -12.339  0.8243E-02  0.8243E-02  0.6326E-01  0.6326E-01
    -12.236  0.6701E-02  0.6701E-02  0.6395E-01  0.6395E-01
    -12.132  0.4821E-02  0.4821E-02  0.6445E-01  0.6445E-01
    -12.029  0.9113E-02  0.9113E-02  0.6540E-01  0.6540E-01
    -11.926  0.1459E-01  0.1459E-01  0.6691E-01  0.6691E-01
    -11.822  0.1623E-01  0.1623E-01  0.6859E-01  0.6859E-01
    -11.719  0.1389E-01  0.1389E-01  0.7002E-01  0.7002E-01
    -11.615  0.1422E-01  0.1422E-01  0.7149E-01  0.7149E-01
    -11.512  0.1702E-01  0.1702E-01  0.7326E-01  0.7326E-01
    -11.408  0.1329E-01  0.1329E-01  0.7463E-01  0.7463E-01
    -11.305  0.9541E-02  0.9541E-02  0.7562E-01  0.7562E-01
    -11.201  0.9153E-02  0.9153E-02  0.7657E-01  0.7657E-01
    -11.098  0.1087E-01  0.1087E-01  0.7769E-01  0.7769E-01
    -10.994  0.9794E-02  0.9794E-02  0.7870E-01  0.7870E-01
    -10.891  0.6808E-02  0.6808E-02  0.7941E-01  0.7941E-01
    -10.787  0.1156E-01  0.1156E-01  0.8061E-01  0.8061E-01
    -10.684  0.1544E-01  0.1544E-01  0.8220E-01  0.8220E-01
    -10.580  0.1249E-01  0.1249E-01  0.8350E-01  0.8350E-01
    -10.477  0.7321E-02  0.7321E-02  0.8425E-01  0.8425E-01
    -10.373  0.8592E-02  0.8592E-02  0.8514E-01  0.8514E-01
    -10.270  0.1714E-01  0.1714E-01  0.8692E-01  0.8692E-01
    -10.166  0.1763E-01  0.1763E-01  0.8874E-01  0.8874E-01
    -10.063  0.1113E-01  0.1113E-01  0.8989E-01  0.8989E-01
     -9.959  0.9615E-02  0.9615E-02  0.9089E-01  0.9089E-01
     -9.856  0.8672E-02  0.8672E-02  0.9179E-01  0.9179E-01
     -9.752  0.1145E-01  0.1145E-01  0.9297E-01  0.9297E-01
     -9.649  0.9452E-02  0.9452E-02  0.9395E-01  0.9395E-01
     -9.545  0.1115E-01  0.1115E-01  0.9510E-01  0.9510E-01
     -9.442  0.1073E-01  0.1073E-01  0.9621E-01  0.9621E-01
     -9.338  0.1020E-01  0.1020E-01  0.9727E-01  0.9727E-01
     -9.235  0.1037E-01  0.1037E-01  0.9834E-01  0.9834E-01
     -9.131  0.3659E-02  0.3659E-02  0.9872E-01  0.9872E-01
     -9.028  0.1701E-02  0.1701E-02  0.9890E-01  0.9890E-01
     -8.924  0.1013E-01  0.1013E-01  0.9995E-01  0.9995E-01
     -8.821  0.1905E-01  0.1905E-01  0.1019E+00  0.1019E+00
     -8.717  0.1783E-01  0.1783E-01  0.1038E+00  0.1038E+00
     -8.614  0.1070E-01  0.1070E-01  0.1049E+00  0.1049E+00
     -8.510  0.7729E-02  0.7729E-02  0.1057E+00  0.1057E+00
     -8.407  0.8880E-02  0.8880E-02  0.1066E+00  0.1066E+00
     -8.303  0.1225E-01  0.1225E-01  0.1079E+00  0.1079E+00
     -8.200  0.2466E-01  0.2466E-01  0.1104E+00  0.1104E+00
     -8.096  0.2327E-01  0.2327E-01  0.1128E+00  0.1128E+00
     -7.993  0.1898E-01  0.1898E-01  0.1148E+00  0.1148E+00
     -7.889  0.1562E-01  0.1562E-01  0.1164E+00  0.1164E+00
     -7.786  0.1296E-01  0.1296E-01  0.1177E+00  0.1177E+00
     -7.682  0.2051E-01  0.2051E-01  0.1199E+00  0.1199E+00
     -7.579  0.2514E-01  0.2514E-01  0.1225E+00  0.1225E+00
     -7.476  0.2315E-01  0.2315E-01  0.1249E+00  0.1249E+00
     -7.372  0.2244E-01  0.2244E-01  0.1272E+00  0.1272E+00
     -7.269  0.2601E-01  0.2601E-01  0.1299E+00  0.1299E+00
     -7.165  0.2302E-01  0.2302E-01  0.1323E+00  0.1323E+00
     -7.062  0.2498E-01  0.2498E-01  0.1348E+00  0.1348E+00
     -6.958  0.2577E-01  0.2577E-01  0.1375E+00  0.1375E+00
     -6.855  0.1744E-01  0.1744E-01  0.1393E+00  0.1393E+00
     -6.751  0.2203E-01  0.2203E-01  0.1416E+00  0.1416E+00
     -6.648  0.2675E-01  0.2675E-01  0.1444E+00  0.1444E+00
     -6.544  0.2429E-01  0.2429E-01  0.1469E+00  0.1469E+00
     -6.441  0.2454E-01  0.2454E-01  0.1494E+00  0.1494E+00
     -6.337  0.2275E-01  0.2275E-01  0.1518E+00  0.1518E+00
     -6.234  0.2506E-01  0.2506E-01  0.1544E+00  0.1544E+00
     -6.130  0.2012E-01  0.2012E-01  0.1564E+00  0.1564E+00
     -6.027  0.1634E-01  0.1634E-01  0.1581E+00  0.1581E+00
     -5.923  0.1921E-01  0.1921E-01  0.1601E+00  0.1601E+00
     -5.820  0.2551E-01  0.2551E-01  0.1628E+00  0.1628E+00
     -5.716  0.2241E-01  0.2241E-01  0.1651E+00  0.1651E+00
     -5.613  0.1773E-01  0.1773E-01  0.1669E+00  0.1669E+00
     -5.509  0.2191E-01  0.2191E-01  0.1692E+00  0.1692E+00
     -5.406  0.2617E-01  0.2617E-01  0.1719E+00  0.1719E+00
     -5.302  0.2869E-01  0.2869E-01  0.1749E+00  0.1749E+00
     -5.199  0.2093E-01  0.2093E-01  0.1770E+00  0.1770E+00
     -5.095  0.1259E-01  0.1259E-01  0.1783E+00  0.1783E+00
     -4.992  0.1462E-01  0.1462E-01  0.1798E+00  0.1798E+00
     -4.888  0.1863E-01  0.1863E-01  0.1818E+00  0.1818E+00
     -4.785  0.1710E-01  0.1710E-01  0.1835E+00  0.1835E+00
     -4.681  0.1642E-01  0.1642E-01  0.1852E+00  0.1852E+00
     -4.578  0.1721E-01  0.1721E-01  0.1870E+00  0.1870E+00
     -4.474  0.1659E-01  0.1659E-01  0.1887E+00  0.1887E+00
     -4.371  0.1865E-01  0.1865E-01  0.1907E+00  0.1907E+00
     -4.267  0.2287E-01  0.2287E-01  0.1930E+00  0.1930E+00
     -4.164  0.3008E-01  0.3008E-01  0.1961E+00  0.1961E+00
     -4.060  0.3993E-01  0.3993E-01  0.2003E+00  0.2003E+00
     -3.957  0.3403E-01  0.3403E-01  0.2038E+00  0.2038E+00
     -3.853  0.2295E-01  0.2295E-01  0.2062E+00  0.2062E+00
     -3.750  0.1542E-01  0.1542E-01  0.2078E+00  0.2078E+00
     -3.646  0.1595E-01  0.1595E-01  0.2094E+00  0.2094E+00
     -3.543  0.1659E-01  0.1659E-01  0.2111E+00  0.2111E+00
     -3.439  0.2001E-01  0.2001E-01  0.2132E+00  0.2132E+00
     -3.336  0.2084E-01  0.2084E-01  0.2154E+00  0.2154E+00
     -3.232  0.1460E-01  0.1460E-01  0.2169E+00  0.2169E+00
     -3.129  0.1307E-01  0.1307E-01  0.2182E+00  0.2182E+00
     -3.026  0.1780E-01  0.1780E-01  0.2201E+00  0.2201E+00
     -2.922  0.2520E-01  0.2520E-01  0.2227E+00  0.2227E+00
     -2.819  0.2043E-01  0.2043E-01  0.2248E+00  0.2248E+00
     -2.715  0.1027E-01  0.1027E-01  0.2259E+00  0.2259E+00
     -2.612  0.1260E-01  0.1260E-01  0.2272E+00  0.2272E+00
     -2.508  0.2089E-01  0.2089E-01  0.2293E+00  0.2293E+00
     -2.405  0.2087E-01  0.2087E-01  0.2315E+00  0.2315E+00
     -2.301  0.1828E-01  0.1828E-01  0.2334E+00  0.2334E+00
     -2.198  0.2254E-01  0.2254E-01  0.2357E+00  0.2357E+00
     -2.094  0.1805E-01  0.1805E-01  0.2376E+00  0.2376E+00
     -1.991  0.5356E-02  0.5356E-02  0.2381E+00  0.2381E+00
     -1.887  0.4870E-02  0.4870E-02  0.2386E+00  0.2386E+00
     -1.784  0.7410E-02  0.7410E-02  0.2394E+00  0.2394E+00
     -1.680  0.5715E-02  0.5715E-02  0.2400E+00  0.2400E+00
     -1.577  0.6452E-02  0.6452E-02  0.2407E+00  0.2407E+00
     -1.473  0.6289E-02  0.6289E-02  0.2413E+00  0.2413E+00
     -1.370  0.4274E-02  0.4274E-02  0.2418E+00  0.2418E+00
     -1.266  0.2503E-02  0.2503E-02  0.2420E+00  0.2420E+00
     -1.163  0.6319E-03  0.6319E-03  0.2421E+00  0.2421E+00
     -1.059  0.2250E-03  0.2250E-03  0.2421E+00  0.2421E+00
     -0.956  0.1174E-02  0.1174E-02  0.2422E+00  0.2422E+00
     -0.852  0.2568E-02  0.2568E-02  0.2425E+00  0.2425E+00
     -0.749  0.3250E-02  0.3250E-02  0.2428E+00  0.2428E+00
     -0.645  0.4287E-02  0.4287E-02  0.2433E+00  0.2433E+00
     -0.542  0.8621E-02  0.8621E-02  0.2442E+00  0.2442E+00
     -0.438  0.9519E-02  0.9519E-02  0.2451E+00  0.2451E+00
     -0.335  0.8876E-02  0.8876E-02  0.2461E+00  0.2461E+00
     -0.231  0.1006E-01  0.1006E-01  0.2471E+00  0.2471E+00
     -0.128  0.1044E-01  0.1044E-01  0.2482E+00  0.2482E+00
     -0.024  0.1032E-01  0.1032E-01  0.2493E+00  0.2493E+00
      0.079  0.4013E-02  0.4013E-02  0.2497E+00  0.2497E+00
      0.183  0.4339E-02  0.4339E-02  0.2501E+00  0.2501E+00
      0.286  0.9350E-02  0.9350E-02  0.2511E+00  0.2511E+00
      0.390  0.8573E-02  0.8573E-02  0.2520E+00  0.2520E+00
      0.493  0.6419E-02  0.6419E-02  0.2526E+00  0.2526E+00
      0.597  0.7362E-02  0.7362E-02  0.2534E+00  0.2534E+00
      0.700  0.1030E-01  0.1030E-01  0.2545E+00  0.2545E+00
      0.804  0.9522E-02  0.9522E-02  0.2554E+00  0.2554E+00
      0.907  0.1020E-01  0.1020E-01  0.2565E+00  0.2565E+00
      1.011  0.9343E-02  0.9343E-02  0.2575E+00  0.2575E+00
      1.114  0.4656E-02  0.4656E-02  0.2580E+00  0.2580E+00
      1.218  0.5519E-02  0.5519E-02  0.2585E+00  0.2585E+00
      1.321  0.5098E-02  0.5098E-02  0.2590E+00  0.2590E+00
      1.425  0.4094E-02  0.4094E-02  0.2595E+00  0.2595E+00
      1.528  0.3936E-02  0.3936E-02  0.2599E+00  0.2599E+00
      1.631  0.8463E-02  0.8463E-02  0.2608E+00  0.2608E+00
      1.735  0.1206E-01  0.1206E-01  0.2620E+00  0.2620E+00
      1.838  0.4242E-02  0.4242E-02  0.2624E+00  0.2624E+00
      1.942  0.3068E-02  0.3068E-02  0.2628E+00  0.2628E+00
      2.045  0.5194E-02  0.5194E-02  0.2633E+00  0.2633E+00
      2.149  0.5925E-02  0.5925E-02  0.2639E+00  0.2639E+00
      2.252  0.1204E-01  0.1204E-01  0.2652E+00  0.2652E+00
      2.356  0.1578E-01  0.1578E-01  0.2668E+00  0.2668E+00
      2.459  0.1229E-01  0.1229E-01  0.2681E+00  0.2681E+00
      2.563  0.1305E-01  0.1305E-01  0.2694E+00  0.2694E+00
      2.666  0.1210E-01  0.1210E-01  0.2707E+00  0.2707E+00
      2.770  0.8082E-02  0.8081E-02  0.2715E+00  0.2715E+00
      2.873  0.8886E-02  0.8886E-02  0.2724E+00  0.2724E+00
      2.977  0.1084E-01  0.1084E-01  0.2735E+00  0.2735E+00
      3.080  0.1245E-01  0.1245E-01  0.2748E+00  0.2748E+00
      3.184  0.1501E-01  0.1501E-01  0.2764E+00  0.2764E+00
      3.287  0.1463E-01  0.1463E-01  0.2779E+00  0.2779E+00
      3.391  0.9658E-02  0.9658E-02  0.2789E+00  0.2789E+00
      3.494  0.7546E-02  0.7545E-02  0.2797E+00  0.2797E+00
      3.598  0.1230E-01  0.1230E-01  0.2810E+00  0.2810E+00
      3.701  0.1251E-01  0.1251E-01  0.2822E+00  0.2822E+00
      3.805  0.9031E-02  0.9031E-02  0.2832E+00  0.2832E+00
      3.908  0.1309E-01  0.1309E-01  0.2845E+00  0.2845E+00
      4.012  0.1814E-01  0.1814E-01  0.2864E+00  0.2864E+00
      4.115  0.1514E-01  0.1514E-01  0.2880E+00  0.2880E+00
      4.219  0.1452E-01  0.1452E-01  0.2895E+00  0.2895E+00
      4.322  0.1468E-01  0.1468E-01  0.2910E+00  0.2910E+00
      4.426  0.1606E-01  0.1606E-01  0.2927E+00  0.2927E+00
      4.529  0.1328E-01  0.1328E-01  0.2940E+00  0.2940E+00
      4.633  0.1203E-01  0.1203E-01  0.2953E+00  0.2953E+00
      4.736  0.1591E-01  0.1591E-01  0.2969E+00  0.2969E+00
      4.840  0.1939E-01  0.1939E-01  0.2989E+00  0.2989E+00
      4.943  0.1880E-01  0.1880E-01  0.3009E+00  0.3009E+00
      5.047  0.1805E-01  0.1805E-01  0.3028E+00  0.3028E+00
      5.150  0.1619E-01  0.1619E-01  0.3044E+00  0.3044E+00
      5.254  0.1480E-01  0.1480E-01  0.3060E+00  0.3060E+00
      5.357  0.1554E-01  0.1554E-01  0.3076E+00  0.3076E+00
      5.461  0.2067E-01  0.2067E-01  0.3097E+00  0.3097E+00
      5.564  0.1884E-01  0.1884E-01  0.3117E+00  0.3117E+00
      5.668  0.1388E-01  0.1388E-01  0.3131E+00  0.3131E+00
      5.771  0.1490E-01  0.1490E-01  0.3146E+00  0.3146E+00
      5.875  0.2299E-01  0.2299E-01  0.3170E+00  0.3170E+00
      5.978  0.2199E-01  0.2199E-01  0.3193E+00  0.3193E+00
      6.081  0.2466E-01  0.2466E-01  0.3218E+00  0.3218E+00
      6.185  0.2941E-01  0.2941E-01  0.3249E+00  0.3249E+00
      6.288  0.2584E-01  0.2584E-01  0.3276E+00  0.3276E+00
      6.392  0.2439E-01  0.2439E-01  0.3301E+00  0.3301E+00
      6.495  0.1856E-01  0.1856E-01  0.3320E+00  0.3320E+00
      6.599  0.1907E-01  0.1907E-01  0.3340E+00  0.3340E+00
      6.702  0.2995E-01  0.2995E-01  0.3371E+00  0.3371E+00
      6.806  0.3143E-01  0.3143E-01  0.3403E+00  0.3403E+00
      6.909  0.2900E-01  0.2900E-01  0.3433E+00  0.3433E+00
      7.013  0.3293E-01  0.3293E-01  0.3467E+00  0.3467E+00
      7.116  0.3470E-01  0.3470E-01  0.3503E+00  0.3503E+00
      7.220  0.3013E-01  0.3013E-01  0.3534E+00  0.3534E+00
      7.323  0.3091E-01  0.3091E-01  0.3566E+00  0.3566E+00
      7.427  0.3754E-01  0.3754E-01  0.3605E+00  0.3605E+00
      7.530  0.3225E-01  0.3225E-01  0.3639E+00  0.3639E+00
      7.634  0.2483E-01  0.2483E-01  0.3664E+00  0.3664E+00
      7.737  0.2922E-01  0.2922E-01  0.3695E+00  0.3695E+00
      7.841  0.2088E-01  0.2089E-01  0.3716E+00  0.3716E+00
      7.944  0.1471E-01  0.1471E-01  0.3731E+00  0.3731E+00
      8.048  0.9952E-02  0.9953E-02  0.3742E+00  0.3742E+00
      8.151  0.3397E-02  0.3397E-02  0.3745E+00  0.3745E+00
      8.255  0.1962E-02  0.1962E-02  0.3747E+00  0.3747E+00
      8.358  0.2056E-02  0.2057E-02  0.3749E+00  0.3749E+00
      8.462  0.5563E-03  0.5564E-03  0.3750E+00  0.3750E+00
      8.565  0.2627E-04  0.2628E-04  0.3750E+00  0.3750E+00
      8.669  0.1796E-06  0.1797E-06  0.3750E+00  0.3750E+00
      8.772  0.1613E-09  0.1615E-09  0.3750E+00  0.3750E+00
      8.876  0.1817E-13  0.1819E-13  0.3750E+00  0.3750E+00
      8.979  0.0000E+00  0.0000E+00  0.3750E+00  0.3750E+00
      9.083  0.0000E+00  0.0000E+00  0.3750E+00  0.3750E+00
      9.186  0.0000E+00  0.0000E+00  0.3750E+00  0.3750E+00
      9.290  0.0000E+00  0.0000E+00  0.3750E+00  0.3750E+00
      9.393  0.0000E+00  0.0000E+00  0.3750E+00  0.3750E+00
      9.497  0.0000E+00  0.0000E+00  0.3750E+00  0.3750E+00
      9.600  0.0000E+00  0.0000E+00  0.3750E+00  0.3750E+00
      9.704  0.0000E+00  0.0000E+00  0.3750E+00  0.3750E+00
