Lattice                                 
           1
     4.217544    2.435000    0.000000
    -4.217544    2.435000    0.000000
     0.000000    0.000000   15.000000
   B    C 
     4    11
Direct configuration=     1
   0.00415361  0.00267210  0.12034134
   0.35695335  0.00285503  0.09748893
   0.00423858  0.35550699  0.09749256
   0.65142295  0.65006557  0.09747688
   0.32808646  0.32671938  0.10030508
   0.68027775  0.00278085  0.10027562
   0.00416530  0.67883808  0.10026559
   0.11111044  0.38888856  0.33726667
   0.27777744  0.22222156  0.33726667
   0.11111044  0.88888856  0.33726667
   0.27777744  0.72222156  0.33726667
   0.61111044  0.38888856  0.33726667
   0.77777744  0.22222156  0.33726667
   0.61111044  0.88888856  0.33726667
   0.77777744  0.72222156  0.33726667
Direct configuration=     2
   0.00416594  0.00269079  0.11890490
   0.35557095  0.00279448  0.09786324
   0.00419140  0.35435663  0.09792053
   0.65269414  0.65122836  0.09789081
   0.32431204  0.32278316  0.10031527
   0.68432217  0.00279402  0.10033010
   0.00422417  0.68263260  0.10028483
   0.11103723  0.38899047  0.33728164
   0.27791022  0.22233893  0.33735706
   0.11129717  0.88902493  0.33729414
   0.27796975  0.72221907  0.33720681
   0.61107309  0.38883693  0.33720178
   0.77773889  0.22227133  0.33729088
   0.61092583  0.88883540  0.33734495
   0.77741655  0.72208134  0.33729240
Direct configuration=     3
   0.00416005  0.00268186  0.11959138
   0.35623161  0.00282342  0.09768436
   0.00421395  0.35490640  0.09771600
   0.65208663  0.65067266  0.09769299
   0.32611586  0.32466430  0.10031040
   0.68238932  0.00278773  0.10030406
   0.00419604  0.68081918  0.10027563
   0.11107222  0.38894176  0.33727448
   0.27784677  0.22228283  0.33731386
   0.11120794  0.88895976  0.33728101
   0.27787785  0.72222026  0.33723542
   0.61109094  0.38886160  0.33723279
   0.77775731  0.22224754  0.33727931
   0.61101406  0.88886080  0.33730754
   0.77758903  0.72214835  0.33728010
Direct configuration=     4
   0.00416718  0.00271709  0.11832331
   0.35674661  0.00276052  0.09803412
   0.00421129  0.35541810  0.09811951
   0.65163831  0.65009214  0.09808188
   0.32632340  0.32474620  0.10028375
   0.68227430  0.00278353  0.10031932
   0.00424047  0.68065853  0.10025760
   0.11109690  0.38887882  0.33729249
   0.27767636  0.22224699  0.33738871
   0.11097633  0.88885814  0.33731226
   0.27765462  0.72226858  0.33719458
   0.61108595  0.38892623  0.33719086
   0.77773494  0.22222542  0.33730146
   0.61115072  0.88897116  0.33737387
   0.77787218  0.72232699  0.33730562
Direct configuration=     5
   0.00418856  0.00282278  0.11451909
   0.35829162  0.00257184  0.09908342
   0.00420332  0.35695323  0.09933003
   0.65029334  0.64835059  0.09924853
   0.32694602  0.32499191  0.10020379
   0.68192924  0.00277094  0.10036507
   0.00437375  0.68017660  0.10020351
   0.11117095  0.38868999  0.33734651
   0.27716515  0.22213945  0.33761327
   0.11028151  0.88855330  0.33740601
   0.27698493  0.72241354  0.33707205
   0.61107098  0.38912012  0.33706507
   0.77766783  0.22215903  0.33736793
   0.61156072  0.88930223  0.33757287
   0.77872164  0.72286291  0.33738219
Direct configuration=     6
   0.00419579  0.00282611  0.11395874
   0.35845415  0.00255283  0.09920073
   0.00421833  0.35708658  0.09946288
   0.65017154  0.64818485  0.09937704
   0.32708321  0.32509708  0.10023547
   0.68181071  0.00275455  0.10041009
   0.00438609  0.68005474  0.10023840
   0.11108747  0.38882431  0.33735412
   0.27733954  0.22218516  0.33762838
   0.11055793  0.88876659  0.33741807
   0.27723422  0.72239275  0.33707435
   0.61102406  0.38908922  0.33706819
   0.77766895  0.22223460  0.33737526
   0.61132430  0.88917685  0.33758648
   0.77829326  0.72265223  0.33739112
Direct configuration=     7
   0.00421748  0.00283609  0.11227768
   0.35894175  0.00249583  0.09955266
   0.00426338  0.35748664  0.09986145
   0.64980614  0.64768762  0.09976255
   0.32749476  0.32541258  0.10033052
   0.68145513  0.00270539  0.10054517
   0.00442309  0.67968916  0.10034308
   0.11083702  0.38922726  0.33737695
   0.27786272  0.22232229  0.33767373
   0.11138721  0.88940649  0.33745425
   0.27798208  0.72233037  0.33708124
   0.61088328  0.38899651  0.33707758
   0.77767230  0.22246129  0.33739725
   0.61061506  0.88880072  0.33762731
   0.77700813  0.72202020  0.33741792
Direct configuration=     8
   0.00423623  0.00281626  0.11158465
   0.35897936  0.00248665  0.09964477
   0.00430241  0.35747225  0.09995778
   0.64981693  0.64767158  0.09985738
   0.32759883  0.32550961  0.10043459
   0.68135732  0.00266660  0.10065604
   0.00443086  0.67958573  0.10044938
   0.11083824  0.38921821  0.33738581
   0.27787540  0.22244371  0.33766498
   0.11136470  0.88934790  0.33746490
   0.27799053  0.72235542  0.33711586
   0.61087608  0.38895095  0.33711439
   0.77761197  0.22246431  0.33740297
   0.61060333  0.88883563  0.33761998
   0.77696738  0.72205362  0.33742585
Direct configuration=     9
   0.00429246  0.00275677  0.10950555
   0.35909220  0.00245912  0.09992108
   0.00441949  0.35742907  0.10024677
   0.64984929  0.64762349  0.10014190
   0.32791105  0.32580068  0.10074680
   0.68106386  0.00255024  0.10098867
   0.00445417  0.67927542  0.10076828
   0.11084187  0.38919106  0.33741241
   0.27791342  0.22280798  0.33763871
   0.11129720  0.88917213  0.33749685
   0.27801585  0.72243057  0.33721973
   0.61085448  0.38881429  0.33722483
   0.77743098  0.22247338  0.33742014
   0.61056812  0.88894038  0.33759797
   0.77684512  0.72215387  0.33744965
Direct configuration=    10
   0.00440492  0.00263779  0.10534735
   0.35931786  0.00240405  0.10047370
   0.00465367  0.35734272  0.10082475
   0.64991401  0.64752729  0.10071092
   0.32853549  0.32638283  0.10137121
   0.68047696  0.00231750  0.10165391
   0.00450079  0.67865480  0.10140608
   0.11084913  0.38913676  0.33746560
   0.27798945  0.22353652  0.33758617
   0.11116218  0.88882060  0.33756075
   0.27806649  0.72258088  0.33742748
   0.61081128  0.38854096  0.33744572
   0.77706900  0.22249152  0.33745448
   0.61049770  0.88914986  0.33755396
   0.77660062  0.72235437  0.33749726
Direct configuration=    11
   0.00444036  0.00260223  0.10442467
   0.35934867  0.00239544  0.10061926
   0.00469464  0.35734723  0.10096568
   0.64991101  0.64750606  0.10085301
   0.32853836  0.32636563  0.10149364
   0.68051848  0.00228155  0.10177750
   0.00452184  0.67862076  0.10153049
   0.11079798  0.38916613  0.33747739
   0.27775994  0.22316264  0.33757672
   0.11097214  0.88895826  0.33757294
   0.27781179  0.72253817  0.33747519
   0.61079143  0.38880439  0.33749301
   0.77719067  0.22246343  0.33746538
   0.61062023  0.88924081  0.33754460
   0.77693201  0.72242572  0.33750985
Direct configuration=    12
   0.00448738  0.00255504  0.10320055
   0.35938955  0.00238403  0.10081238
   0.00474901  0.35735321  0.10115265
   0.64990703  0.64747791  0.10104152
   0.32854217  0.32634280  0.10165605
   0.68057356  0.00223386  0.10194147
   0.00454976  0.67857560  0.10169554
   0.11073012  0.38920508  0.33749304
   0.27745545  0.22266662  0.33756420
   0.11072002  0.88914089  0.33758911
   0.27747387  0.72248151  0.33753850
   0.61076509  0.38915387  0.33755574
   0.77735210  0.22242617  0.33747985
   0.61078279  0.88936147  0.33753219
   0.77737166  0.72252037  0.33752655
Direct configuration=    13
   0.00449506  0.00254699  0.10321311
   0.35939615  0.00238466  0.10085437
   0.00472987  0.35738753  0.10118236
   0.64987019  0.64745656  0.10107510
   0.32840152  0.32618208  0.10161812
   0.68075424  0.00225943  0.10189316
   0.00456353  0.67869474  0.10165672
   0.11072813  0.38919923  0.33749385
   0.27743305  0.22258243  0.33757315
   0.11076502  0.88920307  0.33758736
   0.27746715  0.72252658  0.33753253
   0.61074734  0.38917108  0.33754567
   0.77738879  0.22250287  0.33748513
   0.61074667  0.88925275  0.33753904
   0.77736284  0.72252843  0.33752967
Direct configuration=    14
   0.00451617  0.00252488  0.10324762
   0.35941430  0.00238638  0.10096980
   0.00467727  0.35748184  0.10126404
   0.64976893  0.64739789  0.10116741
   0.32801489  0.32574030  0.10151385
   0.68125089  0.00232972  0.10176036
   0.00460140  0.67902224  0.10155002
   0.11072266  0.38918314  0.33749607
   0.27737147  0.22235102  0.33759775
   0.11088871  0.88937400  0.33758255
   0.27744869  0.72265046  0.33751612
   0.61069855  0.38921837  0.33751799
   0.77748966  0.22271368  0.33749964
   0.61064739  0.88895393  0.33755786
   0.77733860  0.72255060  0.33753826
Direct configuration=    15
   0.00452132  0.00250570  0.10325280
   0.35950191  0.00238366  0.10103857
   0.00465165  0.35754304  0.10130910
   0.64967702  0.64732151  0.10121983
   0.32797229  0.32566881  0.10145857
   0.68133097  0.00236388  0.10168392
   0.00461873  0.67906992  0.10149303
   0.11074476  0.38921100  0.33749955
   0.27739436  0.22246079  0.33761102
   0.11080461  0.88929514  0.33758129
   0.27743352  0.72258839  0.33750638
   0.61070665  0.38921565  0.33750421
   0.77742266  0.22259023  0.33750788
   0.61069579  0.88912178  0.33757077
   0.77737332  0.72253895  0.33754240
Direct configuration=    16
   0.00452595  0.00248849  0.10325745
   0.35958054  0.00238122  0.10110028
   0.00462867  0.35759797  0.10134953
   0.64959456  0.64725297  0.10126687
   0.32793406  0.32560466  0.10140896
   0.68140283  0.00239453  0.10161533
   0.00463428  0.67911270  0.10144190
   0.11076458  0.38923600  0.33750268
   0.27741490  0.22255928  0.33762294
   0.11072915  0.88922438  0.33758015
   0.27741990  0.72253269  0.33749764
   0.61071391  0.38921322  0.33749184
   0.77736253  0.22247944  0.33751528
   0.61073922  0.88927240  0.33758236
   0.77740447  0.72252848  0.33754611
Direct configuration=    17
   0.00452675  0.00247176  0.10324461
   0.35965662  0.00237859  0.10113773
   0.00462148  0.35761109  0.10136771
   0.64954951  0.64720717  0.10129099
   0.32803132  0.32568897  0.10138709
   0.68131004  0.00240420  0.10157462
   0.00463910  0.67904101  0.10141854
   0.11072260  0.38921226  0.33750743
   0.27740820  0.22256655  0.33762934
   0.11075335  0.88923586  0.33758145
   0.27743803  0.72255946  0.33749251
   0.61072390  0.38919100  0.33748735
   0.77738529  0.22253305  0.33752016
   0.61072314  0.88923065  0.33759219
   0.77736023  0.72254684  0.33754761
Direct configuration=    18
   0.00452722  0.00246210  0.10323720
   0.35970056  0.00237706  0.10115935
   0.00461733  0.35761867  0.10137821
   0.64952350  0.64718071  0.10130492
   0.32808749  0.32573766  0.10137445
   0.68125645  0.00240978  0.10155111
   0.00464187  0.67899960  0.10140504
   0.11069835  0.38919855  0.33751018
   0.27740433  0.22257074  0.33763304
   0.11076733  0.88924250  0.33758220
   0.27744849  0.72257491  0.33748954
   0.61072966  0.38917817  0.33748476
   0.77739844  0.22256402  0.33752298
   0.61071386  0.88920653  0.33759787
   0.77733467  0.72255744  0.33754847
Direct configuration=    19
   0.00453330  0.00245168  0.10321400
   0.35969818  0.00237743  0.10117536
   0.00462006  0.35758973  0.10137960
   0.64954369  0.64719519  0.10131079
   0.32811683  0.32576122  0.10137356
   0.68123474  0.00240694  0.10153438
   0.00464313  0.67897245  0.10140287
   0.11071546  0.38922603  0.33751452
   0.27739489  0.22253453  0.33763589
   0.11076504  0.88927342  0.33758419
   0.27743054  0.72257130  0.33748873
   0.61071244  0.38921091  0.33748545
   0.77739090  0.22255608  0.33752646
   0.61070340  0.88920718  0.33760414
   0.77734698  0.72254437  0.33754940
Direct configuration=    20
   0.00453810  0.00244345  0.10319569
   0.35969630  0.00237772  0.10118799
   0.00462221  0.35756688  0.10138069
   0.64955963  0.64720661  0.10131542
   0.32813999  0.32577981  0.10137285
   0.68121760  0.00240470  0.10152117
   0.00464411  0.67895101  0.10140115
   0.11072896  0.38924772  0.33751794
   0.27738743  0.22250595  0.33763814
   0.11076324  0.88929783  0.33758576
   0.27741637  0.72256845  0.33748810
   0.61069885  0.38923676  0.33748600
   0.77738495  0.22254982  0.33752921
   0.61069514  0.88920770  0.33760910
   0.77735669  0.72253405  0.33755014
Direct configuration=    21
   0.00454611  0.00243455  0.10316904
   0.35968463  0.00237798  0.10120012
   0.00462660  0.35753896  0.10137945
   0.64958430  0.64722446  0.10131826
   0.32814858  0.32578217  0.10137550
   0.68121969  0.00240008  0.10150842
   0.00464619  0.67893848  0.10140256
   0.11072866  0.38924814  0.33752204
   0.27738357  0.22251751  0.33764085
   0.11075404  0.88929355  0.33758774
   0.27740910  0.72257698  0.33748878
   0.61069188  0.38923681  0.33748764
   0.77737719  0.22255460  0.33753295
   0.61069151  0.88921055  0.33761442
   0.77735751  0.72254362  0.33755157
Direct configuration=    22
   0.00457014  0.00240784  0.10308910
   0.35964961  0.00237878  0.10123651
   0.00463976  0.35745521  0.10137573
   0.64965833  0.64727800  0.10132679
   0.32817435  0.32578925  0.10138345
   0.68122599  0.00238622  0.10147015
   0.00465240  0.67890088  0.10140678
   0.11072777  0.38924942  0.33753434
   0.27737199  0.22255219  0.33764898
   0.11072642  0.88928073  0.33759369
   0.27738730  0.72260256  0.33749085
   0.61067097  0.38923696  0.33749255
   0.77735393  0.22256897  0.33754415
   0.61068061  0.88921910  0.33763041
   0.77735997  0.72257233  0.33755586
Direct configuration=    23
   0.00461822  0.00235443  0.10292921
   0.35957957  0.00238037  0.10130928
   0.00466610  0.35728770  0.10136827
   0.64980639  0.64738509  0.10134384
   0.32822588  0.32580341  0.10139935
   0.68123857  0.00235850  0.10139361
   0.00466483  0.67882569  0.10141524
   0.11072598  0.38925196  0.33755895
   0.27734884  0.22262156  0.33766524
   0.11067118  0.88925508  0.33760559
   0.27734371  0.72265374  0.33749498
   0.61062916  0.38923725  0.33750238
   0.77730741  0.22259770  0.33756657
   0.61065881  0.88923621  0.33766238
   0.77736490  0.72262976  0.33756443
Direct configuration=    24
   0.00459418  0.00238114  0.10300916
   0.35961459  0.00237958  0.10127289
   0.00465293  0.35737147  0.10137200
   0.64973236  0.64733154  0.10133532
   0.32820011  0.32579633  0.10139140
   0.68123228  0.00237236  0.10143188
   0.00465861  0.67886329  0.10141101
   0.11072688  0.38925069  0.33754665
   0.27736042  0.22258687  0.33765711
   0.11069880  0.88926791  0.33759964
   0.27736551  0.72262815  0.33749292
   0.61065007  0.38923710  0.33749747
   0.77733068  0.22258333  0.33755536
   0.61066971  0.88922766  0.33764639
   0.77736244  0.72260104  0.33756014
Direct configuration=    25
   0.00460542  0.00237213  0.10296967
   0.35961945  0.00237673  0.10128391
   0.00466010  0.35736015  0.10136936
   0.64974222  0.64732982  0.10133683
   0.32820209  0.32578651  0.10139709
   0.68124681  0.00236550  0.10141984
   0.00466486  0.67885573  0.10141531
   0.11069995  0.38925669  0.33755120
   0.27735328  0.22259253  0.33766108
   0.11070067  0.88928332  0.33760214
   0.27736983  0.72262572  0.33749654
   0.61065434  0.38924142  0.33750063
   0.77733229  0.22259138  0.33756089
   0.61066313  0.88924023  0.33765140
   0.77733512  0.72260059  0.33756345
Direct configuration=    26
   0.00463914  0.00234510  0.10285121
   0.35963401  0.00236821  0.10131699
   0.00468160  0.35732620  0.10136145
   0.64977183  0.64732468  0.10134136
   0.32820804  0.32575706  0.10141418
   0.68129039  0.00234490  0.10138374
   0.00468361  0.67883304  0.10142819
   0.11061916  0.38927469  0.33756486
   0.27733188  0.22260949  0.33767298
   0.11070625  0.88932958  0.33760963
   0.27738280  0.72261843  0.33750739
   0.61066715  0.38925437  0.33751010
   0.77733711  0.22261553  0.33757748
   0.61064338  0.88927794  0.33766642
   0.77725318  0.72259923  0.33757337
Direct configuration=    27
   0.00465341  0.00233367  0.10280109
   0.35964017  0.00236460  0.10133098
   0.00469070  0.35731183  0.10135811
   0.64978436  0.64732250  0.10134328
   0.32821056  0.32574460  0.10142141
   0.68130883  0.00233619  0.10136847
   0.00469155  0.67882344  0.10143364
   0.11058499  0.38928230  0.33757063
   0.27732283  0.22261666  0.33767801
   0.11070862  0.88934915  0.33761280
   0.27738829  0.72261535  0.33751198
   0.61067257  0.38925985  0.33751411
   0.77733916  0.22262575  0.33758449
   0.61063502  0.88929389  0.33767277
   0.77721852  0.72259865  0.33757756
Direct configuration=    28
   0.00466614  0.00232396  0.10274761
   0.35966970  0.00235621  0.10133977
   0.00470089  0.35732013  0.10135554
   0.64977531  0.64729511  0.10134414
   0.32821502  0.32572969  0.10142900
   0.68132582  0.00232682  0.10135848
   0.00470295  0.67881781  0.10143989
   0.11058168  0.38929209  0.33757572
   0.27731360  0.22262422  0.33768315
   0.11069701  0.88935595  0.33761634
   0.27737569  0.72262526  0.33751879
   0.61065967  0.38926979  0.33751937
   0.77732646  0.22263225  0.33759138
   0.61062514  0.88930158  0.33767726
   0.77721448  0.72260757  0.33758289
Direct configuration=    29
   0.00470433  0.00229483  0.10258718
   0.35975829  0.00233106  0.10136616
   0.00473149  0.35734502  0.10134784
   0.64974818  0.64721292  0.10134671
   0.32822838  0.32568495  0.10145180
   0.68137680  0.00229872  0.10132854
   0.00473717  0.67880091  0.10145866
   0.11057173  0.38932144  0.33759097
   0.27728591  0.22264690  0.33769854
   0.11066218  0.88937634  0.33762698
   0.27733790  0.72265501  0.33753920
   0.61062098  0.38929960  0.33753515
   0.77728836  0.22265177  0.33761203
   0.61059549  0.88932465  0.33769072
   0.77720236  0.72263433  0.33759887
Direct configuration=    30
   0.00478071  0.00223658  0.10226631
   0.35993548  0.00228075  0.10141893
   0.00479269  0.35739480  0.10133244
   0.64969390  0.64704855  0.10135184
   0.32825512  0.32559549  0.10149738
   0.68147875  0.00224251  0.10126866
   0.00480562  0.67876710  0.10149620
   0.11055185  0.38938015  0.33762148
   0.27723054  0.22269225  0.33772933
   0.11059253  0.88941712  0.33764825
   0.27726231  0.72271451  0.33758002
   0.61054359  0.38935921  0.33756670
   0.77721217  0.22269081  0.33765333
   0.61053618  0.88937078  0.33771764
   0.77717812  0.72268785  0.33763082
Direct configuration=    31
   0.00481813  0.00220804  0.10210911
   0.36002229  0.00225610  0.10144478
   0.00482267  0.35741918  0.10132490
   0.64966732  0.64696802  0.10135436
   0.32826821  0.32555166  0.10151971
   0.68152870  0.00221497  0.10123932
   0.00483915  0.67875054  0.10151459
   0.11054211  0.38940892  0.33763643
   0.27720341  0.22271448  0.33774441
   0.11055841  0.88943710  0.33765866
   0.27722527  0.72274365  0.33760002
   0.61050568  0.38938842  0.33758216
   0.77717485  0.22270993  0.33767357
   0.61050713  0.88939338  0.33773083
   0.77716624  0.72271407  0.33764647
Direct configuration=    32
   0.00483302  0.00218048  0.10196976
   0.36005656  0.00221259  0.10144959
   0.00485316  0.35738310  0.10134116
   0.64970969  0.64694296  0.10136687
   0.32831860  0.32553405  0.10151795
   0.68153661  0.00218624  0.10123299
   0.00487403  0.67873894  0.10151289
   0.11049443  0.38940829  0.33765197
   0.27716859  0.22274370  0.33775485
   0.11053231  0.88945431  0.33767702
   0.27720097  0.72277987  0.33761609
   0.61048505  0.38939769  0.33760314
   0.77716886  0.22276484  0.33768302
   0.61048212  0.88939330  0.33774284
   0.77713554  0.72275807  0.33765919
Direct configuration=    33
   0.00487083  0.00211046  0.10161581
   0.36014360  0.00210208  0.10146181
   0.00493062  0.35729144  0.10138246
   0.64981732  0.64687932  0.10139865
   0.32844659  0.32548932  0.10151346
   0.68155672  0.00211328  0.10121690
   0.00496264  0.67870948  0.10150859
   0.11037332  0.38940670  0.33769145
   0.27708017  0.22281795  0.33778137
   0.11046602  0.88949804  0.33772366
   0.27713925  0.72287187  0.33765691
   0.61043264  0.38942126  0.33765642
   0.77715366  0.22290431  0.33770701
   0.61041861  0.88939309  0.33777333
   0.77705756  0.72286985  0.33769150
Direct configuration=    34
   0.00487878  0.00210173  0.10156237
   0.36014897  0.00208581  0.10146251
   0.00494329  0.35727629  0.10139062
   0.64983752  0.64687294  0.10140444
   0.32846451  0.32548035  0.10151058
   0.68156349  0.00210224  0.10121606
   0.00497668  0.67870092  0.10150606
   0.11036444  0.38942103  0.33769725
   0.27707000  0.22282487  0.33778586
   0.11045581  0.88951052  0.33773099
   0.27712846  0.72287677  0.33766307
   0.61042232  0.38943443  0.33766428
   0.77714052  0.22290751  0.33771058
   0.61040855  0.88940864  0.33777792
   0.77704622  0.72287439  0.33769676
Direct configuration=    35
   0.00490263  0.00207551  0.10140205
   0.36016509  0.00203699  0.10146461
   0.00498129  0.35723084  0.10141512
   0.64989811  0.64685383  0.10142180
   0.32851827  0.32545345  0.10150191
   0.68158379  0.00206913  0.10121354
   0.00501880  0.67867523  0.10149845
   0.11033779  0.38946403  0.33771465
   0.27703950  0.22284566  0.33779934
   0.11042519  0.88954796  0.33775298
   0.27709609  0.72289148  0.33768155
   0.61039135  0.38947394  0.33768784
   0.77710110  0.22291713  0.33772127
   0.61037835  0.88945528  0.33779168
   0.77701221  0.72288799  0.33771254
Direct configuration=    36
   0.00495032  0.00202308  0.10108141
   0.36019732  0.00193935  0.10146880
   0.00505729  0.35713995  0.10146411
   0.65001929  0.64681561  0.10145653
   0.32862580  0.32539964  0.10148458
   0.68162440  0.00200291  0.10120850
   0.00510303  0.67862386  0.10148324
   0.11028448  0.38955002  0.33774946
   0.27697850  0.22288723  0.33782629
   0.11036393  0.88962283  0.33779696
   0.27703135  0.72292089  0.33771852
   0.61032941  0.38955297  0.33773496
   0.77702226  0.22293636  0.33774266
   0.61031796  0.88954857  0.33781921
   0.77694420  0.72291520  0.33774411
Direct configuration=    37
   0.00504570  0.00191823  0.10044013
   0.36026178  0.00174407  0.10147719
   0.00520928  0.35695816  0.10156209
   0.65026165  0.64673915  0.10152599
   0.32884086  0.32529201  0.10144993
   0.68170563  0.00187045  0.10119841
   0.00527151  0.67852111  0.10145282
   0.11017788  0.38972200  0.33781907
   0.27685651  0.22297038  0.33788019
   0.11024141  0.88977258  0.33788492
   0.27690187  0.72297972  0.33779245
   0.61020553  0.38971101  0.33782920
   0.77686458  0.22297482  0.33778543
   0.61019718  0.88973513  0.33787426
   0.77680818  0.72296962  0.33780725
Direct configuration=    38
   0.00500454  0.00196347  0.10071686
   0.36023396  0.00182834  0.10147357
   0.00514369  0.35703661  0.10151981
   0.65015707  0.64677215  0.10149602
   0.32874806  0.32533845  0.10146489
   0.68167058  0.00192761  0.10120277
   0.00519881  0.67856545  0.10146595
   0.11022388  0.38964778  0.33778903
   0.27690916  0.22293450  0.33785693
   0.11029428  0.88970796  0.33784696
   0.27695775  0.72295434  0.33776054
   0.61025899  0.38964281  0.33778854
   0.77693262  0.22295822  0.33776697
   0.61024930  0.88965462  0.33785050
   0.77686688  0.72294614  0.33778001
Direct configuration=    39
   0.00504605  0.00195701  0.10060626
   0.36022247  0.00180895  0.10147408
   0.00517630  0.35702325  0.10154085
   0.65019103  0.64675338  0.10151074
   0.32875855  0.32529562  0.10145006
   0.68172515  0.00190440  0.10120625
   0.00522918  0.67851967  0.10145295
   0.11021951  0.38966663  0.33779816
   0.27689646  0.22297216  0.33787304
   0.11026567  0.88971041  0.33785940
   0.27693368  0.72299360  0.33777434
   0.61022169  0.38965329  0.33779848
   0.77689200  0.22297794  0.33777920
   0.61021750  0.88966661  0.33785998
   0.77685433  0.72297553  0.33779554
Direct configuration=    40
   0.00512714  0.00194437  0.10039023
   0.36020001  0.00177109  0.10147509
   0.00523998  0.35699716  0.10158195
   0.65025737  0.64671672  0.10153951
   0.32877904  0.32521195  0.10142111
   0.68183173  0.00185906  0.10121304
   0.00528850  0.67843025  0.10142756
   0.11021096  0.38970345  0.33781599
   0.27687168  0.22304570  0.33790451
   0.11020977  0.88971520  0.33788369
   0.27688666  0.72307029  0.33780128
   0.61014884  0.38967376  0.33781790
   0.77681267  0.22301646  0.33780308
   0.61015538  0.88969003  0.33787850
   0.77682982  0.72303295  0.33782588
Direct configuration=    41
   0.00515547  0.00193538  0.10034513
   0.36021734  0.00177300  0.10147509
   0.00525855  0.35699450  0.10159233
   0.65026069  0.64669539  0.10154694
   0.32877623  0.32519134  0.10140598
   0.68186152  0.00184425  0.10122169
   0.00529697  0.67840570  0.10141436
   0.11017363  0.38971032  0.33781796
   0.27684373  0.22303611  0.33791773
   0.11020297  0.88974683  0.33788626
   0.27687328  0.72307046  0.33780653
   0.61014981  0.38969351  0.33781546
   0.77682449  0.22304212  0.33781321
   0.61014906  0.88969659  0.33788457
   0.77680583  0.72304293  0.33783610
Direct configuration=    42
   0.00519121  0.00192404  0.10028824
   0.36023919  0.00177540  0.10147510
   0.00528198  0.35699115  0.10160543
   0.65026487  0.64666848  0.10155631
   0.32877268  0.32516535  0.10138688
   0.68189909  0.00182557  0.10123259
   0.00530764  0.67837474  0.10139769
   0.11012654  0.38971898  0.33782046
   0.27680849  0.22302401  0.33793441
   0.11019439  0.88978673  0.33788949
   0.27685640  0.72307068  0.33781314
   0.61015103  0.38971843  0.33781239
   0.77683941  0.22307449  0.33782600
   0.61014107  0.88970486  0.33789222
   0.77677556  0.72305554  0.33784898
Direct configuration=    43
   0.00521185  0.00189763  0.10025446
   0.36029007  0.00177896  0.10147445
   0.00529821  0.35697733  0.10161268
   0.65026489  0.64664356  0.10156158
   0.32878103  0.32515960  0.10136714
   0.68191005  0.00180684  0.10124771
   0.00531070  0.67836340  0.10138054
   0.11012136  0.38973292  0.33782336
   0.27680081  0.22304946  0.33794736
   0.11017601  0.88978887  0.33789157
   0.27684280  0.72308370  0.33781490
   0.61013402  0.38972610  0.33780796
   0.77681507  0.22307668  0.33783634
   0.61012741  0.88972613  0.33790157
   0.77676527  0.72306727  0.33785771
Direct configuration=    44
   0.00524916  0.00184990  0.10019342
   0.36038203  0.00178540  0.10147327
   0.00532752  0.35695235  0.10162578
   0.65026492  0.64659852  0.10157111
   0.32879613  0.32514921  0.10133145
   0.68192986  0.00177297  0.10127503
   0.00531622  0.67834290  0.10134954
   0.11011200  0.38975812  0.33782861
   0.27678693  0.22309544  0.33797076
   0.11014280  0.88979276  0.33789534
   0.27681823  0.72310722  0.33781808
   0.61010327  0.38973997  0.33779996
   0.77677109  0.22308065  0.33785503
   0.61010272  0.88976456  0.33791846
   0.77674667  0.72308847  0.33787349
Direct configuration=    45
   0.00526040  0.00181846  0.10017680
   0.36040950  0.00177914  0.10147055
   0.00533522  0.35692885  0.10162397
   0.65027920  0.64659352  0.10156952
   0.32881355  0.32514455  0.10131676
   0.68194379  0.00176149  0.10129178
   0.00532773  0.67833356  0.10133701
   0.11009924  0.38977011  0.33783670
   0.27677346  0.22309148  0.33797216
   0.11013653  0.88981329  0.33790132
   0.27680603  0.72312830  0.33781628
   0.61008579  0.38975476  0.33780460
   0.77676353  0.22310431  0.33785802
   0.61008169  0.88975534  0.33792999
   0.77673390  0.72310130  0.33787388
Direct configuration=    46
   0.00527549  0.00177620  0.10015447
   0.36044640  0.00177073  0.10146690
   0.00534556  0.35689729  0.10162154
   0.65029838  0.64658681  0.10156740
   0.32883696  0.32513829  0.10129701
   0.68196251  0.00174607  0.10131429
   0.00534321  0.67832100  0.10132018
   0.11008210  0.38978622  0.33784756
   0.27675536  0.22308615  0.33797404
   0.11012810  0.88984087  0.33790935
   0.27678963  0.72315661  0.33781386
   0.61006231  0.38977463  0.33781083
   0.77675338  0.22313611  0.33786202
   0.61005343  0.88974294  0.33794549
   0.77671673  0.72311853  0.33787441
Direct configuration=    47
   0.00528951  0.00175723  0.10014486
   0.36045683  0.00176240  0.10146386
   0.00535312  0.35687803  0.10161712
   0.65031195  0.64658355  0.10156384
   0.32885022  0.32512787  0.10128653
   0.68198031  0.00173925  0.10132731
   0.00535838  0.67830676  0.10131128
   0.11007097  0.38979694  0.33785401
   0.27674218  0.22310234  0.33797363
   0.11011267  0.88984753  0.33791383
   0.27677608  0.72315995  0.33781439
   0.61005458  0.38978523  0.33781643
   0.77673913  0.22313847  0.33786438
   0.61004808  0.88976551  0.33795322
   0.77670556  0.72312738  0.33787464
Direct configuration=    48
   0.00532572  0.00170823  0.10012002
   0.36048376  0.00174091  0.10145602
   0.00537264  0.35682829  0.10160572
   0.65034698  0.64657512  0.10155466
   0.32888445  0.32510098  0.10125948
   0.68202627  0.00172162  0.10136096
   0.00539757  0.67826997  0.10128830
   0.11004221  0.38982463  0.33787066
   0.27670813  0.22314415  0.33797256
   0.11007283  0.88986473  0.33792538
   0.27674109  0.72316858  0.33781577
   0.61003460  0.38981260  0.33783091
   0.77670234  0.22314457  0.33787046
   0.61003425  0.88982381  0.33797318
   0.77667669  0.72315026  0.33787525
Direct configuration=    49
   0.00531836  0.00171820  0.10012508
   0.36047828  0.00174528  0.10145761
   0.00536867  0.35683841  0.10160804
   0.65033985  0.64657684  0.10155653
   0.32887749  0.32510645  0.10126498
   0.68201692  0.00172521  0.10135411
   0.00538960  0.67827746  0.10129298
   0.11004806  0.38981899  0.33786727
   0.27671506  0.22313565  0.33797278
   0.11008094  0.88986123  0.33792303
   0.27674821  0.72316683  0.33781549
   0.61003867  0.38980703  0.33782796
   0.77670983  0.22314333  0.33786922
   0.61003706  0.88981195  0.33796912
   0.77668256  0.72314560  0.33787513
Direct configuration=    50
   0.00533426  0.00171951  0.10012434
   0.36047750  0.00173475  0.10145510
   0.00537941  0.35682967  0.10160253
   0.65034798  0.64656784  0.10155217
   0.32888436  0.32509145  0.10126124
   0.68202992  0.00172107  0.10135718
   0.00540434  0.67826274  0.10128966
   0.11003500  0.38982254  0.33786766
   0.27671074  0.22315090  0.33797421
   0.11007209  0.88986444  0.33792247
   0.27674460  0.72317708  0.33782190
   0.61002859  0.38980804  0.33783067