BC3                                     
           1
     4.476485    2.584500    0.000000
    -4.476485    2.584500    0.000000
     0.000000    0.000000   15.000000
   B    C 
   2   6
Direct configuration=     1
   0.33833034  0.66916432  0.25000000
   0.67165522  0.33584146  0.25000000
   0.16373946  0.31999962  0.25000000
   0.32250218  0.16126397  0.25000000
   0.16376430  0.84376384  0.25000000
   0.84623863  0.16123684  0.25000000
   0.68749850  0.84373000  0.25000000
   0.84626736  0.68499594  0.25000000
