   8   8   0  16
  0.4142730E+02  0.5051000E-09  0.5051000E-09  0.1500000E-08  0.5000000E-15
  1.000000000000000E-004
  CAR 
 Lattice                                 
      6.87502127    -19.07009648  301     -2.22674614      1.00000000
    -19.070  0.0000E+00  0.0000E+00
    -18.984  0.0000E+00  0.0000E+00
    -18.897  0.0000E+00  0.0000E+00
    -18.811  0.0000E+00  0.0000E+00
    -18.724  0.0000E+00  0.0000E+00
    -18.638  0.0000E+00  0.0000E+00
    -18.551  0.0000E+00  0.0000E+00
    -18.465  0.1393E-18  0.1205E-19
    -18.378  0.2106E-14  0.1821E-15
    -18.292  0.6253E-11  0.5410E-12
    -18.205  0.4587E-08  0.3972E-09
    -18.119  0.8556E-06  0.7440E-07
    -18.032  0.4225E-04  0.3729E-05
    -17.946  0.5940E-03  0.5510E-04
    -17.859  0.2742E-02  0.2922E-03
    -17.773  0.5290E-02  0.7497E-03
    -17.686  0.6300E-02  0.1295E-02
    -17.600  0.6452E-02  0.1853E-02
    -17.513  0.6673E-02  0.2430E-02
    -17.427  0.6874E-02  0.3024E-02
    -17.340  0.6829E-02  0.3615E-02
    -17.254  0.8054E-02  0.4311E-02
    -17.167  0.7697E-02  0.4977E-02
    -17.081  0.1011E-01  0.5851E-02
    -16.994  0.9369E-02  0.6662E-02
    -16.908  0.5989E-02  0.7180E-02
    -16.822  0.4397E-02  0.7560E-02
    -16.735  0.1766E-02  0.7713E-02
    -16.649  0.1117E-02  0.7809E-02
    -16.562  0.1120E-02  0.7906E-02
    -16.476  0.1644E-02  0.8048E-02
    -16.389  0.4640E-02  0.8450E-02
    -16.303  0.6576E-02  0.9018E-02
    -16.216  0.8059E-02  0.9715E-02
    -16.130  0.8667E-02  0.1046E-01
    -16.043  0.5704E-02  0.1096E-01
    -15.957  0.4187E-02  0.1132E-01
    -15.870  0.5240E-02  0.1177E-01
    -15.784  0.5078E-02  0.1221E-01
    -15.697  0.3460E-02  0.1251E-01
    -15.611  0.2323E-02  0.1271E-01
    -15.524  0.3824E-02  0.1304E-01
    -15.438  0.4361E-02  0.1342E-01
    -15.351  0.2312E-02  0.1362E-01
    -15.265  0.1774E-02  0.1377E-01
    -15.178  0.2034E-02  0.1395E-01
    -15.092  0.2929E-02  0.1420E-01
    -15.005  0.3288E-02  0.1449E-01
    -14.919  0.1168E-02  0.1459E-01
    -14.832  0.6011E-03  0.1464E-01
    -14.746  0.1809E-02  0.1480E-01
    -14.659  0.3289E-02  0.1508E-01
    -14.573  0.5599E-02  0.1557E-01
    -14.486  0.5980E-02  0.1608E-01
    -14.400  0.6339E-02  0.1663E-01
    -14.313  0.7441E-02  0.1727E-01
    -14.227  0.8171E-02  0.1798E-01
    -14.141  0.9967E-02  0.1884E-01
    -14.054  0.1176E-01  0.1986E-01
    -13.968  0.1175E-01  0.2088E-01
    -13.881  0.1005E-01  0.2175E-01
    -13.795  0.8151E-02  0.2245E-01
    -13.708  0.6569E-02  0.2302E-01
    -13.622  0.4093E-02  0.2337E-01
    -13.535  0.1235E-02  0.2348E-01
    -13.449  0.1348E-03  0.2349E-01
    -13.362  0.2383E-04  0.2349E-01
    -13.276  0.3219E-03  0.2352E-01
    -13.189  0.1371E-02  0.2364E-01
    -13.103  0.1549E-02  0.2377E-01
    -13.016  0.4944E-03  0.2382E-01
    -12.930  0.5076E-03  0.2386E-01
    -12.843  0.2429E-02  0.2407E-01
    -12.757  0.5199E-02  0.2452E-01
    -12.670  0.6683E-02  0.2510E-01
    -12.584  0.8508E-02  0.2583E-01
    -12.497  0.1280E-01  0.2694E-01
    -12.411  0.1086E-01  0.2788E-01
    -12.324  0.3632E-02  0.2819E-01
    -12.238  0.1501E-02  0.2832E-01
    -12.151  0.3347E-02  0.2861E-01
    -12.065  0.7617E-02  0.2927E-01
    -11.978  0.7811E-02  0.2995E-01
    -11.892  0.2326E-02  0.3015E-01
    -11.805  0.2732E-03  0.3017E-01
    -11.719  0.1147E-02  0.3027E-01
    -11.632  0.5986E-02  0.3079E-01
    -11.546  0.1375E-01  0.3198E-01
    -11.460  0.1205E-01  0.3302E-01
    -11.373  0.6851E-02  0.3361E-01
    -11.287  0.9754E-02  0.3446E-01
    -11.200  0.1196E-01  0.3549E-01
    -11.114  0.7283E-02  0.3612E-01
    -11.027  0.3294E-02  0.3641E-01
    -10.941  0.6776E-02  0.3699E-01
    -10.854  0.1392E-01  0.3820E-01
    -10.768  0.1187E-01  0.3922E-01
    -10.681  0.4525E-02  0.3961E-01
    -10.595  0.4093E-02  0.3997E-01
    -10.508  0.8825E-02  0.4073E-01
    -10.422  0.1004E-01  0.4160E-01
    -10.335  0.5947E-02  0.4211E-01
    -10.249  0.3386E-02  0.4241E-01
    -10.162  0.7672E-02  0.4307E-01
    -10.076  0.8337E-02  0.4379E-01
     -9.989  0.4450E-02  0.4418E-01
     -9.903  0.6208E-02  0.4471E-01
     -9.816  0.8401E-02  0.4544E-01
     -9.730  0.6639E-02  0.4601E-01
     -9.643  0.5685E-02  0.4651E-01
     -9.557  0.4688E-02  0.4691E-01
     -9.470  0.4097E-02  0.4727E-01
     -9.384  0.3789E-02  0.4759E-01
     -9.297  0.2440E-02  0.4780E-01
     -9.211  0.2924E-02  0.4806E-01
     -9.124  0.2884E-02  0.4831E-01
     -9.038  0.3812E-02  0.4864E-01
     -8.952  0.7102E-02  0.4925E-01
     -8.865  0.6797E-02  0.4984E-01
     -8.779  0.5487E-02  0.5031E-01
     -8.692  0.8752E-02  0.5107E-01
     -8.606  0.1283E-01  0.5218E-01
     -8.519  0.1713E-01  0.5366E-01
     -8.433  0.1703E-01  0.5513E-01
     -8.346  0.1164E-01  0.5614E-01
     -8.260  0.5519E-02  0.5662E-01
     -8.173  0.4042E-02  0.5697E-01
     -8.087  0.5372E-02  0.5743E-01
     -8.000  0.3995E-02  0.5778E-01
     -7.914  0.3276E-02  0.5806E-01
     -7.827  0.5124E-02  0.5850E-01
     -7.741  0.6037E-02  0.5903E-01
     -7.654  0.3853E-02  0.5936E-01
     -7.568  0.3473E-02  0.5966E-01
     -7.481  0.6568E-02  0.6023E-01
     -7.395  0.8517E-02  0.6096E-01
     -7.308  0.4965E-02  0.6139E-01
     -7.222  0.3447E-02  0.6169E-01
     -7.135  0.5115E-02  0.6213E-01
     -7.049  0.5265E-02  0.6259E-01
     -6.962  0.5684E-02  0.6308E-01
     -6.876  0.4322E-02  0.6345E-01
     -6.789  0.2013E-02  0.6363E-01
     -6.703  0.3748E-02  0.6395E-01
     -6.616  0.6870E-02  0.6455E-01
     -6.530  0.7460E-02  0.6519E-01
     -6.443  0.9301E-02  0.6600E-01
     -6.357  0.1369E-01  0.6718E-01
     -6.271  0.1427E-01  0.6841E-01
     -6.184  0.1170E-01  0.6943E-01
     -6.098  0.1487E-01  0.7071E-01
     -6.011  0.1602E-01  0.7210E-01
     -5.925  0.1617E-01  0.7350E-01
     -5.838  0.1866E-01  0.7511E-01
     -5.752  0.1659E-01  0.7654E-01
     -5.665  0.1017E-01  0.7742E-01
     -5.579  0.8668E-02  0.7817E-01
     -5.492  0.1015E-01  0.7905E-01
     -5.406  0.8504E-02  0.7979E-01
     -5.319  0.4141E-02  0.8014E-01
     -5.233  0.1957E-02  0.8031E-01
     -5.146  0.4632E-02  0.8071E-01
     -5.060  0.6768E-02  0.8130E-01
     -4.973  0.4540E-02  0.8169E-01
     -4.887  0.4198E-02  0.8206E-01
     -4.800  0.4590E-02  0.8245E-01
     -4.714  0.6553E-02  0.8302E-01
     -4.627  0.7553E-02  0.8367E-01
     -4.541  0.5217E-02  0.8412E-01
     -4.454  0.3155E-02  0.8440E-01
     -4.368  0.4370E-02  0.8477E-01
     -4.281  0.7043E-02  0.8538E-01
     -4.195  0.8657E-02  0.8613E-01
     -4.108  0.6687E-02  0.8671E-01
     -4.022  0.4124E-02  0.8707E-01
     -3.935  0.3932E-02  0.8741E-01
     -3.849  0.3185E-02  0.8768E-01
     -3.762  0.3648E-02  0.8800E-01
     -3.676  0.5639E-02  0.8849E-01
     -3.590  0.8228E-02  0.8920E-01
     -3.503  0.6549E-02  0.8976E-01
     -3.417  0.3621E-02  0.9008E-01
     -3.330  0.4662E-02  0.9048E-01
     -3.244  0.4303E-02  0.9085E-01
     -3.157  0.3036E-02  0.9111E-01
     -3.071  0.4341E-02  0.9149E-01
     -2.984  0.5502E-02  0.9197E-01
     -2.898  0.4256E-02  0.9233E-01
     -2.811  0.2741E-02  0.9257E-01
     -2.725  0.1034E-02  0.9266E-01
     -2.638  0.8926E-03  0.9274E-01
     -2.552  0.2641E-02  0.9297E-01
     -2.465  0.2913E-02  0.9322E-01
     -2.379  0.1417E-02  0.9334E-01
     -2.292  0.2081E-02  0.9352E-01
     -2.206  0.3574E-02  0.9383E-01
     -2.119  0.3970E-02  0.9417E-01
     -2.033  0.3813E-02  0.9450E-01
     -1.946  0.2838E-02  0.9475E-01
     -1.860  0.2922E-02  0.9500E-01
     -1.773  0.6961E-02  0.9560E-01
     -1.687  0.9633E-02  0.9644E-01
     -1.600  0.8154E-02  0.9714E-01
     -1.514  0.6952E-02  0.9774E-01
     -1.427  0.6599E-02  0.9831E-01
     -1.341  0.3384E-02  0.9861E-01
     -1.254  0.1469E-02  0.9873E-01
     -1.168  0.2758E-02  0.9897E-01
     -1.081  0.3943E-02  0.9931E-01
     -0.995  0.5212E-02  0.9976E-01
     -0.909  0.9126E-02  0.1006E+00
     -0.822  0.9250E-02  0.1014E+00
     -0.736  0.6494E-02  0.1019E+00
     -0.649  0.5212E-02  0.1024E+00
     -0.563  0.3140E-02  0.1026E+00
     -0.476  0.3020E-02  0.1029E+00
     -0.390  0.3726E-02  0.1032E+00
     -0.303  0.3454E-02  0.1035E+00
     -0.217  0.4222E-02  0.1039E+00
     -0.130  0.7017E-02  0.1045E+00
     -0.044  0.1237E-01  0.1056E+00
      0.043  0.9157E-02  0.1064E+00
      0.129  0.4333E-02  0.1067E+00
      0.216  0.3756E-02  0.1071E+00
      0.302  0.4015E-02  0.1074E+00
      0.389  0.4601E-02  0.1078E+00
      0.475  0.5799E-02  0.1083E+00
      0.562  0.8914E-02  0.1091E+00
      0.648  0.1296E-01  0.1102E+00
      0.735  0.1482E-01  0.1115E+00
      0.821  0.1055E-01  0.1124E+00
      0.908  0.6428E-02  0.1129E+00
      0.994  0.6695E-02  0.1135E+00
      1.081  0.1247E-01  0.1146E+00
      1.167  0.2291E-01  0.1166E+00
      1.254  0.1883E-01  0.1182E+00
      1.340  0.1041E-01  0.1191E+00
      1.427  0.1400E-01  0.1203E+00
      1.513  0.2057E-01  0.1221E+00
      1.600  0.2182E-01  0.1240E+00
      1.686  0.1670E-01  0.1254E+00
      1.772  0.1376E-01  0.1266E+00
      1.859  0.1428E-01  0.1279E+00
      1.945  0.1278E-01  0.1290E+00
      2.032  0.1364E-01  0.1301E+00
      2.118  0.2009E-01  0.1319E+00
      2.205  0.2271E-01  0.1338E+00
      2.291  0.1729E-01  0.1353E+00
      2.378  0.1494E-01  0.1366E+00
      2.464  0.2159E-01  0.1385E+00
      2.551  0.2316E-01  0.1405E+00
      2.637  0.2411E-01  0.1426E+00
      2.724  0.2473E-01  0.1447E+00
      2.810  0.2106E-01  0.1465E+00
      2.897  0.1948E-01  0.1482E+00
      2.983  0.1997E-01  0.1500E+00
      3.070  0.2123E-01  0.1518E+00
      3.156  0.2115E-01  0.1536E+00
      3.243  0.2069E-01  0.1554E+00
      3.329  0.2413E-01  0.1575E+00
      3.416  0.2797E-01  0.1599E+00
      3.502  0.2827E-01  0.1624E+00
      3.589  0.2204E-01  0.1643E+00
      3.675  0.1640E-01  0.1657E+00
      3.762  0.1486E-01  0.1670E+00
      3.848  0.1953E-01  0.1687E+00
      3.935  0.2530E-01  0.1708E+00
      4.021  0.3015E-01  0.1735E+00
      4.108  0.2629E-01  0.1757E+00
      4.194  0.2005E-01  0.1775E+00
      4.281  0.1478E-01  0.1787E+00
      4.367  0.1160E-01  0.1797E+00
      4.453  0.1449E-01  0.1810E+00
      4.540  0.1379E-01  0.1822E+00
      4.626  0.9411E-02  0.1830E+00
      4.713  0.7323E-02  0.1836E+00
      4.799  0.1139E-01  0.1846E+00
      4.886  0.1181E-01  0.1856E+00
      4.972  0.6255E-02  0.1862E+00
      5.059  0.3847E-02  0.1865E+00
      5.145  0.3935E-02  0.1869E+00
      5.232  0.2578E-02  0.1871E+00
      5.318  0.1414E-02  0.1872E+00
      5.405  0.1763E-02  0.1874E+00
      5.491  0.9199E-03  0.1874E+00
      5.578  0.1569E-03  0.1874E+00
      5.664  0.1806E-03  0.1875E+00
      5.751  0.2846E-03  0.1875E+00
      5.837  0.1227E-03  0.1875E+00
      5.924  0.1383E-04  0.1875E+00
      6.010  0.3932E-06  0.1875E+00
      6.097  0.2720E-08  0.1875E+00
      6.183  0.4462E-11  0.1875E+00
      6.270  0.1706E-14  0.1875E+00
      6.356  0.1393E-18  0.1875E+00
      6.443  0.0000E+00  0.1875E+00
      6.529  0.0000E+00  0.1875E+00
      6.616  0.0000E+00  0.1875E+00
      6.702  0.0000E+00  0.1875E+00
      6.789  0.0000E+00  0.1875E+00
      6.875  0.0000E+00  0.1875E+00
