<?xml version="1.0" encoding="ISO-8859-1"?>
<modeling>
 <generator>
  <i name="program" type="string">vasp </i>
  <i name="version" type="string">6.3.2  </i>
  <i name="subversion" type="string">27Jun22 (build Dec 22 2022 13:13:19) complex                          parallel </i>
  <i name="platform" type="string">LinuxIFC </i>
  <i name="date" type="string">2023 08 22 </i>
  <i name="time" type="string">23:25:08 </i>
 </generator>
 <incar>
  <i type="string" name="SYSTEM">Lattice</i>
  <i type="int" name="ISTART">     0</i>
  <i type="string" name="PREC">Accurate</i>
  <i type="string" name="ALGO">Normal</i>
  <i type="int" name="ISPIN">     2</i>
  <i type="int" name="ICHARG">     2</i>
  <i type="int" name="NELM">    64</i>
  <i type="int" name="IBRION">     2</i>
  <i name="EDIFF">      0.00000100</i>
  <i name="EDIFFG">     -0.00100000</i>
  <i type="int" name="NSW">   128</i>
  <i type="int" name="ISIF">     2</i>
  <i name="ENCUT">    450.00000000</i>
  <i name="POTIM">      0.50000000</i>
  <i type="int" name="ISMEAR">     0</i>
  <i name="SIGMA">      0.10000000</i>
  <i type="logical" name="LWAVE"> F  </i>
  <i type="logical" name="LCHARG"> F  </i>
  <i type="string" name="GGA">PE</i>
  <i type="int" name="IVDW">    12</i>
 </incar>
 <primitive_cell>
  <structure name="primitive_cell" >
   <crystal>
    <varray name="basis" >
     <v>       4.19329501       2.42100000       0.00000000 </v>
     <v>      -4.19329501       2.42100000       0.00000000 </v>
     <v>       0.00000000       0.00000000      15.00000000 </v>
    </varray>
    <i name="volume">    304.55901622 </i>
    <varray name="rec_basis" >
     <v>       0.11923797       0.20652623       0.00000000 </v>
     <v>      -0.11923797       0.20652623       0.00000000 </v>
     <v>       0.00000000       0.00000000       0.06666667 </v>
    </varray>
   </crystal>
   <varray name="positions" >
    <v>       0.00415361       0.00267210       0.12034134 </v>
    <v>       0.35695335       0.00285503       0.09748893 </v>
    <v>       0.00423858       0.35550699       0.09749256 </v>
    <v>       0.65142295       0.65006557       0.09747688 </v>
    <v>       0.32808646       0.32671938       0.10030508 </v>
    <v>       0.68027775       0.00278085       0.10027562 </v>
    <v>       0.00416530       0.67883808       0.10026559 </v>
    <v>       0.11111044       0.38888856       0.33726667 </v>
    <v>       0.27777744       0.22222156       0.33726667 </v>
    <v>       0.11111044       0.88888856       0.33726667 </v>
    <v>       0.27777744       0.72222156       0.33726667 </v>
    <v>       0.61111044       0.38888856       0.33726667 </v>
    <v>       0.77777744       0.22222156       0.33726667 </v>
    <v>       0.61111044       0.88888856       0.33726667 </v>
    <v>       0.77777744       0.72222156       0.33726667 </v>
   </varray>
  </structure>
  <varray name="primitive_index" >
   <v type="int" >        1 </v>
   <v type="int" >        2 </v>
   <v type="int" >        3 </v>
   <v type="int" >        4 </v>
   <v type="int" >        5 </v>
   <v type="int" >        6 </v>
   <v type="int" >        7 </v>
   <v type="int" >        8 </v>
   <v type="int" >        9 </v>
   <v type="int" >       10 </v>
   <v type="int" >       11 </v>
   <v type="int" >       12 </v>
   <v type="int" >       13 </v>
   <v type="int" >       14 </v>
   <v type="int" >       15 </v>
  </varray>
 </primitive_cell>
 <kpoints>
  <generation param="Gamma">
   <v type="int" name="divisions">      12       12        1 </v>
   <v name="usershift">      0.00000000       0.00000000       0.00000000 </v>
   <v name="genvec1">      0.08333333       0.00000000       0.00000000 </v>
   <v name="genvec2">      0.00000000       0.08333333       0.00000000 </v>
   <v name="genvec3">      0.00000000       0.00000000       1.00000000 </v>
   <v name="shift">      0.00000000       0.00000000       0.00000000 </v>
  </generation>
  <varray name="kpointlist" >
   <v>       0.00000000       0.00000000       0.00000000 </v>
   <v>       0.08333333      -0.00000000       0.00000000 </v>
   <v>       0.00000000       0.08333333       0.00000000 </v>
   <v>      -0.08333333       0.08333333       0.00000000 </v>
   <v>       0.16666667       0.00000000       0.00000000 </v>
   <v>       0.00000000       0.16666667       0.00000000 </v>
   <v>      -0.16666667       0.16666667       0.00000000 </v>
   <v>       0.25000000       0.00000000       0.00000000 </v>
   <v>       0.00000000       0.25000000       0.00000000 </v>
   <v>      -0.25000000       0.25000000       0.00000000 </v>
   <v>       0.33333333      -0.00000000       0.00000000 </v>
   <v>      -0.00000000       0.33333333       0.00000000 </v>
   <v>      -0.33333333       0.33333333       0.00000000 </v>
   <v>       0.41666667      -0.00000000       0.00000000 </v>
   <v>      -0.00000000       0.41666667       0.00000000 </v>
   <v>      -0.41666667       0.41666667       0.00000000 </v>
   <v>       0.50000000       0.00000000       0.00000000 </v>
   <v>       0.00000000       0.50000000       0.00000000 </v>
   <v>       0.50000000       0.50000000       0.00000000 </v>
   <v>       0.08333333       0.08333333       0.00000000 </v>
   <v>      -0.08333333       0.16666667       0.00000000 </v>
   <v>      -0.16666667       0.08333333       0.00000000 </v>
   <v>       0.16666667       0.08333333       0.00000000 </v>
   <v>      -0.08333333       0.25000000       0.00000000 </v>
   <v>      -0.25000000       0.16666667       0.00000000 </v>
   <v>      -0.16666667       0.25000000       0.00000000 </v>
   <v>       0.08333333       0.16666667       0.00000000 </v>
   <v>       0.25000000      -0.08333333       0.00000000 </v>
   <v>       0.25000000       0.08333333       0.00000000 </v>
   <v>      -0.08333333       0.33333333       0.00000000 </v>
   <v>      -0.33333333       0.25000000       0.00000000 </v>
   <v>      -0.25000000       0.33333333       0.00000000 </v>
   <v>       0.08333333       0.25000000       0.00000000 </v>
   <v>       0.33333333      -0.08333333       0.00000000 </v>
   <v>       0.33333333       0.08333333       0.00000000 </v>
   <v>      -0.08333333       0.41666667       0.00000000 </v>
   <v>      -0.41666667       0.33333333       0.00000000 </v>
   <v>      -0.33333333       0.41666667       0.00000000 </v>
   <v>       0.08333333       0.33333333       0.00000000 </v>
   <v>       0.41666667      -0.08333333       0.00000000 </v>
   <v>       0.41666667       0.08333333       0.00000000 </v>
   <v>      -0.08333333       0.50000000       0.00000000 </v>
   <v>       0.50000000       0.41666667       0.00000000 </v>
   <v>      -0.41666667       0.50000000       0.00000000 </v>
   <v>       0.08333333       0.41666667       0.00000000 </v>
   <v>       0.50000000      -0.08333333       0.00000000 </v>
   <v>       0.16666667       0.16666667       0.00000000 </v>
   <v>      -0.16666667       0.33333333       0.00000000 </v>
   <v>      -0.33333333       0.16666667       0.00000000 </v>
   <v>       0.25000000       0.16666667       0.00000000 </v>
   <v>      -0.16666667       0.41666667       0.00000000 </v>
   <v>      -0.41666667       0.25000000       0.00000000 </v>
   <v>      -0.25000000       0.41666667       0.00000000 </v>
   <v>       0.16666667       0.25000000       0.00000000 </v>
   <v>       0.41666667      -0.16666667       0.00000000 </v>
   <v>       0.33333333       0.16666667       0.00000000 </v>
   <v>      -0.16666667       0.50000000       0.00000000 </v>
   <v>       0.50000000       0.33333333       0.00000000 </v>
   <v>      -0.33333333       0.50000000       0.00000000 </v>
   <v>       0.16666667       0.33333333       0.00000000 </v>
   <v>       0.50000000      -0.16666667       0.00000000 </v>
   <v>       0.41666667       0.16666667       0.00000000 </v>
   <v>      -0.16666667      -0.41666667       0.00000000 </v>
   <v>       0.41666667       0.41666667       0.00000000 </v>
   <v>       0.25000000       0.25000000       0.00000000 </v>
   <v>      -0.25000000       0.50000000       0.00000000 </v>
   <v>       0.50000000       0.25000000       0.00000000 </v>
   <v>       0.33333333       0.25000000       0.00000000 </v>
   <v>      -0.25000000      -0.41666667       0.00000000 </v>
   <v>       0.41666667       0.33333333       0.00000000 </v>
   <v>      -0.33333333      -0.41666667       0.00000000 </v>
   <v>       0.25000000       0.33333333       0.00000000 </v>
   <v>      -0.41666667      -0.25000000       0.00000000 </v>
   <v>       0.33333333       0.33333333       0.00000000 </v>
  </varray>
  <varray name="weights" >
   <v>       0.00694444 </v>
   <v>       0.01388889 </v>
   <v>       0.01388889 </v>
   <v>       0.01388889 </v>
   <v>       0.01388889 </v>
   <v>       0.01388889 </v>
   <v>       0.01388889 </v>
   <v>       0.01388889 </v>
   <v>       0.01388889 </v>
   <v>       0.01388889 </v>
   <v>       0.01388889 </v>
   <v>       0.01388889 </v>
   <v>       0.01388889 </v>
   <v>       0.01388889 </v>
   <v>       0.01388889 </v>
   <v>       0.01388889 </v>
   <v>       0.00694444 </v>
   <v>       0.00694444 </v>
   <v>       0.00694444 </v>
   <v>       0.01388889 </v>
   <v>       0.01388889 </v>
   <v>       0.01388889 </v>
   <v>       0.01388889 </v>
   <v>       0.01388889 </v>
   <v>       0.01388889 </v>
   <v>       0.01388889 </v>
   <v>       0.01388889 </v>
   <v>       0.01388889 </v>
   <v>       0.01388889 </v>
   <v>       0.01388889 </v>
   <v>       0.01388889 </v>
   <v>       0.01388889 </v>
   <v>       0.01388889 </v>
   <v>       0.01388889 </v>
   <v>       0.01388889 </v>
   <v>       0.01388889 </v>
   <v>       0.01388889 </v>
   <v>       0.01388889 </v>
   <v>       0.01388889 </v>
   <v>       0.01388889 </v>
   <v>       0.01388889 </v>
   <v>       0.01388889 </v>
   <v>       0.01388889 </v>
   <v>       0.01388889 </v>
   <v>       0.01388889 </v>
   <v>       0.01388889 </v>
   <v>       0.01388889 </v>
   <v>       0.01388889 </v>
   <v>       0.01388889 </v>
   <v>       0.01388889 </v>
   <v>       0.01388889 </v>
   <v>       0.01388889 </v>
   <v>       0.01388889 </v>
   <v>       0.01388889 </v>
   <v>       0.01388889 </v>
   <v>       0.01388889 </v>
   <v>       0.01388889 </v>
   <v>       0.01388889 </v>
   <v>       0.01388889 </v>
   <v>       0.01388889 </v>
   <v>       0.01388889 </v>
   <v>       0.01388889 </v>
   <v>       0.01388889 </v>
   <v>       0.01388889 </v>
   <v>       0.01388889 </v>
   <v>       0.01388889 </v>
   <v>       0.01388889 </v>
   <v>       0.01388889 </v>
   <v>       0.01388889 </v>
   <v>       0.01388889 </v>
   <v>       0.01388889 </v>
   <v>       0.01388889 </v>
   <v>       0.01388889 </v>
   <v>       0.01388889 </v>
  </varray>
 </kpoints>
 <parameters>
  <separator name="general" >
   <i type="string" name="SYSTEM">Lattice</i>
   <i type="logical" name="LCOMPAT"> F  </i>
  </separator>
  <separator name="electronic" >
   <i type="string" name="PREC">accura</i>
   <i name="ENMAX">    450.00000000</i>
   <i name="ENAUG">    644.87300000</i>
   <i name="EDIFF">      0.00000100</i>
   <i type="int" name="IALGO">    38</i>
   <i type="int" name="IWAVPR">    11</i>
   <i type="int" name="NBANDS">    48</i>
   <i type="int" name="NBANDSLOW">    -1</i>
   <i type="int" name="NBANDSHIGH">    -1</i>
   <i name="NELECT">     56.00000000</i>
   <i type="int" name="TURBO">     0</i>
   <i type="int" name="IRESTART">     0</i>
   <i type="int" name="NREBOOT">     0</i>
   <i type="int" name="NMIN">     0</i>
   <i name="EREF">      0.00000000</i>
   <separator name="electronic smearing" >
    <i type="int" name="ISMEAR">     0</i>
    <i name="SIGMA">      0.10000000</i>
    <i name="KSPACING">      0.50000000</i>
    <i type="logical" name="KGAMMA"> T  </i>
    <i type="logical" name="KBLOWUP"> T  </i>
   </separator>
   <separator name="electronic projectors" >
    <i type="logical" name="LREAL"> F  </i>
    <v name="ROPT">      0.00000000      0.00000000</v>
    <i type="int" name="LMAXPAW">  -100</i>
    <i type="int" name="LMAXMIX">     2</i>
    <i type="logical" name="NLSPLINE"> F  </i>
   </separator>
   <separator name="electronic startup" >
    <i type="int" name="ISTART">     0</i>
    <i type="int" name="ICHARG">     2</i>
    <i type="int" name="INIWAV">     1</i>
   </separator>
   <separator name="electronic spin" >
    <i type="int" name="ISPIN">     2</i>
    <i type="logical" name="LNONCOLLINEAR"> F  </i>
    <v name="MAGMOM">      1.00000000      1.00000000      1.00000000      1.00000000      1.00000000      1.00000000      1.00000000      1.00000000      1.00000000      1.00000000      1.00000000      1.00000000      1.00000000      1.00000000      1.00000000</v>
    <i name="NUPDOWN">     -1.00000000</i>
    <i type="logical" name="LSORBIT"> F  </i>
    <v name="SAXIS">      0.00000000      0.00000000      1.00000000</v>
    <i type="logical" name="LSPIRAL"> F  </i>
    <v name="QSPIRAL">      0.00000000      0.00000000      0.00000000</v>
    <i type="logical" name="LZEROZ"> F  </i>
   </separator>
   <separator name="electronic exchange-correlation" >
    <i type="logical" name="LASPH"> F  </i>
    <i type="logical" name="LMETAGGA"> F  </i>
   </separator>
   <separator name="electronic convergence" >
    <i type="int" name="NELM">    64</i>
    <i type="int" name="NELMDL">    -5</i>
    <i type="int" name="NELMIN">     2</i>
    <i name="ENINI">    450.00000000</i>
    <separator name="electronic convergence detail" >
     <i type="logical" name="LDIAG"> T  </i>
     <i type="logical" name="LSUBROT"> F  </i>
     <i name="WEIMIN">      0.00100000</i>
     <i name="EBREAK">      0.00000001</i>
     <i name="DEPER">      0.30000000</i>
     <i type="int" name="NRMM">     4</i>
     <i name="TIME">      0.40000000</i>
    </separator>
   </separator>
   <separator name="electronic mixer" >
    <i name="AMIX">      0.40000000</i>
    <i name="BMIX">      1.00000000</i>
    <i name="AMIN">      0.10000000</i>
    <i name="AMIX_MAG">      1.60000000</i>
    <i name="BMIX_MAG">      1.00000000</i>
    <separator name="electronic mixer details" >
     <i type="int" name="IMIX">     4</i>
     <i type="logical" name="MIXFIRST"> F  </i>
     <i type="int" name="MAXMIX">   -45</i>
     <i name="WC">    100.00000000</i>
     <i type="int" name="INIMIX">     1</i>
     <i type="int" name="MIXPRE">     1</i>
     <i type="int" name="MREMOVE">     5</i>
    </separator>
   </separator>
   <separator name="electronic dipolcorrection" >
    <i type="logical" name="LDIPOL"> F  </i>
    <i type="logical" name="LMONO"> F  </i>
    <i type="int" name="IDIPOL">     0</i>
    <i name="EPSILON">      1.00000000</i>
    <v name="DIPOL">   -100.00000000   -100.00000000   -100.00000000</v>
    <i name="EFIELD">      0.00000000</i>
   </separator>
  </separator>
  <separator name="grids" >
   <i type="int" name="NGX">    36</i>
   <i type="int" name="NGY">    36</i>
   <i type="int" name="NGZ">   108</i>
   <i type="int" name="NGXF">    72</i>
   <i type="int" name="NGYF">    72</i>
   <i type="int" name="NGZF">   216</i>
   <i type="logical" name="ADDGRID"> F  </i>
  </separator>
  <separator name="ionic" >
   <i type="int" name="NSW">   128</i>
   <i type="int" name="IBRION">     2</i>
   <i type="int" name="MDALGO">     0</i>
   <i type="int" name="ISIF">     2</i>
   <i name="PSTRESS">      0.00000000</i>
   <i name="EDIFFG">     -0.00100000</i>
   <i type="int" name="NFREE">     1</i>
   <i name="POTIM">      0.50000000</i>
   <i name="SMASS">     -3.00000000</i>
   <i name="SCALEE">      1.00000000</i>
  </separator>
  <separator name="ionic md" >
   <i name="TEBEG">      0.00010000</i>
   <i name="TEEND">      0.00010000</i>
   <i type="int" name="NBLOCK">     1</i>
   <i type="int" name="KBLOCK">   128</i>
   <i type="int" name="NPACO">   256</i>
   <i name="APACO">     10.00000000</i>
  </separator>
  <separator name="symmetry" >
   <i type="int" name="ISYM">     2</i>
   <i name="SYMPREC">      0.00001000</i>
  </separator>
  <separator name="dos" >
   <i type="int" name="LORBIT">     0</i>
   <v name="RWIGS">     -1.00000000     -1.00000000</v>
   <i type="int" name="NEDOS">   301</i>
   <i name="EMIN">     10.00000000</i>
   <i name="EMAX">    -10.00000000</i>
   <i name="EFERMI">      0.00000000</i>
  </separator>
  <separator name="writing" >
   <i type="int" name="NWRITE">     2</i>
   <i type="logical" name="LWAVE"> F  </i>
   <i type="logical" name="LDOWNSAMPLE"> F  </i>
   <i type="logical" name="LCHARG"> F  </i>
   <i type="logical" name="LPARD"> F  </i>
   <i type="logical" name="LVTOT"> F  </i>
   <i type="logical" name="LVHAR"> F  </i>
   <i type="logical" name="LELF"> F  </i>
   <i type="logical" name="LOPTICS"> F  </i>
   <v name="STM">      0.00000000      0.00000000      0.00000000      0.00000000      0.00000000      0.00000000      0.00000000</v>
  </separator>
  <separator name="performance" >
   <i type="int" name="NPAR">    48</i>
   <i type="int" name="NSIM">     4</i>
   <i type="int" name="NBLK">    -1</i>
   <i type="logical" name="LPLANE"> T  </i>
   <i type="logical" name="LSCALAPACK"> T  </i>
   <i type="logical" name="LSCAAWARE"> F  </i>
   <i type="logical" name="LSCALU"> F  </i>
   <i type="logical" name="LASYNC"> F  </i>
   <i type="logical" name="LORBITALREAL"> F  </i>
  </separator>
  <separator name="miscellaneous" >
   <i type="int" name="IDIOT">     3</i>
   <i type="int" name="PHON_NSTRUCT">    -1</i>
   <i type="logical" name="LMUSIC"> F  </i>
   <v name="POMASS">     10.81100000     12.01100000</v>
   <v name="DARWINR">      0.00000000      0.00000000</v>
   <v name="DARWINV">      1.00000000      1.00000000</v>
   <i type="logical" name="LCORR"> T  </i>
  </separator>
  <i type="logical" name="GGA_COMPAT"> T  </i>
  <i type="logical" name="LBERRY"> F  </i>
  <i type="int" name="ICORELEVEL">     0</i>
  <i type="logical" name="LDAU"> F  </i>
  <i type="int" name="I_CONSTRAINED_M">     0</i>
  <separator name="electronic exchange-correlation" >
   <i type="string" name="GGA">PE</i>
   <i type="int" name="VOSKOWN">     0</i>
   <i type="logical" name="LHFCALC"> F  </i>
   <i type="string" name="PRECFOCK"></i>
   <i type="logical" name="LSYMGRAD"> F  </i>
   <i type="logical" name="LHFONE"> F  </i>
   <i type="logical" name="LRHFCALC"> F  </i>
   <i type="logical" name="LTHOMAS"> F  </i>
   <i type="logical" name="LMODELHF"> F  </i>
   <i type="logical" name="LFOCKACE"> F  </i>
   <i name="ENCUT4O">     -1.00000000</i>
   <i type="int" name="EXXOEP">     0</i>
   <i type="int" name="FOURORBIT">     0</i>
   <i name="AEXX">      0.00000000</i>
   <i name="HFALPHA">      0.00000000</i>
   <i name="MCALPHA">      0.00000000</i>
   <i name="ALDAX">      1.00000000</i>
   <i name="AGGAX">      1.00000000</i>
   <i name="ALDAC">      1.00000000</i>
   <i name="AGGAC">      1.00000000</i>
   <i type="int" name="NKREDX">     1</i>
   <i type="int" name="NKREDY">     1</i>
   <i type="int" name="NKREDZ">     1</i>
   <i type="logical" name="SHIFTRED"> F  </i>
   <i type="logical" name="ODDONLY"> F  </i>
   <i type="logical" name="EVENONLY"> F  </i>
   <i type="int" name="LMAXFOCK">     0</i>
   <i type="int" name="NMAXFOCKAE">     0</i>
   <i type="logical" name="LFOCKAEDFT"> F  </i>
   <i name="HFSCREEN">      0.00000000</i>
   <i name="HFSCREENC">      0.00000000</i>
   <i type="int" name="NBANDSGWLOW">     0</i>
  </separator>
  <separator name="vdW DFT" >
   <i type="logical" name="LUSE_VDW"> F  </i>
   <i name="Zab_VDW">     -0.84910000</i>
   <i name="PARAM1">      0.12340000</i>
   <i name="PARAM2">      1.00000000</i>
   <i name="PARAM3">      0.00000000</i>
  </separator>
  <separator name="model GW" >
   <i type="int" name="MODEL_GW">     0</i>
   <i name="MODEL_EPS0">     12.18236065</i>
   <i name="MODEL_ALPHA">      1.00000000</i>
  </separator>
  <separator name="linear response parameters" >
   <i type="logical" name="LEPSILON"> F  </i>
   <i type="logical" name="LRPA"> F  </i>
   <i type="logical" name="LNABLA"> F  </i>
   <i type="logical" name="LVEL"> F  </i>
   <i name="CSHIFT">      0.10000000</i>
   <i name="OMEGAMAX">     -1.00000000</i>
   <i name="DEG_THRESHOLD">      0.00200000</i>
   <i name="RTIME">     -0.10000000</i>
   <i name="WPLASMAI">      0.00000000</i>
   <v name="DFIELD">      0.00000000      0.00000000      0.00000000</v>
   <v name="WPLASMA">      0.00000000      0.00000000      0.00000000      0.00000000      0.00000000      0.00000000      0.00000000      0.00000000      0.00000000</v>
  </separator>
  <separator name="orbital magnetization" >
   <i type="logical" name="NUCIND"> F  </i>
   <v name="MAGPOS">      0.00000000      0.00000000      0.00000000</v>
   <i type="logical" name="LNICSALL"> T  </i>
   <i type="logical" name="ORBITALMAG"> F  </i>
   <i type="logical" name="LMAGBLOCH"> F  </i>
   <i type="logical" name="LCHIMAG"> F  </i>
   <i type="logical" name="LGAUGE"> T  </i>
   <i type="int" name="MAGATOM">     0</i>
   <v name="MAGDIPOL">      0.00000000      0.00000000      0.00000000</v>
   <v name="AVECCONST">      0.00000000      0.00000000      0.00000000</v>
  </separator>
  <separator name="response functions" >
   <i type="logical" name="LFINITE_TEMPERATURE"> F  </i>
   <i type="logical" name="LADDER"> F  </i>
   <i type="logical" name="LRPAFORCE"> F  </i>
   <i type="logical" name="LFXC"> F  </i>
   <i type="logical" name="LHARTREE"> T  </i>
   <i type="int" name="IBSE">     0</i>
   <v type="int" name="KPOINT">    -1     0     0     0</v>
   <i type="logical" name="LTCTC"> F  </i>
   <i type="logical" name="LTCTE"> F  </i>
   <i type="logical" name="LTETE"> F  </i>
   <i type="logical" name="LTRIPLET"> F  </i>
   <i type="logical" name="LFXCEPS"> F  </i>
   <i type="logical" name="LFXHEG"> F  </i>
   <i type="int" name="NATURALO">     2</i>
   <i type="logical" name="LHOLEGF"> F  </i>
   <i type="logical" name="L2ORDER"> F  </i>
   <i type="logical" name="LDMP1"> F  </i>
   <i type="logical" name="LMP2LT"> F  </i>
   <i type="logical" name="LSMP2LT"> F  </i>
   <i type="logical" name="LGWLF"> F  </i>
   <i name="ENCUTGW">     -2.00000000</i>
   <i name="ENCUTGWSOFT">     -2.00000000</i>
   <i name="ENCUTLF">     -1.00000000</i>
   <i type="logical" name="LESF_SPLINES"> F  </i>
   <i type="int" name="LMAXMP2">    -1</i>
   <i name="SCISSOR">      0.00000000</i>
   <i type="int" name="NOMEGA">     0</i>
   <i type="int" name="NOMEGAR">     0</i>
   <i type="int" name="NBANDSGW">    -1</i>
   <i type="int" name="NBANDSO">    -1</i>
   <i type="int" name="NBANDSV">    -1</i>
   <i type="int" name="NELMGW">     1</i>
   <i type="int" name="NELMHF">     1</i>
   <i type="int" name="DIM">     3</i>
   <i type="int" name="IESPILON">     4</i>
   <i type="int" name="ANTIRES">     0</i>
   <i name="OMEGAMAX">    -30.00000000</i>
   <i name="OMEGAMIN">    -30.00000000</i>
   <i name="OMEGATL">   -200.00000000</i>
   <i type="int" name="OMEGAGRID">     0</i>
   <i name="CSHIFT">     -0.10000000</i>
   <i type="logical" name="LSELFENERGY"> F  </i>
   <i type="logical" name="LSPECTRAL"> F  </i>
   <i type="logical" name="LSPECTRALGW"> F  </i>
   <i type="logical" name="LSINGLES"> F  </i>
   <i type="logical" name="LFERMIGW"> F  </i>
   <i type="logical" name="ODDONLYGW"> F  </i>
   <i type="logical" name="EVENONLYGW"> F  </i>
   <i type="int" name="NKREDLFX">     1</i>
   <i type="int" name="NKREDLFY">     1</i>
   <i type="int" name="NKREDLFZ">     1</i>
   <i type="int" name="MAXMEM">  2800</i>
   <i type="int" name="TELESCOPE">     0</i>
   <i type="int" name="NTAUPAR">    -1</i>
   <i type="int" name="NOMEGAPAR">    -1</i>
   <i name="DAMP_NEWTON">      0.80000001</i>
   <i name="LAMBDA">      1.00000000</i>
  </separator>
  <separator name="External order field" >
   <i name="OFIELD_KAPPA">      0.00000000</i>
   <v name="OFIELD_K">      0.00000000      0.00000000      0.00000000</v>
   <i name="OFIELD_Q6_NEAR">      0.00000000</i>
   <i name="OFIELD_Q6_FAR">      0.00000000</i>
   <i name="OFIELD_A">      0.00000000</i>
  </separator>
  <separator name="optional k-points parameters" >
   <i type="int" name="KPOINTS_OPT_MODE">     1</i>
   <i type="logical" name="LKPOINTS_OPT"> F  </i>
  </separator>
  <separator name="solvation model" >
   <i type="logical" name="LSOL"> F  </i>
  </separator>
 </parameters>
 <atominfo>
  <atoms>      15 </atoms>
  <types>       2 </types>
  <array name="atoms" >
   <dimension dim="1">ion</dimension>
   <field type="string">element</field>
   <field type="int">atomtype</field>
   <set>
    <rc><c>B </c><c>   1</c></rc>
    <rc><c>B </c><c>   1</c></rc>
    <rc><c>B </c><c>   1</c></rc>
    <rc><c>B </c><c>   1</c></rc>
    <rc><c>C </c><c>   2</c></rc>
    <rc><c>C </c><c>   2</c></rc>
    <rc><c>C </c><c>   2</c></rc>
    <rc><c>C </c><c>   2</c></rc>
    <rc><c>C </c><c>   2</c></rc>
    <rc><c>C </c><c>   2</c></rc>
    <rc><c>C </c><c>   2</c></rc>
    <rc><c>C </c><c>   2</c></rc>
    <rc><c>C </c><c>   2</c></rc>
    <rc><c>C </c><c>   2</c></rc>
    <rc><c>C </c><c>   2</c></rc>
   </set>
  </array>
  <array name="atomtypes" >
   <dimension dim="1">type</dimension>
   <field type="int">atomspertype</field>
   <field type="string">element</field>
   <field>mass</field>
   <field>valence</field>
   <field type="string">pseudopotential</field>
   <set>
    <rc><c>   4</c><c>B </c><c>     10.81100000</c><c>      3.00000000</c><c>  PAW_PBE B 06Sep2000                   </c></rc>
    <rc><c>  11</c><c>C </c><c>     12.01100000</c><c>      4.00000000</c><c>  PAW_PBE C 08Apr2002                   </c></rc>
   </set>
  </array>
 </atominfo>
 <structure name="initialpos" >
  <crystal>
   <varray name="basis" >
    <v>       4.19329501       2.42100000       0.00000000 </v>
    <v>      -4.19329501       2.42100000       0.00000000 </v>
    <v>       0.00000000       0.00000000      15.00000000 </v>
   </varray>
   <i name="volume">    304.55901622 </i>
   <varray name="rec_basis" >
    <v>       0.11923797       0.20652623       0.00000000 </v>
    <v>      -0.11923797       0.20652623       0.00000000 </v>
    <v>       0.00000000       0.00000000       0.06666667 </v>
   </varray>
  </crystal>
  <varray name="positions" >
   <v>       0.00415361       0.00267210       0.12034134 </v>
   <v>       0.35695335       0.00285503       0.09748893 </v>
   <v>       0.00423858       0.35550699       0.09749256 </v>
   <v>       0.65142295       0.65006557       0.09747688 </v>
   <v>       0.32808646       0.32671938       0.10030508 </v>
   <v>       0.68027775       0.00278085       0.10027562 </v>
   <v>       0.00416530       0.67883808       0.10026559 </v>
   <v>       0.11111044       0.38888856       0.33726667 </v>
   <v>       0.27777744       0.22222156       0.33726667 </v>
   <v>       0.11111044       0.88888856       0.33726667 </v>
   <v>       0.27777744       0.72222156       0.33726667 </v>
   <v>       0.61111044       0.38888856       0.33726667 </v>
   <v>       0.77777744       0.22222156       0.33726667 </v>
   <v>       0.61111044       0.88888856       0.33726667 </v>
   <v>       0.77777744       0.72222156       0.33726667 </v>
  </varray>
 </structure>
 <calculation>
  <scstep>
   <time name="dav">    5.49    5.56</time>
   <time name="total">    5.55    5.64</time>
   <energy>
    <i name="alphaZ">     58.40344200 </i>
    <i name="ewald">   4696.56381173 </i>
    <i name="hartreedc">  -6252.27694676 </i>
    <i name="XCdc">    175.16517740 </i>
    <i name="pawpsdc">   1365.87943566 </i>
    <i name="pawaedc">  -1368.52100941 </i>
    <i name="eentropy">     -0.01879419 </i>
    <i name="bandstr">   -374.59650652 </i>
    <i name="atom">   1903.26342058 </i>
    <i name="e_fr_energy">    203.86203049 </i>
    <i name="e_wo_entrp">    203.88082469 </i>
    <i name="e_0_energy">    203.87142759 </i>
   </energy>
  </scstep>
  <scstep>
   <time name="dav">    7.98    8.04</time>
   <time name="total">    7.98    8.04</time>
   <energy>
    <i name="e_fr_energy">   -116.63024203 </i>
    <i name="e_wo_entrp">   -116.62884893 </i>
    <i name="e_0_energy">   -116.62954548 </i>
   </energy>
  </scstep>
  <scstep>
   <time name="dav">   11.18   11.26</time>
   <time name="total">   11.18   11.26</time>
   <energy>
    <i name="e_fr_energy">   -129.44276342 </i>
    <i name="e_wo_entrp">   -129.43968402 </i>
    <i name="e_0_energy">   -129.44122372 </i>
   </energy>
  </scstep>
  <scstep>
   <time name="dav">    8.37    8.43</time>
   <time name="total">    8.37    8.44</time>
   <energy>
    <i name="e_fr_energy">   -129.46856009 </i>
    <i name="e_wo_entrp">   -129.46546494 </i>
    <i name="e_0_energy">   -129.46701251 </i>
   </energy>
  </scstep>
  <scstep>
   <time name="dav">   10.65   10.72</time>
   <time name="total">   10.92   11.01</time>
   <energy>
    <i name="e_fr_energy">   -129.46861791 </i>
    <i name="e_wo_entrp">   -129.46552252 </i>
    <i name="e_0_energy">   -129.46707022 </i>
   </energy>
  </scstep>
  <scstep>
   <time name="dav">   10.72   10.79</time>
   <time name="total">   11.01   11.10</time>
   <energy>
    <i name="e_fr_energy">    -92.05236627 </i>
    <i name="e_wo_entrp">    -92.04605937 </i>
    <i name="e_0_energy">    -92.04921282 </i>
   </energy>
  </scstep>
  <scstep>
   <time name="dav">    9.30    9.36</time>
   <time name="total">    9.59    9.67</time>
   <energy>
    <i name="e_fr_energy">   -100.47273156 </i>
    <i name="e_wo_entrp">   -100.46711224 </i>
    <i name="e_0_energy">   -100.46992190 </i>
   </energy>
  </scstep>
  <scstep>
   <time name="dav">    9.86    9.94</time>
   <time name="total">   10.15   10.24</time>
   <energy>
    <i name="e_fr_energy">   -110.46953533 </i>
    <i name="e_wo_entrp">   -110.46950734 </i>
    <i name="e_0_energy">   -110.46952133 </i>
   </energy>
  </scstep>
  <scstep>
   <time name="dav">    7.60    7.65</time>
   <time name="total">    7.90    7.96</time>
   <energy>
    <i name="e_fr_energy">   -117.19986935 </i>
    <i name="e_wo_entrp">   -117.19986509 </i>
    <i name="e_0_energy">   -117.19986722 </i>
   </energy>
  </scstep>
  <scstep>
   <time name="dav">    9.90    9.97</time>
   <time name="total">   10.19   10.27</time>
   <energy>
    <i name="e_fr_energy">   -123.44327580 </i>
    <i name="e_wo_entrp">   -123.44268177 </i>
    <i name="e_0_energy">   -123.44297879 </i>
   </energy>
  </scstep>
  <scstep>
   <time name="dav">   10.16   10.22</time>
   <time name="total">   10.45   10.52</time>
   <energy>
    <i name="e_fr_energy">   -125.28507408 </i>
    <i name="e_wo_entrp">   -125.28388088 </i>
    <i name="e_0_energy">   -125.28447748 </i>
   </energy>
  </scstep>
  <scstep>
   <time name="dav">    7.72    7.76</time>
   <time name="total">    8.01    8.07</time>
   <energy>
    <i name="e_fr_energy">   -125.43647359 </i>
    <i name="e_wo_entrp">   -125.43499010 </i>
    <i name="e_0_energy">   -125.43573185 </i>
   </energy>
  </scstep>
  <scstep>
   <time name="dav">    7.11    7.15</time>
   <time name="total">    7.40    7.46</time>
   <energy>
    <i name="e_fr_energy">   -125.46227908 </i>
    <i name="e_wo_entrp">   -125.46072004 </i>
    <i name="e_0_energy">   -125.46149956 </i>
   </energy>
  </scstep>
  <scstep>
   <time name="dav">    8.26    8.73</time>
   <time name="total">    8.55    9.03</time>
   <energy>
    <i name="e_fr_energy">   -125.48523349 </i>
    <i name="e_wo_entrp">   -125.48366938 </i>
    <i name="e_0_energy">   -125.48445144 </i>
   </energy>
  </scstep>
  <scstep>
   <time name="dav">    8.07    8.12</time>
   <time name="total">    8.36    8.42</time>
   <energy>
    <i name="e_fr_energy">   -125.49299253 </i>
    <i name="e_wo_entrp">   -125.49142768 </i>
    <i name="e_0_energy">   -125.49221010 </i>
   </energy>
  </scstep>
  <scstep>
   <time name="dav">    6.34    6.40</time>
   <time name="total">    6.64    6.70</time>
   <energy>
    <i name="e_fr_energy">   -125.49499166 </i>
    <i name="e_wo_entrp">   -125.49342677 </i>
    <i name="e_0_energy">   -125.49420922 </i>
   </energy>
  </scstep>
  <scstep>
   <time name="dav">    6.09    6.13</time>
   <time name="total">    6.38    6.43</time>
   <energy>
    <i name="e_fr_energy">   -125.49626883 </i>
    <i name="e_wo_entrp">   -125.49470397 </i>
    <i name="e_0_energy">   -125.49548640 </i>
   </energy>
  </scstep>
  <scstep>
   <time name="dav">    6.74    6.78</time>
   <time name="total">    7.02    7.07</time>
   <energy>
    <i name="e_fr_energy">   -125.49696195 </i>
    <i name="e_wo_entrp">   -125.49539710 </i>
    <i name="e_0_energy">   -125.49617952 </i>
   </energy>
  </scstep>
  <scstep>
   <time name="dav">    7.52    7.59</time>
   <time name="total">    7.81    7.91</time>
   <energy>
    <i name="e_fr_energy">   -125.49740657 </i>
    <i name="e_wo_entrp">   -125.49584171 </i>
    <i name="e_0_energy">   -125.49662414 </i>
   </energy>
  </scstep>
  <scstep>
   <time name="dav">    9.16    9.22</time>
   <time name="total">    9.45    9.52</time>
   <energy>
    <i name="e_fr_energy">   -125.49745213 </i>
    <i name="e_wo_entrp">   -125.49588726 </i>
    <i name="e_0_energy">   -125.49666970 </i>
   </energy>
  </scstep>
  <scstep>
   <time name="dav">    8.07    8.13</time>
   <time name="total">    8.36    8.43</time>
   <energy>
    <i name="e_fr_energy">   -125.49747413 </i>
    <i name="e_wo_entrp">   -125.49590925 </i>
    <i name="e_0_energy">   -125.49669169 </i>
   </energy>
  </scstep>
  <scstep>
   <time name="dav">    9.00    9.04</time>
   <time name="total">    9.29    9.35</time>
   <energy>
    <i name="e_fr_energy">   -125.49749557 </i>
    <i name="e_wo_entrp">   -125.49593070 </i>
    <i name="e_0_energy">   -125.49671313 </i>
   </energy>
  </scstep>
  <scstep>
   <time name="dav">    8.25    8.30</time>
   <time name="total">    8.54    8.60</time>
   <energy>
    <i name="e_fr_energy">   -125.49751166 </i>
    <i name="e_wo_entrp">   -125.49594679 </i>
    <i name="e_0_energy">   -125.49672922 </i>
   </energy>
  </scstep>
  <scstep>
   <time name="dav">    9.57    9.63</time>
   <time name="total">    9.86    9.93</time>
   <energy>
    <i name="e_fr_energy">   -125.49751486 </i>
    <i name="e_wo_entrp">   -125.49594998 </i>
    <i name="e_0_energy">   -125.49673242 </i>
   </energy>
  </scstep>
  <scstep>
   <time name="dav">    9.26    9.32</time>
   <time name="total">    9.30    9.35</time>
   <energy>
    <i name="alphaZ">     58.40344200 </i>
    <i name="ewald">   4696.56381173 </i>
    <i name="hartreedc">  -6454.80272941 </i>
    <i name="XCdc">    180.57625946 </i>
    <i name="pawpsdc">   5759.65690712 </i>
    <i name="pawaedc">  -5764.07718216 </i>
    <i name="eentropy">     -0.00156488 </i>
    <i name="bandstr">   -505.07988026 </i>
    <i name="atom">   1903.26342058 </i>
    <i name="e_fr_energy">   -125.49751582 </i>
    <i name="e_wo_entrp">   -125.49595094 </i>
    <i name="e_0_energy">   -125.49673338 </i>
   </energy>
  </scstep>
  <structure>
   <crystal>
    <varray name="basis" >
     <v>       4.19329501       2.42100000       0.00000000 </v>
     <v>      -4.19329501       2.42100000       0.00000000 </v>
     <v>       0.00000000       0.00000000      15.00000000 </v>
    </varray>
    <i name="volume">    304.55901622 </i>
    <varray name="rec_basis" >
     <v>       0.11923797       0.20652623       0.00000000 </v>
     <v>      -0.11923797       0.20652623       0.00000000 </v>
     <v>       0.00000000       0.00000000       0.06666667 </v>
    </varray>
   </crystal>
   <varray name="positions" >
    <v>       0.00415361       0.00267210       0.12034134 </v>
    <v>       0.35695335       0.00285503       0.09748893 </v>
    <v>       0.00423858       0.35550699       0.09749256 </v>
    <v>       0.65142295       0.65006557       0.09747688 </v>
    <v>       0.32808646       0.32671938       0.10030508 </v>
    <v>       0.68027775       0.00278085       0.10027562 </v>
    <v>       0.00416530       0.67883808       0.10026559 </v>
    <v>       0.11111044       0.38888856       0.33726667 </v>
    <v>       0.27777744       0.22222156       0.33726667 </v>
    <v>       0.11111044       0.88888856       0.33726667 </v>
    <v>       0.27777744       0.72222156       0.33726667 </v>
    <v>       0.61111044       0.38888856       0.33726667 </v>
    <v>       0.77777744       0.22222156       0.33726667 </v>
    <v>       0.61111044       0.88888856       0.33726667 </v>
    <v>       0.77777744       0.72222156       0.33726667 </v>
   </varray>
  </structure>
  <varray name="forces" >
   <v>      -0.00090822       0.00199043      -0.39117373 </v>
   <v>      -0.09871074      -0.06336652       0.10144905 </v>
   <v>       0.08000085      -0.05118599       0.11783651 </v>
   <v>       0.00948278       0.10379291       0.11354545 </v>
   <v>       0.01405978      -0.33390936       0.00221683 </v>
   <v>       0.30408495       0.17696099       0.01564777 </v>
   <v>      -0.27873661       0.16694561       0.00474690 </v>
   <v>      -0.01513115       0.00161772       0.00398950 </v>
   <v>       0.00116424       0.01325943       0.02684939 </v>
   <v>       0.00498823       0.01587510       0.00734031 </v>
   <v>       0.01686175       0.00942267      -0.01915791 </v>
   <v>       0.00111734      -0.00459309      -0.02067753 </v>
   <v>      -0.00754102       0.00020612       0.00691871 </v>
   <v>      -0.01175123      -0.01165542       0.02347304 </v>
   <v>      -0.01898094      -0.02536058       0.00699571 </v>
  </varray>
  <varray name="stress" >
   <v>      -2.47664128       0.07598764      -0.54588079 </v>
   <v>       0.07598768      -2.60747531      -0.01984665 </v>
   <v>      -0.54588077      -0.01984664      -2.14615606 </v>
  </varray>
  <energy>
   <i name="e_fr_energy">   -127.08540882 </i>
   <i name="e_wo_entrp">   -127.08384394 </i>
   <i name="e_0_energy">   -127.08462638 </i>
  </energy>
  <time name="totalsc">  222.94  225.12</time>
 </calculation>
 <calculation>
  <scstep>
   <time name="dav">    5.44    5.48</time>
   <time name="total">    5.73    5.78</time>
   <energy>
    <i name="alphaZ">     58.40344200 </i>
    <i name="ewald">   4699.95422642 </i>
    <i name="hartreedc">  -6456.84878662 </i>
    <i name="XCdc">    180.65419152 </i>
    <i name="pawpsdc">   5759.68618276 </i>
    <i name="pawaedc">  -5764.10645616 </i>
    <i name="eentropy">     -0.00156392 </i>
    <i name="bandstr">   -506.51161761 </i>
    <i name="atom">   1903.26342058 </i>
    <i name="e_fr_energy">   -125.50696103 </i>
    <i name="e_wo_entrp">   -125.50539711 </i>
    <i name="e_0_energy">   -125.50617907 </i>
   </energy>
  </scstep>
  <scstep>
   <time name="dav">   10.78   10.85</time>
   <time name="total">   11.07   11.15</time>
   <energy>
    <i name="e_fr_energy">   -125.49911673 </i>
    <i name="e_wo_entrp">   -125.49755271 </i>
    <i name="e_0_energy">   -125.49833472 </i>
   </energy>
  </scstep>
  <scstep>
   <time name="dav">    8.42    8.48</time>
   <time name="total">    8.71    8.78</time>
   <energy>
    <i name="e_fr_energy">   -125.49824302 </i>
    <i name="e_wo_entrp">   -125.49667895 </i>
    <i name="e_0_energy">   -125.49746098 </i>
   </energy>
  </scstep>
  <scstep>
   <time name="dav">   11.23   11.29</time>
   <time name="total">   11.52   11.60</time>
   <energy>
    <i name="e_fr_energy">   -125.49820671 </i>
    <i name="e_wo_entrp">   -125.49664264 </i>
    <i name="e_0_energy">   -125.49742467 </i>
   </energy>
  </scstep>
  <scstep>
   <time name="dav">   10.31   10.38</time>
   <time name="total">   10.61   10.68</time>
   <energy>
    <i name="e_fr_energy">   -125.49820989 </i>
    <i name="e_wo_entrp">   -125.49664581 </i>
    <i name="e_0_energy">   -125.49742785 </i>
   </energy>
  </scstep>
  <scstep>
   <time name="dav">    9.20    9.27</time>
   <time name="total">    9.24    9.30</time>
   <energy>
    <i name="alphaZ">     58.40344200 </i>
    <i name="ewald">   4699.95422642 </i>
    <i name="hartreedc">  -6457.54803999 </i>
    <i name="XCdc">    180.66978463 </i>
    <i name="pawpsdc">   5785.31100192 </i>
    <i name="pawaedc">  -5789.73957382 </i>
    <i name="eentropy">     -0.00156407 </i>
    <i name="bandstr">   -505.81090754 </i>
    <i name="atom">   1903.26342058 </i>
    <i name="e_fr_energy">   -125.49820989 </i>
    <i name="e_wo_entrp">   -125.49664582 </i>
    <i name="e_0_energy">   -125.49742785 </i>
   </energy>
  </scstep>
  <structure>
   <crystal>
    <varray name="basis" >
     <v>       4.19329501       2.42100000       0.00000000 </v>
     <v>      -4.19329501       2.42100000       0.00000000 </v>
     <v>       0.00000000       0.00000000      15.00000000 </v>
    </varray>
    <i name="volume">    304.55901622 </i>
    <varray name="rec_basis" >
     <v>       0.11923797       0.20652623       0.00000000 </v>
     <v>      -0.11923797       0.20652623       0.00000000 </v>
     <v>       0.00000000       0.00000000       0.06666667 </v>
    </varray>
   </crystal>
   <varray name="positions" >
    <v>       0.00416821       0.00269716       0.11908325 </v>
    <v>       0.35575419       0.00279151       0.09781521 </v>
    <v>       0.00418879       0.35453681       0.09787155 </v>
    <v>       0.65251163       0.65104515       0.09784206 </v>
    <v>       0.32484048       0.32331163       0.10031221 </v>
    <v>       0.68379008       0.00279478       0.10032595 </v>
    <v>       0.00422525       0.68210481       0.10028085 </v>
    <v>       0.11103952       0.38899171       0.33727950 </v>
    <v>       0.27791625       0.22234697       0.33735302 </v>
    <v>       0.11129731       0.88901803       0.33729027 </v>
    <v>       0.27796832       0.72221844       0.33720505 </v>
    <v>       0.61107111       0.38883637       0.33720016 </v>
    <v>       0.77773612       0.22226699       0.33728892 </v>
    <v>       0.61092672       0.88884003       0.33734216 </v>
    <v>       0.77741558       0.72207806       0.33728917 </v>
   </varray>
  </structure>
  <varray name="forces" >
   <v>      -0.00279403       0.00223519      -0.17476890 </v>
   <v>       0.25709857       0.14361379       0.05761152 </v>
   <v>      -0.21667029       0.13232602       0.06919491 </v>
   <v>       0.01074856      -0.26713352       0.06579072 </v>
   <v>       0.00159492       0.54720927      -0.02103015 </v>
   <v>      -0.49023345      -0.28647445      -0.01322707 </v>
   <v>       0.46906566      -0.27069973      -0.01931841 </v>
   <v>       0.03935215      -0.00743314       0.00459368 </v>
   <v>      -0.02786177      -0.04379404       0.00895084 </v>
   <v>      -0.03322942      -0.06089451       0.00729477 </v>
   <v>      -0.07677915      -0.03396982      -0.00173209 </v>
   <v>      -0.01374677       0.01410390      -0.00028251 </v>
   <v>       0.01172097      -0.00470464       0.00340052 </v>
   <v>       0.02311602       0.04563130       0.00891506 </v>
   <v>       0.04861803       0.08998439       0.00460711 </v>
  </varray>
  <varray name="stress" >
   <v>       0.02065833       0.10435159      -0.55412992 </v>
   <v>       0.10435158      -0.04140730      -0.01954929 </v>
   <v>      -0.55412991      -0.01954931      -1.75940504 </v>
  </varray>
  <energy>
   <i name="e_fr_energy">   -127.08552595 </i>
   <i name="e_wo_entrp">   -127.08396187 </i>
   <i name="e_0_energy">   -127.08474391 </i>
  </energy>
  <time name="totalsc">   61.56   62.00</time>
 </calculation>
 <calculation>
  <scstep>
   <time name="dav">    5.45    5.49</time>
   <time name="total">    5.74    5.79</time>
   <energy>
    <i name="alphaZ">     58.40344200 </i>
    <i name="ewald">   4698.23123273 </i>
    <i name="hartreedc">  -6456.50197436 </i>
    <i name="XCdc">    180.62992842 </i>
    <i name="pawpsdc">   5785.32186916 </i>
    <i name="pawaedc">  -5789.75043134 </i>
    <i name="eentropy">     -0.00156457 </i>
    <i name="bandstr">   -505.10282698 </i>
    <i name="atom">   1903.26342058 </i>
    <i name="e_fr_energy">   -125.50690436 </i>
    <i name="e_wo_entrp">   -125.50533979 </i>
    <i name="e_0_energy">   -125.50612208 </i>
   </energy>
  </scstep>
  <scstep>
   <time name="dav">   10.56   10.62</time>
   <time name="total">   10.85   10.93</time>
   <energy>
    <i name="e_fr_energy">   -125.50490855 </i>
    <i name="e_wo_entrp">   -125.50334402 </i>
    <i name="e_0_energy">   -125.50412629 </i>
   </energy>
  </scstep>
  <scstep>
   <time name="dav">    9.14    9.20</time>
   <time name="total">    9.44    9.50</time>
   <energy>
    <i name="e_fr_energy">   -125.50469882 </i>
    <i name="e_wo_entrp">   -125.50313431 </i>
    <i name="e_0_energy">   -125.50391656 </i>
   </energy>
  </scstep>
  <scstep>
   <time name="dav">    9.59    9.64</time>
   <time name="total">    9.88    9.94</time>
   <energy>
    <i name="e_fr_energy">   -125.50469030 </i>
    <i name="e_wo_entrp">   -125.50312580 </i>
    <i name="e_0_energy">   -125.50390805 </i>
   </energy>
  </scstep>
  <scstep>
   <time name="dav">    8.93    8.98</time>
   <time name="total">    8.96    9.02</time>
   <energy>
    <i name="alphaZ">     58.40344200 </i>
    <i name="ewald">   4698.23123273 </i>
    <i name="hartreedc">  -6456.17416601 </i>
    <i name="XCdc">    180.62221997 </i>
    <i name="pawpsdc">   5772.04569912 </i>
    <i name="pawaedc">  -5776.46986423 </i>
    <i name="eentropy">     -0.00156450 </i>
    <i name="bandstr">   -505.42511066 </i>
    <i name="atom">   1903.26342058 </i>
    <i name="e_fr_energy">   -125.50469100 </i>
    <i name="e_wo_entrp">   -125.50312650 </i>
    <i name="e_0_energy">   -125.50390875 </i>
   </energy>
  </scstep>
  <structure>
   <crystal>
    <varray name="basis" >
     <v>       4.19329501       2.42100000       0.00000000 </v>
     <v>      -4.19329501       2.42100000       0.00000000 </v>
     <v>       0.00000000       0.00000000      15.00000000 </v>
    </varray>
    <i name="volume">    304.55901622 </i>
    <varray name="rec_basis" >
     <v>       0.11923797       0.20652623       0.00000000 </v>
     <v>      -0.11923797       0.20652623       0.00000000 </v>
     <v>       0.00000000       0.00000000       0.06666667 </v>
    </varray>
   </crystal>
   <varray name="positions" >
    <v>       0.00416094       0.00268467       0.11971021 </v>
    <v>       0.35635178       0.00282316       0.09765261 </v>
    <v>       0.00421360       0.35502029       0.09768268 </v>
    <v>       0.65196910       0.65055699       0.09766008 </v>
    <v>       0.32645808       0.32500985       0.10030865 </v>
    <v>       0.68203974       0.00278784       0.10030087 </v>
    <v>       0.00419537       0.68047687       0.10027325 </v>
    <v>       0.11107487       0.38894031       0.33727310 </v>
    <v>       0.27784708       0.22228447       0.33730999 </v>
    <v>       0.11120419       0.88895351       0.33727851 </v>
    <v>       0.27787320       0.72221999       0.33723576 </v>
    <v>       0.61109071       0.38886237       0.33723330 </v>
    <v>       0.77775671       0.22224435       0.33727783 </v>
    <v>       0.61101828       0.88886421       0.33730454 </v>
    <v>       0.77759591       0.72214957       0.33727795 </v>
   </varray>
  </structure>
  <varray name="forces" >
   <v>      -0.00234722       0.00204336      -0.28146177 </v>
   <v>       0.08319436       0.04240023       0.07934309 </v>
   <v>      -0.07164785       0.04229527       0.09328509 </v>
   <v>       0.01015540      -0.08570223       0.08945907 </v>
   <v>       0.00810560       0.10662179      -0.00962793 </v>
   <v>      -0.09343858      -0.05487286       0.00103935 </v>
   <v>       0.09504768      -0.05161583      -0.00756962 </v>
   <v>       0.01216243      -0.00292208       0.00425142 </v>
   <v>      -0.01331788      -0.01536918       0.01788673 </v>
   <v>      -0.01423863      -0.02260729       0.00732027 </v>
   <v>      -0.03002845      -0.01222972      -0.01046727 </v>
   <v>      -0.00637146       0.00475334      -0.01049744 </v>
   <v>       0.00208308      -0.00220925       0.00511735 </v>
   <v>       0.00574364       0.01691623       0.01614838 </v>
   <v>       0.01489787       0.03249823       0.00577330 </v>
  </varray>
  <varray name="stress" >
   <v>      -1.33869501       0.08566100      -0.55036070 </v>
   <v>       0.08566102      -1.43668724      -0.01925839 </v>
   <v>      -0.55036071      -0.01925839      -1.93891931 </v>
  </varray>
  <energy>
   <i name="e_fr_energy">   -127.09229124 </i>
   <i name="e_wo_entrp">   -127.09072674 </i>
   <i name="e_0_energy">   -127.09150899 </i>
  </energy>
  <time name="totalsc">   49.57   49.91</time>
 </calculation>
 <calculation>
  <scstep>
   <time name="dav">    5.51    5.55</time>
   <time name="total">    5.81    5.85</time>
   <energy>
    <i name="alphaZ">     58.40344200 </i>
    <i name="ewald">   4698.36195179 </i>
    <i name="hartreedc">  -6456.04835693 </i>
    <i name="XCdc">    180.64070896 </i>
    <i name="pawpsdc">   5772.00351830 </i>
    <i name="pawaedc">  -5776.42768729 </i>
    <i name="eentropy">     -0.00156628 </i>
    <i name="bandstr">   -505.70653650 </i>
    <i name="atom">   1903.26342058 </i>
    <i name="e_fr_energy">   -125.51110537 </i>
    <i name="e_wo_entrp">   -125.50953909 </i>
    <i name="e_0_energy">   -125.51032223 </i>
   </energy>
  </scstep>
  <scstep>
   <time name="dav">   11.75   11.83</time>
   <time name="total">   12.04   12.13</time>
   <energy>
    <i name="e_fr_energy">   -125.51116459 </i>
    <i name="e_wo_entrp">   -125.50959836 </i>
    <i name="e_0_energy">   -125.51038147 </i>
   </energy>
  </scstep>
  <scstep>
   <time name="dav">    8.73    8.78</time>
   <time name="total">    9.01    9.08</time>
   <energy>
    <i name="e_fr_energy">   -125.51116223 </i>
    <i name="e_wo_entrp">   -125.50959609 </i>
    <i name="e_0_energy">   -125.51037916 </i>
   </energy>
  </scstep>
  <scstep>
   <time name="dav">   11.14   11.20</time>
   <time name="total">   11.43   11.50</time>
   <energy>
    <i name="e_fr_energy">   -125.51116325 </i>
    <i name="e_wo_entrp">   -125.50959710 </i>
    <i name="e_0_energy">   -125.51038017 </i>
   </energy>
  </scstep>
  <scstep>
   <time name="dav">    8.57    8.62</time>
   <time name="total">    8.61    8.66</time>
   <energy>
    <i name="alphaZ">     58.40344200 </i>
    <i name="ewald">   4698.36195179 </i>
    <i name="hartreedc">  -6456.04035349 </i>
    <i name="XCdc">    180.63993493 </i>
    <i name="pawpsdc">   5777.39156125 </i>
    <i name="pawaedc">  -5781.81759030 </i>
    <i name="eentropy">     -0.00156615 </i>
    <i name="bandstr">   -505.71196421 </i>
    <i name="atom">   1903.26342058 </i>
    <i name="e_fr_energy">   -125.51116360 </i>
    <i name="e_wo_entrp">   -125.50959745 </i>
    <i name="e_0_energy">   -125.51038052 </i>
   </energy>
  </scstep>
  <structure>
   <crystal>
    <varray name="basis" >
     <v>       4.19329501       2.42100000       0.00000000 </v>
     <v>      -4.19329501       2.42100000       0.00000000 </v>
     <v>       0.00000000       0.00000000      15.00000000 </v>
    </varray>
    <i name="volume">    304.55901622 </i>
    <varray name="rec_basis" >
     <v>       0.11923797       0.20652623       0.00000000 </v>
     <v>      -0.11923797       0.20652623       0.00000000 </v>
     <v>       0.00000000       0.00000000       0.06666667 </v>
    </varray>
   </crystal>
   <varray name="positions" >
    <v>       0.00417089       0.00272164       0.11856955 </v>
    <v>       0.35685259       0.00275620       0.09796682 </v>
    <v>       0.00420905       0.35551964       0.09805090 </v>
    <v>       0.65153471       0.64998917       0.09801364 </v>
    <v>       0.32661629       0.32504223       0.10028262 </v>
    <v>       0.68197274       0.00278313       0.10031690 </v>
    <v>       0.00424014       0.68036717       0.10025528 </v>
    <v>       0.11109329       0.38887781       0.33728874 </v>
    <v>       0.27767617       0.22224804       0.33738413 </v>
    <v>       0.11097602       0.88885797       0.33730582 </v>
    <v>       0.27765738       0.72226500       0.33718950 </v>
    <v>       0.61109017       0.38892450       0.33718569 </v>
    <v>       0.77773699       0.22222550       0.33729841 </v>
    <v>       0.61115221       0.88897365       0.33737084 </v>
    <v>       0.77787092       0.72232679       0.33730049 </v>
   </varray>
  </structure>
  <varray name="forces" >
   <v>       0.00131552       0.00086416      -0.25578593 </v>
   <v>       0.05542095       0.02920684       0.04768495 </v>
   <v>      -0.03811895       0.02724578       0.05445916 </v>
   <v>       0.00575081      -0.05292760       0.05249811 </v>
   <v>       0.00206672       0.10233055       0.02002091 </v>
   <v>      -0.08811461      -0.05553467       0.02619810 </v>
   <v>       0.08896010      -0.05011495       0.02155110 </v>
   <v>      -0.04069067       0.00712260       0.00369584 </v>
   <v>       0.02799642       0.02458559       0.00368766 </v>
   <v>       0.01321382       0.05485661       0.00572903 </v>
   <v>       0.05150768       0.02635702       0.00453018 </v>
   <v>      -0.00556458      -0.00901655       0.00553617 </v>
   <v>      -0.01401391       0.00881132       0.00278329 </v>
   <v>      -0.02008150      -0.04285773       0.00369311 </v>
   <v>      -0.03964778      -0.07092896       0.00371833 </v>
  </varray>
  <varray name="stress" >
   <v>      -0.86668679       0.08674395      -0.51364377 </v>
   <v>       0.08674395      -1.08497624      -0.02136604 </v>
   <v>      -0.51364378      -0.02136601      -1.92132627 </v>
  </varray>
  <energy>
   <i name="e_fr_energy">   -127.09860943 </i>
   <i name="e_wo_entrp">   -127.09704328 </i>
   <i name="e_0_energy">   -127.09782635 </i>
  </energy>
  <time name="totalsc">   51.57   51.94</time>
 </calculation>
 <calculation>
  <scstep>
   <time name="dav">    5.44    5.47</time>
   <time name="total">    5.73    5.77</time>
   <energy>
    <i name="alphaZ">     58.40344200 </i>
    <i name="ewald">   4698.24470924 </i>
    <i name="hartreedc">  -6455.27021859 </i>
    <i name="XCdc">    180.68690665 </i>
    <i name="pawpsdc">   5777.42215729 </i>
    <i name="pawaedc">  -5781.84820223 </i>
    <i name="eentropy">     -0.00156517 </i>
    <i name="bandstr">   -506.42060439 </i>
    <i name="atom">   1903.26342058 </i>
    <i name="e_fr_energy">   -125.51995462 </i>
    <i name="e_wo_entrp">   -125.51838945 </i>
    <i name="e_0_energy">   -125.51917204 </i>
   </energy>
  </scstep>
  <scstep>
   <time name="dav">   11.33   11.40</time>
   <time name="total">   11.62   11.70</time>
   <energy>
    <i name="e_fr_energy">   -125.52063217 </i>
    <i name="e_wo_entrp">   -125.51906677 </i>
    <i name="e_0_energy">   -125.51984947 </i>
   </energy>
  </scstep>
  <scstep>
   <time name="dav">    8.35    8.40</time>
   <time name="total">    8.64    8.71</time>
   <energy>
    <i name="e_fr_energy">   -125.52059644 </i>
    <i name="e_wo_entrp">   -125.51903082 </i>
    <i name="e_0_energy">   -125.51981363 </i>
   </energy>
  </scstep>
  <scstep>
   <time name="dav">   11.69   11.75</time>
   <time name="total">   11.98   12.05</time>
   <energy>
    <i name="e_fr_energy">   -125.52060641 </i>
    <i name="e_wo_entrp">   -125.51904076 </i>
    <i name="e_0_energy">   -125.51982358 </i>
   </energy>
  </scstep>
  <scstep>
   <time name="dav">    8.71    8.76</time>
   <time name="total">    9.00    9.06</time>
   <energy>
    <i name="e_fr_energy">   -125.52060982 </i>
    <i name="e_wo_entrp">   -125.51904417 </i>
    <i name="e_0_energy">   -125.51982699 </i>
   </energy>
  </scstep>
  <scstep>
   <time name="dav">   10.08   10.15</time>
   <time name="total">   10.11   10.18</time>
   <energy>
    <i name="alphaZ">     58.40344200 </i>
    <i name="ewald">   4698.24470924 </i>
    <i name="hartreedc">  -6455.22711088 </i>
    <i name="XCdc">    180.68421639 </i>
    <i name="pawpsdc">   5791.14843001 </i>
    <i name="pawaedc">  -5795.57935924 </i>
    <i name="eentropy">     -0.00156564 </i>
    <i name="bandstr">   -506.45679241 </i>
    <i name="atom">   1903.26342058 </i>
    <i name="e_fr_energy">   -125.52060996 </i>
    <i name="e_wo_entrp">   -125.51904432 </i>
    <i name="e_0_energy">   -125.51982714 </i>
   </energy>
  </scstep>
  <structure>
   <crystal>
    <varray name="basis" >
     <v>       4.19329501       2.42100000       0.00000000 </v>
     <v>      -4.19329501       2.42100000       0.00000000 </v>
     <v>       0.00000000       0.00000000      15.00000000 </v>
    </varray>
    <i name="volume">    304.55901622 </i>
    <varray name="rec_basis" >
     <v>       0.11923797       0.20652623       0.00000000 </v>
     <v>      -0.11923797       0.20652623       0.00000000 </v>
     <v>       0.00000000       0.00000000       0.06666667 </v>
    </varray>
   </crystal>
   <varray name="positions" >
    <v>       0.00420075       0.00283256       0.11514759 </v>
    <v>       0.35835504       0.00255530       0.09890943 </v>
    <v>       0.00419539       0.35701767       0.09915555 </v>
    <v>       0.65023155       0.64828572       0.09907434 </v>
    <v>       0.32709092       0.32513938       0.10020452 </v>
    <v>       0.68177173       0.00276902       0.10036501 </v>
    <v>       0.00437442       0.68003809       0.10020138 </v>
    <v>       0.11114855       0.38869031       0.33733563 </v>
    <v>       0.27716343       0.22213874       0.33760657 </v>
    <v>       0.11029151       0.88857135       0.33738774 </v>
    <v>       0.27700994       0.72240002       0.33705072 </v>
    <v>       0.61108855       0.38911089       0.33704286 </v>
    <v>       0.77767781       0.22216896       0.33736014 </v>
    <v>       0.61155402       0.88930195       0.33756974 </v>
    <v>       0.77869596       0.72285846       0.33736812 </v>
   </varray>
  </structure>
  <varray name="forces" >
   <v>       0.01286274      -0.00327626      -0.20619665 </v>
   <v>      -0.04594762      -0.02089245      -0.03893444 </v>
   <v>       0.07893295      -0.02895426      -0.05265993 </v>
   <v>      -0.00673592       0.06535175      -0.04930332 </v>
   <v>      -0.01440606       0.07359778       0.10903712 </v>
   <v>      -0.05751775      -0.04821851       0.10253657 </v>
   <v>       0.05565544      -0.03674192       0.10893090 </v>
   <v>      -0.20000205       0.03783460       0.00179575 </v>
   <v>       0.15184409       0.14549062      -0.03885626 </v>
   <v>       0.09882464       0.29145104       0.00075101 </v>
   <v>       0.29566388       0.14013320       0.04975953 </v>
   <v>      -0.00296803      -0.05036623       0.05383399 </v>
   <v>      -0.06271539       0.04124877      -0.00417256 </v>
   <v>      -0.09726557      -0.21999478      -0.03379554 </v>
   <v>      -0.20622535      -0.38666334      -0.00272617 </v>
  </varray>
  <varray name="stress" >
   <v>       0.46242299       0.12275722      -0.41903814 </v>
   <v>       0.12275720      -0.10041105      -0.02612205 </v>
   <v>      -0.41903814      -0.02612205      -1.89451857 </v>
  </varray>
  <energy>
   <i name="e_fr_energy">   -127.10758237 </i>
   <i name="e_wo_entrp">   -127.10601673 </i>
   <i name="e_0_energy">   -127.10679955 </i>
  </energy>
  <time name="totalsc">   61.75   62.17</time>
 </calculation>
 <calculation>
  <scstep>
   <time name="dav">    5.49    5.53</time>
   <time name="total">    5.78    5.83</time>
   <energy>
    <i name="alphaZ">     58.40344200 </i>
    <i name="ewald">   4698.24387355 </i>
    <i name="hartreedc">  -6455.15794842 </i>
    <i name="XCdc">    180.68846524 </i>
    <i name="pawpsdc">   5791.14352223 </i>
    <i name="pawaedc">  -5795.57444961 </i>
    <i name="eentropy">     -0.00156685 </i>
    <i name="bandstr">   -506.53173644 </i>
    <i name="atom">   1903.26342058 </i>
    <i name="e_fr_energy">   -125.52297773 </i>
    <i name="e_wo_entrp">   -125.52141088 </i>
    <i name="e_0_energy">   -125.52219431 </i>
   </energy>
  </scstep>
  <scstep>
   <time name="dav">   11.15   11.22</time>
   <time name="total">   11.44   11.52</time>
   <energy>
    <i name="e_fr_energy">   -125.52298084 </i>
    <i name="e_wo_entrp">   -125.52141401 </i>
    <i name="e_0_energy">   -125.52219743 </i>
   </energy>
  </scstep>
  <scstep>
   <time name="dav">    8.51    8.56</time>
   <time name="total">    8.80    8.88</time>
   <energy>
    <i name="e_fr_energy">   -125.52297572 </i>
    <i name="e_wo_entrp">   -125.52140891 </i>
    <i name="e_0_energy">   -125.52219232 </i>
   </energy>
  </scstep>
  <scstep>
   <time name="dav">   10.71   10.76</time>
   <time name="total">   10.74   10.80</time>
   <energy>
    <i name="alphaZ">     58.40344200 </i>
    <i name="ewald">   4698.24387355 </i>
    <i name="hartreedc">  -6455.15114969 </i>
    <i name="XCdc">    180.68795259 </i>
    <i name="pawpsdc">   5792.17357589 </i>
    <i name="pawaedc">  -5796.60494161 </i>
    <i name="eentropy">     -0.00156680 </i>
    <i name="bandstr">   -506.53758268 </i>
    <i name="atom">   1903.26342058 </i>
    <i name="e_fr_energy">   -125.52297618 </i>
    <i name="e_wo_entrp">   -125.52140937 </i>
    <i name="e_0_energy">   -125.52219277 </i>
   </energy>
  </scstep>
  <structure>
   <crystal>
    <varray name="basis" >
     <v>       4.19329501       2.42100000       0.00000000 </v>
     <v>      -4.19329501       2.42100000       0.00000000 </v>
     <v>       0.00000000       0.00000000      15.00000000 </v>
    </varray>
    <i name="volume">    304.55901622 </i>
    <varray name="rec_basis" >
     <v>       0.11923797       0.20652623       0.00000000 </v>
     <v>      -0.11923797       0.20652623       0.00000000 </v>
     <v>       0.00000000       0.00000000       0.06666667 </v>
    </varray>
   </crystal>
   <varray name="positions" >
    <v>       0.00420697       0.00283681       0.11473013 </v>
    <v>       0.35848302       0.00253768       0.09900212 </v>
    <v>       0.00420591       0.35712562       0.09926254 </v>
    <v>       0.65013521       0.64815178       0.09917736 </v>
    <v>       0.32718927       0.32520898       0.10022149 </v>
    <v>       0.68169127       0.00275667       0.10039409 </v>
    <v>       0.00438559       0.67995287       0.10022093 </v>
    <v>       0.11109849       0.38878068       0.33734111 </v>
    <v>       0.27727632       0.22216867       0.33762153 </v>
    <v>       0.11046908       0.88870954       0.33739676 </v>
    <v>       0.27716433       0.72239254       0.33704733 </v>
    <v>       0.61105080       0.38909590       0.33703998 </v>
    <v>       0.77767506       0.22221875       0.33736583 </v>
    <v>       0.61139813       0.88921918       0.33758334 </v>
    <v>       0.77842011       0.72272277       0.33737478 </v>
   </varray>
  </structure>
  <varray name="forces" >
   <v>       0.01413295      -0.00353626      -0.19906634 </v>
   <v>      -0.05408884      -0.02513749      -0.04258805 </v>
   <v>       0.08481323      -0.03235216      -0.05807621 </v>
   <v>      -0.00779042       0.07299334      -0.05425938 </v>
   <v>      -0.01484809       0.06062649       0.11211262 </v>
   <v>      -0.04517251      -0.04106450       0.10436294 </v>
   <v>       0.04548293      -0.03068565       0.11162120 </v>
   <v>      -0.14687554       0.02793000       0.00164154 </v>
   <v>       0.10450913       0.11754649      -0.04088869 </v>
   <v>       0.07872447       0.21188665       0.00002870 </v>
   <v>       0.22350326       0.10759041       0.05208615 </v>
   <v>       0.00386665      -0.04071810       0.05599676 </v>
   <v>      -0.05071532       0.02719443      -0.00441156 </v>
   <v>      -0.07687830      -0.16353324      -0.03569486 </v>
   <v>      -0.15866359      -0.28874041      -0.00286481 </v>
  </varray>
  <varray name="stress" >
   <v>       0.48079006       0.08265868      -0.40959933 </v>
   <v>       0.08265871       0.06407063      -0.02409798 </v>
   <v>      -0.40959932      -0.02409797      -1.88504466 </v>
  </varray>
  <energy>
   <i name="e_fr_energy">   -127.10989417 </i>
   <i name="e_wo_entrp">   -127.10832737 </i>
   <i name="e_0_energy">   -127.10911077 </i>
  </energy>
  <time name="totalsc">   41.44   41.74</time>
 </calculation>
 <calculation>
  <scstep>
   <time name="dav">    5.45    5.48</time>
   <time name="total">    5.74    5.78</time>
   <energy>
    <i name="alphaZ">     58.40344200 </i>
    <i name="ewald">   4698.18590502 </i>
    <i name="hartreedc">  -6454.91546408 </i>
    <i name="XCdc">    180.70008912 </i>
    <i name="pawpsdc">   5792.32037834 </i>
    <i name="pawaedc">  -5796.75176723 </i>
    <i name="eentropy">     -0.00156291 </i>
    <i name="bandstr">   -506.73189334 </i>
    <i name="atom">   1903.26342058 </i>
    <i name="e_fr_energy">   -125.52745251 </i>
    <i name="e_wo_entrp">   -125.52588960 </i>
    <i name="e_0_energy">   -125.52667105 </i>
   </energy>
  </scstep>
  <scstep>
   <time name="dav">   11.19   11.25</time>
   <time name="total">   11.48   11.56</time>
   <energy>
    <i name="e_fr_energy">   -125.52747759 </i>
    <i name="e_wo_entrp">   -125.52591432 </i>
    <i name="e_0_energy">   -125.52669595 </i>
   </energy>
  </scstep>
  <scstep>
   <time name="dav">    7.80    7.84</time>
   <time name="total">    8.09    8.15</time>
   <energy>
    <i name="e_fr_energy">   -125.52743288 </i>
    <i name="e_wo_entrp">   -125.52586919 </i>
    <i name="e_0_energy">   -125.52665104 </i>
   </energy>
  </scstep>
  <scstep>
   <time name="dav">   11.10   11.16</time>
   <time name="total">   11.38   11.46</time>
   <energy>
    <i name="e_fr_energy">   -125.52743481 </i>
    <i name="e_wo_entrp">   -125.52587108 </i>
    <i name="e_0_energy">   -125.52665295 </i>
   </energy>
  </scstep>
  <scstep>
   <time name="dav">    7.76    7.80</time>
   <time name="total">    8.05    8.11</time>
   <energy>
    <i name="e_fr_energy">   -125.52743602 </i>
    <i name="e_wo_entrp">   -125.52587229 </i>
    <i name="e_0_energy">   -125.52665415 </i>
   </energy>
  </scstep>
  <scstep>
   <time name="dav">   10.42   10.48</time>
   <time name="total">   10.45   10.51</time>
   <energy>
    <i name="alphaZ">     58.40344200 </i>
    <i name="ewald">   4698.18590502 </i>
    <i name="hartreedc">  -6454.94269014 </i>
    <i name="XCdc">    180.69900489 </i>
    <i name="pawpsdc">   5796.09773200 </i>
    <i name="pawaedc">  -5800.53048902 </i>
    <i name="eentropy">     -0.00156371 </i>
    <i name="bandstr">   -506.70219754 </i>
    <i name="atom">   1903.26342058 </i>
    <i name="e_fr_energy">   -125.52743593 </i>
    <i name="e_wo_entrp">   -125.52587222 </i>
    <i name="e_0_energy">   -125.52665407 </i>
   </energy>
  </scstep>
  <structure>
   <crystal>
    <varray name="basis" >
     <v>       4.19329501       2.42100000       0.00000000 </v>
     <v>      -4.19329501       2.42100000       0.00000000 </v>
     <v>       0.00000000       0.00000000      15.00000000 </v>
    </varray>
    <i name="volume">    304.55901622 </i>
    <varray name="rec_basis" >
     <v>       0.11923797       0.20652623       0.00000000 </v>
     <v>      -0.11923797       0.20652623       0.00000000 </v>
     <v>       0.00000000       0.00000000       0.06666667 </v>
    </varray>
   </crystal>
   <varray name="positions" >
    <v>       0.00422563       0.00284956       0.11347777 </v>
    <v>       0.35886697       0.00248482       0.09928020 </v>
    <v>       0.00423746       0.35744947       0.09958351 </v>
    <v>       0.64984621       0.64774997       0.09948644 </v>
    <v>       0.32748430       0.32541776       0.10027238 </v>
    <v>       0.68144990       0.00271961       0.10048132 </v>
    <v>       0.00441910       0.67969719       0.10027959 </v>
    <v>       0.11094833       0.38905182       0.33735755 </v>
    <v>       0.27761498       0.22225844       0.33766642 </v>
    <v>       0.11100181       0.88912411       0.33742382 </v>
    <v>       0.27762750       0.72237010       0.33703716 </v>
    <v>       0.61093753       0.38905095       0.33703134 </v>
    <v>       0.77766680       0.22236811       0.33738291 </v>
    <v>       0.61093048       0.88897085       0.33762415 </v>
    <v>       0.77759256       0.72231568       0.33739478 </v>
   </varray>
  </structure>
  <varray name="forces" >
   <v>       0.01780679      -0.00439683      -0.18017496 </v>
   <v>      -0.08087791      -0.03903714      -0.05310195 </v>
   <v>       0.10452867      -0.04399441      -0.07386833 </v>
   <v>      -0.01094912       0.09839349      -0.06864418 </v>
   <v>      -0.01590611       0.01971229       0.12192534 </v>
   <v>      -0.00636261      -0.01839279       0.11062703 </v>
   <v>       0.01310467      -0.01164521       0.12039071 </v>
   <v>       0.01056314      -0.00167080       0.00114515 </v>
   <v>      -0.03573407       0.03367328      -0.04714870 </v>
   <v>       0.02146807      -0.02089441      -0.00242065 </v>
   <v>       0.00737900       0.00905970       0.05899133 </v>
   <v>       0.02464597      -0.01174200       0.06248762 </v>
   <v>      -0.01557568      -0.01405837      -0.00520034 </v>
   <v>      -0.01447683       0.00585536      -0.04151452 </v>
   <v>      -0.01961399      -0.00086217      -0.00349355 </v>
  </varray>
  <varray name="stress" >
   <v>       0.54063260      -0.01829055      -0.38124202 </v>
   <v>      -0.01829053       0.57207948      -0.01767008 </v>
   <v>      -0.38124202      -0.01767005      -1.88952939 </v>
  </varray>
  <energy>
   <i name="e_fr_energy">   -127.11417248 </i>
   <i name="e_wo_entrp">   -127.11260878 </i>
   <i name="e_0_energy">   -127.11339063 </i>
  </energy>
  <time name="totalsc">   59.87   60.26</time>
 </calculation>
 <calculation>
  <scstep>
   <time name="dav">    5.45    5.48</time>
   <time name="total">    5.74    5.78</time>
   <energy>
    <i name="alphaZ">     58.40344200 </i>
    <i name="ewald">   4697.81754566 </i>
    <i name="hartreedc">  -6454.27877367 </i>
    <i name="XCdc">    180.71904259 </i>
    <i name="pawpsdc">   5796.14152733 </i>
    <i name="pawaedc">  -5800.57428360 </i>
    <i name="eentropy">     -0.00152223 </i>
    <i name="bandstr">   -507.01523364 </i>
    <i name="atom">   1903.26342058 </i>
    <i name="e_fr_energy">   -125.52483498 </i>
    <i name="e_wo_entrp">   -125.52331275 </i>
    <i name="e_0_energy">   -125.52407386 </i>
   </energy>
  </scstep>
  <scstep>
   <time name="dav">   11.16   11.22</time>
   <time name="total">   11.45   11.52</time>
   <energy>
    <i name="e_fr_energy">   -125.52493605 </i>
    <i name="e_wo_entrp">   -125.52341132 </i>
    <i name="e_0_energy">   -125.52417368 </i>
   </energy>
  </scstep>
  <scstep>
   <time name="dav">    8.53    8.57</time>
   <time name="total">    8.82    8.88</time>
   <energy>
    <i name="e_fr_energy">   -125.52475197 </i>
    <i name="e_wo_entrp">   -125.52322456 </i>
    <i name="e_0_energy">   -125.52398826 </i>
   </energy>
  </scstep>
  <scstep>
   <time name="dav">   10.73   10.79</time>
   <time name="total">   11.02   11.09</time>
   <energy>
    <i name="e_fr_energy">   -125.52475955 </i>
    <i name="e_wo_entrp">   -125.52323177 </i>
    <i name="e_0_energy">   -125.52399566 </i>
   </energy>
  </scstep>
  <scstep>
   <time name="dav">    8.35    8.41</time>
   <time name="total">    8.64    8.71</time>
   <energy>
    <i name="e_fr_energy">   -125.52476392 </i>
    <i name="e_wo_entrp">   -125.52323610 </i>
    <i name="e_0_energy">   -125.52400001 </i>
   </energy>
  </scstep>
  <scstep>
   <time name="dav">   10.07   10.13</time>
   <time name="total">   10.36   10.43</time>
   <energy>
    <i name="e_fr_energy">   -125.52476280 </i>
    <i name="e_wo_entrp">   -125.52323515 </i>
    <i name="e_0_energy">   -125.52399897 </i>
   </energy>
  </scstep>
  <scstep>
   <time name="dav">    8.75    8.80</time>
   <time name="total">    8.79    8.84</time>
   <energy>
    <i name="alphaZ">     58.40344200 </i>
    <i name="ewald">   4697.81754566 </i>
    <i name="hartreedc">  -6454.37378040 </i>
    <i name="XCdc">    180.71770227 </i>
    <i name="pawpsdc">   5802.66165373 </i>
    <i name="pawaedc">  -5807.09691177 </i>
    <i name="eentropy">     -0.00152762 </i>
    <i name="bandstr">   -506.91630706 </i>
    <i name="atom">   1903.26342058 </i>
    <i name="e_fr_energy">   -125.52476261 </i>
    <i name="e_wo_entrp">   -125.52323499 </i>
    <i name="e_0_energy">   -125.52399880 </i>
   </energy>
  </scstep>
  <structure>
   <crystal>
    <varray name="basis" >
     <v>       4.19329501       2.42100000       0.00000000 </v>
     <v>      -4.19329501       2.42100000       0.00000000 </v>
     <v>       0.00000000       0.00000000      15.00000000 </v>
    </varray>
    <i name="volume">    304.55901622 </i>
    <varray name="rec_basis" >
     <v>       0.11923797       0.20652623       0.00000000 </v>
     <v>      -0.11923797       0.20652623       0.00000000 </v>
     <v>       0.00000000       0.00000000       0.06666667 </v>
    </varray>
   </crystal>
   <varray name="positions" >
    <v>       0.00426294       0.00287507       0.11097303 </v>
    <v>       0.35963487       0.00237909       0.09983636 </v>
    <v>       0.00430056       0.35809716       0.10022545 </v>
    <v>       0.64926819       0.64694634       0.10010460 </v>
    <v>       0.32807437       0.32583534       0.10037418 </v>
    <v>       0.68096717       0.00264548       0.10065578 </v>
    <v>       0.00448612       0.67918585       0.10039691 </v>
    <v>       0.11064800       0.38959409       0.33739044 </v>
    <v>       0.27829229       0.22243799       0.33775620 </v>
    <v>       0.11206726       0.88995325       0.33747793 </v>
    <v>       0.27855386       0.72232522       0.33701681 </v>
    <v>       0.61071101       0.38896104       0.33701406 </v>
    <v>       0.77765029       0.22266683       0.33741707 </v>
    <v>       0.60999517       0.88847418       0.33770575 </v>
    <v>       0.77593747       0.72150152       0.33743477 </v>
   </varray>
  </structure>
  <varray name="forces" >
   <v>       0.02529548      -0.00613892      -0.15244090 </v>
   <v>      -0.14622790      -0.07376946      -0.07096260 </v>
   <v>       0.15528066      -0.07385387      -0.10192643 </v>
   <v>      -0.01711222       0.16259407      -0.09396112 </v>
   <v>      -0.01810325      -0.07365354       0.14121647 </v>
   <v>       0.08182381       0.03301718       0.12287895 </v>
   <v>      -0.06163667       0.03209528       0.13768856 </v>
   <v>       0.32007055      -0.06112771       0.00051179 </v>
   <v>      -0.31312729      -0.13526546      -0.05950178 </v>
   <v>      -0.08324211      -0.46969849      -0.00759875 </v>
   <v>      -0.42746393      -0.19589542       0.07251250 </v>
   <v>       0.06797213       0.04798914       0.07527204 </v>
   <v>       0.05378520      -0.09516458      -0.00658533 </v>
   <v>       0.11528170       0.35180808      -0.05258186 </v>
   <v>       0.24740383       0.55706370      -0.00452155 </v>
  </varray>
  <varray name="stress" >
   <v>       0.68171187      -0.13718217      -0.32802048 </v>
   <v>      -0.13718218       1.67264171      -0.00284142 </v>
   <v>      -0.32802046      -0.00284140      -1.92944992 </v>
  </varray>
  <energy>
   <i name="e_fr_energy">   -127.11105565 </i>
   <i name="e_wo_entrp">   -127.10952803 </i>
   <i name="e_0_energy">   -127.11029184 </i>
  </energy>
  <time name="totalsc">   69.48   69.96</time>
 </calculation>
 <calculation>
  <scstep>
   <time name="dav">    5.51    5.54</time>
   <time name="total">    5.80    5.84</time>
   <energy>
    <i name="alphaZ">     58.40344200 </i>
    <i name="ewald">   4698.11085647 </i>
    <i name="hartreedc">  -6454.86473772 </i>
    <i name="XCdc">    180.70516959 </i>
    <i name="pawpsdc">   5802.65623962 </i>
    <i name="pawaedc">  -5807.09149734 </i>
    <i name="eentropy">     -0.00155885 </i>
    <i name="bandstr">   -506.70961514 </i>
    <i name="atom">   1903.26342058 </i>
    <i name="e_fr_energy">   -125.52828080 </i>
    <i name="e_wo_entrp">   -125.52672195 </i>
    <i name="e_0_energy">   -125.52750138 </i>
   </energy>
  </scstep>
  <scstep>
   <time name="dav">   11.65   11.72</time>
   <time name="total">   11.94   12.02</time>
   <energy>
    <i name="e_fr_energy">   -125.52832362 </i>
    <i name="e_wo_entrp">   -125.52676558 </i>
    <i name="e_0_energy">   -125.52754460 </i>
   </energy>
  </scstep>
  <scstep>
   <time name="dav">    8.79    8.84</time>
   <time name="total">    9.08    9.14</time>
   <energy>
    <i name="e_fr_energy">   -125.52823451 </i>
    <i name="e_wo_entrp">   -125.52667740 </i>
    <i name="e_0_energy">   -125.52745595 </i>
   </energy>
  </scstep>
  <scstep>
   <time name="dav">   10.56   10.62</time>
   <time name="total">   10.85   10.92</time>
   <energy>
    <i name="e_fr_energy">   -125.52823904 </i>
    <i name="e_wo_entrp">   -125.52668205 </i>
    <i name="e_0_energy">   -125.52746054 </i>
   </energy>
  </scstep>
  <scstep>
   <time name="dav">    9.13    9.19</time>
   <time name="total">    9.42    9.49</time>
   <energy>
    <i name="e_fr_energy">   -125.52824169 </i>
    <i name="e_wo_entrp">   -125.52668472 </i>
    <i name="e_0_energy">   -125.52746320 </i>
   </energy>
  </scstep>
  <scstep>
   <time name="dav">    7.73    7.78</time>
   <time name="total">    7.77    7.81</time>
   <energy>
    <i name="alphaZ">     58.40344200 </i>
    <i name="ewald">   4698.11085647 </i>
    <i name="hartreedc">  -6454.80707088 </i>
    <i name="XCdc">    180.70505221 </i>
    <i name="pawpsdc">   5798.25725614 </i>
    <i name="pawaedc">  -5802.69078206 </i>
    <i name="eentropy">     -0.00155703 </i>
    <i name="bandstr">   -506.76885899 </i>
    <i name="atom">   1903.26342058 </i>
    <i name="e_fr_energy">   -125.52824157 </i>
    <i name="e_wo_entrp">   -125.52668454 </i>
    <i name="e_0_energy">   -125.52746305 </i>
   </energy>
  </scstep>
  <structure>
   <crystal>
    <varray name="basis" >
     <v>       4.19329501       2.42100000       0.00000000 </v>
     <v>      -4.19329501       2.42100000       0.00000000 </v>
     <v>       0.00000000       0.00000000      15.00000000 </v>
    </varray>
    <i name="volume">    304.55901622 </i>
    <varray name="rec_basis" >
     <v>       0.11923797       0.20652623       0.00000000 </v>
     <v>      -0.11923797       0.20652623       0.00000000 </v>
     <v>       0.00000000       0.00000000       0.06666667 </v>
    </varray>
   </crystal>
   <varray name="positions" >
    <v>       0.00423683       0.00285722       0.11272588 </v>
    <v>       0.35909748       0.00245308       0.09944715 </v>
    <v>       0.00425640       0.35764389       0.09977621 </v>
    <v>       0.64967269       0.64750873       0.09967200 </v>
    <v>       0.32766143       0.32554311       0.10030294 </v>
    <v>       0.68130499       0.00269736       0.10053369 </v>
    <v>       0.00443922       0.67954370       0.10031481 </v>
    <v>       0.11085817       0.38921460       0.33736743 </v>
    <v>       0.27781829       0.22231234       0.33769337 </v>
    <v>       0.11132164       0.88937300       0.33744006 </v>
    <v>       0.27790558       0.72235663       0.33703105 </v>
    <v>       0.61086953       0.38902396       0.33702615 </v>
    <v>       0.77766184       0.22245778       0.33739316 </v>
    <v>       0.61064972       0.88882175       0.33764864 </v>
    <v>       0.77709573       0.72207128       0.33740679 </v>
   </varray>
  </structure>
  <varray name="forces" >
   <v>       0.02007226      -0.00491384      -0.17026627 </v>
   <v>      -0.09883241      -0.04851828      -0.05866501 </v>
   <v>       0.11818608      -0.05202484      -0.08250216 </v>
[...]
     <v>       0.11923797       0.20652623       0.00000000 </v>
     <v>      -0.11923797       0.20652623       0.00000000 </v>
     <v>       0.00000000       0.00000000       0.06666667 </v>
    </varray>
   </crystal>
   <varray name="positions" >
    <v>       0.00430270       0.00278307       0.11052785 </v>
    <v>       0.35907868       0.00242175       0.09975902 </v>
    <v>       0.00439565       0.35745147       0.10010917 </v>
    <v>       0.64985057       0.64760027       0.09999809 </v>
    <v>       0.32801409       0.32587401       0.10061250 </v>
    <v>       0.68098034       0.00255897       0.10087344 </v>
    <v>       0.00446784       0.67918818       0.10063208 </v>
    <v>       0.11086213       0.38917280       0.33739382 </v>
    <v>       0.27784376       0.22274292       0.33766808 </v>
    <v>       0.11119438       0.88914173       0.33747362 </v>
    <v>       0.27791279       0.72243322       0.33713089 </v>
    <v>       0.61085425       0.38886816       0.33713425 </v>
    <v>       0.77744831       0.22244621       0.33740856 </v>
    <v>       0.61063686       0.88898465       0.33762809 </v>
    <v>       0.77700719       0.72221104       0.33742989 </v>
   </varray>
  </structure>
  <varray name="forces" >
   <v>       0.01903662      -0.00327759      -0.10996032 </v>
   <v>      -0.04749018      -0.01996339      -0.02655777 </v>
   <v>       0.04662462      -0.01941590      -0.05356644 </v>
   <v>      -0.01317766       0.04704932      -0.04606239 </v>
   <v>      -0.00813274      -0.02439629       0.07898553 </v>
   <v>       0.03218174       0.01401130       0.06208807 </v>
   <v>      -0.00995845       0.00647566       0.07657005 </v>
   <v>       0.02971995      -0.01377507      -0.00021869 </v>
   <v>       0.01491801      -0.13101299      -0.03662245 </v>
   <v>      -0.10228469      -0.06722772      -0.00460573 </v>
   <v>      -0.11680338      -0.07665312       0.04909850 </v>
   <v>      -0.06671048       0.05104370       0.04816030 </v>
   <v>       0.05956315       0.01015673      -0.00159208 </v>
   <v>       0.04285543       0.07966852      -0.03437182 </v>
   <v>       0.11965806       0.14731683      -0.00134474 </v>
  </varray>
  <varray name="stress" >
   <v>       1.40505499       0.06719508      -0.33376062 </v>
   <v>       0.06719508       1.09318693      -0.01381190 </v>
   <v>      -0.33376062      -0.01381187      -1.85035835 </v>
  </varray>
  <energy>
   <i name="e_fr_energy">   -127.12032707 </i>
   <i name="e_wo_entrp">   -127.11876024 </i>
   <i name="e_0_energy">   -127.11954365 </i>
  </energy>
  <time name="totalsc">   60.57   60.99</time>
 </calculation>
 <calculation>
  <scstep>
   <time name="dav">    5.48    5.52</time>
   <time name="total">    5.77    5.82</time>
   <energy>
    <i name="alphaZ">     58.40344200 </i>
    <i name="ewald">   4699.11971351 </i>
    <i name="hartreedc">  -6455.39253153 </i>
    <i name="XCdc">    180.75009905 </i>
    <i name="pawpsdc">   5805.73112696 </i>
    <i name="pawaedc">  -5810.16721541 </i>
    <i name="eentropy">     -0.00153681 </i>
    <i name="bandstr">   -507.24357826 </i>
    <i name="atom">   1903.26342058 </i>
    <i name="e_fr_energy">   -125.53705992 </i>
    <i name="e_wo_entrp">   -125.53552311 </i>
    <i name="e_0_energy">   -125.53629152 </i>
   </energy>
  </scstep>
  <scstep>
   <time name="dav">   11.24   11.30</time>
   <time name="total">   11.53   11.61</time>
   <energy>
    <i name="e_fr_energy">   -125.53761934 </i>
    <i name="e_wo_entrp">   -125.53608030 </i>
    <i name="e_0_energy">   -125.53684982 </i>
   </energy>
  </scstep>
  <scstep>
   <time name="dav">    8.45    8.50</time>
   <time name="total">    8.74    8.80</time>
   <energy>
    <i name="e_fr_energy">   -125.53754607 </i>
    <i name="e_wo_entrp">   -125.53600416 </i>
    <i name="e_0_energy">   -125.53677512 </i>
   </energy>
  </scstep>
  <scstep>
   <time name="dav">    9.70    9.76</time>
   <time name="total">    9.99   10.06</time>
   <energy>
    <i name="e_fr_energy">   -125.53754652 </i>
    <i name="e_wo_entrp">   -125.53600469 </i>
    <i name="e_0_energy">   -125.53677560 </i>
   </energy>
  </scstep>
  <scstep>
   <time name="dav">    9.67    9.72</time>
   <time name="total">    9.95   10.02</time>
   <energy>
    <i name="e_fr_energy">   -125.53754216 </i>
    <i name="e_wo_entrp">   -125.53600049 </i>
    <i name="e_0_energy">   -125.53677132 </i>
   </energy>
  </scstep>
  <scstep>
   <time name="dav">   10.14   10.20</time>
   <time name="total">   10.17   10.23</time>
   <energy>
    <i name="alphaZ">     58.40344200 </i>
    <i name="ewald">   4699.11971351 </i>
    <i name="hartreedc">  -6455.85698920 </i>
    <i name="XCdc">    180.74656058 </i>
    <i name="pawpsdc">   5813.63455760 </i>
    <i name="pawaedc">  -5818.07336045 </i>
    <i name="eentropy">     -0.00154163 </i>
    <i name="bandstr">   -506.77334420 </i>
    <i name="atom">   1903.26342058 </i>
    <i name="e_fr_energy">   -125.53754122 </i>
    <i name="e_wo_entrp">   -125.53599959 </i>
    <i name="e_0_energy">   -125.53677040 </i>
   </energy>
  </scstep>
  <structure>
   <crystal>
    <varray name="basis" >
     <v>       4.19329501       2.42100000       0.00000000 </v>
     <v>      -4.19329501       2.42100000       0.00000000 </v>
     <v>       0.00000000       0.00000000      15.00000000 </v>
    </varray>
    <i name="volume">    304.55901622 </i>
    <varray name="rec_basis" >
     <v>       0.11923797       0.20652623       0.00000000 </v>
     <v>      -0.11923797       0.20652623       0.00000000 </v>
     <v>       0.00000000       0.00000000       0.06666667 </v>
    </varray>
   </crystal>
   <varray name="positions" >
    <v>       0.00440151       0.00267185       0.10723079 </v>
    <v>       0.35905048       0.00237477       0.10022683 </v>
    <v>       0.00460453       0.35716283       0.10060862 </v>
    <v>       0.65011740       0.64773757       0.10048723 </v>
    <v>       0.32854309       0.32637035       0.10107684 </v>
    <v>       0.68049337       0.00235138       0.10138306 </v>
    <v>       0.00451077       0.67865492       0.10110798 </v>
    <v>       0.11086806       0.38911010       0.33743340 </v>
    <v>       0.27788196       0.22338878       0.33763014 </v>
    <v>       0.11100349       0.88879481       0.33752397 </v>
    <v>       0.27792360       0.72254811       0.33728065 </v>
    <v>       0.61083132       0.38863446       0.33729640 </v>
    <v>       0.77712801       0.22242886       0.33743165 </v>
    <v>       0.61061758       0.88922900       0.33759725 </v>
    <v>       0.77687439       0.72242066       0.33746455 </v>
   </varray>
  </structure>
  <varray name="forces" >
   <v>       0.01747781      -0.00069810      -0.04330714 </v>
   <v>       0.00833863       0.01059592       0.02639608 </v>
   <v>      -0.03954502       0.01740694      -0.00495368 </v>
   <v>      -0.01375935      -0.03151593       0.00444684 </v>
   <v>       0.00434296      -0.07407458       0.00898103 </v>
   <v>       0.07288548       0.05241118      -0.01294142 </v>
   <v>      -0.03266722       0.02629664       0.00623947 </v>
   <v>      -0.08341215      -0.00499189      -0.00148826 </v>
   <v>       0.21634997      -0.29898090      -0.01510278 </v>
   <v>      -0.23728514       0.06615389      -0.00615981 </v>
   <v>      -0.10747245      -0.11438539       0.02812642 </v>
   <v>      -0.22339333       0.11811434       0.02090309 </v>
   <v>       0.14106925       0.08318709       0.00454899 </v>
   <v>       0.07134713       0.03574390      -0.01834042 </v>
   <v>       0.20572341       0.11473688       0.00265160 </v>
  </varray>
  <varray name="stress" >
   <v>       2.42604057       0.25738640      -0.29961978 </v>
   <v>       0.25738638       1.18663443      -0.01246982 </v>
   <v>      -0.29961980      -0.01246983      -1.83514318 </v>
  </varray>
  <energy>
   <i name="e_fr_energy">   -127.12296936 </i>
   <i name="e_wo_entrp">   -127.12142773 </i>
   <i name="e_0_energy">   -127.12219854 </i>
  </energy>
  <time name="totalsc">   60.90   61.33</time>
 </calculation>
 <calculation>
  <scstep>
   <time name="dav">    5.54    5.58</time>
   <time name="total">    5.83    5.88</time>
   <energy>
    <i name="alphaZ">     58.40344200 </i>
    <i name="ewald">   4699.09645815 </i>
    <i name="hartreedc">  -6455.78579946 </i>
    <i name="XCdc">    180.75187518 </i>
    <i name="pawpsdc">   5813.63157020 </i>
    <i name="pawaedc">  -5818.07033785 </i>
    <i name="eentropy">     -0.00156665 </i>
    <i name="bandstr">   -506.82897496 </i>
    <i name="atom">   1903.26342058 </i>
    <i name="e_fr_energy">   -125.53991282 </i>
    <i name="e_wo_entrp">   -125.53834617 </i>
    <i name="e_0_energy">   -125.53912950 </i>
   </energy>
  </scstep>
  <scstep>
   <time name="dav">   10.86   10.92</time>
   <time name="total">   11.15   11.22</time>
   <energy>
    <i name="e_fr_energy">   -125.53995788 </i>
    <i name="e_wo_entrp">   -125.53839147 </i>
    <i name="e_0_energy">   -125.53917467 </i>
   </energy>
  </scstep>
  <scstep>
   <time name="dav">    8.70    8.76</time>
   <time name="total">    8.99    9.06</time>
   <energy>
    <i name="e_fr_energy">   -125.53993836 </i>
    <i name="e_wo_entrp">   -125.53837229 </i>
    <i name="e_0_energy">   -125.53915533 </i>
   </energy>
  </scstep>
  <scstep>
   <time name="dav">   10.01   10.07</time>
   <time name="total">   10.30   10.37</time>
   <energy>
    <i name="e_fr_energy">   -125.53993915 </i>
    <i name="e_wo_entrp">   -125.53837311 </i>
    <i name="e_0_energy">   -125.53915613 </i>
   </energy>
  </scstep>
  <scstep>
   <time name="dav">    8.77    8.83</time>
   <time name="total">    9.06    9.13</time>
   <energy>
    <i name="e_fr_energy">   -125.53994063 </i>
    <i name="e_wo_entrp">   -125.53837459 </i>
    <i name="e_0_energy">   -125.53915761 </i>
   </energy>
  </scstep>
  <scstep>
   <time name="dav">    8.14    8.19</time>
   <time name="total">    8.43    8.49</time>
   <energy>
    <i name="e_fr_energy">   -125.53994176 </i>
    <i name="e_wo_entrp">   -125.53837571 </i>
    <i name="e_0_energy">   -125.53915874 </i>
   </energy>
  </scstep>
  <scstep>
   <time name="dav">    8.54    8.60</time>
   <time name="total">    8.84    8.90</time>
   <energy>
    <i name="e_fr_energy">   -125.53994295 </i>
    <i name="e_wo_entrp">   -125.53837689 </i>
    <i name="e_0_energy">   -125.53915992 </i>
   </energy>
  </scstep>
  <scstep>
   <time name="dav">    7.83    7.88</time>
   <time name="total">    8.12    8.19</time>
   <energy>
    <i name="e_fr_energy">   -125.53994531 </i>
    <i name="e_wo_entrp">   -125.53837925 </i>
    <i name="e_0_energy">   -125.53916228 </i>
   </energy>
  </scstep>
  <scstep>
   <time name="dav">    8.92    8.97</time>
   <time name="total">    9.21    9.27</time>
   <energy>
    <i name="e_fr_energy">   -125.53994698 </i>
    <i name="e_wo_entrp">   -125.53838093 </i>
    <i name="e_0_energy">   -125.53916395 </i>
   </energy>
  </scstep>
  <scstep>
   <time name="dav">    8.73    8.78</time>
   <time name="total">    8.77    8.82</time>
   <energy>
    <i name="alphaZ">     58.40344200 </i>
    <i name="ewald">   4699.09645815 </i>
    <i name="hartreedc">  -6456.01641844 </i>
    <i name="XCdc">    180.75211190 </i>
    <i name="pawpsdc">   5815.29063194 </i>
    <i name="pawaedc">  -5819.72994535 </i>
    <i name="eentropy">     -0.00156606 </i>
    <i name="bandstr">   -506.59808235 </i>
    <i name="atom">   1903.26342058 </i>
    <i name="e_fr_energy">   -125.53994763 </i>
    <i name="e_wo_entrp">   -125.53838157 </i>
    <i name="e_0_energy">   -125.53916460 </i>
   </energy>
  </scstep>
  <structure>
   <crystal>
    <varray name="basis" >
     <v>       4.19329501       2.42100000       0.00000000 </v>
     <v>      -4.19329501       2.42100000       0.00000000 </v>
     <v>       0.00000000       0.00000000      15.00000000 </v>
    </varray>
    <i name="volume">    304.55901622 </i>
    <varray name="rec_basis" >
     <v>       0.11923797       0.20652623       0.00000000 </v>
     <v>      -0.11923797       0.20652623       0.00000000 </v>
     <v>       0.00000000       0.00000000       0.06666667 </v>
    </varray>
   </crystal>
   <varray name="positions" >
    <v>       0.00444464       0.00262295       0.10627409 </v>
    <v>       0.35906732       0.00237077       0.10037310 </v>
    <v>       0.00465497       0.35714588       0.10074755 </v>
    <v>       0.65012942       0.64773850       0.10062813 </v>
    <v>       0.32857766       0.32638760       0.10121307 </v>
    <v>       0.68050763       0.00230921       0.10152072 </v>
    <v>       0.00453492       0.67857658       0.10124606 </v>
    <v>       0.11078411       0.38916188       0.33744384 </v>
    <v>       0.27761233       0.22288882       0.33761153 </v>
    <v>       0.11083526       0.88902382       0.33753503 </v>
    <v>       0.27764240       0.72249634       0.33733770 </v>
    <v>       0.61080732       0.38896635       0.33735321 </v>
    <v>       0.77730251       0.22242675       0.33744056 </v>
    <v>       0.61073607       0.88928945       0.33757897 </v>
    <v>       0.77721299       0.72247355       0.33747575 </v>
   </varray>
  </structure>
  <varray name="forces" >
   <v>       0.01398338      -0.00101832      -0.02730932 </v>
   <v>       0.02647745       0.01924253       0.04129176 </v>
   <v>      -0.04963428       0.02080101       0.01090278 </v>
   <v>      -0.01101747      -0.04601493       0.02013248 </v>
   <v>       0.00686262      -0.06643404      -0.01152973 </v>
   <v>       0.06139369       0.04833051      -0.03395994 </v>
   <v>      -0.03148162       0.02563549      -0.01386677 </v>
   <v>      -0.02431563      -0.00113646      -0.00065043 </v>
   <v>       0.09559691      -0.12384224      -0.00756475 </v>
   <v>      -0.08652755       0.04387125      -0.00561938 </v>
   <v>      -0.05835383      -0.03189454       0.01860151 </v>
   <v>      -0.09203064       0.03957035       0.01131652 </v>
   <v>       0.03307099       0.04979566       0.00567319 </v>
   <v>       0.05006802      -0.01712390      -0.01093068 </v>
   <v>       0.06590796       0.04021764       0.00351276 </v>
  </varray>
  <varray name="stress" >
   <v>       2.15672623       0.08061828      -0.29741038 </v>
   <v>       0.08061827       1.71092899      -0.01237024 </v>
   <v>      -0.29741041      -0.01237025      -1.88653773 </v>
  </varray>
  <energy>
   <i name="e_fr_energy">   -127.12518650 </i>
   <i name="e_wo_entrp">   -127.12362045 </i>
   <i name="e_0_energy">   -127.12440348 </i>
  </energy>
  <time name="totalsc">   93.38   94.05</time>
 </calculation>
 <calculation>
  <scstep>
   <time name="dav">    5.45    5.50</time>
   <time name="total">    5.74    5.80</time>
   <energy>
    <i name="alphaZ">     58.40344200 </i>
    <i name="ewald">   4699.04264367 </i>
    <i name="hartreedc">  -6455.91279000 </i>
    <i name="XCdc">    180.75525418 </i>
    <i name="pawpsdc">   5815.28972810 </i>
    <i name="pawaedc">  -5819.72904037 </i>
    <i name="eentropy">     -0.00156152 </i>
    <i name="bandstr">   -506.65169600 </i>
    <i name="atom">   1903.26342058 </i>
    <i name="e_fr_energy">   -125.54059936 </i>
    <i name="e_wo_entrp">   -125.53903784 </i>
    <i name="e_0_energy">   -125.53981860 </i>
   </energy>
  </scstep>
  <scstep>
   <time name="dav">   11.55   11.61</time>
   <time name="total">   11.83   11.91</time>
   <energy>
    <i name="e_fr_energy">   -125.54062491 </i>
    <i name="e_wo_entrp">   -125.53906280 </i>
    <i name="e_0_energy">   -125.53984385 </i>
   </energy>
  </scstep>
  <scstep>
   <time name="dav">    6.91    6.95</time>
   <time name="total">    7.20    7.25</time>
   <energy>
    <i name="e_fr_energy">   -125.54061566 </i>
    <i name="e_wo_entrp">   -125.53905294 </i>
    <i name="e_0_energy">   -125.53983430 </i>
   </energy>
  </scstep>
  <scstep>
   <time name="dav">   10.87   10.95</time>
   <time name="total">   11.16   11.25</time>
   <energy>
    <i name="e_fr_energy">   -125.54061593 </i>
    <i name="e_wo_entrp">   -125.53905315 </i>
    <i name="e_0_energy">   -125.53983454 </i>
   </energy>
  </scstep>
  <scstep>
   <time name="dav">    9.07    9.12</time>
   <time name="total">    9.11    9.16</time>
   <energy>
    <i name="alphaZ">     58.40344200 </i>
    <i name="ewald">   4699.04264367 </i>
    <i name="hartreedc">  -6456.00217746 </i>
    <i name="XCdc">    180.75505010 </i>
    <i name="pawpsdc">   5816.41174750 </i>
    <i name="pawaedc">  -5820.85144724 </i>
    <i name="eentropy">     -0.00156279 </i>
    <i name="bandstr">   -506.56173251 </i>
    <i name="atom">   1903.26342058 </i>
    <i name="e_fr_energy">   -125.54061617 </i>
    <i name="e_wo_entrp">   -125.53905337 </i>
    <i name="e_0_energy">   -125.53983477 </i>
   </energy>
  </scstep>
  <structure>
   <crystal>
    <varray name="basis" >
     <v>       4.19329501       2.42100000       0.00000000 </v>
     <v>      -4.19329501       2.42100000       0.00000000 </v>
     <v>       0.00000000       0.00000000      15.00000000 </v>
    </varray>
    <i name="volume">    304.55901622 </i>
    <varray name="rec_basis" >
     <v>       0.11923797       0.20652623       0.00000000 </v>
     <v>      -0.11923797       0.20652623       0.00000000 </v>
     <v>       0.00000000       0.00000000       0.06666667 </v>
    </varray>
   </crystal>
   <varray name="positions" >
    <v>       0.00447659       0.00258673       0.10556544 </v>
    <v>       0.35907979       0.00236781       0.10048145 </v>
    <v>       0.00469234       0.35713333       0.10085046 </v>
    <v>       0.65013833       0.64773918       0.10073250 </v>
    <v>       0.32860327       0.32640037       0.10131398 </v>
    <v>       0.68051819       0.00227797       0.10162269 </v>
    <v>       0.00455280       0.67851855       0.10134835 </v>
    <v>       0.11072193       0.38920024       0.33745157 </v>
    <v>       0.27741260       0.22251848       0.33759775 </v>
    <v>       0.11071065       0.88919346       0.33754322 </v>
    <v>       0.27743410       0.72245799       0.33737997 </v>
    <v>       0.61078954       0.38921219       0.33739529 </v>
    <v>       0.77743177       0.22242518       0.33744716 </v>
    <v>       0.61082385       0.88933423       0.33756544 </v>
    <v>       0.77746380       0.72251273       0.33748405 </v>
   </varray>
  </structure>
  <varray name="forces" >
   <v>       0.01135157      -0.00126533      -0.01682997 </v>
   <v>       0.03846607       0.02480997       0.05214096 </v>
   <v>      -0.05561224       0.02244228       0.02239448 </v>
   <v>      -0.00900002      -0.05506379       0.03151274 </v>
   <v>       0.00869674      -0.06226766      -0.02613500 </v>
   <v>       0.05416878       0.04606071      -0.04895231 </v>
   <v>      -0.03193026       0.02589431      -0.02815281 </v>
   <v>       0.01948249       0.00201279      -0.00000619 </v>
   <v>       0.00551147       0.00738165      -0.00192943 </v>
   <v>       0.02620352       0.02671848      -0.00513660 </v>
   <v>      -0.02203111       0.02901472       0.01151301 </v>
   <v>       0.00493934      -0.01885520       0.00417445 </v>
   <v>      -0.04664487       0.02479992       0.00663311 </v>
   <v>       0.03435086      -0.05613513      -0.00533383 </v>
   <v>      -0.03795233      -0.01554770       0.00410740 </v>
  </varray>
  <varray name="stress" >
   <v>       1.93861615      -0.05305651      -0.29417053 </v>
   <v>      -0.05305653       2.10146984      -0.01252862 </v>
   <v>      -0.29417055      -0.01252864      -1.88084753 </v>
  </varray>
  <energy>
   <i name="e_fr_energy">   -127.12570800 </i>
   <i name="e_wo_entrp">   -127.12414520 </i>
   <i name="e_0_energy">   -127.12492660 </i>
  </energy>
  <time name="totalsc">   49.73   50.08</time>
 </calculation>
