 ----------------------------------------------------
    OOO  PPPP  EEEEE N   N M   M PPPP
   O   O P   P E     NN  N MM MM P   P
   O   O PPPP  EEEEE N N N M M M PPPP   -- VERSION
   O   O P     E     N  NN M   M P
    OOO  P     EEEEE N   N M   M P
 ----------------------------------------------------
 running   48 mpi-ranks, with    1 threads/rank
 distrk:  each k-point on   48 cores,    1 groups
 distr:  one band on    1 cores,   48 groups
 vasp.6.3.2 27Jun22 (build Dec 22 2022 13:13:19) complex                        
  
 POSCAR found type information on POSCAR B C 
 POSCAR found :  2 types and      15 ions
 Reading from existing POTCAR
 -----------------------------------------------------------------------------
|                                                                             |
|           W    W    AA    RRRRR   N    N  II  N    N   GGGG   !!!           |
|           W    W   A  A   R    R  NN   N  II  NN   N  G    G  !!!           |
|           W    W  A    A  R    R  N N  N  II  N N  N  G       !!!           |
|           W WW W  AAAAAA  RRRRR   N  N N  II  N  N N  G  GGG   !            |
|           WW  WW  A    A  R   R   N   NN  II  N   NN  G    G                |
|           W    W  A    A  R    R  N    N  II  N    N   GGGG   !!!           |
|                                                                             |
|     You use a magnetic or noncollinear calculation, but did not specify     |
|     the initial magnetic moment with the MAGMOM tag. Note that a            |
|     default of 1 will be used for all atoms. This ferromagnetic setup       |
|     may break the symmetry of the crystal, in particular it may rule        |
|     out finding an antiferromagnetic solution. Thence, we recommend         |
|     setting the initial magnetic moment manually or verifying carefully     |
|     that this magnetic setup is desired.                                    |
|                                                                             |
 -----------------------------------------------------------------------------

 scaLAPACK will be used
 Reading from existing POTCAR
 LDA part: xc-table for Pade appr. of Perdew
 POSCAR found type information on POSCAR B C 
 POSCAR found :  2 types and      15 ions
 POSCAR, INCAR and KPOINTS ok, starting setup
 FFT: planning ... GRIDC
 FFT: planning ... GRID_SOFT
 FFT: planning ... GRID
 WAVECAR not read
 entering main loop
       N       E                     dE             d eps       ncg     rms          rms(c)
DAV:   1     0.203862030495E+03    0.20386E+03   -0.25708E+04 14208   0.859E+02
DAV:   2    -0.116630242027E+03   -0.32049E+03   -0.31899E+03 20400   0.163E+02
DAV:   3    -0.129442763420E+03   -0.12813E+02   -0.12800E+02 26592   0.428E+01
DAV:   4    -0.129468560089E+03   -0.25797E-01   -0.25796E-01 20736   0.183E+00
DAV:   5    -0.129468617914E+03   -0.57825E-04   -0.57825E-04 25584   0.861E-02    0.245E+01
DAV:   6    -0.920523662675E+02    0.37416E+02   -0.71982E+01 25824   0.255E+01    0.139E+01
DAV:   7    -0.100472731556E+03   -0.84204E+01   -0.99380E+00 22656   0.101E+01    0.810E+00
DAV:   8    -0.110469535325E+03   -0.99968E+01   -0.88182E+00 23904   0.897E+00    0.433E+00
DAV:   9    -0.117199869347E+03   -0.67303E+01   -0.38933E+00 19152   0.610E+00    0.277E+00
DAV:  10    -0.123443275804E+03   -0.62434E+01   -0.79413E+00 24096   0.698E+00    0.160E+00
DAV:  11    -0.125285074078E+03   -0.18418E+01   -0.29677E+00 24768   0.388E+00    0.995E-01
DAV:  12    -0.125436473595E+03   -0.15140E+00   -0.21889E-01 19344   0.134E+00    0.472E-01
DAV:  13    -0.125462279084E+03   -0.25805E-01   -0.22748E-02 18000   0.545E-01    0.190E-01
DAV:  14    -0.125485233494E+03   -0.22954E-01   -0.61109E-03 20736   0.281E-01    0.844E-02
DAV:  15    -0.125492992534E+03   -0.77590E-02   -0.31679E-03 20016   0.157E-01    0.445E-02
DAV:  16    -0.125494991656E+03   -0.19991E-02   -0.63454E-04 16176   0.804E-02    0.224E-02
DAV:  17    -0.125496268831E+03   -0.12772E-02   -0.17657E-04 15648   0.515E-02    0.173E-02
DAV:  18    -0.125496961950E+03   -0.69312E-03   -0.83585E-05 17040   0.372E-02    0.125E-02
DAV:  19    -0.125497406572E+03   -0.44462E-03   -0.41055E-05 19008   0.240E-02    0.735E-03
DAV:  20    -0.125497452132E+03   -0.45560E-04   -0.21324E-05 22800   0.174E-02    0.448E-03
DAV:  21    -0.125497474126E+03   -0.21994E-04   -0.60161E-06 20400   0.942E-03    0.221E-03
DAV:  22    -0.125497495572E+03   -0.21446E-04   -0.21589E-06 22128   0.547E-03    0.138E-03
DAV:  23    -0.125497511663E+03   -0.16091E-04   -0.17344E-06 20592   0.400E-03    0.728E-04
DAV:  24    -0.125497514861E+03   -0.31988E-05   -0.34092E-07 23472   0.214E-03    0.380E-04
DAV:  25    -0.125497515821E+03   -0.95913E-06   -0.11739E-07 22944   0.114E-03
   1 F= -.12708541E+03 E0= -.12708463E+03  d E =-.127085E+03  mag=    -0.0000
 curvature:   0.00 expect dE= 0.000E+00 dE for cont linesearch  0.000E+00
 trial: gam= 0.00000 g(F)=  0.275E-01 g(S)=  0.000E+00 ort = 0.000E+00 (trialstep = 0.100E+01)
 search vector abs. value=  0.275E-01
 bond charge predicted
       N       E                     dE             d eps       ncg     rms          rms(c)
DAV:   1    -0.125506961026E+03   -0.94462E-02   -0.29621E+00 14208   0.528E+00    0.469E-01
DAV:   2    -0.125499116730E+03    0.78443E-02   -0.59746E-02 26016   0.685E-01    0.207E-01
DAV:   3    -0.125498243018E+03    0.87371E-03   -0.48980E-03 20880   0.193E-01    0.811E-02
DAV:   4    -0.125498206709E+03    0.36309E-04   -0.56545E-04 26976   0.666E-02    0.211E-02
DAV:   5    -0.125498209887E+03   -0.31780E-05   -0.16193E-05 25056   0.125E-02    0.689E-03
DAV:   6    -0.125498209888E+03   -0.10605E-08   -0.36355E-06 22608   0.549E-03
   2 F= -.12708553E+03 E0= -.12708474E+03  d E =-.117130E-03  mag=    -0.0000
 trial-energy change:   -0.000117  1 .order   -0.000170   -0.027484    0.027144
 step:   0.5017(harm=  0.5031)  dis= 0.00736  next Energy=  -127.092296 (dE=-0.689E-02)
 bond charge predicted
       N       E                     dE             d eps       ncg     rms          rms(c)
DAV:   1    -0.125506904363E+03   -0.86945E-02   -0.73592E-01 14208   0.263E+00    0.234E-01
DAV:   2    -0.125504908547E+03    0.19958E-02   -0.14757E-02 25728   0.338E-01    0.103E-01
DAV:   3    -0.125504698815E+03    0.20973E-03   -0.12027E-03 22800   0.961E-02    0.409E-02
DAV:   4    -0.125504690300E+03    0.85151E-05   -0.13715E-04 23616   0.326E-02    0.103E-02
DAV:   5    -0.125504690995E+03   -0.69543E-06   -0.44583E-06 21888   0.648E-03
   3 F= -.12709229E+03 E0= -.12709151E+03  d E =-.688242E-02  mag=    -0.0000
 curvature:  -0.25 expect dE=-0.201E-02 dE for cont linesearch -0.476E-07
 trial: gam= 0.28750 g(F)=  0.797E-02 g(S)=  0.000E+00 ort = 0.721E-04 (trialstep = 0.900E+00)
 search vector abs. value=  0.103E-01
 bond charge predicted
       N       E                     dE             d eps       ncg     rms          rms(c)
DAV:   1    -0.125511105369E+03   -0.64151E-02   -0.31412E-01 14304   0.194E+00    0.117E-01
DAV:   2    -0.125511164585E+03   -0.59216E-04   -0.19444E-03 27840   0.175E-01    0.684E-02
DAV:   3    -0.125511162233E+03    0.23521E-05   -0.19290E-04 22080   0.485E-02    0.153E-02
DAV:   4    -0.125511163246E+03   -0.10127E-05   -0.25536E-05 26784   0.187E-02    0.601E-03
DAV:   5    -0.125511163600E+03   -0.35413E-06   -0.96094E-07 21504   0.418E-03
   4 F= -.12709861E+03 E0= -.12709783E+03  d E =-.631819E-02  mag=    -0.0000
 ZBRENT: can't locate minimum, use default step
 trial-energy change:   -0.006318  1 .order   -0.006324   -0.007198   -0.005451
 step:   3.6013(harm=  3.7098)  dis= 0.02209  next Energy=  -127.107120 (dE=-0.148E-01)
 bond charge predicted
       N       E                     dE             d eps       ncg     rms          rms(c)
DAV:   1    -0.125519954621E+03   -0.87914E-02   -0.28442E+00 14208   0.583E+00    0.349E-01
DAV:   2    -0.125520632167E+03   -0.67755E-03   -0.18007E-02 27072   0.530E-01    0.204E-01
DAV:   3    -0.125520596443E+03    0.35724E-04   -0.17803E-03 21360   0.147E-01    0.457E-02
DAV:   4    -0.125520606409E+03   -0.99665E-05   -0.23062E-04 27840   0.558E-02    0.181E-02
DAV:   5    -0.125520609816E+03   -0.34065E-05   -0.82212E-06 21696   0.121E-02    0.821E-03
DAV:   6    -0.125520609956E+03   -0.13997E-06   -0.55740E-06 24624   0.855E-03
   5 F= -.12710758E+03 E0= -.12710680E+03  d E =-.152911E-01  mag=     0.0000
 curvature:  -2.38 expect dE=-0.767E-01 dE for cont linesearch -0.115E-03
 trial: gam= 4.02630 g(F)=  0.322E-01 g(S)=  0.000E+00 ort = 0.705E-03 (trialstep = 0.724E-01)
 search vector abs. value=  0.205E+00
 bond charge predicted
       N       E                     dE             d eps       ncg     rms          rms(c)
DAV:   1    -0.125522977735E+03   -0.23679E-02   -0.49052E-02 14304   0.849E-01    0.496E-02
DAV:   2    -0.125522980841E+03   -0.31065E-05   -0.43499E-04 26736   0.904E-02    0.277E-02
DAV:   3    -0.125522975723E+03    0.51184E-05   -0.45518E-05 21408   0.256E-02    0.847E-03
DAV:   4    -0.125522976175E+03   -0.45250E-06   -0.72429E-06 25872   0.100E-02
   6 F= -.12710989E+03 E0= -.12710911E+03  d E =-.231180E-02  mag=     0.0000
 ZBRENT: can't locate minimum, use default step
 trial-energy change:   -0.002312  1 .order   -0.002312   -0.002536   -0.002088
 step:   0.2897(harm=  0.4098)  dis= 0.00642  next Energy=  -127.114757 (dE=-0.717E-02)
 bond charge predicted
       N       E                     dE             d eps       ncg     rms          rms(c)
DAV:   1    -0.125527452506E+03   -0.44768E-02   -0.44207E-01 14208   0.255E+00    0.149E-01
DAV:   2    -0.125527477588E+03   -0.25082E-04   -0.38188E-03 26784   0.268E-01    0.829E-02
DAV:   3    -0.125527432877E+03    0.44711E-04   -0.39790E-04 20016   0.758E-02    0.250E-02
DAV:   4    -0.125527434809E+03   -0.19319E-05   -0.62993E-05 26592   0.290E-02    0.109E-02
DAV:   5    -0.125527436018E+03   -0.12091E-05   -0.21917E-06 19440   0.621E-03    0.440E-03
DAV:   6    -0.125527435925E+03    0.92484E-07   -0.11773E-06 25296   0.424E-03
   7 F= -.12711417E+03 E0= -.12711339E+03  d E =-.659011E-02  mag=    -0.0000
 curvature:  -1.05 expect dE=-0.687E-02 dE for cont linesearch -0.577E-03
 ZBRENT: increasing intervall
 opt :   0.7242  next Energy=  -127.110880 (dE=-0.330E-02)
 bond charge predicted
       N       E                     dE             d eps       ncg     rms          rms(c)
DAV:   1    -0.125524834976E+03    0.26010E-02   -0.17741E+00 14208   0.509E+00    0.295E-01
DAV:   2    -0.125524936047E+03   -0.10107E-03   -0.15493E-02 26688   0.539E-01    0.165E-01
DAV:   3    -0.125524751966E+03    0.18408E-03   -0.15956E-03 21552   0.151E-01    0.496E-02
DAV:   4    -0.125524759549E+03   -0.75836E-05   -0.24475E-04 25728   0.573E-02    0.214E-02
DAV:   5    -0.125524763922E+03   -0.43729E-05   -0.83573E-06 20832   0.121E-02    0.842E-03
DAV:   6    -0.125524762800E+03    0.11217E-05   -0.46706E-06 24576   0.848E-03    0.174E-03
DAV:   7    -0.125524762611E+03    0.18944E-06   -0.75516E-07 21696   0.328E-03
   8 F= -.12711106E+03 E0= -.12711029E+03  d E =-.347328E-02  mag=    -0.0000
 curvature:   5.97 expect dE= 0.409E+00 dE for cont linesearch  0.179E-01
 ZBRENT: bracketing found
 ZBRENT: interpolating
 opt :   0.4201  next Energy=  -127.114865 (dE=-0.728E-02)
 bond charge predicted
       N       E                     dE             d eps       ncg     rms          rms(c)
DAV:   1    -0.125528280801E+03   -0.35180E-02   -0.86796E-01 14208   0.356E+00    0.206E-01
DAV:   2    -0.125528323619E+03   -0.42818E-04   -0.75981E-03 27648   0.377E-01    0.115E-01
DAV:   3    -0.125528234510E+03    0.89109E-04   -0.77363E-04 21984   0.106E-01    0.349E-02
DAV:   4    -0.125528239035E+03   -0.45253E-05   -0.11968E-04 25440   0.400E-02    0.149E-02
DAV:   5    -0.125528241690E+03   -0.26545E-05   -0.39542E-06 22512   0.833E-03    0.586E-03
DAV:   6    -0.125528241569E+03    0.12092E-06   -0.19398E-06 19632   0.551E-03
   9 F= -.12711486E+03 E0= -.12711408E+03  d E =-.727394E-02  mag=     0.0000
 curvature:  -0.23 expect dE=-0.293E-02 dE for cont linesearch -0.207E-07
 trial: gam= 0.57652 g(F)=  0.127E-01 g(S)=  0.000E+00 ort =-0.135E-03 (trialstep = 0.142E+00)
 search vector abs. value=  0.805E-01
 bond charge predicted
       N       E                     dE             d eps       ncg     rms          rms(c)
DAV:   1    -0.125530028924E+03   -0.17872E-02   -0.67023E-02 14208   0.853E-01    0.490E-02
DAV:   2    -0.125530043900E+03   -0.14976E-04   -0.37695E-04 24240   0.709E-02    0.293E-02
DAV:   3    -0.125530043144E+03    0.75608E-06   -0.41569E-05 16704   0.199E-02    0.476E-03
DAV:   4    -0.125530043535E+03   -0.39070E-06   -0.29461E-06 21456   0.650E-03
  10 F= -.12711654E+03 E0= -.12711576E+03  d E =-.168120E-02  mag=    -0.0000
 ZBRENT: can't locate minimum, use default step
 trial-energy change:   -0.001681  1 .order   -0.001681   -0.001789   -0.001573
 step:   0.5679(harm=  1.1745)  dis= 0.00510  next Energy=  -127.122256 (dE=-0.740E-02)
 bond charge predicted
       N       E                     dE             d eps       ncg     rms          rms(c)
DAV:   1    -0.125534067567E+03   -0.40244E-02   -0.60433E-01 14208   0.256E+00    0.146E-01
DAV:   2    -0.125534211820E+03   -0.14425E-03   -0.32625E-03 27936   0.209E-01    0.877E-02
DAV:   3    -0.125534194125E+03    0.17695E-04   -0.38399E-04 20784   0.596E-02    0.137E-02
DAV:   4    -0.125534194745E+03   -0.61943E-06   -0.23074E-05 22368   0.189E-02    0.711E-03
DAV:   5    -0.125534193339E+03    0.14058E-05   -0.32086E-06 22608   0.686E-03    0.253E-03
DAV:   6    -0.125534192766E+03    0.57283E-06   -0.99064E-07 25584   0.362E-03
  11 F= -.12712033E+03 E0= -.12711954E+03  d E =-.547075E-02  mag=     0.0000
 curvature:  -2.46 expect dE=-0.188E-01 dE for cont linesearch -0.143E-02
 ZBRENT: increasing intervall
 opt :   1.4196  next Energy=  -127.122543 (dE=-0.769E-02)
 bond charge predicted
       N       E                     dE             d eps       ncg     rms          rms(c)
DAV:   1    -0.125537059920E+03   -0.28666E-02   -0.24196E+00 14208   0.510E+00    0.289E-01
DAV:   2    -0.125537619338E+03   -0.55942E-03   -0.12281E-02 26976   0.409E-01    0.173E-01
DAV:   3    -0.125537546074E+03    0.73264E-04   -0.15600E-03 21216   0.120E-01    0.253E-02
DAV:   4    -0.125537546517E+03   -0.44278E-06   -0.89121E-05 23712   0.376E-02    0.139E-02
DAV:   5    -0.125537542158E+03    0.43593E-05   -0.12262E-05 23616   0.136E-02    0.440E-03
DAV:   6    -0.125537541221E+03    0.93705E-06   -0.38846E-06 24624   0.722E-03
  12 F= -.12712297E+03 E0= -.12712220E+03  d E =-.811304E-02  mag=     0.0000
 curvature:  -3.81 expect dE=-0.745E-01 dE for cont linesearch -0.470E-05
 trial: gam= 1.49244 g(F)=  0.195E-01 g(S)=  0.000E+00 ort =-0.315E-03 (trialstep = 0.162E+00)
 search vector abs. value=  0.198E+00
 bond charge predicted
       N       E                     dE             d eps       ncg     rms          rms(c)
DAV:   1    -0.125539912825E+03   -0.23707E-02   -0.24000E-01 14208   0.186E+00    0.982E-02
DAV:   2    -0.125539957883E+03   -0.45058E-04   -0.18234E-03 26208   0.182E-01    0.576E-02
DAV:   3    -0.125539938364E+03    0.19519E-04   -0.20694E-04 21504   0.531E-02    0.157E-02
DAV:   4    -0.125539939146E+03   -0.78197E-06   -0.30795E-05 24192   0.210E-02    0.734E-03
DAV:   5    -0.125539940628E+03   -0.14819E-05   -0.15739E-06 21744   0.575E-03    0.340E-03
DAV:   6    -0.125539941763E+03   -0.11355E-05   -0.62140E-07 20400   0.363E-03    0.165E-03
DAV:   7    -0.125539942950E+03   -0.11872E-05   -0.35544E-07 21312   0.256E-03    0.571E-04
DAV:   8    -0.125539945314E+03   -0.23639E-05   -0.46437E-07 19632   0.211E-03    0.499E-04
DAV:   9    -0.125539946983E+03   -0.16691E-05   -0.19454E-07 22224   0.141E-03    0.227E-04
DAV:  10    -0.125539947627E+03   -0.64308E-06   -0.49092E-08 21792   0.925E-04
  13 F= -.12712519E+03 E0= -.12712440E+03  d E =-.221715E-02  mag=     0.0000
 trial-energy change:   -0.002217  1 .order   -0.002211   -0.003081   -0.001340
 step:   0.2815(harm=  0.2862)  dis= 0.00382  next Energy=  -127.125686 (dE=-0.272E-02)
 bond charge predicted
       N       E                     dE             d eps       ncg     rms          rms(c)
DAV:   1    -0.125540599360E+03   -0.65238E-03   -0.13177E-01 14208   0.138E+00    0.726E-02
DAV:   2    -0.125540624906E+03   -0.25545E-04   -0.99836E-04 27552   0.134E-01    0.426E-02
DAV:   3    -0.125540615659E+03    0.92466E-05   -0.11005E-04 17472   0.388E-02    0.114E-02
DAV:   4    -0.125540615933E+03   -0.27357E-06   -0.17315E-05 26016   0.153E-02    0.532E-03
