Lattice                                 
           1
     4.193295    2.421000    0.000000
    -4.193295    2.421000    0.000000
     0.000000    0.000000   15.000000
   B    C 
     4    11
Direct configuration=     1
   0.00415361  0.00267210  0.12034134
   0.35695335  0.00285503  0.09748893
   0.00423858  0.35550699  0.09749256
   0.65142295  0.65006557  0.09747688
   0.32808646  0.32671938  0.10030508
   0.68027775  0.00278085  0.10027562
   0.00416530  0.67883808  0.10026559
   0.11111044  0.38888856  0.33726667
   0.27777744  0.22222156  0.33726667
   0.11111044  0.88888856  0.33726667
   0.27777744  0.72222156  0.33726667
   0.61111044  0.38888856  0.33726667
   0.77777744  0.22222156  0.33726667
   0.61111044  0.88888856  0.33726667
   0.77777744  0.72222156  0.33726667
Direct configuration=     2
   0.00416821  0.00269716  0.11908325
   0.35575419  0.00279151  0.09781521
   0.00418879  0.35453681  0.09787155
   0.65251163  0.65104515  0.09784206
   0.32484048  0.32331163  0.10031221
   0.68379008  0.00279478  0.10032595
   0.00422525  0.68210481  0.10028085
   0.11103952  0.38899171  0.33727950
   0.27791625  0.22234697  0.33735302
   0.11129731  0.88901803  0.33729027
   0.27796832  0.72221844  0.33720505
   0.61107111  0.38883637  0.33720016
   0.77773612  0.22226699  0.33728892
   0.61092672  0.88884003  0.33734216
   0.77741558  0.72207806  0.33728917
Direct configuration=     3
   0.00416094  0.00268467  0.11971021
   0.35635178  0.00282316  0.09765261
   0.00421360  0.35502029  0.09768268
   0.65196910  0.65055699  0.09766008
   0.32645808  0.32500985  0.10030865
   0.68203974  0.00278784  0.10030087
   0.00419537  0.68047687  0.10027325
   0.11107487  0.38894031  0.33727310
   0.27784708  0.22228447  0.33730999
   0.11120419  0.88895351  0.33727851
   0.27787320  0.72221999  0.33723576
   0.61109071  0.38886237  0.33723330
   0.77775671  0.22224435  0.33727783
   0.61101828  0.88886421  0.33730454
   0.77759591  0.72214957  0.33727795
Direct configuration=     4
   0.00417089  0.00272164  0.11856955
   0.35685259  0.00275620  0.09796682
   0.00420905  0.35551964  0.09805090
   0.65153471  0.64998917  0.09801364
   0.32661629  0.32504223  0.10028262
   0.68197274  0.00278313  0.10031690
   0.00424014  0.68036717  0.10025528
   0.11109329  0.38887781  0.33728874
   0.27767617  0.22224804  0.33738413
   0.11097602  0.88885797  0.33730582
   0.27765738  0.72226500  0.33718950
   0.61109017  0.38892450  0.33718569
   0.77773699  0.22222550  0.33729841
   0.61115221  0.88897365  0.33737084
   0.77787092  0.72232679  0.33730049
Direct configuration=     5
   0.00420075  0.00283256  0.11514759
   0.35835504  0.00255530  0.09890943
   0.00419539  0.35701767  0.09915555
   0.65023155  0.64828572  0.09907434
   0.32709092  0.32513938  0.10020452
   0.68177173  0.00276902  0.10036501
   0.00437442  0.68003809  0.10020138
   0.11114855  0.38869031  0.33733563
   0.27716343  0.22213874  0.33760657
   0.11029151  0.88857135  0.33738774
   0.27700994  0.72240002  0.33705072
   0.61108855  0.38911089  0.33704286
   0.77767781  0.22216896  0.33736014
   0.61155402  0.88930195  0.33756974
   0.77869596  0.72285846  0.33736812
Direct configuration=     6
   0.00420697  0.00283681  0.11473013
   0.35848302  0.00253768  0.09900212
   0.00420591  0.35712562  0.09926254
   0.65013521  0.64815178  0.09917736
   0.32718927  0.32520898  0.10022149
   0.68169127  0.00275667  0.10039409
   0.00438559  0.67995287  0.10022093
   0.11109849  0.38878068  0.33734111
   0.27727632  0.22216867  0.33762153
   0.11046908  0.88870954  0.33739676
   0.27716433  0.72239254  0.33704733
   0.61105080  0.38909590  0.33703998
   0.77767506  0.22221875  0.33736583
   0.61139813  0.88921918  0.33758334
   0.77842011  0.72272277  0.33737478
Direct configuration=     7
   0.00422563  0.00284956  0.11347777
   0.35886697  0.00248482  0.09928020
   0.00423746  0.35744947  0.09958351
   0.64984621  0.64774997  0.09948644
   0.32748430  0.32541776  0.10027238
   0.68144990  0.00271961  0.10048132
   0.00441910  0.67969719  0.10027959
   0.11094833  0.38905182  0.33735755
   0.27761498  0.22225844  0.33766642
   0.11100181  0.88912411  0.33742382
   0.27762750  0.72237010  0.33703716
   0.61093753  0.38905095  0.33703134
   0.77766680  0.22236811  0.33738291
   0.61093048  0.88897085  0.33762415
   0.77759256  0.72231568  0.33739478
Direct configuration=     8
   0.00426294  0.00287507  0.11097303
   0.35963487  0.00237909  0.09983636
   0.00430056  0.35809716  0.10022545
   0.64926819  0.64694634  0.10010460
   0.32807437  0.32583534  0.10037418
   0.68096717  0.00264548  0.10065578
   0.00448612  0.67918585  0.10039691
   0.11064800  0.38959409  0.33739044
   0.27829229  0.22243799  0.33775620
   0.11206726  0.88995325  0.33747793
   0.27855386  0.72232522  0.33701681
   0.61071101  0.38896104  0.33701406
   0.77765029  0.22266683  0.33741707
   0.60999517  0.88847418  0.33770575
   0.77593747  0.72150152  0.33743477
Direct configuration=     9
   0.00423683  0.00285722  0.11272588
   0.35909748  0.00245308  0.09944715
   0.00425640  0.35764389  0.09977621
   0.64967269  0.64750873  0.09967200
   0.32766143  0.32554311  0.10030294
   0.68130499  0.00269736  0.10053369
   0.00443922  0.67954370  0.10031481
   0.11085817  0.38921460  0.33736743
   0.27781829  0.22231234  0.33769337
   0.11132164  0.88937300  0.33744006
   0.27790558  0.72235663  0.33703105
   0.61086953  0.38902396  0.33702615
   0.77766184  0.22245778  0.33739316
   0.61064972  0.88882175  0.33764864
   0.77709573  0.72207128  0.33740679
Direct configuration=    10
   0.00425329  0.00283868  0.11217637
   0.35909278  0.00244525  0.09952512
   0.00429121  0.35759579  0.09985945
   0.64971716  0.64753162  0.09975353
   0.32774960  0.32562584  0.10038033
   0.68122383  0.00266276  0.10061863
   0.00444638  0.67945482  0.10039413
   0.11085916  0.38920415  0.33737402
   0.27782466  0.22241998  0.33768705
   0.11128982  0.88931518  0.33744845
   0.27790738  0.72237578  0.33705601
   0.61086571  0.38898501  0.33705318
   0.77760846  0.22245489  0.33739701
   0.61064650  0.88886248  0.33764350
   0.77707359  0.72210622  0.33741256
Direct configuration=    11
   0.00430270  0.00278307  0.11052785
   0.35907868  0.00242175  0.09975902
   0.00439565  0.35745147  0.10010917
   0.64985057  0.64760027  0.09999809
   0.32801409  0.32587401  0.10061250
   0.68098034  0.00255897  0.10087344
   0.00446784  0.67918818  0.10063208
   0.11086213  0.38917280  0.33739382
   0.27784376  0.22274292  0.33766808
   0.11119438  0.88914173  0.33747362
   0.27791279  0.72243322  0.33713089
   0.61085425  0.38886816  0.33713425
   0.77744831  0.22244621  0.33740856
   0.61063686  0.88898465  0.33762809
   0.77700719  0.72221104  0.33742989
Direct configuration=    12
   0.00440151  0.00267185  0.10723079
   0.35905048  0.00237477  0.10022683
   0.00460453  0.35716283  0.10060862
   0.65011740  0.64773757  0.10048723
   0.32854309  0.32637035  0.10107684
   0.68049337  0.00235138  0.10138306
   0.00451077  0.67865492  0.10110798
   0.11086806  0.38911010  0.33743340
   0.27788196  0.22338878  0.33763014
   0.11100349  0.88879481  0.33752397
   0.27792360  0.72254811  0.33728065
   0.61083132  0.38863446  0.33729640
   0.77712801  0.22242886  0.33743165
   0.61061758  0.88922900  0.33759725
   0.77687439  0.72242066  0.33746455
Direct configuration=    13
   0.00444464  0.00262295  0.10627409
   0.35906732  0.00237077  0.10037310
   0.00465497  0.35714588  0.10074755
   0.65012942  0.64773850  0.10062813
   0.32857766  0.32638760  0.10121307
   0.68050763  0.00230921  0.10152072
   0.00453492  0.67857658  0.10124606
   0.11078411  0.38916188  0.33744384
   0.27761233  0.22288882  0.33761153
   0.11083526  0.88902382  0.33753503
   0.27764240  0.72249634  0.33733770
   0.61080732  0.38896635  0.33735321
   0.77730251  0.22242675  0.33744056
   0.61073607  0.88928945  0.33757897
   0.77721299  0.72247355  0.33747575
Direct configuration=    14
   0.00447659  0.00258673  0.10556544
   0.35907979  0.00236781  0.10048145
   0.00469234  0.35713333  0.10085046
   0.65013833  0.64773918  0.10073250
   0.32860327  0.32640037  0.10131398
   0.68051819  0.00227797  0.10162269
   0.00455280  0.67851855  0.10134835
   0.11072193  0.38920024  0.33745157
   0.27741260  0.22251848  0.33759775
   0.11071065  0.88919346  0.33754322
   0.27743410  0.72245799  0.33737997
   0.61078954  0.38921219  0.33739529
   0.77743177  0.22242518  0.33744716
   0.61082385  0.88933423  0.33756544
   0.77746380  0.72251273  0.33748405
