Lattice                                 
           1
     4.193295    2.421000    0.000000
    -4.193295    2.421000    0.000000
     0.000000    0.000000   15.000000
   B    C 
     4    11
Direct configuration=     1
   0.00415361  0.00267210  0.12034134
   0.35695335  0.00285503  0.09748893
   0.00423858  0.35550699  0.09749256
   0.65142295  0.65006557  0.09747688
   0.32808646  0.32671938  0.10030508
   0.68027775  0.00278085  0.10027562
   0.00416530  0.67883808  0.10026559
   0.11111044  0.38888856  0.33726667
   0.27777744  0.22222156  0.33726667
   0.11111044  0.88888856  0.33726667
   0.27777744  0.72222156  0.33726667
   0.61111044  0.38888856  0.33726667
   0.77777744  0.22222156  0.33726667
   0.61111044  0.88888856  0.33726667
   0.77777744  0.72222156  0.33726667
Direct configuration=     2
   0.00416821  0.00269716  0.11908325
   0.35575419  0.00279151  0.09781521
   0.00418879  0.35453681  0.09787155
   0.65251163  0.65104515  0.09784206
   0.32484048  0.32331163  0.10031221
   0.68379008  0.00279478  0.10032595
   0.00422525  0.68210481  0.10028085
   0.11103952  0.38899171  0.33727950
   0.27791625  0.22234697  0.33735302
   0.11129731  0.88901803  0.33729027
   0.27796832  0.72221844  0.33720505
   0.61107111  0.38883637  0.33720016
   0.77773612  0.22226699  0.33728892
   0.61092672  0.88884003  0.33734216
   0.77741558  0.72207806  0.33728917
Direct configuration=     3
   0.00416094  0.00268467  0.11971021
   0.35635178  0.00282316  0.09765261
   0.00421360  0.35502029  0.09768268
   0.65196910  0.65055699  0.09766008
   0.32645808  0.32500985  0.10030865
   0.68203974  0.00278784  0.10030087
   0.00419537  0.68047687  0.10027325
   0.11107487  0.38894031  0.33727310
   0.27784708  0.22228447  0.33730999
   0.11120419  0.88895351  0.33727851
   0.27787320  0.72221999  0.33723576
   0.61109071  0.38886237  0.33723330
   0.77775671  0.22224435  0.33727783
   0.61101828  0.88886421  0.33730454
   0.77759591  0.72214957  0.33727795
Direct configuration=     4
   0.00417089  0.00272164  0.11856955
   0.35685259  0.00275620  0.09796682
   0.00420905  0.35551964  0.09805090
   0.65153471  0.64998917  0.09801364
   0.32661629  0.32504223  0.10028262
   0.68197274  0.00278313  0.10031690
   0.00424014  0.68036717  0.10025528
   0.11109329  0.38887781  0.33728874
   0.27767617  0.22224804  0.33738413
   0.11097602  0.88885797  0.33730582
   0.27765738  0.72226500  0.33718950
   0.61109017  0.38892450  0.33718569
   0.77773699  0.22222550  0.33729841
   0.61115221  0.88897365  0.33737084
   0.77787092  0.72232679  0.33730049
Direct configuration=     5
   0.00420075  0.00283256  0.11514759
   0.35835504  0.00255530  0.09890943
   0.00419539  0.35701767  0.09915555
   0.65023155  0.64828572  0.09907434
   0.32709092  0.32513938  0.10020452
   0.68177173  0.00276902  0.10036501
   0.00437442  0.68003809  0.10020138
   0.11114855  0.38869031  0.33733563
   0.27716343  0.22213874  0.33760657
   0.11029151  0.88857135  0.33738774
   0.27700994  0.72240002  0.33705072
   0.61108855  0.38911089  0.33704286
   0.77767781  0.22216896  0.33736014
   0.61155402  0.88930195  0.33756974
   0.77869596  0.72285846  0.33736812
Direct configuration=     6
   0.00420697  0.00283681  0.11473013
   0.35848302  0.00253768  0.09900212
   0.00420591  0.35712562  0.09926254
   0.65013521  0.64815178  0.09917736
   0.32718927  0.32520898  0.10022149
   0.68169127  0.00275667  0.10039409
   0.00438559  0.67995287  0.10022093
   0.11109849  0.38878068  0.33734111
   0.27727632  0.22216867  0.33762153
   0.11046908  0.88870954  0.33739676
   0.27716433  0.72239254  0.33704733
   0.61105080  0.38909590  0.33703998
   0.77767506  0.22221875  0.33736583
   0.61139813  0.88921918  0.33758334
   0.77842011  0.72272277  0.33737478
Direct configuration=     7
   0.00422563  0.00284956  0.11347777
   0.35886697  0.00248482  0.09928020
   0.00423746  0.35744947  0.09958351
   0.64984621  0.64774997  0.09948644
   0.32748430  0.32541776  0.10027238
   0.68144990  0.00271961  0.10048132
   0.00441910  0.67969719  0.10027959
   0.11094833  0.38905182  0.33735755
   0.27761498  0.22225844  0.33766642
   0.11100181  0.88912411  0.33742382
   0.27762750  0.72237010  0.33703716
   0.61093753  0.38905095  0.33703134
   0.77766680  0.22236811  0.33738291
   0.61093048  0.88897085  0.33762415
   0.77759256  0.72231568  0.33739478
Direct configuration=     8
   0.00426294  0.00287507  0.11097303
   0.35963487  0.00237909  0.09983636
   0.00430056  0.35809716  0.10022545
   0.64926819  0.64694634  0.10010460
   0.32807437  0.32583534  0.10037418
   0.68096717  0.00264548  0.10065578
   0.00448612  0.67918585  0.10039691
   0.11064800  0.38959409  0.33739044
   0.27829229  0.22243799  0.33775620
   0.11206726  0.88995325  0.33747793
   0.27855386  0.72232522  0.33701681
   0.61071101  0.38896104  0.33701406
   0.77765029  0.22266683  0.33741707
   0.60999517  0.88847418  0.33770575
   0.77593747  0.72150152  0.33743477
Direct configuration=     9
   0.00423683  0.00285722  0.11272588
   0.35909748  0.00245308  0.09944715
   0.00425640  0.35764389  0.09977621
   0.64967269  0.64750873  0.09967200
   0.32766143  0.32554311  0.10030294
   0.68130499  0.00269736  0.10053369
   0.00443922  0.67954370  0.10031481
   0.11085817  0.38921460  0.33736743
   0.27781829  0.22231234  0.33769337
   0.11132164  0.88937300  0.33744006
   0.27790558  0.72235663  0.33703105
   0.61086953  0.38902396  0.33702615
   0.77766184  0.22245778  0.33739316
   0.61064972  0.88882175  0.33764864
   0.77709573  0.72207128  0.33740679
Direct configuration=    10
   0.00425329  0.00283868  0.11217637
   0.35909278  0.00244525  0.09952512
   0.00429121  0.35759579  0.09985945
   0.64971716  0.64753162  0.09975353
   0.32774960  0.32562584  0.10038033
   0.68122383  0.00266276  0.10061863
   0.00444638  0.67945482  0.10039413
   0.11085916  0.38920415  0.33737402
   0.27782466  0.22241998  0.33768705
   0.11128982  0.88931518  0.33744845
   0.27790738  0.72237578  0.33705601
   0.61086571  0.38898501  0.33705318
   0.77760846  0.22245489  0.33739701
   0.61064650  0.88886248  0.33764350
   0.77707359  0.72210622  0.33741256
Direct configuration=    11
   0.00430270  0.00278307  0.11052785
   0.35907868  0.00242175  0.09975902
   0.00439565  0.35745147  0.10010917
   0.64985057  0.64760027  0.09999809
   0.32801409  0.32587401  0.10061250
   0.68098034  0.00255897  0.10087344
   0.00446784  0.67918818  0.10063208
   0.11086213  0.38917280  0.33739382
   0.27784376  0.22274292  0.33766808
   0.11119438  0.88914173  0.33747362
   0.27791279  0.72243322  0.33713089
   0.61085425  0.38886816  0.33713425
   0.77744831  0.22244621  0.33740856
   0.61063686  0.88898465  0.33762809
   0.77700719  0.72221104  0.33742989
Direct configuration=    12
   0.00440151  0.00267185  0.10723079
   0.35905048  0.00237477  0.10022683
   0.00460453  0.35716283  0.10060862
   0.65011740  0.64773757  0.10048723
   0.32854309  0.32637035  0.10107684
   0.68049337  0.00235138  0.10138306
   0.00451077  0.67865492  0.10110798
   0.11086806  0.38911010  0.33743340
   0.27788196  0.22338878  0.33763014
   0.11100349  0.88879481  0.33752397
   0.27792360  0.72254811  0.33728065
   0.61083132  0.38863446  0.33729640
   0.77712801  0.22242886  0.33743165
   0.61061758  0.88922900  0.33759725
   0.77687439  0.72242066  0.33746455
Direct configuration=    13
   0.00444464  0.00262295  0.10627409
   0.35906732  0.00237077  0.10037310
   0.00465497  0.35714588  0.10074755
   0.65012942  0.64773850  0.10062813
   0.32857766  0.32638760  0.10121307
   0.68050763  0.00230921  0.10152072
   0.00453492  0.67857658  0.10124606
   0.11078411  0.38916188  0.33744384
   0.27761233  0.22288882  0.33761153
   0.11083526  0.88902382  0.33753503
   0.27764240  0.72249634  0.33733770
   0.61080732  0.38896635  0.33735321
   0.77730251  0.22242675  0.33744056
   0.61073607  0.88928945  0.33757897
   0.77721299  0.72247355  0.33747575
Direct configuration=    14
   0.00447659  0.00258673  0.10556544
   0.35907979  0.00236781  0.10048145
   0.00469234  0.35713333  0.10085046
   0.65013833  0.64773918  0.10073250
   0.32860327  0.32640037  0.10131398
   0.68051819  0.00227797  0.10162269
   0.00455280  0.67851855  0.10134835
   0.11072193  0.38920024  0.33745157
   0.27741260  0.22251848  0.33759775
   0.11071065  0.88919346  0.33754322
   0.27743410  0.72245799  0.33737997
   0.61078954  0.38921219  0.33739529
   0.77743177  0.22242518  0.33744716
   0.61082385  0.88933423  0.33756544
   0.77746380  0.72251273  0.33748405
Direct configuration=    15
   0.00447827  0.00258482  0.10552812
   0.35908045  0.00236765  0.10048716
   0.00469430  0.35713266  0.10085588
   0.65013879  0.64773922  0.10073799
   0.32860462  0.32640105  0.10131930
   0.68051875  0.00227633  0.10162806
   0.00455374  0.67851550  0.10135373
   0.11071865  0.38920226  0.33745198
   0.27740208  0.22249898  0.33759703
   0.11070409  0.88920239  0.33754365
   0.27742313  0.72245597  0.33738220
   0.61078861  0.38922513  0.33739751
   0.77743858  0.22242510  0.33744751
   0.61082847  0.88933659  0.33756472
   0.77747701  0.72251479  0.33748449
Direct configuration=    16
   0.00449472  0.00256275  0.10536810
   0.35917170  0.00237172  0.10054179
   0.00468413  0.35723212  0.10089150
   0.65002775  0.64764566  0.10077940
   0.32850371  0.32627855  0.10132460
   0.68066457  0.00229724  0.10161986
   0.00457154  0.67858597  0.10135812
   0.11073191  0.38919107  0.33745361
   0.27738636  0.22244442  0.33759309
   0.11075997  0.88925282  0.33754229
   0.27741671  0.72252887  0.33739785
   0.61075512  0.38922677  0.33740871
   0.77745620  0.22252296  0.33745290
   0.61077541  0.88920232  0.33755879
   0.77744977  0.72253520  0.33748871
Direct configuration=    17
   0.00452330  0.00252439  0.10509007
   0.35933023  0.00237878  0.10063670
   0.00466644  0.35740493  0.10095338
   0.64983483  0.64748311  0.10085133
   0.32832837  0.32606571  0.10133382
   0.68091793  0.00233358  0.10160562
   0.00460246  0.67870843  0.10136574
   0.11075494  0.38917163  0.33745644
   0.27735903  0.22234964  0.33758626
   0.11085705  0.88934042  0.33753993
   0.27740555  0.72265553  0.33742504
   0.61069693  0.38922962  0.33742819
   0.77748681  0.22269300  0.33746227
   0.61068323  0.88896902  0.33754849
   0.77740246  0.72257066  0.33749605
Direct configuration=    18
   0.00453957  0.00248408  0.10490443
   0.35952672  0.00238168  0.10072921
   0.00464320  0.35755349  0.10100666
   0.64963952  0.64731085  0.10091652
   0.32823428  0.32593397  0.10132310
   0.68106998  0.00237429  0.10156421
   0.00462791  0.67879224  0.10135286
   0.11076863  0.38921231  0.33746022
   0.27741162  0.22249284  0.33758308
   0.11081802  0.88928355  0.33753752
   0.27743886  0.72261354  0.33744355
   0.61069195  0.38920078  0.33744045
   0.77740549  0.22260782  0.33747146
   0.61067577  0.88909282  0.33754407
   0.77735804  0.72254419  0.33750198
Direct configuration=    19
   0.00455302  0.00245073  0.10475081
   0.35968932  0.00238408  0.10080576
   0.00462397  0.35767642  0.10105076
   0.64947791  0.64716829  0.10097047
   0.32815642  0.32582494  0.10131423
   0.68119580  0.00240797  0.10152995
   0.00464897  0.67886159  0.10134220
   0.11077996  0.38924598  0.33746334
   0.27745513  0.22261135  0.33758045
   0.11078571  0.88923649  0.33753553
   0.27746642  0.72257880  0.33745886
   0.61068784  0.38917691  0.33745060
   0.77733819  0.22253733  0.33747907
   0.61066961  0.88919527  0.33754041
   0.77732128  0.72252229  0.33750689
Direct configuration=    20
   0.00455226  0.00242639  0.10466901
   0.35976098  0.00238029  0.10085653
   0.00461963  0.35765638  0.10107504
   0.64945536  0.64713899  0.10100270
   0.32824033  0.32589295  0.10130613
   0.68111823  0.00241525  0.10149746
   0.00465279  0.67881517  0.10133249
   0.11070335  0.38923120  0.33746869
   0.27739999  0.22257036  0.33758236
   0.11074191  0.88925349  0.33753717
   0.27742985  0.72255061  0.33746036
   0.61072276  0.38921112  0.33745308
   0.77738209  0.22252985  0.33748354
   0.61072041  0.88926133  0.33754647
   0.77734962  0.72254507  0.33750830
Direct configuration=    21
   0.00455177  0.00241103  0.10461742
   0.35980618  0.00237790  0.10088856
   0.00461689  0.35764374  0.10109035
   0.64944114  0.64712051  0.10102303
   0.32829326  0.32593584  0.10130102
   0.68106931  0.00241984  0.10147698
   0.00465520  0.67878590  0.10132637
   0.11065503  0.38922188  0.33747207
   0.27736521  0.22254450  0.33758356
   0.11071428  0.88926422  0.33753820
   0.27740677  0.72253283  0.33746131
   0.61074479  0.38923269  0.33745464
   0.77740978  0.22252513  0.33748635
   0.61075245  0.88930300  0.33755029
   0.77736749  0.72255944  0.33750919
Direct configuration=    22
   0.00455886  0.00239157  0.10452784
   0.35978446  0.00237463  0.10093809
   0.00462291  0.35755544  0.10110968
   0.64950921  0.64716947  0.10105145
   0.32837762  0.32600519  0.10129875
   0.68099797  0.00241325  0.10144359
   0.00465697  0.67871937  0.10132211
   0.11067636  0.38921938  0.33747968
   0.27736097  0.22254497  0.33758896
   0.11073696  0.88927764  0.33754211
   0.27740044  0.72259086  0.33745830
   0.61071358  0.38922503  0.33745474
   0.77739643  0.22258581  0.33749152
   0.61070958  0.88922448  0.33756211
   0.77734724  0.72258137  0.33751040
Direct configuration=    23
   0.00456316  0.00237977  0.10447357
   0.35977130  0.00237265  0.10096810
   0.00462656  0.35750194  0.10112139
   0.64955045  0.64719914  0.10106868
   0.32842873  0.32604721  0.10129737
   0.68095474  0.00240925  0.10142337
   0.00465803  0.67867905  0.10131954
   0.11068928  0.38921787  0.33748430
   0.27735840  0.22254525  0.33759223
   0.11075070  0.88928577  0.33754448
   0.27739660  0.72262602  0.33745647
   0.61069467  0.38922038  0.33745480
   0.77738834  0.22262257  0.33749465
   0.61068361  0.88917690  0.33756927
   0.77733498  0.72259465  0.33751113
Direct configuration=    24
   0.00458728  0.00237033  0.10436449
   0.35967248  0.00237036  0.10101011
   0.00464351  0.35740878  0.10113344
   0.64966471  0.64728577  0.10108970
   0.32843381  0.32603304  0.10130732
   0.68098605  0.00238951  0.10139782
   0.00466539  0.67864261  0.10132721
   0.11072256  0.38927355  0.33749239
   0.27738372  0.22258343  0.33760127
   0.11073939  0.88929842  0.33754947
   0.27740140  0.72261570  0.33745335
   0.61065641  0.38923837  0.33745372
   0.77733394  0.22258630  0.33750177
   0.61064658  0.88921606  0.33758320
   0.77731231  0.72256620  0.33751408
Direct configuration=    25
   0.00459914  0.00236568  0.10431083
   0.35962387  0.00236923  0.10103078
   0.00465185  0.35736296  0.10113937
   0.64972091  0.64732838  0.10110004
   0.32843631  0.32602608  0.10131221
   0.68100145  0.00237980  0.10138525
   0.00466901  0.67862468  0.10133098
   0.11073894  0.38930094  0.33749637
   0.27739617  0.22260221  0.33760572
   0.11073382  0.88930465  0.33755193
   0.27740376  0.72261063  0.33745181
   0.61063760  0.38924722  0.33745319
   0.77730718  0.22256845  0.33750528
   0.61062836  0.88923533  0.33759004
   0.77730117  0.72255220  0.33751554
Direct configuration=    26
   0.00462768  0.00236226  0.10418946
   0.35958792  0.00235885  0.10105606
   0.00467576  0.35734274  0.10114348
   0.64977053  0.64734105  0.10111039
   0.32841577  0.32597892  0.10133436
   0.68106071  0.00235221  0.10137529
   0.00468451  0.67861401  0.10135116
   0.11065136  0.38927170  0.33750290
   0.27734193  0.22260876  0.33761653
   0.11069273  0.88930389  0.33755670
   0.27737173  0.72260989  0.33745330
   0.61066731  0.38925560  0.33745338
   0.77733660  0.22259102  0.33751413
   0.61066571  0.88928901  0.33760089
   0.77729929  0.72259852  0.33752132
Direct configuration=    27
   0.00464480  0.00236021  0.10411669
   0.35956637  0.00235262  0.10107121
   0.00469010  0.35733062  0.10114594
   0.64980027  0.64734865  0.10111660
   0.32840346  0.32595065  0.10134765
   0.68109624  0.00233567  0.10136931
   0.00469381  0.67860761  0.10136326
   0.11059886  0.38925417  0.33750681
   0.27730941  0.22261269  0.33762301
   0.11066809  0.88930344  0.33755956
   0.27735253  0.72260945  0.33745419
   0.61068513  0.38926063  0.33745350
   0.77735423  0.22260455  0.33751944
   0.61068810  0.88932120  0.33760740
   0.77729816  0.72262629  0.33752478
Direct configuration=    28
   0.00465997  0.00235485  0.10402268
   0.35960575  0.00233757  0.10108375
   0.00470824  0.35734841  0.10114864
   0.64978992  0.64730592  0.10112215
   0.32841487  0.32593771  0.10136584
   0.68110639  0.00231527  0.10136761
   0.00470801  0.67859921  0.10138035
   0.11058951  0.38926234  0.33751123
   0.27729502  0.22261677  0.33763044
   0.11066292  0.88931837  0.33756341
   0.27734111  0.72262967  0.33745813
   0.61067104  0.38927045  0.33745574
   0.77734364  0.22262795  0.33752598
   0.61066971  0.88931356  0.33761334
   0.77728345  0.72264041  0.33753003
Direct configuration=    29
   0.00470548  0.00233877  0.10374067
   0.35972390  0.00229240  0.10112136
   0.00476267  0.35740178  0.10115674
   0.64975887  0.64717775  0.10113881
   0.32844912  0.32589890  0.10142042
   0.68113686  0.00225406  0.10136250
   0.00475062  0.67857399  0.10143164
   0.11056147  0.38928688  0.33752448
   0.27725186  0.22262900  0.33765276
   0.11064738  0.88936317  0.33757496
   0.27730685  0.72269031  0.33746996
   0.61062879  0.38929991  0.33746249
   0.77731185  0.22269816  0.33754561
   0.61061452  0.88929064  0.33763117
   0.77723932  0.72268274  0.33754577
Direct configuration=    30
   0.00479650  0.00230660  0.10317665
   0.35996020  0.00220208  0.10119658
   0.00487152  0.35750851  0.10117293
   0.64969677  0.64692140  0.10117213
   0.32851760  0.32582127  0.10152957
   0.68119779  0.00213165  0.10135228
   0.00483584  0.67852355  0.10153421
   0.11050539  0.38933595  0.33755098
   0.27716553  0.22265345  0.33769738
   0.11061632  0.88945277  0.33759807
   0.27723833  0.72281160  0.33749360
   0.61054428  0.38935882  0.33747599
   0.77724828  0.22283858  0.33758488
   0.61050415  0.88924479  0.33766682
   0.77715105  0.72276742  0.33757725
Direct configuration=    31
   0.00476771  0.00231677  0.10335505
   0.35988546  0.00223065  0.10117279
   0.00483709  0.35747475  0.10116781
   0.64971641  0.64700248  0.10116159
   0.32849594  0.32584583  0.10149505
   0.68117852  0.00217037  0.10135551
   0.00480888  0.67853950  0.10150177
   0.11052313  0.38932043  0.33754260
   0.27719284  0.22264572  0.33768327
   0.11062615  0.88942443  0.33759076
   0.27726000  0.72277323  0.33748612
   0.61057101  0.38934019  0.33747172
   0.77726839  0.22279417  0.33757246
   0.61053906  0.88925929  0.33765554
   0.77717897  0.72274063  0.33756729
Direct configuration=    32
   0.00477972  0.00230323  0.10324665
   0.35993025  0.00221000  0.10118849
   0.00485430  0.35747787  0.10117821
   0.64971373  0.64696362  0.10117345
   0.32851995  0.32583619  0.10150846
   0.68118454  0.00215266  0.10135241
   0.00482663  0.67853091  0.10151439
   0.11053017  0.38935975  0.33754858
   0.27719715  0.22267231  0.33768931
   0.11060135  0.88943565  0.33759656
   0.27724742  0.72276540  0.33749230
   0.61054155  0.38936377  0.33747794
   0.77723225  0.22276869  0.33757848
   0.61052024  0.88930702  0.33766129
   0.77717033  0.72273138  0.33757282
Direct configuration=    33
   0.00480450  0.00227525  0.10302282
   0.36002272  0.00216736  0.10122090
   0.00488983  0.35748432  0.10119967
   0.64970818  0.64688339  0.10119792
   0.32856954  0.32581631  0.10153615
   0.68119697  0.00211609  0.10134601
   0.00486327  0.67851316  0.10154045
   0.11054469  0.38944095  0.33756093
   0.27720606  0.22272721  0.33770180
   0.11055014  0.88945881  0.33760855
   0.27722145  0.72274924  0.33750506
   0.61048071  0.38941246  0.33749079
   0.77715764  0.22271607  0.33759091
   0.61048138  0.88940556  0.33767315
   0.77715248  0.72271227  0.33758423
Direct configuration=    34
   0.00481106  0.00225664  0.10294339
   0.36003038  0.00215065  0.10123556
   0.00489777  0.35745459  0.10121953
   0.64973300  0.64688504  0.10121609
   0.32859089  0.32580504  0.10153293
   0.68121010  0.00211231  0.10134151
   0.00487873  0.67850520  0.10153737
   0.11052416  0.38944436  0.33756655
   0.27719408  0.22275383  0.33770278
   0.11053153  0.88945787  0.33761467
   0.27720846  0.72275562  0.33751184
   0.61047435  0.38941545  0.33750034
   0.77714608  0.22272215  0.33759320
   0.61047910  0.88943171  0.33767590
   0.77713987  0.72272798  0.33758767
Direct configuration=    35
   0.00483074  0.00220081  0.10270512
   0.36005334  0.00210051  0.10127954
   0.00492160  0.35736538  0.10127910
   0.64980745  0.64688998  0.10127060
   0.32865495  0.32577126  0.10152328
   0.68124952  0.00210097  0.10132801
   0.00492511  0.67848135  0.10152815
   0.11046254  0.38945460  0.33758342
   0.27715813  0.22283367  0.33770574
   0.11047572  0.88945505  0.33763301
   0.27716952  0.72277478  0.33753217
   0.61045527  0.38942442  0.33752897
   0.77711138  0.22274038  0.33760009
   0.61047227  0.88951016  0.33768414
   0.77710203  0.72277511  0.33759801
Direct configuration=    36
   0.00487009  0.00208915  0.10222857
   0.36009927  0.00200023  0.10136749
   0.00496925  0.35718698  0.10139823
   0.64995635  0.64689986  0.10137960
   0.32878307  0.32570369  0.10150397
   0.68132835  0.00207830  0.10130100
   0.00501788  0.67843363  0.10150971
   0.11033931  0.38947508  0.33761715
   0.27708623  0.22299337  0.33771166
   0.11036409  0.88944942  0.33766971
   0.27709162  0.72281309  0.33757283
   0.61041711  0.38944237  0.33758624
   0.77704200  0.22277685  0.33761386
   0.61045860  0.88966707  0.33770063
   0.77702635  0.72286936  0.33761868
Direct configuration=    37
   0.00488206  0.00207537  0.10215809
   0.36010188  0.00198816  0.10137992
   0.00497847  0.35716620  0.10141680
   0.64997552  0.64689868  0.10139623
   0.32879971  0.32569207  0.10149963
   0.68134285  0.00207414  0.10129859
   0.00503224  0.67841823  0.10150569
   0.11032877  0.38948695  0.33762158
   0.27707119  0.22298626  0.33771332
   0.11036127  0.88947187  0.33767470
   0.27708218  0.72282873  0.33757923
   0.61040534  0.38945740  0.33759398
   0.77703571  0.22279756  0.33761644
   0.61043982  0.88965910  0.33770272
   0.77701254  0.72287771  0.33762242
Direct configuration=    38
   0.00491798  0.00203404  0.10194665
   0.36010971  0.00195196  0.10141720
   0.00500614  0.35710386  0.10147249
   0.65003304  0.64689513  0.10144613
   0.32884964  0.32565722  0.10148662
   0.68138634  0.00206167  0.10129134
   0.00507533  0.67837204  0.10149362
   0.11029717  0.38952259  0.33763487
   0.27702609  0.22296494  0.33771829
   0.11035282  0.88953922  0.33768967
   0.27705387  0.72287565  0.33759842
   0.61037004  0.38950251  0.33761719
   0.77701682  0.22285968  0.33762418
   0.61038346  0.88963519  0.33770900
   0.77697110  0.72290274  0.33763364
Direct configuration=    39
   0.00498982  0.00195138  0.10152379
   0.36012538  0.00187956  0.10149177
   0.00506147  0.35697919  0.10158388
   0.65014808  0.64688804  0.10154592
   0.32894950  0.32558750  0.10146060
   0.68147333  0.00203672  0.10127686
   0.00516151  0.67827965  0.10146949
   0.11023396  0.38959385  0.33766146
   0.27693587  0.22292229  0.33772824
   0.11033593  0.88967394  0.33771962
   0.27699724  0.72296949  0.33763680
   0.61029944  0.38959273  0.33766360
   0.77697904  0.22298392  0.33763967
   0.61027074  0.88958738  0.33772156
   0.77688823  0.72295281  0.33765608
Direct configuration=    40
   0.00501657  0.00194978  0.10146565
   0.36013757  0.00187863  0.10149680
   0.00507976  0.35699151  0.10159519
   0.65014215  0.64686159  0.10155540
   0.32895358  0.32557631  0.10145874
   0.68148672  0.00202214  0.10128425
   0.00517209  0.67825126  0.10146835
   0.11025061  0.38961727  0.33766249
   0.27693493  0.22292960  0.33773480
   0.11032029  0.88968080  0.33772126
   0.27698212  0.72297976  0.33764171
   0.61027298  0.38961060  0.33766412
   0.77695363  0.22297760  0.33764511
   0.61025397  0.88959655  0.33772342
   0.77689257  0.72295505  0.33766202
Direct configuration=    41
   0.00509249  0.00194524  0.10130068
   0.36017218  0.00187600  0.10151110
   0.00513167  0.35702647  0.10162727
   0.65012533  0.64678653  0.10158228
   0.32896516  0.32554456  0.10145347
   0.68152470  0.00198078  0.10130523
   0.00520214  0.67817072  0.10146513
   0.11029786  0.38968371  0.33766542
   0.27693227  0.22295034  0.33775342
   0.11027589  0.88970028  0.33772592
   0.27693921  0.72300889  0.33765564
   0.61019788  0.38966131  0.33766561
   0.77688153  0.22295967  0.33766056
   0.61020637  0.88962255  0.33772870
   0.77690488  0.72296138  0.33767889
Direct configuration=    42
   0.00512526  0.00194049  0.10122720
   0.36021181  0.00187736  0.10151100
   0.00516211  0.35704809  0.10163523
   0.65011233  0.64674003  0.10158802
   0.32896170  0.32552949  0.10145408
   0.68154054  0.00194678  0.10132676
   0.00521055  0.67814918  0.10146713
   0.11026661  0.38967957  0.33766552
   0.27691426  0.22298124  0.33776626
   0.11025817  0.88969869  0.33772679
   0.27692527  0.72302046  0.33765924
   0.61019565  0.38965935  0.33766075
   0.77687436  0.22297756  0.33766984
   0.61020527  0.88964529  0.33773356
   0.77688568  0.72298485  0.33768794
Direct configuration=    43
   0.00519780  0.00192997  0.10106458
   0.36029952  0.00188038  0.10151078
   0.00522949  0.35709593  0.10165285
   0.65008357  0.64663713  0.10160074
   0.32895404  0.32549616  0.10145542
   0.68157559  0.00187152  0.10137442
   0.00522916  0.67810151  0.10147156
   0.11019743  0.38967042  0.33766574
   0.27687442  0.22304961  0.33779469
   0.11021895  0.88969516  0.33772870
   0.27689441  0.72304607  0.33766722
   0.61019070  0.38965502  0.33765001
   0.77685847  0.22301717  0.33769036
   0.61020283  0.88969560  0.33774432
   0.77684317  0.72303679  0.33770796
Direct configuration=    44
   0.00520203  0.00190166  0.10098929
   0.36035296  0.00186778  0.10150823
   0.00525416  0.35707306  0.10165630
   0.65010702  0.64661725  0.10160277
   0.32895826  0.32548217  0.10145626
   0.68159100  0.00183156  0.10140471
   0.00523589  0.67812104  0.10147424
   0.11016370  0.38969749  0.33767009
   0.27685216  0.22303126  0.33780554
   0.11021939  0.88974507  0.33773349
   0.27689127  0.72305020  0.33766521
   0.61018280  0.38968445  0.33764690
   0.77685659  0.22303854  0.33769697
   0.61017489  0.88970305  0.33775583
   0.77680742  0.72303388  0.33771350
Direct configuration=    45
   0.00520438  0.00188593  0.10094749
   0.36038263  0.00186079  0.10150681
   0.00526785  0.35706036  0.10165822
   0.65012004  0.64660621  0.10160390
   0.32896061  0.32547440  0.10145673
   0.68159956  0.00180936  0.10142154
   0.00523963  0.67813189  0.10147573
   0.11014498  0.38971252  0.33767251
   0.27683980  0.22302107  0.33781156
   0.11021964  0.88977278  0.33773615
   0.27688952  0.72305249  0.33766409
   0.61017842  0.38970078  0.33764517
   0.77685555  0.22305042  0.33770064
   0.61015937  0.88970718  0.33776223
   0.77678757  0.72303226  0.33771657
Direct configuration=    46
   0.00519640  0.00185954  0.10090755
   0.36039401  0.00184103  0.10150716
   0.00527423  0.35701990  0.10165842
   0.65016019  0.64661873  0.10160455
   0.32898159  0.32546965  0.10145407
   0.68160953  0.00179452  0.10144032
   0.00525154  0.67814257  0.10147431
   0.11016195  0.38972598  0.33767982
   0.27683578  0.22304033  0.33781269
   0.11020019  0.88976814  0.33774301
   0.27686927  0.72307575  0.33765935
   0.61015015  0.38971049  0.33764847
   0.77682713  0.22305502  0.33770081
   0.61014356  0.88970818  0.33777347
   0.77679404  0.72304861  0.33771533
Direct configuration=    47
   0.00519238  0.00184625  0.10088745
   0.36039973  0.00183109  0.10150734
   0.00527745  0.35699954  0.10165853
   0.65018039  0.64662504  0.10160487
   0.32899216  0.32546725  0.10145273
   0.68161455  0.00178705  0.10144978
   0.00525754  0.67814795  0.10147360
   0.11017049  0.38973275  0.33768349
   0.27683376  0.22305003  0.33781325
   0.11019040  0.88976580  0.33774647
   0.27685907  0.72308746  0.33765696
   0.61013592  0.38971538  0.33765013
   0.77681282  0.22305734  0.33770090
   0.61013560  0.88970868  0.33777914
   0.77679729  0.72305684  0.33771471
Direct configuration=    48
   0.00520305  0.00183940  0.10086730
   0.36038178  0.00181510  0.10151129
   0.00527952  0.35697893  0.10165910
   0.65020346  0.64663105  0.10160685
   0.32901826  0.32546152  0.10144682
   0.68162405  0.00179115  0.10145813
   0.00527790  0.67812136  0.10146847
   0.11015213  0.38973469  0.33768911
   0.27682145  0.22306470  0.33781134
   0.11017757  0.88976888  0.33775115
   0.27684746  0.72309134  0.33765538
   0.61013262  0.38972013  0.33765513
   0.77680746  0.22306436  0.33770054
   0.61013516  0.88972720  0.33778568
   0.77678769  0.72306864  0.33771304
Direct configuration=    49
   0.00521892  0.00182921  0.10083733
   0.36035508  0.00179132  0.10151718
   0.00528260  0.35694827  0.10165994
   0.65023776  0.64663999  0.10160978
   0.32905709  0.32545299  0.10143805
   0.68163817  0.00179726  0.10147054
   0.00530818  0.67808182  0.10146084
   0.11012482  0.38973757  0.33769747
   0.27680314  0.22308652  0.33780850
   0.11015848  0.88977345  0.33775812
   0.27683020  0.72309710  0.33765302
   0.61012772  0.38972719  0.33766258
   0.77679948  0.22307481  0.33770001
   0.61013451  0.88975474  0.33779541
   0.77677341  0.72308620  0.33771057
Direct configuration=    50
   0.00523861  0.00182582  0.10081655
   0.36035117  0.00177310  0.10152412
   0.00529100  0.35692932  0.10166135
   0.65025389  0.64663052  0.10161337
   0.32907936  0.32543305  0.10142875
   0.68165347  0.00180010  0.10147600
   0.00533330  0.67805760  0.10145223
   0.11011127  0.38975935  0.33770045
   0.27679218  0.22308030  0.33780891
   0.11015710  0.88980424  0.33775962
   0.27682805  0.72310780  0.33765717
   0.61011321  0.38974617  0.33766658