Lattice                                 
           1
     4.193295    2.421000    0.000000
    -4.193295    2.421000    0.000000
     0.000000    0.000000   15.000000
   B    C 
     4    11
Direct configuration=     1
   0.00415361  0.00267210  0.12034134
   0.35695335  0.00285503  0.09748893
   0.00423858  0.35550699  0.09749256
   0.65142295  0.65006557  0.09747688
   0.32808646  0.32671938  0.10030508
   0.68027775  0.00278085  0.10027562
   0.00416530  0.67883808  0.10026559
   0.11111044  0.38888856  0.33726667
   0.27777744  0.22222156  0.33726667
   0.11111044  0.88888856  0.33726667
   0.27777744  0.72222156  0.33726667
   0.61111044  0.38888856  0.33726667
   0.77777744  0.22222156  0.33726667
   0.61111044  0.88888856  0.33726667
   0.77777744  0.72222156  0.33726667
Direct configuration=     2
   0.00416821  0.00269716  0.11908325
   0.35575419  0.00279151  0.09781521
   0.00418879  0.35453681  0.09787155
   0.65251163  0.65104515  0.09784206
   0.32484048  0.32331163  0.10031221
   0.68379008  0.00279478  0.10032595
   0.00422525  0.68210481  0.10028085
   0.11103952  0.38899171  0.33727950
   0.27791625  0.22234697  0.33735302
   0.11129731  0.88901803  0.33729027
   0.27796832  0.72221844  0.33720505
   0.61107111  0.38883637  0.33720016
   0.77773612  0.22226699  0.33728892
   0.61092672  0.88884003  0.33734216
   0.77741558  0.72207806  0.33728917
Direct configuration=     3
   0.00416094  0.00268467  0.11971021
   0.35635178  0.00282316  0.09765261
   0.00421360  0.35502029  0.09768268
   0.65196910  0.65055699  0.09766008
   0.32645808  0.32500985  0.10030865
   0.68203974  0.00278784  0.10030087
   0.00419537  0.68047687  0.10027325
   0.11107487  0.38894031  0.33727310
   0.27784708  0.22228447  0.33730999
   0.11120419  0.88895351  0.33727851
   0.27787320  0.72221999  0.33723576
   0.61109071  0.38886237  0.33723330
   0.77775671  0.22224435  0.33727783
   0.61101828  0.88886421  0.33730454
   0.77759591  0.72214957  0.33727795
Direct configuration=     4
   0.00417089  0.00272164  0.11856955
   0.35685259  0.00275620  0.09796682
   0.00420905  0.35551964  0.09805090
   0.65153471  0.64998917  0.09801364
   0.32661629  0.32504223  0.10028262
   0.68197274  0.00278313  0.10031690
   0.00424014  0.68036717  0.10025528
   0.11109329  0.38887781  0.33728874
   0.27767617  0.22224804  0.33738413
   0.11097602  0.88885797  0.33730582
   0.27765738  0.72226500  0.33718950
   0.61109017  0.38892450  0.33718569
   0.77773699  0.22222550  0.33729841
   0.61115221  0.88897365  0.33737084
   0.77787092  0.72232679  0.33730049
