   2   2   1  16
  0.3953030E+02  0.2467000E-09  0.2467000E-09  0.1500000E-08  0.5000000E-15
  1.000000000000000E-004
  CAR 
 PDoS                                    
     43.78706184    -24.87832804 4000     -2.25358843      1.00000000
    -24.878  0.0000E+00  0.0000E+00
    -24.861  0.0000E+00  0.0000E+00
    -24.844  0.0000E+00  0.0000E+00
    -24.827  0.0000E+00  0.0000E+00
    -24.810  0.0000E+00  0.0000E+00
    -24.792  0.0000E+00  0.0000E+00
    -24.775  0.0000E+00  0.0000E+00
    -24.758  0.0000E+00  0.0000E+00
    -24.741  0.0000E+00  0.0000E+00
    -24.724  0.0000E+00  0.0000E+00
    -24.707  0.0000E+00  0.0000E+00
    -24.689  0.0000E+00  0.0000E+00
    -24.672  0.0000E+00  0.0000E+00
    -24.655  0.0000E+00  0.0000E+00
    -24.638  0.0000E+00  0.0000E+00
    -24.621  0.0000E+00  0.0000E+00
    -24.604  0.0000E+00  0.0000E+00
    -24.586  0.0000E+00  0.0000E+00
    -24.569  0.0000E+00  0.0000E+00
    -24.552  0.0000E+00  0.0000E+00
    -24.535  0.0000E+00  0.0000E+00
    -24.518  0.0000E+00  0.0000E+00
    -24.501  0.0000E+00  0.0000E+00
    -24.483  0.0000E+00  0.0000E+00
    -24.466  0.0000E+00  0.0000E+00
    -24.449  0.0000E+00  0.0000E+00
    -24.432  0.0000E+00  0.0000E+00
    -24.415  0.0000E+00  0.0000E+00
    -24.398  0.0000E+00  0.0000E+00
    -24.380  0.0000E+00  0.0000E+00
    -24.363  0.0000E+00  0.0000E+00
    -24.346  0.0000E+00  0.0000E+00
    -24.329  0.0000E+00  0.0000E+00
    -24.312  0.0000E+00  0.0000E+00
    -24.295  0.0000E+00  0.0000E+00
    -24.277  0.0000E+00  0.0000E+00
    -24.260  0.0000E+00  0.0000E+00
    -24.243  0.0000E+00  0.0000E+00
    -24.226  0.0000E+00  0.0000E+00
    -24.209  0.0000E+00  0.0000E+00
    -24.192  0.0000E+00  0.0000E+00
    -24.174  0.0000E+00  0.0000E+00
    -24.157  0.0000E+00  0.0000E+00
    -24.140  0.0000E+00  0.0000E+00
    -24.123  0.0000E+00  0.0000E+00
    -24.106  0.0000E+00  0.0000E+00
    -24.088  0.0000E+00  0.0000E+00
    -24.071  0.0000E+00  0.0000E+00
    -24.054  0.0000E+00  0.0000E+00
    -24.037  0.0000E+00  0.0000E+00
    -24.020  0.0000E+00  0.0000E+00
    -24.003  0.0000E+00  0.0000E+00
    -23.985  0.0000E+00  0.0000E+00
    -23.968  0.0000E+00  0.0000E+00
    -23.951  0.0000E+00  0.0000E+00
    -23.934  0.0000E+00  0.0000E+00
    -23.917  0.0000E+00  0.0000E+00
    -23.900  0.0000E+00  0.0000E+00
    -23.882  0.0000E+00  0.0000E+00
    -23.865  0.0000E+00  0.0000E+00
    -23.848  0.0000E+00  0.0000E+00
    -23.831  0.0000E+00  0.0000E+00
    -23.814  0.0000E+00  0.0000E+00
    -23.797  0.0000E+00  0.0000E+00
    -23.779  0.0000E+00  0.0000E+00
    -23.762  0.0000E+00  0.0000E+00
    -23.745  0.0000E+00  0.0000E+00
    -23.728  0.0000E+00  0.0000E+00
    -23.711  0.0000E+00  0.0000E+00
    -23.694  0.0000E+00  0.0000E+00
    -23.676  0.0000E+00  0.0000E+00
    -23.659  0.0000E+00  0.0000E+00
    -23.642  0.0000E+00  0.0000E+00
    -23.625  0.0000E+00  0.0000E+00
    -23.608  0.0000E+00  0.0000E+00
    -23.591  0.0000E+00  0.0000E+00
    -23.573  0.0000E+00  0.0000E+00
    -23.556  0.0000E+00  0.0000E+00
    -23.539  0.0000E+00  0.0000E+00
    -23.522  0.0000E+00  0.0000E+00
    -23.505  0.0000E+00  0.0000E+00
    -23.488  0.0000E+00  0.0000E+00
    -23.470  0.0000E+00  0.0000E+00
    -23.453  0.0000E+00  0.0000E+00
    -23.436  0.0000E+00  0.0000E+00
    -23.419  0.0000E+00  0.0000E+00
    -23.402  0.0000E+00  0.0000E+00
    -23.384  0.0000E+00  0.0000E+00
    -23.367  0.0000E+00  0.0000E+00
    -23.350  0.0000E+00  0.0000E+00
    -23.333  0.0000E+00  0.0000E+00
    -23.316  0.0000E+00  0.0000E+00
    -23.299  0.0000E+00  0.0000E+00
    -23.281  0.0000E+00  0.0000E+00
    -23.264  0.0000E+00  0.0000E+00
    -23.247  0.0000E+00  0.0000E+00
    -23.230  0.0000E+00  0.0000E+00
    -23.213  0.0000E+00  0.0000E+00
    -23.196  0.0000E+00  0.0000E+00
    -23.178  0.0000E+00  0.0000E+00
    -23.161  0.0000E+00  0.0000E+00
    -23.144  0.0000E+00  0.0000E+00
    -23.127  0.0000E+00  0.0000E+00
    -23.110  0.0000E+00  0.0000E+00
    -23.093  0.0000E+00  0.0000E+00
    -23.075  0.0000E+00  0.0000E+00
    -23.058  0.0000E+00  0.0000E+00
    -23.041  0.0000E+00  0.0000E+00
    -23.024  0.0000E+00  0.0000E+00
    -23.007  0.0000E+00  0.0000E+00
    -22.990  0.0000E+00  0.0000E+00
    -22.972  0.0000E+00  0.0000E+00
    -22.955  0.0000E+00  0.0000E+00
    -22.938  0.0000E+00  0.0000E+00
    -22.921  0.0000E+00  0.0000E+00
    -22.904  0.0000E+00  0.0000E+00
    -22.887  0.0000E+00  0.0000E+00
    -22.869  0.0000E+00  0.0000E+00
    -22.852  0.0000E+00  0.0000E+00
    -22.835  0.0000E+00  0.0000E+00
    -22.818  0.0000E+00  0.0000E+00
    -22.801  0.0000E+00  0.0000E+00
    -22.784  0.0000E+00  0.0000E+00
    -22.766  0.0000E+00  0.0000E+00
    -22.749  0.0000E+00  0.0000E+00
    -22.732  0.0000E+00  0.0000E+00
    -22.715  0.0000E+00  0.0000E+00
    -22.698  0.0000E+00  0.0000E+00
    -22.680  0.0000E+00  0.0000E+00
    -22.663  0.0000E+00  0.0000E+00
    -22.646  0.0000E+00  0.0000E+00
    -22.629  0.0000E+00  0.0000E+00
    -22.612  0.0000E+00  0.0000E+00
    -22.595  0.0000E+00  0.0000E+00
    -22.577  0.0000E+00  0.0000E+00
    -22.560  0.0000E+00  0.0000E+00
    -22.543  0.0000E+00  0.0000E+00
    -22.526  0.0000E+00  0.0000E+00
    -22.509  0.0000E+00  0.0000E+00
    -22.492  0.0000E+00  0.0000E+00
    -22.474  0.0000E+00  0.0000E+00
    -22.457  0.0000E+00  0.0000E+00
    -22.440  0.0000E+00  0.0000E+00
    -22.423  0.0000E+00  0.0000E+00
    -22.406  0.0000E+00  0.0000E+00
    -22.389  0.0000E+00  0.0000E+00
    -22.371  0.0000E+00  0.0000E+00
    -22.354  0.0000E+00  0.0000E+00
    -22.337  0.1224E-16  0.2102E-18
    -22.320  0.1132E-15  0.2155E-17
    -22.303  0.8218E-15  0.1627E-16
    -22.286  0.5473E-14  0.1102E-15
    -22.268  0.3442E-13  0.7012E-15
    -22.251  0.2039E-12  0.4203E-14
    -22.234  0.1141E-11  0.2380E-13
    -22.217  0.6030E-11  0.1273E-12
    -22.200  0.3008E-10  0.6438E-12
    -22.183  0.1417E-09  0.3076E-11
    -22.165  0.6300E-09  0.1389E-10
    -22.148  0.2646E-08  0.5932E-10
    -22.131  0.1049E-07  0.2395E-09
    -22.114  0.3932E-07  0.9146E-09
    -22.097  0.1392E-06  0.3304E-08
    -22.080  0.4654E-06  0.1130E-07
    -22.062  0.1471E-05  0.3655E-07
    -22.045  0.4394E-05  0.1120E-06
    -22.028  0.1241E-04  0.3251E-06
    -22.011  0.3314E-04  0.8941E-06
    -21.994  0.8373E-04  0.2332E-05
    -21.976  0.2001E-03  0.5768E-05
    -21.959  0.4528E-03  0.1354E-04
    -21.942  0.9703E-03  0.3020E-04
    -21.925  0.1970E-02  0.6403E-04
    -21.908  0.3791E-02  0.1291E-03
    -21.891  0.6920E-02  0.2479E-03
    -21.873  0.1199E-01  0.4539E-03
    -21.856  0.1975E-01  0.7930E-03
    -21.839  0.3094E-01  0.1324E-02
    -21.822  0.4617E-01  0.2117E-02
    -21.805  0.6571E-01  0.3245E-02
    -21.788  0.8937E-01  0.4780E-02
    -21.770  0.1164E+00  0.6778E-02
    -21.753  0.1455E+00  0.9276E-02
    -21.736  0.1751E+00  0.1228E-01
    -21.719  0.2034E+00  0.1578E-01
    -21.702  0.2291E+00  0.1971E-01
    -21.685  0.2509E+00  0.2402E-01
    -21.667  0.2686E+00  0.2863E-01
    -21.650  0.2819E+00  0.3347E-01
    -21.633  0.2915E+00  0.3848E-01
    -21.616  0.2980E+00  0.4359E-01
    -21.599  0.3022E+00  0.4878E-01
    -21.582  0.3047E+00  0.5401E-01
    -21.564  0.3062E+00  0.5927E-01
    -21.547  0.3070E+00  0.6454E-01
    -21.530  0.3074E+00  0.6982E-01
    -21.513  0.3076E+00  0.7510E-01
    -21.496  0.3078E+00  0.8039E-01
    -21.479  0.3079E+00  0.8567E-01
    -21.461  0.3079E+00  0.9096E-01
    -21.444  0.3080E+00  0.9625E-01
    -21.427  0.3081E+00  0.1015E+00
    -21.410  0.3081E+00  0.1068E+00
    -21.393  0.3082E+00  0.1121E+00
    -21.376  0.3082E+00  0.1174E+00
    -21.358  0.3083E+00  0.1227E+00
    -21.341  0.3084E+00  0.1280E+00
    -21.324  0.3084E+00  0.1333E+00
    -21.307  0.3085E+00  0.1386E+00
    -21.290  0.3085E+00  0.1439E+00
    -21.272  0.3086E+00  0.1492E+00
    -21.255  0.3087E+00  0.1545E+00
    -21.238  0.3087E+00  0.1598E+00
    -21.221  0.3088E+00  0.1651E+00
    -21.204  0.3088E+00  0.1704E+00
    -21.187  0.3089E+00  0.1757E+00
    -21.169  0.3090E+00  0.1810E+00
    -21.152  0.3091E+00  0.1863E+00
    -21.135  0.3091E+00  0.1916E+00
    -21.118  0.3091E+00  0.1969E+00
    -21.101  0.3092E+00  0.2022E+00
    -21.084  0.3093E+00  0.2075E+00
    -21.066  0.3094E+00  0.2129E+00
    -21.049  0.3095E+00  0.2182E+00
    -21.032  0.3095E+00  0.2235E+00
    -21.015  0.3095E+00  0.2288E+00
    -20.998  0.3095E+00  0.2341E+00
    -20.981  0.3096E+00  0.2394E+00
    -20.963  0.3097E+00  0.2448E+00
    -20.946  0.3099E+00  0.2501E+00
    -20.929  0.3100E+00  0.2554E+00
    -20.912  0.3100E+00  0.2607E+00
    -20.895  0.3100E+00  0.2660E+00
    -20.878  0.3099E+00  0.2714E+00
    -20.860  0.3100E+00  0.2767E+00
    -20.843  0.3102E+00  0.2820E+00
    -20.826  0.3105E+00  0.2873E+00
    -20.809  0.3107E+00  0.2927E+00
    -20.792  0.3107E+00  0.2980E+00
    -20.775  0.3105E+00  0.3033E+00
    -20.757  0.3103E+00  0.3087E+00
    -20.740  0.3102E+00  0.3140E+00
    -20.723  0.3104E+00  0.3193E+00
    -20.706  0.3108E+00  0.3247E+00
    -20.689  0.3113E+00  0.3300E+00
    -20.672  0.3115E+00  0.3354E+00
    -20.654  0.3114E+00  0.3407E+00
    -20.637  0.3110E+00  0.3460E+00
    -20.620  0.3105E+00  0.3514E+00
    -20.603  0.3104E+00  0.3567E+00
    -20.586  0.3107E+00  0.3620E+00
    -20.568  0.3114E+00  0.3674E+00
    -20.551  0.3122E+00  0.3727E+00
    -20.534  0.3125E+00  0.3781E+00
    -20.517  0.3124E+00  0.3835E+00
    -20.500  0.3117E+00  0.3888E+00
    -20.483  0.3109E+00  0.3942E+00
    -20.465  0.3105E+00  0.3995E+00
    -20.448  0.3107E+00  0.4048E+00
    -20.431  0.3116E+00  0.4102E+00
    -20.414  0.3127E+00  0.4156E+00
    -20.397  0.3136E+00  0.4209E+00
    -20.380  0.3138E+00  0.4263E+00
    -20.362  0.3132E+00  0.4317E+00
    -20.345  0.3120E+00  0.4371E+00
    -20.328  0.3109E+00  0.4424E+00
    -20.311  0.3104E+00  0.4477E+00
    -20.294  0.3109E+00  0.4531E+00
    -20.277  0.3122E+00  0.4584E+00
    -20.259  0.3138E+00  0.4638E+00
    -20.242  0.3151E+00  0.4692E+00
    -20.225  0.3153E+00  0.4746E+00
    -20.208  0.3144E+00  0.4800E+00
    -20.191  0.3128E+00  0.4854E+00
    -20.174  0.3111E+00  0.4908E+00
    -20.156  0.3102E+00  0.4961E+00
    -20.139  0.3106E+00  0.5014E+00
    -20.122  0.3121E+00  0.5068E+00
    -20.105  0.3143E+00  0.5122E+00
    -20.088  0.3162E+00  0.5176E+00
    -20.071  0.3171E+00  0.5230E+00
    -20.053  0.3166E+00  0.5285E+00
    -20.036  0.3148E+00  0.5339E+00
    -20.019  0.3125E+00  0.5393E+00
    -20.002  0.3106E+00  0.5446E+00
    -19.985  0.3099E+00  0.5499E+00
    -19.968  0.3108E+00  0.5552E+00
    -19.950  0.3131E+00  0.5606E+00
    -19.933  0.3160E+00  0.5660E+00
    -19.916  0.3183E+00  0.5715E+00
    -19.899  0.3192E+00  0.5770E+00
    -19.882  0.3184E+00  0.5825E+00
    -19.865  0.3160E+00  0.5879E+00
    -19.847  0.3130E+00  0.5933E+00
    -19.830  0.3105E+00  0.5986E+00
    -19.813  0.3095E+00  0.6039E+00
    -19.796  0.3104E+00  0.6092E+00
    -19.779  0.3130E+00  0.6146E+00
    -19.761  0.3165E+00  0.6200E+00
    -19.744  0.3197E+00  0.6255E+00
    -19.727  0.3214E+00  0.6311E+00
    -19.710  0.3210E+00  0.6366E+00
    -19.693  0.3187E+00  0.6420E+00
    -19.676  0.3152E+00  0.6474E+00
    -19.658  0.3117E+00  0.6528E+00
    -19.641  0.3094E+00  0.6581E+00
    -19.624  0.3092E+00  0.6634E+00
    -19.607  0.3113E+00  0.6688E+00
    -19.590  0.3150E+00  0.6742E+00
    -19.573  0.3192E+00  0.6797E+00
    -19.555  0.3226E+00  0.6852E+00
    -19.538  0.3241E+00  0.6908E+00
    -19.521  0.3231E+00  0.6963E+00
    -19.504  0.3199E+00  0.7018E+00
    -19.487  0.3156E+00  0.7072E+00
    -19.470  0.3115E+00  0.7126E+00
    -19.452  0.3090E+00  0.7179E+00
    -19.435  0.3088E+00  0.7232E+00
    -19.418  0.3112E+00  0.7285E+00
    -19.401  0.3155E+00  0.7339E+00
    -19.384  0.3204E+00  0.7394E+00
    -19.367  0.3246E+00  0.7450E+00
    -19.349  0.3267E+00  0.7506E+00
    -19.332  0.3261E+00  0.7562E+00
    -19.315  0.3230E+00  0.7618E+00
    -19.298  0.3182E+00  0.7672E+00
    -19.281  0.3132E+00  0.7726E+00
    -19.264  0.3094E+00  0.7779E+00
    -19.246  0.3081E+00  0.7832E+00
    -19.229  0.3097E+00  0.7885E+00
    -19.212  0.3138E+00  0.7939E+00
    -19.195  0.3193E+00  0.7994E+00
    -19.178  0.3247E+00  0.8050E+00
    -19.161  0.3285E+00  0.8106E+00
    -19.143  0.3297E+00  0.8163E+00
    -19.126  0.3279E+00  0.8219E+00
    -19.109  0.3236E+00  0.8275E+00
    -19.092  0.3180E+00  0.8329E+00
    -19.075  0.3126E+00  0.8383E+00
    -19.057  0.3089E+00  0.8436E+00
    -19.040  0.3079E+00  0.8489E+00
    -19.023  0.3100E+00  0.8542E+00
    -19.006  0.3149E+00  0.8596E+00
    -18.989  0.3212E+00  0.8651E+00
    -18.972  0.3273E+00  0.8707E+00
    -18.954  0.3316E+00  0.8764E+00
    -18.937  0.3330E+00  0.8822E+00
    -18.920  0.3310E+00  0.8878E+00
    -18.903  0.3263E+00  0.8934E+00
    -18.886  0.3201E+00  0.8989E+00
    -18.869  0.3140E+00  0.9043E+00
    -18.851  0.3095E+00  0.9097E+00
    -18.834  0.3078E+00  0.9149E+00
    -18.817  0.3094E+00  0.9202E+00
    -18.800  0.3139E+00  0.9256E+00
    -18.783  0.3204E+00  0.9311E+00
    -18.766  0.3273E+00  0.9368E+00
    -18.748  0.3331E+00  0.9425E+00
    -18.731  0.3362E+00  0.9482E+00
    -18.714  0.3358E+00  0.9540E+00
    -18.697  0.3320E+00  0.9597E+00
    -18.680  0.3257E+00  0.9653E+00
    -18.663  0.3186E+00  0.9708E+00
    -18.645  0.3123E+00  0.9761E+00
    -18.628  0.3084E+00  0.9814E+00
    -18.611  0.3080E+00  0.9867E+00
    -18.594  0.3111E+00  0.9921E+00
    -18.577  0.3170E+00  0.9975E+00
    -18.560  0.3244E+00  0.1003E+01
    -18.542  0.3316E+00  0.1009E+01
    -18.525  0.3371E+00  0.1015E+01
    -18.508  0.3397E+00  0.1020E+01
    -18.491  0.3387E+00  0.1026E+01
    -18.474  0.3345E+00  0.1032E+01
    -18.457  0.3278E+00  0.1038E+01
    -18.439  0.3201E+00  0.1043E+01
    -18.422  0.3133E+00  0.1048E+01
    -18.405  0.3089E+00  0.1054E+01
    -18.388  0.3081E+00  0.1059E+01
    -18.371  0.3112E+00  0.1064E+01
    -18.353  0.3175E+00  0.1070E+01
    -18.336  0.3257E+00  0.1075E+01
    -18.319  0.3339E+00  0.1081E+01
    -18.302  0.3403E+00  0.1087E+01
    -18.285  0.3435E+00  0.1093E+01
    -18.268  0.3430E+00  0.1099E+01
    -18.250  0.3390E+00  0.1105E+01
    -18.233  0.3324E+00  0.1110E+01
    -18.216  0.3246E+00  0.1116E+01
    -18.199  0.3172E+00  0.1121E+01
    -18.182  0.3117E+00  0.1127E+01
    -18.165  0.3093E+00  0.1132E+01
    -18.147  0.3105E+00  0.1137E+01
    -18.130  0.3155E+00  0.1143E+01
    -18.113  0.3233E+00  0.1148E+01
    -18.096  0.3324E+00  0.1154E+01
    -18.079  0.3408E+00  0.1160E+01
    -18.062  0.3467E+00  0.1166E+01
    -18.044  0.3488E+00  0.1172E+01
    -18.027  0.3466E+00  0.1178E+01
    -18.010  0.3409E+00  0.1184E+01
    -17.993  0.3328E+00  0.1189E+01
    -17.976  0.3243E+00  0.1195E+01
    -17.959  0.3169E+00  0.1200E+01
    -17.941  0.3122E+00  0.1206E+01
    -17.924  0.3111E+00  0.1211E+01
    -17.907  0.3137E+00  0.1216E+01
    -17.890  0.3196E+00  0.1222E+01
    -17.873  0.3279E+00  0.1228E+01
    -17.856  0.3370E+00  0.1233E+01
    -17.838  0.3454E+00  0.1239E+01
    -17.821  0.3514E+00  0.1245E+01
    -17.804  0.3537E+00  0.1251E+01
    -17.787  0.3518E+00  0.1257E+01
    -17.770  0.3460E+00  0.1263E+01
    -17.753  0.3376E+00  0.1269E+01
    -17.735  0.3282E+00  0.1275E+01
    -17.718  0.3199E+00  0.1280E+01
    -17.701  0.3145E+00  0.1286E+01
    -17.684  0.3129E+00  0.1291E+01
    -17.667  0.3156E+00  0.1296E+01
    -17.649  0.3220E+00  0.1302E+01
    -17.632  0.3309E+00  0.1308E+01
    -17.615  0.3406E+00  0.1314E+01
    -17.598  0.3495E+00  0.1320E+01
    -17.581  0.3560E+00  0.1326E+01
    -17.564  0.3591E+00  0.1332E+01
    -17.546  0.3583E+00  0.1338E+01
    -17.529  0.3537E+00  0.1344E+01
    -17.512  0.3462E+00  0.1350E+01
    -17.495  0.3371E+00  0.1356E+01
    -17.478  0.3281E+00  0.1361E+01
    -17.461  0.3209E+00  0.1367E+01
    -17.443  0.3171E+00  0.1372E+01
    -17.426  0.3177E+00  0.1378E+01
    -17.409  0.3227E+00  0.1383E+01
    -17.392  0.3313E+00  0.1389E+01
    -17.375  0.3419E+00  0.1395E+01
    -17.358  0.3526E+00  0.1401E+01
    -17.340  0.3614E+00  0.1407E+01
    -17.323  0.3666E+00  0.1413E+01
    -17.306  0.3677E+00  0.1420E+01
    -17.289  0.3647E+00  0.1426E+01
    -17.272  0.3584E+00  0.1432E+01
    -17.255  0.3500E+00  0.1438E+01
    -17.237  0.3410E+00  0.1444E+01
    -17.220  0.3328E+00  0.1450E+01
    -17.203  0.3270E+00  0.1455E+01
    -17.186  0.3247E+00  0.1461E+01
    -17.169  0.3266E+00  0.1467E+01
    -17.152  0.3327E+00  0.1472E+01
    -17.134  0.3424E+00  0.1478E+01
    -17.117  0.3539E+00  0.1484E+01
    -17.100  0.3654E+00  0.1491E+01
    -17.083  0.3747E+00  0.1497E+01
    -17.066  0.3802E+00  0.1503E+01
    -17.049  0.3811E+00  0.1510E+01
    -17.031  0.3777E+00  0.1517E+01
    -17.014  0.3707E+00  0.1523E+01
    -16.997  0.3619E+00  0.1529E+01
    -16.980  0.3529E+00  0.1535E+01
    -16.963  0.3454E+00  0.1541E+01
    -16.945  0.3406E+00  0.1547E+01
    -16.928  0.3396E+00  0.1553E+01
    -16.911  0.3428E+00  0.1559E+01
    -16.894  0.3503E+00  0.1565E+01
    -16.877  0.3611E+00  0.1571E+01
    -16.860  0.3740E+00  0.1577E+01
    -16.842  0.3869E+00  0.1584E+01
    -16.825  0.3980E+00  0.1591E+01
    -16.808  0.4055E+00  0.1598E+01
    -16.791  0.4087E+00  0.1605E+01
    -16.774  0.4074E+00  0.1612E+01
    -16.757  0.4028E+00  0.1619E+01
    -16.739  0.3963E+00  0.1625E+01
    -16.722  0.3898E+00  0.1632E+01
    -16.705  0.3853E+00  0.1639E+01
    -16.688  0.3843E+00  0.1645E+01
    -16.671  0.3882E+00  0.1652E+01
    -16.654  0.3976E+00  0.1659E+01
    -16.636  0.4123E+00  0.1666E+01
    -16.619  0.4314E+00  0.1673E+01
    -16.602  0.4529E+00  0.1681E+01
    -16.585  0.4743E+00  0.1689E+01
    -16.568  0.4924E+00  0.1698E+01
    -16.551  0.5048E+00  0.1706E+01
    -16.533  0.5092E+00  0.1715E+01
    -16.516  0.5048E+00  0.1724E+01
    -16.499  0.4919E+00  0.1732E+01
    -16.482  0.4722E+00  0.1740E+01
    -16.465  0.4479E+00  0.1748E+01
    -16.448  0.4219E+00  0.1755E+01
    -16.430  0.3971E+00  0.1762E+01
    -16.413  0.3758E+00  0.1769E+01
    -16.396  0.3596E+00  0.1775E+01
    -16.379  0.3491E+00  0.1781E+01
    -16.362  0.3438E+00  0.1787E+01
    -16.345  0.3423E+00  0.1793E+01
    -16.327  0.3427E+00  0.1798E+01
    -16.310  0.3426E+00  0.1804E+01
    -16.293  0.3404E+00  0.1810E+01
    -16.276  0.3347E+00  0.1816E+01
    -16.259  0.3250E+00  0.1821E+01
    -16.241  0.3114E+00  0.1827E+01
    -16.224  0.2945E+00  0.1832E+01
    -16.207  0.2754E+00  0.1837E+01
    -16.190  0.2556E+00  0.1841E+01
    -16.173  0.2372E+00  0.1845E+01
    -16.156  0.2223E+00  0.1849E+01
    -16.138  0.2130E+00  0.1853E+01
    -16.121  0.2109E+00  0.1856E+01
    -16.104  0.2160E+00  0.1860E+01
    -16.087  0.2269E+00  0.1864E+01
    -16.070  0.2406E+00  0.1868E+01
    -16.053  0.2532E+00  0.1872E+01
    -16.035  0.2606E+00  0.1877E+01
    -16.018  0.2599E+00  0.1881E+01
    -16.001  0.2499E+00  0.1885E+01
    -15.984  0.2318E+00  0.1889E+01
    -15.967  0.2085E+00  0.1893E+01
    -15.950  0.1842E+00  0.1896E+01
    -15.932  0.1631E+00  0.1899E+01
    -15.915  0.1487E+00  0.1902E+01
    -15.898  0.1431E+00  0.1904E+01
    -15.881  0.1462E+00  0.1907E+01
    -15.864  0.1565E+00  0.1909E+01
    -15.847  0.1710E+00  0.1912E+01
    -15.829  0.1856E+00  0.1915E+01
    -15.812  0.1968E+00  0.1919E+01
    -15.795  0.2016E+00  0.1922E+01
    -15.778  0.1985E+00  0.1926E+01
    -15.761  0.1879E+00  0.1929E+01
    -15.744  0.1717E+00  0.1932E+01
    -15.726  0.1529E+00  0.1934E+01
    -15.709  0.1349E+00  0.1937E+01
    -15.692  0.1204E+00  0.1939E+01
    -15.675  0.1115E+00  0.1941E+01
    -15.658  0.1091E+00  0.1943E+01
    -15.641  0.1126E+00  0.1944E+01
    -15.623  0.1210E+00  0.1947E+01
    -15.606  0.1322E+00  0.1949E+01
    -15.589  0.1444E+00  0.1951E+01
    -15.572  0.1561E+00  0.1954E+01
    -15.555  0.1661E+00  0.1957E+01
    -15.537  0.1744E+00  0.1960E+01
    -15.520  0.1816E+00  0.1963E+01
    -15.503  0.1887E+00  0.1966E+01
    -15.486  0.1970E+00  0.1970E+01
    -15.469  0.2077E+00  0.1973E+01
    -15.452  0.2212E+00  0.1977E+01
    -15.434  0.2375E+00  0.1981E+01
    -15.417  0.2557E+00  0.1985E+01
    -15.400  0.2747E+00  0.1990E+01
    -15.383  0.2929E+00  0.1995E+01
    -15.366  0.3089E+00  0.2000E+01
    -15.349  0.3218E+00  0.2006E+01
    -15.331  0.3307E+00  0.2012E+01
    -15.314  0.3356E+00  0.2017E+01
    -15.297  0.3369E+00  0.2023E+01
    -15.280  0.3353E+00  0.2029E+01
    -15.263  0.3318E+00  0.2035E+01
    -15.246  0.3275E+00  0.2040E+01
    -15.228  0.3234E+00  0.2046E+01
    -15.211  0.3204E+00  0.2051E+01
    -15.194  0.3193E+00  0.2057E+01
    -15.177  0.3203E+00  0.2062E+01
    -15.160  0.3232E+00  0.2068E+01
    -15.143  0.3273E+00  0.2073E+01
    -15.125  0.3314E+00  0.2079E+01
    -15.108  0.3344E+00  0.2085E+01
    -15.091  0.3354E+00  0.2091E+01
    -15.074  0.3344E+00  0.2096E+01
    -15.057  0.3318E+00  0.2102E+01
    -15.040  0.3289E+00  0.2108E+01
    -15.022  0.3269E+00  0.2113E+01
    -15.005  0.3265E+00  0.2119E+01
    -14.988  0.3277E+00  0.2125E+01
    -14.971  0.3298E+00  0.2130E+01
    -14.954  0.3317E+00  0.2136E+01
    -14.937  0.3328E+00  0.2142E+01
    -14.919  0.3328E+00  0.2147E+01
    -14.902  0.3325E+00  0.2153E+01
    -14.885  0.3328E+00  0.2159E+01
    -14.868  0.3349E+00  0.2165E+01
    -14.851  0.3393E+00  0.2170E+01
    -14.834  0.3457E+00  0.2176E+01
    -14.816  0.3532E+00  0.2182E+01
    -14.799  0.3610E+00  0.2189E+01
    -14.782  0.3685E+00  0.2195E+01
    -14.765  0.3758E+00  0.2201E+01
    -14.748  0.3836E+00  0.2208E+01
    -14.730  0.3932E+00  0.2215E+01
    -14.713  0.4054E+00  0.2222E+01
    -14.696  0.4203E+00  0.2229E+01
    -14.679  0.4371E+00  0.2236E+01
    -14.662  0.4540E+00  0.2244E+01
    -14.645  0.4688E+00  0.2252E+01
    -14.627  0.4795E+00  0.2260E+01
    -14.610  0.4851E+00  0.2269E+01
    -14.593  0.4856E+00  0.2277E+01
    -14.576  0.4820E+00  0.2285E+01
    -14.559  0.4757E+00  0.2294E+01
    -14.542  0.4684E+00  0.2302E+01
    -14.524  0.4612E+00  0.2310E+01
    -14.507  0.4545E+00  0.2317E+01
    -14.490  0.4482E+00  0.2325E+01
    -14.473  0.4415E+00  0.2333E+01
    -14.456  0.4340E+00  0.2340E+01
    -14.439  0.4255E+00  0.2347E+01
    -14.421  0.4164E+00  0.2355E+01
    -14.404  0.4075E+00  0.2362E+01
    -14.387  0.3999E+00  0.2368E+01
    -14.370  0.3944E+00  0.2375E+01
    -14.353  0.3912E+00  0.2382E+01
    -14.336  0.3898E+00  0.2389E+01
    -14.318  0.3892E+00  0.2395E+01
    -14.301  0.3883E+00  0.2402E+01
    -14.284  0.3862E+00  0.2409E+01
    -14.267  0.3826E+00  0.2415E+01
    -14.250  0.3775E+00  0.2422E+01
    -14.233  0.3719E+00  0.2428E+01
    -14.215  0.3667E+00  0.2434E+01
    -14.198  0.3628E+00  0.2441E+01
    -14.181  0.3607E+00  0.2447E+01
    -14.164  0.3605E+00  0.2453E+01
    -14.147  0.3615E+00  0.2459E+01
    -14.130  0.3626E+00  0.2465E+01
    -14.112  0.3625E+00  0.2472E+01
    -14.095  0.3606E+00  0.2478E+01
    -14.078  0.3568E+00  0.2484E+01
    -14.061  0.3515E+00  0.2490E+01
    -14.044  0.3462E+00  0.2496E+01
    -14.026  0.3419E+00  0.2502E+01
    -14.009  0.3395E+00  0.2508E+01
    -13.992  0.3393E+00  0.2513E+01
    -13.975  0.3407E+00  0.2519E+01
    -13.958  0.3427E+00  0.2525E+01
    -13.941  0.3440E+00  0.2531E+01
    -13.923  0.3438E+00  0.2537E+01
    -13.906  0.3417E+00  0.2543E+01
    -13.889  0.3376E+00  0.2549E+01
    -13.872  0.3325E+00  0.2554E+01
    -13.855  0.3274E+00  0.2560E+01
    -13.838  0.3234E+00  0.2565E+01
    -13.820  0.3214E+00  0.2571E+01
    -13.803  0.3217E+00  0.2577E+01
    -13.786  0.3238E+00  0.2582E+01
    -13.769  0.3267E+00  0.2588E+01
    -13.752  0.3290E+00  0.2593E+01
    -13.735  0.3294E+00  0.2599E+01
    -13.717  0.3273E+00  0.2605E+01
    -13.700  0.3230E+00  0.2610E+01
    -13.683  0.3172E+00  0.2616E+01
    -13.666  0.3114E+00  0.2621E+01
    -13.649  0.3071E+00  0.2626E+01
    -13.632  0.3053E+00  0.2631E+01
    -13.614  0.3062E+00  0.2637E+01
    -13.597  0.3092E+00  0.2642E+01
    -13.580  0.3129E+00  0.2647E+01
    -13.563  0.3158E+00  0.2653E+01
    -13.546  0.3166E+00  0.2658E+01
    -13.529  0.3147E+00  0.2664E+01
    -13.511  0.3103E+00  0.2669E+01
    -13.494  0.3045E+00  0.2674E+01
    -13.477  0.2988E+00  0.2679E+01
    -13.460  0.2943E+00  0.2684E+01
    -13.443  0.2921E+00  0.2689E+01
    -13.426  0.2923E+00  0.2694E+01
    -13.408  0.2946E+00  0.2700E+01
    -13.391  0.2981E+00  0.2705E+01
    -13.374  0.3015E+00  0.2710E+01
    -13.357  0.3037E+00  0.2715E+01
    -13.340  0.3037E+00  0.2720E+01
    -13.322  0.3010E+00  0.2725E+01
    -13.305  0.2962E+00  0.2731E+01
    -13.288  0.2900E+00  0.2735E+01
    -13.271  0.2840E+00  0.2740E+01
    -13.254  0.2797E+00  0.2745E+01
    -13.237  0.2782E+00  0.2750E+01
    -13.219  0.2796E+00  0.2755E+01
    -13.202  0.2834E+00  0.2760E+01
    -13.185  0.2881E+00  0.2765E+01
    -13.168  0.2919E+00  0.2770E+01
    -13.151  0.2934E+00  0.2775E+01
    -13.134  0.2919E+00  0.2780E+01
    -13.116  0.2875E+00  0.2785E+01
    -13.099  0.2815E+00  0.2789E+01
    -13.082  0.2753E+00  0.2794E+01
    -13.065  0.2706E+00  0.2799E+01
    -13.048  0.2684E+00  0.2803E+01
    -13.031  0.2689E+00  0.2808E+01
    -13.013  0.2715E+00  0.2813E+01
    -12.996  0.2750E+00  0.2817E+01
    -12.979  0.2781E+00  0.2822E+01
    -12.962  0.2799E+00  0.2827E+01
    -12.945  0.2800E+00  0.2832E+01
    -12.928  0.2786E+00  0.2837E+01
    -12.910  0.2766E+00  0.2841E+01
    -12.893  0.2749E+00  0.2846E+01
    -12.876  0.2745E+00  0.2851E+01
    -12.859  0.2762E+00  0.2855E+01
    -12.842  0.2802E+00  0.2860E+01
    -12.825  0.2867E+00  0.2865E+01
    -12.807  0.2953E+00  0.2870E+01
    -12.790  0.3052E+00  0.2876E+01
    -12.773  0.3158E+00  0.2881E+01
    -12.756  0.3258E+00  0.2887E+01
    -12.739  0.3346E+00  0.2892E+01
    -12.722  0.3414E+00  0.2898E+01
    -12.704  0.3459E+00  0.2904E+01
    -12.687  0.3484E+00  0.2910E+01
    -12.670  0.3495E+00  0.2916E+01
    -12.653  0.3502E+00  0.2922E+01
    -12.636  0.3513E+00  0.2928E+01
    -12.618  0.3535E+00  0.2934E+01
    -12.601  0.3565E+00  0.2940E+01
    -12.584  0.3597E+00  0.2946E+01
    -12.567  0.3621E+00  0.2953E+01
    -12.550  0.3626E+00  0.2959E+01
    -12.533  0.3609E+00  0.2965E+01
    -12.515  0.3574E+00  0.2971E+01
    -12.498  0.3535E+00  0.2977E+01
    -12.481  0.3508E+00  0.2983E+01
    -12.464  0.3508E+00  0.2989E+01
    -12.447  0.3540E+00  0.2995E+01
    -12.430  0.3600E+00  0.3002E+01
    -12.412  0.3671E+00  0.3008E+01
    -12.395  0.3731E+00  0.3014E+01
    -12.378  0.3759E+00  0.3021E+01
    -12.361  0.3743E+00  0.3027E+01
    -12.344  0.3687E+00  0.3034E+01
    -12.327  0.3605E+00  0.3040E+01
    -12.309  0.3524E+00  0.3046E+01
    -12.292  0.3466E+00  0.3052E+01
    -12.275  0.3451E+00  0.3058E+01
    -12.258  0.3484E+00  0.3064E+01
    -12.241  0.3555E+00  0.3070E+01
    -12.224  0.3646E+00  0.3076E+01
    -12.206  0.3732E+00  0.3082E+01
    -12.189  0.3793E+00  0.3089E+01
    -12.172  0.3817E+00  0.3095E+01
    -12.155  0.3802E+00  0.3102E+01
    -12.138  0.3758E+00  0.3108E+01
    -12.121  0.3700E+00  0.3115E+01
    -12.103  0.3645E+00  0.3121E+01
    -12.086  0.3603E+00  0.3127E+01
    -12.069  0.3581E+00  0.3133E+01
    -12.052  0.3577E+00  0.3140E+01
    -12.035  0.3587E+00  0.3146E+01
    -12.018  0.3605E+00  0.3152E+01
    -12.000  0.3627E+00  0.3158E+01
    -11.983  0.3653E+00  0.3164E+01
    -11.966  0.3682E+00  0.3171E+01
    -11.949  0.3715E+00  0.3177E+01
    -11.932  0.3750E+00  0.3184E+01
    -11.914  0.3784E+00  0.3190E+01
    -11.897  0.3811E+00  0.3197E+01
    -11.880  0.3824E+00  0.3203E+01
    -11.863  0.3820E+00  0.3210E+01
    -11.846  0.3798E+00  0.3216E+01
    -11.829  0.3763E+00  0.3223E+01
    -11.811  0.3721E+00  0.3229E+01
    -11.794  0.3682E+00  0.3235E+01
    -11.777  0.3653E+00  0.3242E+01
    -11.760  0.3639E+00  0.3248E+01
    -11.743  0.3639E+00  0.3254E+01
    -11.726  0.3652E+00  0.3260E+01
    -11.708  0.3674E+00  0.3267E+01
    -11.691  0.3702E+00  0.3273E+01
    -11.674  0.3736E+00  0.3280E+01
    -11.657  0.3775E+00  0.3286E+01
    -11.640  0.3821E+00  0.3293E+01
    -11.623  0.3869E+00  0.3299E+01
    -11.605  0.3914E+00  0.3306E+01
    -11.588  0.3948E+00  0.3313E+01
    -11.571  0.3960E+00  0.3320E+01
    -11.554  0.3943E+00  0.3326E+01
    -11.537  0.3896E+00  0.3333E+01
    -11.520  0.3823E+00  0.3340E+01
    -11.502  0.3738E+00  0.3346E+01
    -11.485  0.3656E+00  0.3352E+01
    -11.468  0.3597E+00  0.3358E+01
    -11.451  0.3577E+00  0.3365E+01
    -11.434  0.3604E+00  0.3371E+01
    -11.417  0.3677E+00  0.3377E+01
    -11.399  0.3785E+00  0.3384E+01
    -11.382  0.3906E+00  0.3390E+01
    -11.365  0.4014E+00  0.3397E+01
    -11.348  0.4087E+00  0.3404E+01
    -11.331  0.4110E+00  0.3411E+01
    -11.314  0.4081E+00  0.3418E+01
    -11.296  0.4014E+00  0.3425E+01
    -11.279  0.3930E+00  0.3432E+01
    -11.262  0.3854E+00  0.3438E+01
    -11.245  0.3804E+00  0.3445E+01
    -11.228  0.3786E+00  0.3452E+01
    -11.210  0.3796E+00  0.3458E+01
    -11.193  0.3820E+00  0.3465E+01
    -11.176  0.3840E+00  0.3471E+01
    -11.159  0.3847E+00  0.3478E+01
    -11.142  0.3838E+00  0.3484E+01
    -11.125  0.3824E+00  0.3491E+01
    -11.107  0.3819E+00  0.3498E+01
    -11.090  0.3840E+00  0.3504E+01
    -11.073  0.3897E+00  0.3511E+01
    -11.056  0.3986E+00  0.3518E+01
    -11.039  0.4093E+00  0.3525E+01
    -11.022  0.4196E+00  0.3532E+01
    -11.004  0.4269E+00  0.3539E+01
    -10.987  0.4288E+00  0.3547E+01
    -10.970  0.4243E+00  0.3554E+01
    -10.953  0.4136E+00  0.3561E+01
    -10.936  0.3985E+00  0.3568E+01
    -10.919  0.3821E+00  0.3574E+01
    -10.901  0.3681E+00  0.3581E+01
    -10.884  0.3600E+00  0.3587E+01
    -10.867  0.3602E+00  0.3593E+01
    -10.850  0.3693E+00  0.3599E+01
    -10.833  0.3858E+00  0.3606E+01
    -10.816  0.4062E+00  0.3613E+01
    -10.798  0.4261E+00  0.3620E+01
    -10.781  0.4412E+00  0.3628E+01
    -10.764  0.4482E+00  0.3636E+01
    -10.747  0.4461E+00  0.3643E+01
    -10.730  0.4362E+00  0.3651E+01
    -10.713  0.4215E+00  0.3658E+01