Automatically generated mesh
     441
Reciprocal lattice
    0.00000000000000    0.00000000000000    0.00000000000000             1
    0.02439024390244    0.00000000000000    0.00000000000000             4
   -0.02439024390244    0.02439024390244    0.00000000000000             2
    0.04878048780488    0.00000000000000    0.00000000000000             4
   -0.04878048780488    0.04878048780488    0.00000000000000             2
    0.07317073170731    0.00000000000000    0.00000000000000             4
   -0.07317073170731    0.07317073170731    0.00000000000000             2
    0.09756097560975    0.00000000000000    0.00000000000000             4
   -0.09756097560975    0.09756097560975    0.00000000000000             2
    0.12195121951220   -0.00000000000000    0.00000000000000             4
   -0.12195121951220    0.12195121951220    0.00000000000000             2
    0.14634146341464   -0.00000000000000    0.00000000000000             4
   -0.14634146341464    0.14634146341464    0.00000000000000             2
    0.17073170731707   -0.00000000000000    0.00000000000000             4
   -0.17073170731707    0.17073170731707    0.00000000000000             2
    0.19512195121951    0.00000000000000    0.00000000000000             4
   -0.19512195121951    0.19512195121951    0.00000000000000             2
    0.21951219512195    0.00000000000000    0.00000000000000             4
   -0.21951219512195    0.21951219512195    0.00000000000000             2
    0.24390243902439    0.00000000000000    0.00000000000000             4
   -0.24390243902439    0.24390243902439    0.00000000000000             2
    0.26829268292683    0.00000000000000    0.00000000000000             4
   -0.26829268292683    0.26829268292683    0.00000000000000             2
    0.29268292682927    0.00000000000000    0.00000000000000             4
   -0.29268292682926    0.29268292682926    0.00000000000000             2
    0.31707317073171   -0.00000000000000    0.00000000000000             4
   -0.31707317073171    0.31707317073171    0.00000000000000             2
    0.34146341463415   -0.00000000000000    0.00000000000000             4
   -0.34146341463415    0.34146341463415    0.00000000000000             2
    0.36585365853659    0.00000000000000    0.00000000000000             4
   -0.36585365853659    0.36585365853659    0.00000000000000             2
    0.39024390243902    0.00000000000000    0.00000000000000             4
   -0.39024390243902    0.39024390243902    0.00000000000000             2
    0.41463414634146    0.00000000000000    0.00000000000000             4
   -0.41463414634146    0.41463414634146    0.00000000000000             2
    0.43902439024390    0.00000000000000    0.00000000000000             4
   -0.43902439024390    0.43902439024390    0.00000000000000             2
    0.46341463414634    0.00000000000000    0.00000000000000             4
   -0.46341463414634    0.46341463414634    0.00000000000000             2
    0.48780487804878    0.00000000000000    0.00000000000000             4
   -0.48780487804878    0.48780487804878    0.00000000000000             2
    0.02439024390244    0.02439024390244    0.00000000000000             2
   -0.02439024390244    0.04878048780488    0.00000000000000             4
    0.04878048780488    0.02439024390244    0.00000000000000             4
   -0.02439024390244    0.07317073170731    0.00000000000000             4
   -0.07317073170731    0.04878048780488    0.00000000000000             4
    0.07317073170731    0.02439024390244    0.00000000000000             4
   -0.02439024390244    0.09756097560975    0.00000000000000             4
   -0.09756097560975    0.07317073170731    0.00000000000000             4
    0.09756097560975    0.02439024390244    0.00000000000000             4
   -0.02439024390244    0.12195121951219    0.00000000000000             4
   -0.12195121951219    0.09756097560975    0.00000000000000             4
    0.12195121951220    0.02439024390244    0.00000000000000             4
   -0.02439024390244    0.14634146341464    0.00000000000000             4
   -0.14634146341464    0.12195121951220    0.00000000000000             4
    0.14634146341464    0.02439024390244    0.00000000000000             4
   -0.02439024390244    0.17073170731707    0.00000000000000             4
   -0.17073170731707    0.14634146341464    0.00000000000000             4
    0.17073170731707    0.02439024390244    0.00000000000000             4
   -0.02439024390244    0.19512195121951    0.00000000000000             4
   -0.19512195121951    0.17073170731707    0.00000000000000             4
    0.19512195121951    0.02439024390244    0.00000000000000             4
   -0.02439024390244    0.21951219512195    0.00000000000000             4
   -0.21951219512195    0.19512195121951    0.00000000000000             4
    0.21951219512195    0.02439024390244    0.00000000000000             4
   -0.02439024390244    0.24390243902439    0.00000000000000             4
   -0.24390243902439    0.21951219512195    0.00000000000000             4
    0.24390243902439    0.02439024390244    0.00000000000000             4
   -0.02439024390244    0.26829268292683    0.00000000000000             4
   -0.26829268292683    0.24390243902439    0.00000000000000             4
    0.26829268292683    0.02439024390244    0.00000000000000             4
   -0.02439024390244    0.29268292682926    0.00000000000000             4
   -0.29268292682926    0.26829268292683    0.00000000000000             4
    0.29268292682926    0.02439024390244    0.00000000000000             4
   -0.02439024390244    0.31707317073170    0.00000000000000             4
   -0.31707317073170    0.29268292682926    0.00000000000000             4
    0.31707317073171    0.02439024390244    0.00000000000000             4
   -0.02439024390244    0.34146341463415    0.00000000000000             4
   -0.34146341463415    0.31707317073171    0.00000000000000             4
    0.34146341463415    0.02439024390244    0.00000000000000             4
   -0.02439024390244    0.36585365853659    0.00000000000000             4
   -0.36585365853659    0.34146341463415    0.00000000000000             4
    0.36585365853659    0.02439024390244    0.00000000000000             4
   -0.02439024390244    0.39024390243902    0.00000000000000             4
   -0.39024390243902    0.36585365853659    0.00000000000000             4
    0.39024390243902    0.02439024390244    0.00000000000000             4
   -0.02439024390244    0.41463414634146    0.00000000000000             4
   -0.41463414634146    0.39024390243902    0.00000000000000             4
    0.41463414634146    0.02439024390244    0.00000000000000             4
   -0.02439024390244    0.43902439024390    0.00000000000000             4
   -0.43902439024390    0.41463414634146    0.00000000000000             4
    0.43902439024390    0.02439024390244    0.00000000000000             4
   -0.02439024390244    0.46341463414634    0.00000000000000             4
   -0.46341463414634    0.43902439024390    0.00000000000000             4
    0.46341463414634    0.02439024390244    0.00000000000000             4
   -0.02439024390244    0.48780487804878    0.00000000000000             4
   -0.48780487804878    0.46341463414634    0.00000000000000             4
    0.48780487804878    0.02439024390244    0.00000000000000             4
    0.48780487804878    0.48780487804878    0.00000000000000             2
    0.04878048780488    0.04878048780488    0.00000000000000             2
   -0.04878048780488    0.09756097560975    0.00000000000000             4
    0.07317073170731    0.04878048780488    0.00000000000000             4
   -0.04878048780488    0.12195121951219    0.00000000000000             4
   -0.12195121951219    0.07317073170731    0.00000000000000             4
    0.09756097560975    0.04878048780488    0.00000000000000             4
   -0.04878048780488    0.14634146341463    0.00000000000000             4
   -0.14634146341463    0.09756097560975    0.00000000000000             4
    0.12195121951220    0.04878048780488    0.00000000000000             4
   -0.04878048780488    0.17073170731707    0.00000000000000             4
   -0.17073170731707    0.12195121951220    0.00000000000000             4
    0.14634146341464    0.04878048780488    0.00000000000000             4
   -0.04878048780488    0.19512195121951    0.00000000000000             4
   -0.19512195121951    0.14634146341464    0.00000000000000             4
    0.17073170731707    0.04878048780488    0.00000000000000             4
   -0.04878048780488    0.21951219512195    0.00000000000000             4
   -0.21951219512195    0.17073170731707    0.00000000000000             4
    0.19512195121951    0.04878048780488    0.00000000000000             4
   -0.04878048780488    0.24390243902439    0.00000000000000             4
   -0.24390243902439    0.19512195121951    0.00000000000000             4
    0.21951219512195    0.04878048780488    0.00000000000000             4
   -0.04878048780488    0.26829268292683    0.00000000000000             4
   -0.26829268292683    0.21951219512195    0.00000000000000             4
    0.24390243902439    0.04878048780488    0.00000000000000             4
   -0.04878048780488    0.29268292682926    0.00000000000000             4
   -0.29268292682926    0.24390243902439    0.00000000000000             4
    0.26829268292683    0.04878048780488    0.00000000000000             4
   -0.04878048780488    0.31707317073170    0.00000000000000             4
   -0.31707317073170    0.26829268292683    0.00000000000000             4
    0.29268292682926    0.04878048780488    0.00000000000000             4
   -0.04878048780488    0.34146341463414    0.00000000000000             4
   -0.34146341463414    0.29268292682926    0.00000000000000             4
    0.31707317073171    0.04878048780488    0.00000000000000             4
   -0.04878048780488    0.36585365853659    0.00000000000000             4
   -0.36585365853659    0.31707317073171    0.00000000000000             4
    0.34146341463415    0.04878048780488    0.00000000000000             4
   -0.04878048780488    0.39024390243902    0.00000000000000             4
   -0.39024390243902    0.34146341463415    0.00000000000000             4
    0.36585365853659    0.04878048780488    0.00000000000000             4
   -0.04878048780488    0.41463414634146    0.00000000000000             4
   -0.41463414634146    0.36585365853659    0.00000000000000             4
    0.39024390243902    0.04878048780488    0.00000000000000             4
   -0.04878048780488    0.43902439024390    0.00000000000000             4
   -0.43902439024390    0.39024390243902    0.00000000000000             4
    0.41463414634146    0.04878048780488    0.00000000000000             4
   -0.04878048780488    0.46341463414634    0.00000000000000             4
   -0.46341463414634    0.41463414634146    0.00000000000000             4
    0.43902439024390    0.04878048780488    0.00000000000000             4
   -0.04878048780488    0.48780487804878    0.00000000000000             4
   -0.48780487804878    0.43902439024390    0.00000000000000             4
    0.46341463414634    0.04878048780488    0.00000000000000             4
   -0.04878048780488   -0.48780487804878    0.00000000000000             4
    0.48780487804878    0.46341463414634    0.00000000000000             4
    0.07317073170731    0.07317073170731    0.00000000000000             2
   -0.07317073170731    0.14634146341463    0.00000000000000             4
    0.09756097560975    0.07317073170731    0.00000000000000             4
   -0.07317073170731    0.17073170731707    0.00000000000000             4
   -0.17073170731707    0.09756097560975    0.00000000000000             4
    0.12195121951220    0.07317073170731    0.00000000000000             4
   -0.07317073170731    0.19512195121951    0.00000000000000             4
   -0.19512195121951    0.12195121951220    0.00000000000000             4
    0.14634146341464    0.07317073170731    0.00000000000000             4
   -0.07317073170731    0.21951219512195    0.00000000000000             4
   -0.21951219512195    0.14634146341464    0.00000000000000             4
    0.17073170731707    0.07317073170731    0.00000000000000             4
   -0.07317073170731    0.24390243902439    0.00000000000000             4
   -0.24390243902439    0.17073170731707    0.00000000000000             4
    0.19512195121951    0.07317073170731    0.00000000000000             4
   -0.07317073170731    0.26829268292683    0.00000000000000             4
   -0.26829268292683    0.19512195121951    0.00000000000000             4
    0.21951219512195    0.07317073170731    0.00000000000000             4
   -0.07317073170731    0.29268292682926    0.00000000000000             4
   -0.29268292682926    0.21951219512195    0.00000000000000             4
    0.24390243902439    0.07317073170731    0.00000000000000             4
   -0.07317073170731    0.31707317073170    0.00000000000000             4
   -0.31707317073170    0.24390243902439    0.00000000000000             4
    0.26829268292683    0.07317073170731    0.00000000000000             4
   -0.07317073170731    0.34146341463414    0.00000000000000             4
   -0.34146341463414    0.26829268292683    0.00000000000000             4
    0.29268292682926    0.07317073170731    0.00000000000000             4
   -0.07317073170731    0.36585365853658    0.00000000000000             4
   -0.36585365853658    0.29268292682926    0.00000000000000             4
    0.31707317073171    0.07317073170731    0.00000000000000             4
   -0.07317073170731    0.39024390243902    0.00000000000000             4
   -0.39024390243902    0.31707317073171    0.00000000000000             4
    0.34146341463415    0.07317073170731    0.00000000000000             4
   -0.07317073170731    0.41463414634146    0.00000000000000             4
   -0.41463414634146    0.34146341463415    0.00000000000000             4
    0.36585365853659    0.07317073170731    0.00000000000000             4
   -0.07317073170731    0.43902439024390    0.00000000000000             4
   -0.43902439024390    0.36585365853659    0.00000000000000             4
    0.39024390243902    0.07317073170731    0.00000000000000             4
   -0.07317073170731    0.46341463414634    0.00000000000000             4
   -0.46341463414634    0.39024390243902    0.00000000000000             4
    0.41463414634146    0.07317073170731    0.00000000000000             4
   -0.07317073170731    0.48780487804878    0.00000000000000             4
   -0.48780487804878    0.41463414634146    0.00000000000000             4
    0.43902439024390    0.07317073170731    0.00000000000000             4
   -0.07317073170731   -0.48780487804878    0.00000000000000             4
    0.48780487804878    0.43902439024390    0.00000000000000             4
    0.46341463414634    0.07317073170731    0.00000000000000             4
    0.46341463414635    0.46341463414634    0.00000000000000             2
    0.09756097560975    0.09756097560975    0.00000000000000             2
   -0.09756097560975    0.19512195121951    0.00000000000000             4
    0.12195121951220    0.09756097560975    0.00000000000000             4
   -0.09756097560975    0.21951219512195    0.00000000000000             4
   -0.21951219512195    0.12195121951220    0.00000000000000             4
    0.14634146341464    0.09756097560975    0.00000000000000             4
   -0.09756097560975    0.24390243902439    0.00000000000000             4
   -0.24390243902439    0.14634146341464    0.00000000000000             4
    0.17073170731707    0.09756097560975    0.00000000000000             4
   -0.09756097560975    0.26829268292683    0.00000000000000             4
   -0.26829268292683    0.17073170731707    0.00000000000000             4
    0.19512195121951    0.09756097560975    0.00000000000000             4
   -0.09756097560975    0.29268292682926    0.00000000000000             4
   -0.29268292682926    0.19512195121951    0.00000000000000             4
    0.21951219512195    0.09756097560975    0.00000000000000             4
   -0.09756097560975    0.31707317073170    0.00000000000000             4
   -0.31707317073170    0.21951219512195    0.00000000000000             4
    0.24390243902439    0.09756097560975    0.00000000000000             4
   -0.09756097560975    0.34146341463414    0.00000000000000             4
   -0.34146341463414    0.24390243902439    0.00000000000000             4
    0.26829268292683    0.09756097560975    0.00000000000000             4
   -0.09756097560975    0.36585365853658    0.00000000000000             4
   -0.36585365853658    0.26829268292683    0.00000000000000             4
    0.29268292682926    0.09756097560975    0.00000000000000             4
   -0.09756097560975    0.39024390243902    0.00000000000000             4
   -0.39024390243902    0.29268292682926    0.00000000000000             4
    0.31707317073171    0.09756097560975    0.00000000000000             4
   -0.09756097560975    0.41463414634146    0.00000000000000             4
   -0.41463414634146    0.31707317073171    0.00000000000000             4
    0.34146341463415    0.09756097560975    0.00000000000000             4
   -0.09756097560975    0.43902439024390    0.00000000000000             4
   -0.43902439024390    0.34146341463415    0.00000000000000             4
    0.36585365853659    0.09756097560975    0.00000000000000             4
   -0.09756097560975    0.46341463414634    0.00000000000000             4
   -0.46341463414634    0.36585365853659    0.00000000000000             4
    0.39024390243902    0.09756097560975    0.00000000000000             4
   -0.09756097560975    0.48780487804878    0.00000000000000             4
   -0.48780487804878    0.39024390243902    0.00000000000000             4
    0.41463414634146    0.09756097560975    0.00000000000000             4
   -0.09756097560975   -0.48780487804878    0.00000000000000             4
    0.48780487804878    0.41463414634146    0.00000000000000             4
    0.43902439024390    0.09756097560975    0.00000000000000             4
   -0.09756097560975   -0.46341463414635    0.00000000000000             4
    0.46341463414635    0.43902439024390    0.00000000000000             4
    0.12195121951220    0.12195121951220    0.00000000000000             2
   -0.12195121951220    0.24390243902440    0.00000000000000             4
    0.14634146341464    0.12195121951220    0.00000000000000             4
   -0.12195121951220    0.26829268292683    0.00000000000000             4
   -0.26829268292683    0.14634146341464    0.00000000000000             4
    0.17073170731707    0.12195121951220    0.00000000000000             4
   -0.12195121951220    0.29268292682927    0.00000000000000             4
   -0.29268292682927    0.17073170731707    0.00000000000000             4
    0.19512195121951    0.12195121951220    0.00000000000000             4
   -0.12195121951220    0.31707317073171    0.00000000000000             4
   -0.31707317073171    0.19512195121951    0.00000000000000             4
    0.21951219512195    0.12195121951220    0.00000000000000             4
   -0.12195121951220    0.34146341463415    0.00000000000000             4
   -0.34146341463415    0.21951219512195    0.00000000000000             4
    0.24390243902439    0.12195121951220    0.00000000000000             4
   -0.12195121951220    0.36585365853659    0.00000000000000             4
   -0.36585365853659    0.24390243902439    0.00000000000000             4
    0.26829268292683    0.12195121951220    0.00000000000000             4
   -0.12195121951220    0.39024390243902    0.00000000000000             4
   -0.39024390243902    0.26829268292683    0.00000000000000             4
    0.29268292682926    0.12195121951220    0.00000000000000             4
   -0.12195121951220    0.41463414634146    0.00000000000000             4
   -0.41463414634146    0.29268292682927    0.00000000000000             4
    0.31707317073171    0.12195121951220    0.00000000000000             4
   -0.12195121951220    0.43902439024391    0.00000000000000             4
   -0.43902439024391    0.31707317073171    0.00000000000000             4
    0.34146341463415    0.12195121951220    0.00000000000000             4
   -0.12195121951220    0.46341463414635    0.00000000000000             4
   -0.46341463414635    0.34146341463415    0.00000000000000             4
    0.36585365853659    0.12195121951220    0.00000000000000             4
   -0.12195121951220    0.48780487804878    0.00000000000000             4
   -0.48780487804878    0.36585365853659    0.00000000000000             4
    0.39024390243902    0.12195121951220    0.00000000000000             4
   -0.12195121951220   -0.48780487804878    0.00000000000000             4
    0.48780487804878    0.39024390243902    0.00000000000000             4
    0.41463414634146    0.12195121951220    0.00000000000000             4
   -0.12195121951220   -0.46341463414634    0.00000000000000             4
    0.46341463414634    0.41463414634146    0.00000000000000             4
    0.43902439024390    0.12195121951220    0.00000000000000             4
    0.43902439024390    0.43902439024390    0.00000000000000             2
    0.14634146341464    0.14634146341464    0.00000000000000             2
   -0.14634146341464    0.29268292682927    0.00000000000000             4
    0.17073170731707    0.14634146341464    0.00000000000000             4
   -0.14634146341464    0.31707317073171    0.00000000000000             4
   -0.31707317073171    0.17073170731707    0.00000000000000             4
    0.19512195121951    0.14634146341464    0.00000000000000             4
   -0.14634146341464    0.34146341463415    0.00000000000000             4
   -0.34146341463415    0.19512195121951    0.00000000000000             4
    0.21951219512195    0.14634146341464    0.00000000000000             4
   -0.14634146341464    0.36585365853659    0.00000000000000             4
   -0.36585365853659    0.21951219512195    0.00000000000000             4
    0.24390243902439    0.14634146341464    0.00000000000000             4
   -0.14634146341464    0.39024390243902    0.00000000000000             4
   -0.39024390243902    0.24390243902439    0.00000000000000             4
    0.26829268292683    0.14634146341464    0.00000000000000             4
   -0.14634146341464    0.41463414634146    0.00000000000000             4
   -0.41463414634146    0.26829268292683    0.00000000000000             4
    0.29268292682926    0.14634146341464    0.00000000000000             4
   -0.14634146341464    0.43902439024390    0.00000000000000             4
   -0.43902439024390    0.29268292682926    0.00000000000000             4
    0.31707317073171    0.14634146341464    0.00000000000000             4
   -0.14634146341464    0.46341463414635    0.00000000000000             4
   -0.46341463414635    0.31707317073171    0.00000000000000             4
    0.34146341463415    0.14634146341464    0.00000000000000             4
   -0.14634146341464    0.48780487804878    0.00000000000000             4
   -0.48780487804878    0.34146341463415    0.00000000000000             4
    0.36585365853659    0.14634146341464    0.00000000000000             4
   -0.14634146341464   -0.48780487804878    0.00000000000000             4
    0.48780487804878    0.36585365853659    0.00000000000000             4
    0.39024390243902    0.14634146341464    0.00000000000000             4
   -0.14634146341464   -0.46341463414634    0.00000000000000             4
    0.46341463414634    0.39024390243902    0.00000000000000             4
    0.41463414634146    0.14634146341464    0.00000000000000             4
   -0.14634146341464   -0.43902439024390    0.00000000000000             4
    0.43902439024390    0.41463414634146    0.00000000000000             4
    0.17073170731707    0.17073170731707    0.00000000000000             2
   -0.17073170731707    0.34146341463415    0.00000000000000             4
    0.19512195121951    0.17073170731707    0.00000000000000             4
   -0.17073170731707    0.36585365853659    0.00000000000000             4
   -0.36585365853659    0.19512195121951    0.00000000000000             4
    0.21951219512195    0.17073170731707    0.00000000000000             4
   -0.17073170731707    0.39024390243902    0.00000000000000             4
   -0.39024390243902    0.21951219512195    0.00000000000000             4
    0.24390243902439    0.17073170731707    0.00000000000000             4
   -0.17073170731707    0.41463414634146    0.00000000000000             4
   -0.41463414634146    0.24390243902439    0.00000000000000             4
    0.26829268292683    0.17073170731707    0.00000000000000             4
   -0.17073170731707    0.43902439024390    0.00000000000000             4
   -0.43902439024390    0.26829268292683    0.00000000000000             4
    0.29268292682926    0.17073170731707    0.00000000000000             4
   -0.17073170731707    0.46341463414634    0.00000000000000             4
   -0.46341463414634    0.29268292682926    0.00000000000000             4
    0.31707317073171    0.17073170731707    0.00000000000000             4
   -0.17073170731707    0.48780487804878    0.00000000000000             4
   -0.48780487804878    0.31707317073171    0.00000000000000             4
    0.34146341463415    0.17073170731707    0.00000000000000             4
   -0.17073170731707   -0.48780487804878    0.00000000000000             4
    0.48780487804878    0.34146341463415    0.00000000000000             4
    0.36585365853659    0.17073170731707    0.00000000000000             4
   -0.17073170731707   -0.46341463414634    0.00000000000000             4
    0.46341463414634    0.36585365853659    0.00000000000000             4
    0.39024390243902    0.17073170731707    0.00000000000000             4
   -0.17073170731707   -0.43902439024390    0.00000000000000             4
    0.43902439024390    0.39024390243902    0.00000000000000             4
    0.41463414634146    0.17073170731707    0.00000000000000             4
    0.41463414634146    0.41463414634146    0.00000000000000             2
    0.19512195121951    0.19512195121951    0.00000000000000             2
   -0.19512195121951    0.39024390243902    0.00000000000000             4
    0.21951219512195    0.19512195121951    0.00000000000000             4
   -0.19512195121951    0.41463414634146    0.00000000000000             4
   -0.41463414634146    0.21951219512195    0.00000000000000             4
    0.24390243902439    0.19512195121951    0.00000000000000             4
   -0.19512195121951    0.43902439024390    0.00000000000000             4
   -0.43902439024390    0.24390243902439    0.00000000000000             4
    0.26829268292683    0.19512195121951    0.00000000000000             4
   -0.19512195121951    0.46341463414634    0.00000000000000             4
   -0.46341463414634    0.26829268292683    0.00000000000000             4
    0.29268292682926    0.19512195121951    0.00000000000000             4
   -0.19512195121951    0.48780487804878    0.00000000000000             4
   -0.48780487804878    0.29268292682926    0.00000000000000             4
    0.31707317073171    0.19512195121951    0.00000000000000             4
   -0.19512195121951   -0.48780487804878    0.00000000000000             4
    0.48780487804878    0.31707317073171    0.00000000000000             4
    0.34146341463415    0.19512195121951    0.00000000000000             4
   -0.19512195121951   -0.46341463414634    0.00000000000000             4
    0.46341463414634    0.34146341463415    0.00000000000000             4
    0.36585365853659    0.19512195121951    0.00000000000000             4
   -0.19512195121951   -0.43902439024390    0.00000000000000             4
    0.43902439024390    0.36585365853659    0.00000000000000             4
    0.39024390243902    0.19512195121951    0.00000000000000             4
   -0.19512195121951   -0.41463414634146    0.00000000000000             4
    0.41463414634146    0.39024390243902    0.00000000000000             4
    0.21951219512195    0.21951219512195    0.00000000000000             2
   -0.21951219512195    0.43902439024390    0.00000000000000             4
    0.24390243902439    0.21951219512195    0.00000000000000             4
   -0.21951219512195    0.46341463414634    0.00000000000000             4
   -0.46341463414634    0.24390243902439    0.00000000000000             4
    0.26829268292683    0.21951219512195    0.00000000000000             4
   -0.21951219512195    0.48780487804878    0.00000000000000             4
   -0.48780487804878    0.26829268292683    0.00000000000000             4
    0.29268292682926    0.21951219512195    0.00000000000000             4
   -0.21951219512195   -0.48780487804878    0.00000000000000             4
    0.48780487804878    0.29268292682926    0.00000000000000             4
    0.31707317073171    0.21951219512195    0.00000000000000             4
   -0.21951219512195   -0.46341463414634    0.00000000000000             4
    0.46341463414634    0.31707317073171    0.00000000000000             4
    0.34146341463415    0.21951219512195    0.00000000000000             4
   -0.21951219512195   -0.43902439024390    0.00000000000000             4
    0.43902439024390    0.34146341463415    0.00000000000000             4
    0.36585365853659    0.21951219512195    0.00000000000000             4
   -0.21951219512195   -0.41463414634146    0.00000000000000             4
    0.41463414634146    0.36585365853659    0.00000000000000             4
    0.39024390243902    0.21951219512195    0.00000000000000             4
    0.39024390243902    0.39024390243902    0.00000000000000             2