   8   8   0   4
  0.3978710E+02  0.4950000E-09  0.4950000E-09  0.1500000E-08  0.5000000E-15
  1.000000000000000E-004
  CAR 
 Graphene                                
     13.26012281    -23.37936521  301     -2.28762521      1.00000000
    -23.379  0.0000E+00  0.0000E+00
    -23.257  0.0000E+00  0.0000E+00
    -23.135  0.0000E+00  0.0000E+00
    -23.013  0.0000E+00  0.0000E+00
    -22.891  0.0000E+00  0.0000E+00
    -22.769  0.0000E+00  0.0000E+00
    -22.647  0.0000E+00  0.0000E+00
    -22.524  0.0000E+00  0.0000E+00
    -22.402  0.0000E+00  0.0000E+00
    -22.280  0.6944E-18  0.8481E-19
    -22.158  0.2155E-12  0.2632E-13
    -22.036  0.3988E-08  0.4870E-09
    -21.914  0.4965E-05  0.6069E-06
    -21.792  0.4876E-03  0.6016E-04
    -21.670  0.5141E-02  0.6881E-03
    -21.547  0.1127E-01  0.2064E-02
    -21.425  0.1242E-01  0.3582E-02
    -21.303  0.1201E-01  0.5048E-02
    -21.181  0.1318E-01  0.6658E-02
    -21.059  0.1177E-01  0.8095E-02
    -20.937  0.1204E-01  0.9565E-02
    -20.815  0.1477E-01  0.1137E-01
    -20.692  0.8934E-02  0.1246E-01
    -20.570  0.1467E-01  0.1425E-01
    -20.448  0.1441E-01  0.1601E-01
    -20.326  0.8132E-02  0.1701E-01
    -20.204  0.1396E-01  0.1871E-01
    -20.082  0.1616E-01  0.2068E-01
    -19.960  0.1055E-01  0.2197E-01
    -19.838  0.8238E-02  0.2298E-01
    -19.715  0.1696E-01  0.2505E-01
    -19.593  0.1608E-01  0.2701E-01
    -19.471  0.8230E-02  0.2802E-01
    -19.349  0.1025E-01  0.2927E-01
    -19.227  0.1464E-01  0.3106E-01
    -19.105  0.1793E-01  0.3325E-01
    -18.983  0.1193E-01  0.3471E-01
    -18.860  0.6016E-02  0.3544E-01
    -18.738  0.1366E-01  0.3711E-01
    -18.616  0.1803E-01  0.3931E-01
    -18.494  0.1475E-01  0.4111E-01
    -18.372  0.1178E-01  0.4255E-01
    -18.250  0.7380E-02  0.4345E-01
    -18.128  0.1071E-01  0.4476E-01
    -18.006  0.2297E-01  0.4757E-01
    -17.883  0.1337E-01  0.4920E-01
    -17.761  0.1106E-01  0.5055E-01
    -17.639  0.1075E-01  0.5186E-01
    -17.517  0.8745E-02  0.5293E-01
    -17.395  0.1784E-01  0.5511E-01
    -17.273  0.2219E-01  0.5782E-01
    -17.151  0.1109E-01  0.5918E-01
    -17.029  0.1039E-01  0.6044E-01
    -16.906  0.1087E-01  0.6177E-01
    -16.784  0.1390E-01  0.6347E-01
    -16.662  0.2352E-01  0.6634E-01
    -16.540  0.2230E-01  0.6906E-01
    -16.418  0.1704E-01  0.7115E-01
    -16.296  0.8285E-02  0.7216E-01
    -16.174  0.2822E-02  0.7250E-01
    -16.051  0.1825E-01  0.7473E-01
    -15.929  0.1824E-01  0.7696E-01
    -15.807  0.2141E-02  0.7722E-01
    -15.685  0.4492E-03  0.7727E-01
    -15.563  0.3863E-02  0.7775E-01
    -15.441  0.8996E-02  0.7885E-01
    -15.319  0.1538E-01  0.8072E-01
    -15.197  0.1258E-01  0.8226E-01
    -15.074  0.1056E-01  0.8355E-01
    -14.952  0.1321E-01  0.8516E-01
    -14.830  0.1295E-01  0.8675E-01
    -14.708  0.1883E-01  0.8905E-01
    -14.586  0.1539E-01  0.9093E-01
    -14.464  0.1937E-01  0.9329E-01
    -14.342  0.1861E-01  0.9556E-01
    -14.219  0.1451E-01  0.9734E-01
    -14.097  0.1282E-01  0.9890E-01
    -13.975  0.1071E-01  0.1002E+00
    -13.853  0.2315E-01  0.1030E+00
    -13.731  0.9295E-02  0.1042E+00
    -13.609  0.8581E-02  0.1052E+00
    -13.487  0.1203E-01  0.1067E+00
    -13.365  0.1802E-01  0.1089E+00
    -13.242  0.1143E-01  0.1103E+00
    -13.120  0.6954E-02  0.1111E+00
    -12.998  0.1038E-01  0.1124E+00
    -12.876  0.1296E-01  0.1140E+00
    -12.754  0.1528E-01  0.1159E+00
    -12.632  0.1254E-01  0.1174E+00
    -12.510  0.9010E-02  0.1185E+00
    -12.388  0.1519E-01  0.1203E+00
    -12.265  0.1922E-01  0.1227E+00
    -12.143  0.1728E-01  0.1248E+00
    -12.021  0.4519E-02  0.1253E+00
    -11.899  0.1425E-01  0.1271E+00
    -11.777  0.2534E-01  0.1302E+00
    -11.655  0.1733E-01  0.1323E+00
    -11.533  0.1024E-01  0.1336E+00
    -11.410  0.7018E-02  0.1344E+00
    -11.288  0.1635E-01  0.1364E+00
    -11.166  0.2536E-01  0.1395E+00
    -11.044  0.1591E-01  0.1414E+00
    -10.922  0.8564E-02  0.1425E+00
    -10.800  0.2327E-01  0.1453E+00
    -10.678  0.1695E-01  0.1474E+00
    -10.556  0.6287E-02  0.1482E+00
    -10.433  0.1833E-01  0.1504E+00
    -10.311  0.2106E-01  0.1530E+00
    -10.189  0.2528E-01  0.1561E+00
    -10.067  0.1396E-01  0.1578E+00
     -9.945  0.1495E-01  0.1596E+00
     -9.823  0.1134E-01  0.1610E+00
     -9.701  0.3798E-01  0.1656E+00
     -9.578  0.3707E-01  0.1702E+00
     -9.456  0.2234E-01  0.1729E+00
     -9.334  0.2239E-01  0.1756E+00
     -9.212  0.4165E-01  0.1807E+00
     -9.090  0.4226E-01  0.1859E+00
     -8.968  0.2542E-01  0.1890E+00
     -8.846  0.3341E-01  0.1930E+00
     -8.724  0.4229E-01  0.1982E+00
     -8.601  0.4588E-01  0.2038E+00
     -8.479  0.5352E-01  0.2103E+00
     -8.357  0.3378E-01  0.2145E+00
     -8.235  0.2512E-01  0.2175E+00
     -8.113  0.2816E-01  0.2210E+00
     -7.991  0.4087E-01  0.2260E+00
     -7.869  0.2816E-01  0.2294E+00
     -7.747  0.2886E-01  0.2329E+00
     -7.624  0.2764E-01  0.2363E+00
     -7.502  0.2693E-01  0.2396E+00
     -7.380  0.2383E-01  0.2425E+00
     -7.258  0.2846E-01  0.2460E+00
     -7.136  0.2938E-01  0.2496E+00
     -7.014  0.1695E-01  0.2516E+00
     -6.892  0.2603E-01  0.2548E+00
     -6.769  0.3463E-01  0.2591E+00
     -6.647  0.2322E-01  0.2619E+00
     -6.525  0.8686E-02  0.2630E+00
     -6.403  0.2398E-01  0.2659E+00
     -6.281  0.3769E-01  0.2705E+00
     -6.159  0.2266E-01  0.2733E+00
     -6.037  0.1608E-01  0.2752E+00
     -5.915  0.2190E-01  0.2779E+00
     -5.792  0.1885E-01  0.2802E+00
     -5.670  0.2501E-01  0.2832E+00
     -5.548  0.2762E-01  0.2866E+00
     -5.426  0.2474E-01  0.2896E+00
     -5.304  0.1750E-01  0.2918E+00
     -5.182  0.8639E-02  0.2928E+00
     -5.060  0.1178E-01  0.2943E+00
     -4.937  0.2249E-01  0.2970E+00
     -4.815  0.2550E-01  0.3001E+00
     -4.693  0.2061E-01  0.3027E+00
     -4.571  0.1510E-01  0.3045E+00
     -4.449  0.8357E-02  0.3055E+00
     -4.327  0.2245E-01  0.3083E+00
     -4.205  0.2782E-01  0.3117E+00
     -4.083  0.6246E-02  0.3124E+00
     -3.960  0.4272E-02  0.3129E+00
     -3.838  0.3854E-02  0.3134E+00
     -3.716  0.9972E-02  0.3146E+00
     -3.594  0.1285E-01  0.3162E+00
     -3.472  0.7777E-02  0.3171E+00
     -3.350  0.2253E-02  0.3174E+00
     -3.228  0.4136E-02  0.3179E+00
     -3.106  0.1246E-02  0.3181E+00
     -2.983  0.4587E-02  0.3186E+00
     -2.861  0.7627E-02  0.3196E+00
     -2.739  0.1198E-02  0.3197E+00
     -2.617  0.1434E-04  0.3197E+00
     -2.495  0.7695E-05  0.3197E+00
     -2.373  0.5127E-03  0.3198E+00
     -2.251  0.2663E-02  0.3201E+00
     -2.128  0.1310E-02  0.3203E+00
     -2.006  0.5532E-04  0.3203E+00
     -1.884  0.2918E-05  0.3203E+00
     -1.762  0.4770E-03  0.3203E+00
     -1.640  0.5894E-02  0.3211E+00
     -1.518  0.6643E-02  0.3219E+00
     -1.396  0.2290E-02  0.3221E+00
     -1.274  0.4137E-02  0.3227E+00
     -1.151  0.1446E-02  0.3228E+00
     -1.029  0.9217E-02  0.3240E+00
     -0.907  0.2077E-01  0.3265E+00
     -0.785  0.9544E-02  0.3277E+00
     -0.663  0.1091E-01  0.3290E+00
     -0.541  0.2501E-01  0.3320E+00
     -0.419  0.2234E-01  0.3348E+00
     -0.296  0.2679E-01  0.3380E+00
     -0.174  0.1488E-01  0.3399E+00
     -0.052  0.9727E-02  0.3411E+00
      0.070  0.1346E-01  0.3427E+00
      0.192  0.9414E-02  0.3438E+00
      0.314  0.9290E-02  0.3450E+00
      0.436  0.1846E-01  0.3472E+00
      0.558  0.1869E-01  0.3495E+00
      0.681  0.3305E-02  0.3499E+00
      0.803  0.6530E-02  0.3507E+00
      0.925  0.1224E-01  0.3522E+00
      1.047  0.1324E-01  0.3538E+00
      1.169  0.1770E-01  0.3560E+00
      1.291  0.1831E-01  0.3582E+00
      1.413  0.2519E-01  0.3613E+00
      1.535  0.1968E-01  0.3637E+00
      1.658  0.9401E-02  0.3649E+00
      1.780  0.1674E-01  0.3669E+00
      1.902  0.1785E-01  0.3691E+00
      2.024  0.2532E-01  0.3722E+00
      2.146  0.3651E-01  0.3766E+00
      2.268  0.2495E-01  0.3797E+00
      2.390  0.1857E-01  0.3819E+00
      2.513  0.3047E-01  0.3857E+00
      2.635  0.4061E-01  0.3906E+00
      2.757  0.2994E-01  0.3943E+00
      2.879  0.2744E-01  0.3976E+00
      3.001  0.3454E-01  0.4019E+00
      3.123  0.4967E-01  0.4079E+00
      3.245  0.3689E-01  0.4124E+00
      3.367  0.2211E-01  0.4151E+00
      3.490  0.2864E-01  0.4186E+00
      3.612  0.3634E-01  0.4231E+00
      3.734  0.4029E-01  0.4280E+00
      3.856  0.2760E-01  0.4314E+00
      3.978  0.4079E-01  0.4363E+00
      4.100  0.4177E-01  0.4414E+00
      4.222  0.3029E-01  0.4451E+00
      4.345  0.1723E-01  0.4472E+00
      4.467  0.3526E-01  0.4515E+00
      4.589  0.5098E-01  0.4578E+00
      4.711  0.5303E-01  0.4642E+00
      4.833  0.4144E-01  0.4693E+00
      4.955  0.4011E-01  0.4742E+00
      5.077  0.5025E-01  0.4803E+00
      5.199  0.7133E-01  0.4891E+00
      5.322  0.8140E-01  0.4990E+00
      5.444  0.7894E-01  0.5086E+00
      5.566  0.6633E-01  0.5167E+00
      5.688  0.6418E-01  0.5246E+00
      5.810  0.7855E-01  0.5342E+00
      5.932  0.8034E-01  0.5440E+00
      6.054  0.1163E+00  0.5582E+00
      6.176  0.1011E+00  0.5705E+00
      6.299  0.6856E-01  0.5789E+00
      6.421  0.7571E-01  0.5882E+00
      6.543  0.7732E-01  0.5976E+00
      6.665  0.7617E-01  0.6069E+00
      6.787  0.6960E-01  0.6154E+00
      6.909  0.6574E-01  0.6234E+00
      7.031  0.9827E-01  0.6354E+00
      7.154  0.6752E-01  0.6437E+00
      7.276  0.5267E-01  0.6501E+00
      7.398  0.4052E-01  0.6551E+00
      7.520  0.6353E-01  0.6628E+00
      7.642  0.8372E-01  0.6730E+00
      7.764  0.6963E-01  0.6815E+00
      7.886  0.8654E-01  0.6921E+00
      8.008  0.7816E-01  0.7017E+00
      8.131  0.5181E-01  0.7080E+00
      8.253  0.5012E-01  0.7141E+00
      8.375  0.7995E-01  0.7239E+00
      8.497  0.7680E-01  0.7333E+00
      8.619  0.1015E+00  0.7457E+00
      8.741  0.9331E-01  0.7571E+00
      8.863  0.8498E-01  0.7674E+00
      8.986  0.9137E-01  0.7786E+00
      9.108  0.6953E-01  0.7871E+00
      9.230  0.6763E-01  0.7953E+00
      9.352  0.7430E-01  0.8044E+00
      9.474  0.5379E-01  0.8110E+00
      9.596  0.6608E-01  0.8191E+00
      9.718  0.8890E-01  0.8299E+00
      9.840  0.9488E-01  0.8415E+00
      9.963  0.9422E-01  0.8530E+00
     10.085  0.9179E-01  0.8642E+00
     10.207  0.8637E-01  0.8748E+00
     10.329  0.9244E-01  0.8861E+00
     10.451  0.8950E-01  0.8970E+00
     10.573  0.9046E-01  0.9080E+00
     10.695  0.8730E-01  0.9187E+00
     10.817  0.9203E-01  0.9299E+00
     10.940  0.6887E-01  0.9383E+00
     11.062  0.5677E-01  0.9453E+00
     11.184  0.5349E-01  0.9518E+00
     11.306  0.4210E-01  0.9570E+00
     11.428  0.1057E-01  0.9582E+00
     11.550  0.4335E-02  0.9588E+00
     11.672  0.8187E-02  0.9598E+00
     11.795  0.1822E-02  0.9600E+00
     11.917  0.3209E-04  0.9600E+00
     12.039  0.3599E-07  0.9600E+00
     12.161  0.2299E-11  0.9600E+00
     12.283  0.9090E-17  0.9600E+00
     12.405  0.0000E+00  0.9600E+00
     12.527  0.0000E+00  0.9600E+00
     12.649  0.0000E+00  0.9600E+00
     12.772  0.0000E+00  0.9600E+00
     12.894  0.0000E+00  0.9600E+00
     13.016  0.0000E+00  0.9600E+00
     13.138  0.0000E+00  0.9600E+00
     13.260  0.0000E+00  0.9600E+00
