  16  16   0  16
  0.2078753E+02  0.5060000E-09  0.5060000E-09  0.1500000E-08  0.5000000E-15
  1.000000000000000E-004
  CAR 
 Lattice                                 
      9.70515553    -21.26308698  301     -1.00317954      1.00000000
    -21.263  0.0000E+00  0.0000E+00  0.0000E+00  0.0000E+00
    -21.160  0.0000E+00  0.0000E+00  0.0000E+00  0.0000E+00
    -21.057  0.0000E+00  0.0000E+00  0.0000E+00  0.0000E+00
    -20.953  0.0000E+00  0.0000E+00  0.0000E+00  0.0000E+00
    -20.850  0.0000E+00  0.0000E+00  0.0000E+00  0.0000E+00
    -20.747  0.0000E+00  0.0000E+00  0.0000E+00  0.0000E+00
    -20.644  0.0000E+00  0.0000E+00  0.0000E+00  0.0000E+00
    -20.540  0.0000E+00  0.0000E+00  0.0000E+00  0.0000E+00
    -20.437  0.5835E-19  0.5835E-19  0.6023E-20  0.6023E-20
    -20.334  0.3803E-14  0.3803E-14  0.3926E-15  0.3926E-15
    -20.231  0.3619E-10  0.3619E-10  0.3736E-11  0.3736E-11
    -20.128  0.4803E-07  0.4803E-07  0.4962E-08  0.4962E-08
    -20.024  0.9596E-05  0.9596E-05  0.9955E-06  0.9955E-06
    -19.921  0.3182E-03  0.3182E-03  0.3384E-04  0.3384E-04
    -19.818  0.2141E-02  0.2141E-02  0.2549E-03  0.2549E-03
    -19.715  0.4427E-02  0.4427E-02  0.7119E-03  0.7119E-03
    -19.611  0.4938E-02  0.4938E-02  0.1222E-02  0.1222E-02
    -19.508  0.5187E-02  0.5187E-02  0.1757E-02  0.1757E-02
    -19.405  0.4694E-02  0.4694E-02  0.2242E-02  0.2242E-02
    -19.302  0.5691E-02  0.5691E-02  0.2829E-02  0.2829E-02
    -19.199  0.4293E-02  0.4293E-02  0.3272E-02  0.3272E-02
    -19.095  0.5343E-02  0.5343E-02  0.3824E-02  0.3824E-02
    -18.992  0.5876E-02  0.5876E-02  0.4430E-02  0.4430E-02
    -18.889  0.3685E-02  0.3685E-02  0.4811E-02  0.4811E-02
    -18.786  0.5438E-02  0.5438E-02  0.5372E-02  0.5372E-02
    -18.682  0.6354E-02  0.6354E-02  0.6028E-02  0.6028E-02
    -18.579  0.4360E-02  0.4360E-02  0.6478E-02  0.6478E-02
    -18.476  0.3522E-02  0.3522E-02  0.6841E-02  0.6841E-02
    -18.373  0.6877E-02  0.6877E-02  0.7551E-02  0.7551E-02
    -18.269  0.5901E-02  0.5901E-02  0.8161E-02  0.8161E-02
    -18.166  0.4232E-02  0.4232E-02  0.8597E-02  0.8597E-02
    -18.063  0.3532E-02  0.3532E-02  0.8962E-02  0.8962E-02
    -17.960  0.7989E-02  0.7989E-02  0.9787E-02  0.9787E-02
    -17.857  0.1262E-01  0.1262E-01  0.1109E-01  0.1109E-01
    -17.753  0.1141E-01  0.1141E-01  0.1227E-01  0.1227E-01
    -17.650  0.1153E-01  0.1153E-01  0.1346E-01  0.1346E-01
    -17.547  0.1355E-01  0.1355E-01  0.1486E-01  0.1486E-01
    -17.444  0.1785E-01  0.1785E-01  0.1670E-01  0.1670E-01
    -17.340  0.2176E-01  0.2176E-01  0.1894E-01  0.1894E-01
    -17.237  0.1830E-01  0.1830E-01  0.2083E-01  0.2083E-01
    -17.134  0.7123E-02  0.7123E-02  0.2157E-01  0.2157E-01
    -17.031  0.4977E-02  0.4977E-02  0.2208E-01  0.2208E-01
    -16.928  0.7356E-02  0.7356E-02  0.2284E-01  0.2284E-01
    -16.824  0.6702E-02  0.6702E-02  0.2353E-01  0.2353E-01
    -16.721  0.5453E-02  0.5453E-02  0.2410E-01  0.2410E-01
    -16.618  0.4508E-02  0.4508E-02  0.2456E-01  0.2456E-01
    -16.515  0.2562E-02  0.2562E-02  0.2483E-01  0.2483E-01
    -16.411  0.5089E-02  0.5089E-02  0.2535E-01  0.2535E-01
    -16.308  0.9305E-02  0.9305E-02  0.2631E-01  0.2631E-01
    -16.205  0.5973E-02  0.5973E-02  0.2693E-01  0.2693E-01
    -16.102  0.4776E-02  0.4776E-02  0.2742E-01  0.2742E-01
    -15.998  0.4356E-02  0.4356E-02  0.2787E-01  0.2787E-01
    -15.895  0.4052E-02  0.4052E-02  0.2829E-01  0.2829E-01
    -15.792  0.4244E-02  0.4244E-02  0.2873E-01  0.2873E-01
    -15.689  0.1005E-01  0.1005E-01  0.2977E-01  0.2977E-01
    -15.586  0.1307E-01  0.1307E-01  0.3111E-01  0.3111E-01
    -15.482  0.1430E-01  0.1430E-01  0.3259E-01  0.3259E-01
    -15.379  0.1653E-01  0.1653E-01  0.3430E-01  0.3430E-01
    -15.276  0.1415E-01  0.1415E-01  0.3576E-01  0.3576E-01
    -15.173  0.1225E-01  0.1225E-01  0.3702E-01  0.3702E-01
    -15.069  0.1549E-01  0.1549E-01  0.3862E-01  0.3862E-01
    -14.966  0.1855E-01  0.1855E-01  0.4054E-01  0.4054E-01
    -14.863  0.1503E-01  0.1503E-01  0.4209E-01  0.4209E-01
    -14.760  0.1255E-01  0.1255E-01  0.4338E-01  0.4338E-01
    -14.657  0.9475E-02  0.9475E-02  0.4436E-01  0.4436E-01
    -14.553  0.1144E-01  0.1144E-01  0.4554E-01  0.4554E-01
    -14.450  0.1765E-01  0.1765E-01  0.4736E-01  0.4736E-01
    -14.347  0.1988E-01  0.1988E-01  0.4942E-01  0.4942E-01
    -14.244  0.1314E-01  0.1314E-01  0.5077E-01  0.5077E-01
    -14.140  0.9071E-02  0.9071E-02  0.5171E-01  0.5171E-01
    -14.037  0.7745E-02  0.7745E-02  0.5251E-01  0.5251E-01
    -13.934  0.8359E-02  0.8359E-02  0.5337E-01  0.5337E-01
    -13.831  0.7515E-02  0.7515E-02  0.5415E-01  0.5415E-01
    -13.727  0.4344E-02  0.4344E-02  0.5460E-01  0.5460E-01
    -13.624  0.2875E-02  0.2875E-02  0.5489E-01  0.5489E-01
    -13.521  0.4723E-02  0.4723E-02  0.5538E-01  0.5538E-01
    -13.418  0.4627E-02  0.4627E-02  0.5586E-01  0.5586E-01
    -13.315  0.6484E-02  0.6484E-02  0.5653E-01  0.5653E-01
    -13.211  0.5813E-02  0.5813E-02  0.5713E-01  0.5713E-01
    -13.108  0.6735E-02  0.6735E-02  0.5782E-01  0.5782E-01
    -13.005  0.8357E-02  0.8357E-02  0.5868E-01  0.5868E-01
    -12.902  0.7941E-02  0.7941E-02  0.5950E-01  0.5950E-01
    -12.798  0.7901E-02  0.7901E-02  0.6032E-01  0.6032E-01
    -12.695  0.5849E-02  0.5849E-02  0.6092E-01  0.6092E-01
    -12.592  0.7194E-02  0.7194E-02  0.6167E-01  0.6167E-01
    -12.489  0.4573E-02  0.4573E-02  0.6214E-01  0.6214E-01
    -12.386  0.4987E-02  0.4987E-02  0.6265E-01  0.6265E-01
    -12.282  0.8510E-02  0.8510E-02  0.6353E-01  0.6353E-01
    -12.179  0.6133E-02  0.6133E-02  0.6416E-01  0.6416E-01
    -12.076  0.7219E-02  0.7219E-02  0.6491E-01  0.6491E-01
    -11.973  0.1278E-01  0.1278E-01  0.6623E-01  0.6623E-01
    -11.869  0.1646E-01  0.1646E-01  0.6793E-01  0.6793E-01
    -11.766  0.1459E-01  0.1459E-01  0.6943E-01  0.6943E-01
    -11.663  0.1471E-01  0.1471E-01  0.7095E-01  0.7095E-01
    -11.560  0.1709E-01  0.1709E-01  0.7272E-01  0.7272E-01
    -11.456  0.1472E-01  0.1472E-01  0.7424E-01  0.7424E-01
    -11.353  0.8415E-02  0.8415E-02  0.7511E-01  0.7511E-01
    -11.250  0.9872E-02  0.9872E-02  0.7613E-01  0.7613E-01
    -11.147  0.1156E-01  0.1156E-01  0.7732E-01  0.7732E-01
    -11.044  0.1107E-01  0.1107E-01  0.7846E-01  0.7846E-01
    -10.940  0.5774E-02  0.5774E-02  0.7906E-01  0.7906E-01
    -10.837  0.6797E-02  0.6797E-02  0.7976E-01  0.7976E-01
    -10.734  0.1563E-01  0.1563E-01  0.8137E-01  0.8137E-01
    -10.631  0.1734E-01  0.1734E-01  0.8316E-01  0.8316E-01
    -10.527  0.7753E-02  0.7753E-02  0.8396E-01  0.8396E-01
    -10.424  0.6748E-02  0.6748E-02  0.8466E-01  0.8466E-01
    -10.321  0.1334E-01  0.1334E-01  0.8604E-01  0.8604E-01
    -10.218  0.1901E-01  0.1901E-01  0.8800E-01  0.8800E-01
    -10.115  0.1452E-01  0.1452E-01  0.8950E-01  0.8950E-01
    -10.011  0.8770E-02  0.8770E-02  0.9040E-01  0.9040E-01
     -9.908  0.9062E-02  0.9062E-02  0.9134E-01  0.9134E-01
     -9.805  0.1165E-01  0.1165E-01  0.9254E-01  0.9254E-01
     -9.702  0.1036E-01  0.1036E-01  0.9361E-01  0.9361E-01
     -9.598  0.7851E-02  0.7851E-02  0.9442E-01  0.9442E-01
     -9.495  0.1067E-01  0.1067E-01  0.9552E-01  0.9552E-01
     -9.392  0.1092E-01  0.1092E-01  0.9665E-01  0.9665E-01
     -9.289  0.1025E-01  0.1025E-01  0.9771E-01  0.9771E-01
     -9.185  0.7962E-02  0.7962E-02  0.9853E-01  0.9853E-01
     -9.082  0.2604E-02  0.2604E-02  0.9880E-01  0.9880E-01
     -8.979  0.5241E-02  0.5241E-02  0.9934E-01  0.9934E-01
     -8.876  0.1437E-01  0.1437E-01  0.1008E+00  0.1008E+00
     -8.773  0.1935E-01  0.1935E-01  0.1028E+00  0.1028E+00
     -8.669  0.1534E-01  0.1534E-01  0.1044E+00  0.1044E+00
     -8.566  0.8679E-02  0.8679E-02  0.1053E+00  0.1053E+00
     -8.463  0.8183E-02  0.8183E-02  0.1061E+00  0.1061E+00
     -8.360  0.1053E-01  0.1053E-01  0.1072E+00  0.1072E+00
     -8.256  0.1911E-01  0.1911E-01  0.1092E+00  0.1092E+00
     -8.153  0.2279E-01  0.2279E-01  0.1116E+00  0.1116E+00
     -8.050  0.2223E-01  0.2223E-01  0.1139E+00  0.1139E+00
     -7.947  0.1629E-01  0.1629E-01  0.1155E+00  0.1155E+00
     -7.844  0.1356E-01  0.1356E-01  0.1169E+00  0.1169E+00
     -7.740  0.1505E-01  0.1505E-01  0.1185E+00  0.1185E+00
     -7.637  0.2518E-01  0.2518E-01  0.1211E+00  0.1211E+00
     -7.534  0.2814E-01  0.2814E-01  0.1240E+00  0.1240E+00
     -7.431  0.2158E-01  0.2158E-01  0.1262E+00  0.1262E+00
     -7.327  0.2103E-01  0.2103E-01  0.1284E+00  0.1284E+00
     -7.224  0.2446E-01  0.2446E-01  0.1309E+00  0.1309E+00
     -7.121  0.2491E-01  0.2491E-01  0.1335E+00  0.1335E+00
     -7.018  0.2619E-01  0.2619E-01  0.1362E+00  0.1362E+00
     -6.914  0.2122E-01  0.2122E-01  0.1384E+00  0.1384E+00
     -6.811  0.2133E-01  0.2133E-01  0.1406E+00  0.1406E+00
     -6.708  0.2885E-01  0.2885E-01  0.1436E+00  0.1436E+00
     -6.605  0.2110E-01  0.2110E-01  0.1457E+00  0.1457E+00
     -6.502  0.2121E-01  0.2121E-01  0.1479E+00  0.1479E+00
     -6.398  0.2579E-01  0.2579E-01  0.1506E+00  0.1506E+00
     -6.295  0.2437E-01  0.2437E-01  0.1531E+00  0.1531E+00
     -6.192  0.2268E-01  0.2268E-01  0.1554E+00  0.1554E+00
     -6.089  0.1680E-01  0.1680E-01  0.1572E+00  0.1572E+00
     -5.985  0.1670E-01  0.1670E-01  0.1589E+00  0.1589E+00
     -5.882  0.2321E-01  0.2321E-01  0.1613E+00  0.1613E+00
     -5.779  0.2710E-01  0.2710E-01  0.1641E+00  0.1641E+00
     -5.676  0.2018E-01  0.2018E-01  0.1662E+00  0.1662E+00
     -5.573  0.1925E-01  0.1925E-01  0.1682E+00  0.1682E+00
     -5.469  0.2200E-01  0.2200E-01  0.1704E+00  0.1704E+00
     -5.366  0.2918E-01  0.2918E-01  0.1735E+00  0.1735E+00
     -5.263  0.2614E-01  0.2614E-01  0.1762E+00  0.1762E+00
     -5.160  0.1469E-01  0.1469E-01  0.1777E+00  0.1777E+00
     -5.056  0.1399E-01  0.1399E-01  0.1791E+00  0.1791E+00
     -4.953  0.1882E-01  0.1882E-01  0.1811E+00  0.1811E+00
     -4.850  0.1796E-01  0.1796E-01  0.1829E+00  0.1829E+00
     -4.747  0.1684E-01  0.1684E-01  0.1846E+00  0.1846E+00
     -4.643  0.1697E-01  0.1697E-01  0.1864E+00  0.1864E+00
     -4.540  0.1662E-01  0.1662E-01  0.1881E+00  0.1881E+00
     -4.437  0.1790E-01  0.1790E-01  0.1900E+00  0.1900E+00
     -4.334  0.2016E-01  0.2016E-01  0.1920E+00  0.1920E+00
     -4.231  0.2739E-01  0.2739E-01  0.1949E+00  0.1949E+00
     -4.127  0.4081E-01  0.4081E-01  0.1991E+00  0.1991E+00
     -4.024  0.3670E-01  0.3670E-01  0.2029E+00  0.2029E+00
     -3.921  0.2577E-01  0.2577E-01  0.2055E+00  0.2055E+00
     -3.818  0.1804E-01  0.1804E-01  0.2074E+00  0.2074E+00
     -3.714  0.1271E-01  0.1271E-01  0.2087E+00  0.2087E+00
     -3.611  0.1460E-01  0.1460E-01  0.2102E+00  0.2102E+00
     -3.508  0.1904E-01  0.1904E-01  0.2122E+00  0.2122E+00
     -3.405  0.2243E-01  0.2243E-01  0.2145E+00  0.2145E+00
     -3.302  0.1590E-01  0.1590E-01  0.2161E+00  0.2161E+00
     -3.198  0.1353E-01  0.1353E-01  0.2175E+00  0.2175E+00
     -3.095  0.1662E-01  0.1662E-01  0.2192E+00  0.2192E+00
     -2.992  0.2186E-01  0.2186E-01  0.2215E+00  0.2215E+00
     -2.889  0.2557E-01  0.2557E-01  0.2241E+00  0.2241E+00
     -2.785  0.1509E-01  0.1509E-01  0.2257E+00  0.2257E+00
     -2.682  0.1247E-01  0.1247E-01  0.2270E+00  0.2270E+00
     -2.579  0.2064E-01  0.2064E-01  0.2291E+00  0.2291E+00
     -2.476  0.2056E-01  0.2056E-01  0.2312E+00  0.2312E+00
     -2.372  0.1904E-01  0.1904E-01  0.2332E+00  0.2332E+00
     -2.269  0.2392E-01  0.2392E-01  0.2357E+00  0.2357E+00
     -2.166  0.1826E-01  0.1826E-01  0.2376E+00  0.2376E+00
     -2.063  0.5215E-02  0.5215E-02  0.2381E+00  0.2381E+00
     -1.960  0.4834E-02  0.4834E-02  0.2386E+00  0.2386E+00
     -1.856  0.8241E-02  0.8241E-02  0.2394E+00  0.2394E+00
     -1.753  0.5095E-02  0.5095E-02  0.2400E+00  0.2400E+00
     -1.650  0.5152E-02  0.5152E-02  0.2405E+00  0.2405E+00
     -1.547  0.7623E-02  0.7623E-02  0.2413E+00  0.2413E+00
     -1.443  0.4993E-02  0.4993E-02  0.2418E+00  0.2418E+00
     -1.340  0.2175E-02  0.2175E-02  0.2420E+00  0.2420E+00
     -1.237  0.4381E-03  0.4381E-03  0.2421E+00  0.2421E+00
     -1.134  0.6411E-04  0.6411E-04  0.2421E+00  0.2421E+00
     -1.031  0.5955E-03  0.5955E-03  0.2421E+00  0.2421E+00
     -0.927  0.2325E-02  0.2325E-02  0.2424E+00  0.2424E+00
     -0.824  0.3551E-02  0.3552E-02  0.2428E+00  0.2428E+00
     -0.721  0.4372E-02  0.4372E-02  0.2432E+00  0.2432E+00
     -0.618  0.9105E-02  0.9105E-02  0.2441E+00  0.2441E+00
     -0.514  0.1070E-01  0.1070E-01  0.2452E+00  0.2452E+00
     -0.411  0.1003E-01  0.1003E-01  0.2463E+00  0.2463E+00
     -0.308  0.1223E-01  0.1223E-01  0.2475E+00  0.2475E+00
     -0.205  0.1126E-01  0.1126E-01  0.2487E+00  0.2487E+00
     -0.101  0.7634E-02  0.7634E-02  0.2495E+00  0.2495E+00
      0.002  0.3238E-02  0.3238E-02  0.2498E+00  0.2498E+00
      0.105  0.1529E-02  0.1529E-02  0.2500E+00  0.2500E+00
      0.208  0.2874E-02  0.2874E-02  0.2503E+00  0.2503E+00
      0.311  0.7654E-02  0.7654E-02  0.2511E+00  0.2511E+00
      0.415  0.9607E-02  0.9607E-02  0.2521E+00  0.2521E+00
      0.518  0.6581E-02  0.6581E-02  0.2527E+00  0.2527E+00
      0.621  0.4564E-02  0.4564E-02  0.2532E+00  0.2532E+00
      0.724  0.9278E-02  0.9278E-02  0.2542E+00  0.2542E+00
      0.828  0.1206E-01  0.1206E-01  0.2554E+00  0.2554E+00
      0.931  0.1266E-01  0.1266E-01  0.2567E+00  0.2567E+00
      1.034  0.8866E-02  0.8866E-02  0.2576E+00  0.2576E+00
      1.137  0.4567E-02  0.4567E-02  0.2581E+00  0.2581E+00
      1.241  0.5323E-02  0.5323E-02  0.2587E+00  0.2587E+00
      1.344  0.5150E-02  0.5150E-02  0.2592E+00  0.2592E+00
      1.447  0.4828E-02  0.4828E-02  0.2597E+00  0.2597E+00
      1.550  0.7066E-02  0.7066E-02  0.2604E+00  0.2604E+00
      1.653  0.1220E-01  0.1220E-01  0.2617E+00  0.2617E+00
      1.757  0.7158E-02  0.7158E-02  0.2624E+00  0.2624E+00
      1.860  0.2954E-02  0.2954E-02  0.2627E+00  0.2627E+00
      1.963  0.3777E-02  0.3777E-02  0.2631E+00  0.2631E+00
      2.066  0.7774E-02  0.7774E-02  0.2639E+00  0.2639E+00
      2.170  0.1518E-01  0.1518E-01  0.2655E+00  0.2655E+00
      2.273  0.1472E-01  0.1472E-01  0.2670E+00  0.2670E+00
      2.376  0.1158E-01  0.1158E-01  0.2682E+00  0.2682E+00
      2.479  0.1255E-01  0.1255E-01  0.2695E+00  0.2695E+00
      2.582  0.1222E-01  0.1222E-01  0.2708E+00  0.2708E+00
      2.686  0.9809E-02  0.9809E-02  0.2718E+00  0.2718E+00
      2.789  0.6911E-02  0.6911E-02  0.2725E+00  0.2725E+00
      2.892  0.7784E-02  0.7784E-02  0.2733E+00  0.2733E+00
      2.995  0.1236E-01  0.1236E-01  0.2746E+00  0.2746E+00
      3.099  0.1475E-01  0.1475E-01  0.2761E+00  0.2761E+00
      3.202  0.1361E-01  0.1361E-01  0.2775E+00  0.2775E+00
      3.305  0.1111E-01  0.1111E-01  0.2786E+00  0.2786E+00
      3.408  0.7149E-02  0.7149E-02  0.2794E+00  0.2794E+00
      3.512  0.1054E-01  0.1054E-01  0.2805E+00  0.2805E+00
      3.615  0.1403E-01  0.1403E-01  0.2819E+00  0.2819E+00
      3.718  0.8879E-02  0.8877E-02  0.2828E+00  0.2828E+00
      3.821  0.1046E-01  0.1045E-01  0.2839E+00  0.2839E+00
      3.924  0.1852E-01  0.1852E-01  0.2858E+00  0.2858E+00
      4.028  0.1784E-01  0.1784E-01  0.2877E+00  0.2877E+00
      4.131  0.1461E-01  0.1461E-01  0.2892E+00  0.2892E+00
      4.234  0.1327E-01  0.1327E-01  0.2905E+00  0.2905E+00
      4.337  0.1514E-01  0.1514E-01  0.2921E+00  0.2921E+00
      4.441  0.1366E-01  0.1366E-01  0.2935E+00  0.2935E+00
      4.544  0.1656E-01  0.1656E-01  0.2952E+00  0.2952E+00
      4.647  0.1313E-01  0.1313E-01  0.2966E+00  0.2966E+00
      4.750  0.1252E-01  0.1250E-01  0.2979E+00  0.2979E+00
      4.853  0.1710E-01  0.1708E-01  0.2996E+00  0.2996E+00
      4.957  0.2143E-01  0.2142E-01  0.3018E+00  0.3018E+00
      5.060  0.1781E-01  0.1782E-01  0.3037E+00  0.3037E+00
      5.163  0.1624E-01  0.1623E-01  0.3054E+00  0.3054E+00
      5.266  0.1546E-01  0.1548E-01  0.3070E+00  0.3070E+00
      5.370  0.1448E-01  0.1446E-01  0.3085E+00  0.3084E+00
      5.473  0.2018E-01  0.2018E-01  0.3105E+00  0.3105E+00
      5.576  0.1916E-01  0.1920E-01  0.3125E+00  0.3125E+00
      5.679  0.1542E-01  0.1541E-01  0.3141E+00  0.3141E+00
      5.783  0.2056E-01  0.2052E-01  0.3162E+00  0.3162E+00
      5.886  0.2828E-01  0.2832E-01  0.3191E+00  0.3191E+00
      5.989  0.2433E-01  0.2435E-01  0.3217E+00  0.3217E+00
      6.092  0.2376E-01  0.2374E-01  0.3241E+00  0.3241E+00
      6.195  0.2585E-01  0.2582E-01  0.3268E+00  0.3268E+00
      6.299  0.2735E-01  0.2737E-01  0.3296E+00  0.3296E+00
      6.402  0.2567E-01  0.2569E-01  0.3322E+00  0.3322E+00
      6.505  0.1983E-01  0.1985E-01  0.3343E+00  0.3343E+00
      6.608  0.2180E-01  0.2175E-01  0.3365E+00  0.3365E+00
      6.712  0.3178E-01  0.3176E-01  0.3398E+00  0.3398E+00
      6.815  0.3180E-01  0.3185E-01  0.3431E+00  0.3431E+00
      6.918  0.3134E-01  0.3134E-01  0.3463E+00  0.3463E+00
      7.021  0.3370E-01  0.3369E-01  0.3498E+00  0.3498E+00
      7.124  0.2892E-01  0.2893E-01  0.3528E+00  0.3528E+00
      7.228  0.3068E-01  0.3064E-01  0.3560E+00  0.3560E+00
      7.331  0.3780E-01  0.3777E-01  0.3599E+00  0.3599E+00
      7.434  0.3010E-01  0.3013E-01  0.3630E+00  0.3630E+00
      7.537  0.2205E-01  0.2208E-01  0.3653E+00  0.3653E+00
      7.641  0.2296E-01  0.2296E-01  0.3676E+00  0.3676E+00
      7.744  0.2499E-01  0.2497E-01  0.3702E+00  0.3702E+00
      7.847  0.1959E-01  0.1963E-01  0.3722E+00  0.3722E+00
      7.950  0.1325E-01  0.1325E-01  0.3736E+00  0.3736E+00
      8.054  0.7363E-02  0.7355E-02  0.3744E+00  0.3744E+00
      8.157  0.2735E-02  0.2750E-02  0.3746E+00  0.3746E+00
      8.260  0.1279E-02  0.1284E-02  0.3748E+00  0.3748E+00
      8.363  0.1654E-02  0.1654E-02  0.3749E+00  0.3749E+00
      8.466  0.4979E-03  0.4988E-03  0.3750E+00  0.3750E+00
      8.570  0.2354E-04  0.2362E-04  0.3750E+00  0.3750E+00
      8.673  0.1573E-06  0.1582E-06  0.3750E+00  0.3750E+00
      8.776  0.1386E-09  0.1396E-09  0.3750E+00  0.3750E+00
      8.879  0.1547E-13  0.1561E-13  0.3750E+00  0.3750E+00
      8.983  0.1167E-18  0.1167E-18  0.3750E+00  0.3750E+00
      9.086  0.0000E+00  0.0000E+00  0.3750E+00  0.3750E+00
      9.189  0.0000E+00  0.0000E+00  0.3750E+00  0.3750E+00
      9.292  0.0000E+00  0.0000E+00  0.3750E+00  0.3750E+00
      9.395  0.0000E+00  0.0000E+00  0.3750E+00  0.3750E+00
      9.499  0.0000E+00  0.0000E+00  0.3750E+00  0.3750E+00
      9.602  0.0000E+00  0.0000E+00  0.3750E+00  0.3750E+00
      9.705  0.0000E+00  0.0000E+00  0.3750E+00  0.3750E+00
