  15  15   0  16
  0.2038789E+02  0.4852000E-09  0.4852000E-09  0.1500000E-08  0.5000000E-15
  1.000000000000000E-004
  CAR 
 Lattice                                 
     10.29138948    -21.65967311  301     -0.31458922      1.00000000
    -21.660  0.0000E+00  0.0000E+00  0.0000E+00  0.0000E+00
    -21.553  0.0000E+00  0.0000E+00  0.0000E+00  0.0000E+00
    -21.447  0.0000E+00  0.0000E+00  0.0000E+00  0.0000E+00
    -21.340  0.0000E+00  0.0000E+00  0.0000E+00  0.0000E+00
    -21.234  0.0000E+00  0.0000E+00  0.0000E+00  0.0000E+00
    -21.127  0.0000E+00  0.0000E+00  0.0000E+00  0.0000E+00
    -21.021  0.0000E+00  0.0000E+00  0.0000E+00  0.0000E+00
    -20.914  0.0000E+00  0.0000E+00  0.0000E+00  0.0000E+00
    -20.808  0.0000E+00  0.0000E+00  0.0000E+00  0.0000E+00
    -20.701  0.7873E-15  0.7873E-15  0.8384E-16  0.8385E-16
    -20.595  0.1292E-10  0.1292E-10  0.1376E-11  0.1376E-11
    -20.488  0.2575E-07  0.2576E-07  0.2744E-08  0.2744E-08
    -20.382  0.6860E-05  0.6860E-05  0.7333E-06  0.7334E-06
    -20.275  0.2725E-03  0.2725E-03  0.2975E-04  0.2975E-04
    -20.169  0.1976E-02  0.1976E-02  0.2403E-03  0.2403E-03
    -20.062  0.4154E-02  0.4154E-02  0.6827E-03  0.6827E-03
    -19.956  0.4527E-02  0.4527E-02  0.1165E-02  0.1165E-02
    -19.849  0.4942E-02  0.4942E-02  0.1691E-02  0.1691E-02
    -19.743  0.4164E-02  0.4164E-02  0.2135E-02  0.2135E-02
    -19.636  0.5385E-02  0.5385E-02  0.2708E-02  0.2708E-02
    -19.530  0.4229E-02  0.4229E-02  0.3159E-02  0.3159E-02
    -19.423  0.4255E-02  0.4255E-02  0.3612E-02  0.3612E-02
    -19.317  0.6013E-02  0.6013E-02  0.4252E-02  0.4252E-02
    -19.210  0.3832E-02  0.3832E-02  0.4660E-02  0.4660E-02
    -19.104  0.3875E-02  0.3875E-02  0.5073E-02  0.5073E-02
    -18.997  0.6116E-02  0.6116E-02  0.5724E-02  0.5724E-02
    -18.891  0.5225E-02  0.5225E-02  0.6281E-02  0.6281E-02
    -18.784  0.2979E-02  0.2979E-02  0.6598E-02  0.6598E-02
    -18.678  0.4352E-02  0.4352E-02  0.7062E-02  0.7062E-02
    -18.571  0.6923E-02  0.6923E-02  0.7799E-02  0.7799E-02
    -18.465  0.4591E-02  0.4591E-02  0.8288E-02  0.8288E-02
    -18.358  0.3804E-02  0.3804E-02  0.8693E-02  0.8693E-02
    -18.252  0.2978E-02  0.2978E-02  0.9010E-02  0.9010E-02
    -18.145  0.6599E-02  0.6599E-02  0.9713E-02  0.9713E-02
    -18.039  0.6641E-02  0.6641E-02  0.1042E-01  0.1042E-01
    -17.932  0.3568E-02  0.3567E-02  0.1080E-01  0.1080E-01
    -17.826  0.3278E-02  0.3278E-02  0.1115E-01  0.1115E-01
    -17.719  0.4103E-02  0.4103E-02  0.1159E-01  0.1159E-01
    -17.613  0.6192E-02  0.6192E-02  0.1225E-01  0.1225E-01
    -17.506  0.6867E-02  0.6867E-02  0.1298E-01  0.1298E-01
    -17.400  0.6302E-02  0.6302E-02  0.1365E-01  0.1365E-01
    -17.293  0.7670E-02  0.7670E-02  0.1447E-01  0.1447E-01
    -17.187  0.1059E-01  0.1059E-01  0.1559E-01  0.1559E-01
    -17.080  0.1489E-01  0.1489E-01  0.1718E-01  0.1718E-01
    -16.974  0.1623E-01  0.1623E-01  0.1891E-01  0.1891E-01
    -16.867  0.1863E-01  0.1863E-01  0.2089E-01  0.2089E-01
    -16.761  0.2124E-01  0.2124E-01  0.2315E-01  0.2315E-01
    -16.654  0.1310E-01  0.1310E-01  0.2455E-01  0.2455E-01
    -16.548  0.3460E-02  0.3460E-02  0.2492E-01  0.2492E-01
    -16.441  0.7078E-02  0.7078E-02  0.2567E-01  0.2567E-01
    -16.334  0.8205E-02  0.8204E-02  0.2655E-01  0.2655E-01
    -16.228  0.4593E-02  0.4593E-02  0.2703E-01  0.2703E-01
    -16.121  0.4165E-02  0.4165E-02  0.2748E-01  0.2748E-01
    -16.015  0.3873E-02  0.3873E-02  0.2789E-01  0.2789E-01
    -15.908  0.3826E-02  0.3826E-02  0.2830E-01  0.2830E-01
    -15.802  0.3638E-02  0.3638E-02  0.2869E-01  0.2869E-01
    -15.695  0.8041E-02  0.8041E-02  0.2954E-01  0.2954E-01
    -15.589  0.8130E-02  0.8130E-02  0.3041E-01  0.3041E-01
    -15.482  0.3973E-02  0.3973E-02  0.3083E-01  0.3083E-01
    -15.376  0.3880E-02  0.3880E-02  0.3124E-01  0.3124E-01
    -15.269  0.3388E-02  0.3388E-02  0.3161E-01  0.3161E-01
    -15.163  0.4621E-02  0.4621E-02  0.3210E-01  0.3210E-01
    -15.056  0.6424E-02  0.6424E-02  0.3278E-01  0.3278E-01
    -14.950  0.1217E-01  0.1217E-01  0.3408E-01  0.3408E-01
    -14.843  0.1823E-01  0.1823E-01  0.3602E-01  0.3602E-01
    -14.737  0.1886E-01  0.1886E-01  0.3803E-01  0.3803E-01
    -14.630  0.1647E-01  0.1647E-01  0.3978E-01  0.3978E-01
    -14.524  0.1026E-01  0.1026E-01  0.4087E-01  0.4087E-01
    -14.417  0.8184E-02  0.8184E-02  0.4175E-01  0.4175E-01
    -14.311  0.1465E-01  0.1465E-01  0.4331E-01  0.4331E-01
    -14.204  0.1556E-01  0.1556E-01  0.4496E-01  0.4496E-01
    -14.098  0.1208E-01  0.1208E-01  0.4625E-01  0.4625E-01
    -13.991  0.1061E-01  0.1061E-01  0.4738E-01  0.4738E-01
    -13.885  0.1391E-01  0.1391E-01  0.4886E-01  0.4886E-01
    -13.778  0.1971E-01  0.1971E-01  0.5096E-01  0.5096E-01
    -13.672  0.1858E-01  0.1858E-01  0.5294E-01  0.5294E-01
    -13.565  0.1731E-01  0.1731E-01  0.5478E-01  0.5478E-01
    -13.459  0.9505E-02  0.9505E-02  0.5579E-01  0.5579E-01
    -13.352  0.6033E-02  0.6033E-02  0.5644E-01  0.5644E-01
    -13.246  0.3387E-02  0.3387E-02  0.5680E-01  0.5680E-01
    -13.139  0.3936E-02  0.3936E-02  0.5722E-01  0.5722E-01
    -13.033  0.6772E-02  0.6772E-02  0.5794E-01  0.5794E-01
    -12.926  0.7013E-02  0.7013E-02  0.5869E-01  0.5869E-01
    -12.820  0.4823E-02  0.4823E-02  0.5920E-01  0.5920E-01
    -12.713  0.6725E-02  0.6725E-02  0.5992E-01  0.5992E-01
    -12.607  0.7181E-02  0.7181E-02  0.6068E-01  0.6068E-01
    -12.500  0.5545E-02  0.5545E-02  0.6127E-01  0.6127E-01
    -12.394  0.5486E-02  0.5486E-02  0.6186E-01  0.6186E-01
    -12.287  0.3354E-02  0.3354E-02  0.6221E-01  0.6221E-01
    -12.181  0.6115E-02  0.6115E-02  0.6286E-01  0.6286E-01
    -12.074  0.8231E-02  0.8231E-02  0.6374E-01  0.6374E-01
    -11.968  0.3504E-02  0.3504E-02  0.6411E-01  0.6411E-01
    -11.861  0.3281E-02  0.3281E-02  0.6446E-01  0.6446E-01
    -11.755  0.3401E-02  0.3401E-02  0.6483E-01  0.6483E-01
    -11.648  0.5863E-02  0.5863E-02  0.6545E-01  0.6545E-01
    -11.542  0.6808E-02  0.6808E-02  0.6617E-01  0.6617E-01
    -11.435  0.3976E-02  0.3976E-02  0.6660E-01  0.6660E-01
    -11.329  0.1847E-02  0.1847E-02  0.6679E-01  0.6679E-01
    -11.222  0.4513E-02  0.4513E-02  0.6728E-01  0.6728E-01
    -11.116  0.5828E-02  0.5828E-02  0.6790E-01  0.6790E-01
    -11.009  0.5106E-02  0.5106E-02  0.6844E-01  0.6844E-01
    -10.903  0.7366E-02  0.7366E-02  0.6922E-01  0.6922E-01
    -10.796  0.6662E-02  0.6662E-02  0.6993E-01  0.6993E-01
    -10.690  0.2729E-02  0.2729E-02  0.7022E-01  0.7022E-01
    -10.583  0.8205E-02  0.8205E-02  0.7110E-01  0.7110E-01
    -10.477  0.1358E-01  0.1358E-01  0.7254E-01  0.7254E-01
    -10.370  0.1535E-01  0.1535E-01  0.7418E-01  0.7418E-01
    -10.264  0.1471E-01  0.1471E-01  0.7575E-01  0.7575E-01
    -10.157  0.1523E-01  0.1523E-01  0.7737E-01  0.7737E-01
    -10.051  0.1798E-01  0.1798E-01  0.7928E-01  0.7928E-01
     -9.944  0.1730E-01  0.1730E-01  0.8113E-01  0.8113E-01
     -9.838  0.9925E-02  0.9925E-02  0.8218E-01  0.8218E-01
     -9.731  0.8509E-02  0.8509E-02  0.8309E-01  0.8309E-01
     -9.625  0.1402E-01  0.1402E-01  0.8458E-01  0.8458E-01
     -9.518  0.1338E-01  0.1338E-01  0.8601E-01  0.8601E-01
     -9.412  0.1656E-01  0.1656E-01  0.8777E-01  0.8777E-01
     -9.305  0.1744E-01  0.1744E-01  0.8963E-01  0.8963E-01
     -9.199  0.1369E-01  0.1369E-01  0.9109E-01  0.9109E-01
     -9.092  0.9705E-02  0.9704E-02  0.9212E-01  0.9212E-01
     -8.986  0.7467E-02  0.7467E-02  0.9292E-01  0.9292E-01
     -8.879  0.1670E-01  0.1670E-01  0.9470E-01  0.9470E-01
     -8.773  0.2053E-01  0.2053E-01  0.9688E-01  0.9688E-01
     -8.666  0.1374E-01  0.1374E-01  0.9835E-01  0.9835E-01
     -8.560  0.7859E-02  0.7859E-02  0.9918E-01  0.9918E-01
     -8.453  0.1184E-01  0.1184E-01  0.1004E+00  0.1004E+00
     -8.347  0.1995E-01  0.1995E-01  0.1026E+00  0.1026E+00
     -8.240  0.1705E-01  0.1705E-01  0.1044E+00  0.1044E+00
     -8.134  0.1245E-01  0.1245E-01  0.1057E+00  0.1057E+00
     -8.027  0.1704E-01  0.1704E-01  0.1075E+00  0.1075E+00
     -7.921  0.2421E-01  0.2421E-01  0.1101E+00  0.1101E+00
     -7.814  0.2498E-01  0.2498E-01  0.1128E+00  0.1128E+00
     -7.708  0.1883E-01  0.1883E-01  0.1148E+00  0.1148E+00
     -7.601  0.1078E-01  0.1078E-01  0.1159E+00  0.1159E+00
     -7.495  0.7732E-02  0.7732E-02  0.1167E+00  0.1167E+00
     -7.388  0.1745E-01  0.1745E-01  0.1186E+00  0.1186E+00
     -7.282  0.1854E-01  0.1854E-01  0.1206E+00  0.1206E+00
     -7.175  0.1290E-01  0.1290E-01  0.1219E+00  0.1219E+00
     -7.069  0.1056E-01  0.1056E-01  0.1231E+00  0.1231E+00
     -6.962  0.1595E-01  0.1595E-01  0.1248E+00  0.1248E+00
     -6.856  0.1849E-01  0.1849E-01  0.1267E+00  0.1267E+00
     -6.749  0.2041E-01  0.2041E-01  0.1289E+00  0.1289E+00
     -6.643  0.2201E-01  0.2201E-01  0.1313E+00  0.1313E+00
     -6.536  0.1799E-01  0.1799E-01  0.1332E+00  0.1332E+00
     -6.430  0.2123E-01  0.2123E-01  0.1354E+00  0.1354E+00
     -6.323  0.1776E-01  0.1776E-01  0.1373E+00  0.1373E+00
     -6.217  0.1888E-01  0.1888E-01  0.1393E+00  0.1393E+00
     -6.110  0.2674E-01  0.2674E-01  0.1422E+00  0.1422E+00
     -6.004  0.2294E-01  0.2294E-01  0.1446E+00  0.1446E+00
     -5.897  0.3105E-01  0.3105E-01  0.1479E+00  0.1479E+00
     -5.791  0.2792E-01  0.2792E-01  0.1509E+00  0.1509E+00
     -5.684  0.1812E-01  0.1812E-01  0.1528E+00  0.1528E+00
     -5.578  0.2040E-01  0.2040E-01  0.1550E+00  0.1550E+00
     -5.471  0.3273E-01  0.3273E-01  0.1585E+00  0.1585E+00
     -5.365  0.3472E-01  0.3472E-01  0.1622E+00  0.1622E+00
     -5.258  0.2136E-01  0.2136E-01  0.1645E+00  0.1645E+00
     -5.152  0.1605E-01  0.1605E-01  0.1662E+00  0.1662E+00
     -5.045  0.1020E-01  0.1020E-01  0.1673E+00  0.1673E+00
     -4.939  0.1121E-01  0.1121E-01  0.1685E+00  0.1685E+00
     -4.832  0.1395E-01  0.1395E-01  0.1699E+00  0.1699E+00
     -4.726  0.1060E-01  0.1060E-01  0.1711E+00  0.1711E+00
     -4.619  0.7584E-02  0.7584E-02  0.1719E+00  0.1719E+00
     -4.513  0.9109E-02  0.9109E-02  0.1729E+00  0.1729E+00
     -4.406  0.1749E-01  0.1749E-01  0.1747E+00  0.1747E+00
     -4.300  0.2364E-01  0.2364E-01  0.1772E+00  0.1772E+00
     -4.193  0.2051E-01  0.2051E-01  0.1794E+00  0.1794E+00
     -4.087  0.1736E-01  0.1736E-01  0.1813E+00  0.1813E+00
     -3.980  0.2043E-01  0.2043E-01  0.1834E+00  0.1834E+00
     -3.874  0.2419E-01  0.2419E-01  0.1860E+00  0.1860E+00
     -3.767  0.1851E-01  0.1851E-01  0.1880E+00  0.1880E+00
     -3.661  0.1925E-01  0.1925E-01  0.1900E+00  0.1900E+00
     -3.554  0.2017E-01  0.2017E-01  0.1922E+00  0.1922E+00
     -3.448  0.1617E-01  0.1617E-01  0.1939E+00  0.1939E+00
     -3.341  0.1254E-01  0.1254E-01  0.1952E+00  0.1952E+00
     -3.235  0.1242E-01  0.1242E-01  0.1966E+00  0.1966E+00
     -3.128  0.1796E-01  0.1796E-01  0.1985E+00  0.1985E+00
     -3.022  0.1788E-01  0.1788E-01  0.2004E+00  0.2004E+00
     -2.915  0.1199E-01  0.1199E-01  0.2017E+00  0.2017E+00
     -2.809  0.1234E-01  0.1234E-01  0.2030E+00  0.2030E+00
     -2.702  0.7965E-02  0.7965E-02  0.2038E+00  0.2038E+00
     -2.596  0.9646E-02  0.9645E-02  0.2049E+00  0.2049E+00
     -2.489  0.1741E-01  0.1741E-01  0.2067E+00  0.2067E+00
     -2.383  0.1657E-01  0.1657E-01  0.2085E+00  0.2085E+00
     -2.276  0.4784E-02  0.4785E-02  0.2090E+00  0.2090E+00
     -2.170  0.5661E-02  0.5660E-02  0.2096E+00  0.2096E+00
     -2.063  0.1088E-01  0.1088E-01  0.2107E+00  0.2107E+00
     -1.957  0.9349E-02  0.9349E-02  0.2117E+00  0.2117E+00
     -1.850  0.1088E-01  0.1088E-01  0.2129E+00  0.2129E+00
     -1.744  0.1086E-01  0.1086E-01  0.2141E+00  0.2141E+00
     -1.637  0.1009E-01  0.1009E-01  0.2151E+00  0.2151E+00
     -1.531  0.7612E-02  0.7612E-02  0.2159E+00  0.2159E+00
     -1.424  0.3740E-02  0.3741E-02  0.2163E+00  0.2163E+00
     -1.317  0.4255E-02  0.4255E-02  0.2168E+00  0.2168E+00
     -1.211  0.4149E-02  0.4149E-02  0.2172E+00  0.2172E+00
     -1.104  0.3400E-02  0.3400E-02  0.2176E+00  0.2176E+00
     -0.998  0.5518E-02  0.5518E-02  0.2182E+00  0.2182E+00
     -0.891  0.3506E-02  0.3506E-02  0.2186E+00  0.2186E+00
     -0.785  0.7135E-03  0.7136E-03  0.2186E+00  0.2186E+00
     -0.678  0.7062E-04  0.7064E-04  0.2186E+00  0.2186E+00
     -0.572  0.1850E-05  0.1851E-05  0.2186E+00  0.2186E+00
     -0.465  0.3362E-04  0.3363E-04  0.2186E+00  0.2186E+00
     -0.359  0.5074E-03  0.5074E-03  0.2187E+00  0.2187E+00
     -0.252  0.1108E-02  0.1108E-02  0.2188E+00  0.2188E+00
     -0.146  0.3702E-03  0.3702E-03  0.2189E+00  0.2189E+00
     -0.039  0.1758E-04  0.1757E-04  0.2189E+00  0.2189E+00
      0.067  0.1629E-06  0.1629E-06  0.2189E+00  0.2189E+00
      0.174  0.1684E-04  0.1684E-04  0.2189E+00  0.2189E+00
      0.280  0.6066E-03  0.6066E-03  0.2189E+00  0.2189E+00
      0.387  0.2999E-02  0.2999E-02  0.2192E+00  0.2192E+00
      0.493  0.2277E-02  0.2277E-02  0.2195E+00  0.2195E+00
      0.600  0.1077E-02  0.1077E-02  0.2196E+00  0.2196E+00
      0.706  0.3786E-02  0.3786E-02  0.2200E+00  0.2200E+00
      0.813  0.5808E-02  0.5808E-02  0.2206E+00  0.2206E+00
      0.919  0.9731E-02  0.9731E-02  0.2217E+00  0.2217E+00
      1.026  0.2345E-01  0.2345E-01  0.2242E+00  0.2242E+00
      1.132  0.2020E-01  0.2020E-01  0.2263E+00  0.2263E+00
      1.239  0.6222E-02  0.6222E-02  0.2270E+00  0.2270E+00
      1.345  0.3204E-02  0.3204E-02  0.2273E+00  0.2273E+00
      1.452  0.7287E-02  0.7287E-02  0.2281E+00  0.2281E+00
      1.558  0.1474E-01  0.1474E-01  0.2297E+00  0.2297E+00
      1.665  0.1977E-01  0.1977E-01  0.2318E+00  0.2318E+00
      1.771  0.1402E-01  0.1402E-01  0.2333E+00  0.2333E+00
      1.878  0.7122E-02  0.7122E-02  0.2340E+00  0.2340E+00
      1.984  0.7604E-02  0.7604E-02  0.2348E+00  0.2348E+00
      2.091  0.1025E-01  0.1025E-01  0.2359E+00  0.2359E+00
      2.197  0.6956E-02  0.6956E-02  0.2367E+00  0.2367E+00
      2.304  0.8552E-02  0.8552E-02  0.2376E+00  0.2376E+00
      2.410  0.6933E-02  0.6934E-02  0.2383E+00  0.2383E+00
      2.517  0.9226E-02  0.9226E-02  0.2393E+00  0.2393E+00
      2.623  0.1222E-01  0.1222E-01  0.2406E+00  0.2406E+00
      2.730  0.7346E-02  0.7346E-02  0.2414E+00  0.2414E+00
      2.836  0.4775E-02  0.4775E-02  0.2419E+00  0.2419E+00
      2.943  0.8222E-02  0.8224E-02  0.2428E+00  0.2428E+00
      3.049  0.1185E-01  0.1185E-01  0.2440E+00  0.2440E+00
      3.156  0.9971E-02  0.9971E-02  0.2451E+00  0.2451E+00
      3.262  0.9919E-02  0.9920E-02  0.2461E+00  0.2461E+00
      3.369  0.1028E-01  0.1028E-01  0.2472E+00  0.2472E+00
      3.475  0.9883E-02  0.9883E-02  0.2483E+00  0.2483E+00
      3.582  0.1806E-01  0.1806E-01  0.2502E+00  0.2502E+00
      3.688  0.2386E-01  0.2386E-01  0.2528E+00  0.2528E+00
      3.795  0.2500E-01  0.2500E-01  0.2554E+00  0.2554E+00
      3.901  0.2221E-01  0.2221E-01  0.2578E+00  0.2578E+00
      4.008  0.2270E-01  0.2270E-01  0.2602E+00  0.2602E+00
      4.114  0.2483E-01  0.2483E-01  0.2628E+00  0.2628E+00
      4.221  0.2579E-01  0.2579E-01  0.2656E+00  0.2656E+00
      4.327  0.2336E-01  0.2336E-01  0.2681E+00  0.2681E+00
      4.434  0.2362E-01  0.2362E-01  0.2706E+00  0.2706E+00
      4.540  0.2185E-01  0.2185E-01  0.2729E+00  0.2729E+00
      4.647  0.2064E-01  0.2064E-01  0.2751E+00  0.2751E+00
      4.753  0.2759E-01  0.2759E-01  0.2781E+00  0.2781E+00
      4.860  0.2477E-01  0.2477E-01  0.2807E+00  0.2807E+00
      4.966  0.2142E-01  0.2142E-01  0.2830E+00  0.2830E+00
      5.073  0.2502E-01  0.2502E-01  0.2856E+00  0.2856E+00
      5.179  0.2746E-01  0.2746E-01  0.2886E+00  0.2886E+00
      5.286  0.2346E-01  0.2346E-01  0.2911E+00  0.2911E+00
      5.392  0.2138E-01  0.2137E-01  0.2933E+00  0.2933E+00
      5.499  0.2180E-01  0.2180E-01  0.2957E+00  0.2957E+00
      5.605  0.2660E-01  0.2661E-01  0.2985E+00  0.2985E+00
      5.712  0.2435E-01  0.2436E-01  0.3011E+00  0.3011E+00
      5.818  0.2145E-01  0.2145E-01  0.3034E+00  0.3034E+00
      5.925  0.1940E-01  0.1939E-01  0.3054E+00  0.3054E+00
      6.031  0.2048E-01  0.2048E-01  0.3076E+00  0.3076E+00
      6.138  0.1535E-01  0.1535E-01  0.3093E+00  0.3093E+00
      6.244  0.1904E-01  0.1904E-01  0.3113E+00  0.3113E+00
      6.351  0.2293E-01  0.2293E-01  0.3137E+00  0.3137E+00
      6.457  0.2344E-01  0.2344E-01  0.3162E+00  0.3162E+00
      6.564  0.2566E-01  0.2566E-01  0.3190E+00  0.3190E+00
      6.670  0.2935E-01  0.2936E-01  0.3221E+00  0.3221E+00
      6.777  0.3396E-01  0.3397E-01  0.3257E+00  0.3257E+00
      6.883  0.2661E-01  0.2661E-01  0.3285E+00  0.3285E+00
      6.990  0.2517E-01  0.2517E-01  0.3312E+00  0.3312E+00
      7.096  0.2363E-01  0.2361E-01  0.3337E+00  0.3337E+00
      7.203  0.2053E-01  0.2053E-01  0.3359E+00  0.3359E+00
      7.309  0.1902E-01  0.1902E-01  0.3379E+00  0.3379E+00
      7.416  0.2126E-01  0.2126E-01  0.3402E+00  0.3402E+00
      7.522  0.2248E-01  0.2248E-01  0.3426E+00  0.3426E+00
      7.629  0.2321E-01  0.2321E-01  0.3451E+00  0.3451E+00
      7.735  0.2938E-01  0.2938E-01  0.3482E+00  0.3482E+00
      7.842  0.3560E-01  0.3560E-01  0.3520E+00  0.3520E+00
      7.948  0.2826E-01  0.2828E-01  0.3550E+00  0.3550E+00
      8.055  0.3240E-01  0.3241E-01  0.3585E+00  0.3585E+00
      8.161  0.3285E-01  0.3284E-01  0.3620E+00  0.3620E+00
      8.268  0.3067E-01  0.3067E-01  0.3652E+00  0.3652E+00
      8.374  0.3758E-01  0.3758E-01  0.3692E+00  0.3692E+00
      8.481  0.2780E-01  0.2780E-01  0.3722E+00  0.3722E+00
      8.587  0.1389E-01  0.1389E-01  0.3737E+00  0.3737E+00
      8.694  0.6283E-02  0.6282E-02  0.3743E+00  0.3743E+00
      8.800  0.3383E-02  0.3384E-02  0.3747E+00  0.3747E+00
      8.907  0.2367E-02  0.2366E-02  0.3749E+00  0.3749E+00
      9.013  0.5263E-03  0.5255E-03  0.3750E+00  0.3750E+00
      9.120  0.2061E-04  0.2055E-04  0.3750E+00  0.3750E+00
      9.226  0.1058E-06  0.1053E-06  0.3750E+00  0.3750E+00
      9.333  0.6305E-10  0.6269E-10  0.3750E+00  0.3750E+00
      9.439  0.4154E-14  0.4124E-14  0.3750E+00  0.3750E+00
      9.546  0.0000E+00  0.0000E+00  0.3750E+00  0.3750E+00
      9.652  0.0000E+00  0.0000E+00  0.3750E+00  0.3750E+00
      9.759  0.0000E+00  0.0000E+00  0.3750E+00  0.3750E+00
      9.865  0.0000E+00  0.0000E+00  0.3750E+00  0.3750E+00
      9.972  0.0000E+00  0.0000E+00  0.3750E+00  0.3750E+00
     10.078  0.0000E+00  0.0000E+00  0.3750E+00  0.3750E+00
     10.185  0.0000E+00  0.0000E+00  0.3750E+00  0.3750E+00
     10.291  0.0000E+00  0.0000E+00  0.3750E+00  0.3750E+00
