Lattice                                 
           1
     4.201955    2.426000    0.000000
    -4.201955    2.426000    0.000000
     0.000000    0.000000   15.000000
   B    C 
     4    11
Direct configuration=     1
   0.00415361  0.00267210  0.12034134
   0.35695335  0.00285503  0.09748893
   0.00423858  0.35550699  0.09749256
   0.65142295  0.65006557  0.09747688
   0.32808646  0.32671938  0.10030508
   0.68027775  0.00278085  0.10027562
   0.00416530  0.67883808  0.10026559
   0.11111044  0.38888856  0.33726667
   0.27777744  0.22222156  0.33726667
   0.11111044  0.88888856  0.33726667
   0.27777744  0.72222156  0.33726667
   0.61111044  0.38888856  0.33726667
   0.77777744  0.22222156  0.33726667
   0.61111044  0.88888856  0.33726667
   0.77777744  0.72222156  0.33726667
Direct configuration=     2
   0.00416740  0.00269486  0.11901769
   0.35568730  0.00279257  0.09783284
   0.00418974  0.35447101  0.09788951
   0.65257827  0.65111204  0.09785995
   0.32464791  0.32311907  0.10031349
   0.68398389  0.00279449  0.10032762
   0.00422486  0.68229712  0.10028246
   0.11103871  0.38899126  0.33728025
   0.27791409  0.22234410  0.33735445
   0.11129726  0.88902051  0.33729165
   0.27796882  0.72221868  0.33720566
   0.61107180  0.38883657  0.33720072
   0.77773711  0.22226852  0.33728961
   0.61092643  0.88883839  0.33734315
   0.77741595  0.72207925  0.33729030
Direct configuration=     3
   0.00416062  0.00268368  0.11966798
   0.35630930  0.00282326  0.09766388
   0.00421373  0.35497998  0.09769450
   0.65201068  0.65059792  0.09767175
   0.32633723  0.32488786  0.10030936
   0.68216311  0.00278779  0.10030207
   0.00419560  0.68059773  0.10027417
   0.11107395  0.38894080  0.33727358
   0.27784696  0.22228390  0.33731132
   0.11120548  0.88895568  0.33727938
   0.27787480  0.72222009  0.33723563
   0.61109079  0.38886211  0.33723312
   0.77775692  0.22224545  0.33727834
   0.61101683  0.88886304  0.33730557
   0.77759355  0.72214916  0.33727869
Direct configuration=     4
   0.00416956  0.00271998  0.11847963
   0.35681773  0.00275777  0.09799149
   0.00420987  0.35548623  0.09807600
   0.65156877  0.65002309  0.09803863
   0.32651246  0.32493740  0.10028319
   0.68207948  0.00278328  0.10031791
   0.00424020  0.68047039  0.10025627
   0.11109460  0.38887817  0.33729003
   0.27767627  0.22224767  0.33738571
   0.11097615  0.88885801  0.33730809
   0.27765641  0.72226627  0.33719128
   0.61108868  0.38892512  0.33718751
   0.77773628  0.22222545  0.33729946
   0.61115171  0.88897277  0.33737186
   0.77787140  0.72232684  0.33730228
Direct configuration=     5
   0.00419638  0.00282887  0.11491456
   0.35834304  0.00256131  0.09897431
   0.00419828  0.35700501  0.09922053
   0.65024303  0.64829861  0.09913926
   0.32703814  0.32508602  0.10020469
   0.68182862  0.00276973  0.10036541
   0.00437399  0.68008836  0.10020257
   0.11115654  0.38869026  0.33733940
   0.27716419  0.22213901  0.33760885
   0.11028815  0.88856498  0.33739423
   0.27700122  0.72240483  0.33705825
   0.61108236  0.38911417  0.33705068
   0.77767433  0.22216545  0.33736281
   0.61155633  0.88930196  0.33757072
   0.77870494  0.72285989  0.33737305
Direct configuration=     6
   0.00420299  0.00283280  0.11444634
   0.35848276  0.00254312  0.09907618
   0.00421041  0.35712151  0.09933723
   0.65013815  0.64815382  0.09925183
   0.32715052  0.32516841  0.10022649
   0.68173451  0.00275591  0.10039984
   0.00438562  0.67998988  0.10022718
   0.11109560  0.38879593  0.33734561
   0.27729844  0.22217439  0.33762399
   0.11049973  0.88872877  0.33740432
   0.27718773  0.72239322  0.33705664
   0.61104086  0.38909402  0.33704971
   0.77767265  0.22222402  0.33736906
   0.61137263  0.88920427  0.33758442
   0.77837696  0.72269837  0.33738049
Direct configuration=     7
   0.00422282  0.00284460  0.11304169
   0.35890189  0.00248856  0.09938178
   0.00424680  0.35747101  0.09968733
   0.64982352  0.64771947  0.09958956
   0.32748764  0.32541560  0.10029188
   0.68145220  0.00271446  0.10050313
   0.00442052  0.67969444  0.10030101
   0.11091276  0.38911293  0.33736422
   0.27770117  0.22228051  0.33766938
   0.11113444  0.88922012  0.33743458
   0.27774726  0.72235842  0.33705184
   0.61091637  0.38903355  0.33704678
   0.77766761  0.22239974  0.33738780
   0.61082156  0.88891120  0.33762554
   0.77739301  0.72221381  0.33740283
Direct configuration=     8
   0.00422962  0.00284865  0.11255963
   0.35904574  0.00246984  0.09948666
   0.00425928  0.35759096  0.09980748
   0.64971554  0.64757041  0.09970546
   0.32760334  0.32550043  0.10031432
   0.68135531  0.00270024  0.10053858
   0.00443250  0.67959305  0.10032635
   0.11085001  0.38922173  0.33737060
   0.27783938  0.22231693  0.33768496
   0.11135227  0.88938875  0.33744497
   0.27793928  0.72234647  0.33705018
   0.61087364  0.38901280  0.33704577
   0.77766588  0.22246005  0.33739423
   0.61063243  0.88881063  0.33763965
   0.77705533  0.72204752  0.33741049
Direct configuration=     9
   0.00424709  0.00282974  0.11194859
   0.35905662  0.00246111  0.09957234
   0.00429590  0.35755500  0.09989844
   0.64974811  0.64757871  0.09979468
   0.32770001  0.32559045  0.10040131
   0.68126590  0.00266383  0.10063318
   0.00444019  0.67949636  0.10041544
   0.11085079  0.38921226  0.33737813
   0.27784827  0.22243052  0.33767816
   0.11132361  0.88933066  0.33745438
   0.27794359  0.72236750  0.33707841
   0.61086855  0.38897151  0.33707612
   0.77760945  0.22245905  0.33739886
   0.61062594  0.88885015  0.33763409
   0.77702552  0.72208159  0.33741720
Direct configuration=    10
   0.00429950  0.00277299  0.11011547
   0.35908928  0.00243494  0.09982938
   0.00440574  0.35744714  0.10017133
   0.64984583  0.64760363  0.10006234
   0.32799003  0.32586048  0.10066228
   0.68099765  0.00255459  0.10091699
   0.00446328  0.67920630  0.10068272
   0.11085313  0.38918388  0.33740071
   0.27787492  0.22277130  0.33765778
   0.11123763  0.88915638  0.33748262
   0.27795651  0.72243058  0.33716310
   0.61085329  0.38884765  0.33716716
   0.77744019  0.22245604  0.33741273
   0.61060647  0.88896873  0.33761740
   0.77693611  0.72218382  0.33743732
Direct configuration=    11
   0.00440430  0.00265950  0.10644923
   0.35915458  0.00238260  0.10034345
   0.00462543  0.35723140  0.10071709
   0.65004127  0.64765348  0.10059766
   0.32857006  0.32640056  0.10118422
   0.68046117  0.00233612  0.10148461
   0.00450946  0.67862617  0.10121728
   0.11085782  0.38912710  0.33744587
   0.27792822  0.22345285  0.33761702
   0.11106567  0.88880782  0.33753910
   0.27798234  0.72255673  0.33733247
   0.61082277  0.38859993  0.33734925
   0.77710165  0.22245004  0.33744048
   0.61056752  0.88920588  0.33758403
   0.77675729  0.72238828  0.33747756
Direct configuration=    12
   0.00444541  0.00261526  0.10547422
   0.35917696  0.00237594  0.10049633
   0.00467267  0.35722355  0.10086399
   0.65004776  0.64764467  0.10074614
   0.32858609  0.32639627  0.10131713
   0.68049494  0.00229589  0.10161916
   0.00453345  0.67857067  0.10135220
   0.11078607  0.38916703  0.33745722
   0.27766019  0.22298501  0.33760255
   0.11087512  0.88900242  0.33755104
   0.27769598  0.72250924  0.33738643
   0.61079990  0.38891544  0.33740281
   0.77726136  0.22243696  0.33745063
   0.61069667  0.88928223  0.33756969
   0.77711698  0.72245785  0.33748982
Direct configuration=    13
   0.00448364  0.00257410  0.10456734
   0.35919777  0.00236975  0.10063852
   0.00471661  0.35721625  0.10100061
   0.65005380  0.64763648  0.10088423
   0.32860100  0.32639228  0.10144076
   0.68052634  0.00225847  0.10174430
   0.00455576  0.67851905  0.10147768
   0.11071933  0.38920418  0.33746777
   0.27741088  0.22254987  0.33758908
   0.11069788  0.88918343  0.33756215
   0.27742963  0.72246507  0.33743662
   0.61077863  0.38920891  0.33745262
   0.77740991  0.22242480  0.33746007
   0.61081680  0.88935324  0.33755636
   0.77745155  0.72252255  0.33750122
Direct configuration=    14
   0.00449687  0.00255728  0.10446539
   0.35925738  0.00237220  0.10069028
   0.00470237  0.35729193  0.10103563
   0.64997015  0.64756941  0.10092440
   0.32847617  0.32624559  0.10142998
   0.68069541  0.00228180  0.10172090
   0.00457231  0.67861691  0.10146600
   0.11072830  0.38919462  0.33746925
   0.27739512  0.22248838  0.33759043
   0.11075359  0.88923756  0.33756070
   0.27742638  0.72253037  0.33744409
   0.61075030  0.38921263  0.33745566
   0.77743270  0.22251779  0.33746574
   0.61076656  0.88922362  0.33755564
   0.77742594  0.72253836  0.33750522
