  15  15   0   4
  0.2042152E+02  0.4856000E-09  0.4856000E-09  0.1500000E-08  0.5000000E-15
  1.000000000000000E-004
  CAR 
 Lattice                                 
     10.25657273    -21.63257716  301     -0.30731496      1.00000000
    -21.633  0.0000E+00  0.0000E+00  0.0000E+00  0.0000E+00
    -21.526  0.0000E+00  0.0000E+00  0.0000E+00  0.0000E+00
    -21.420  0.0000E+00  0.0000E+00  0.0000E+00  0.0000E+00
    -21.314  0.0000E+00  0.0000E+00  0.0000E+00  0.0000E+00
    -21.207  0.0000E+00  0.0000E+00  0.0000E+00  0.0000E+00
    -21.101  0.0000E+00  0.0000E+00  0.0000E+00  0.0000E+00
    -20.995  0.0000E+00  0.0000E+00  0.0000E+00  0.0000E+00
    -20.888  0.0000E+00  0.0000E+00  0.0000E+00  0.0000E+00
    -20.782  0.0000E+00  0.0000E+00  0.0000E+00  0.0000E+00
    -20.676  0.8694E-15  0.8694E-15  0.9241E-16  0.9241E-16
    -20.570  0.1376E-10  0.1376E-10  0.1463E-11  0.1463E-11
    -20.463  0.2672E-07  0.2672E-07  0.2842E-08  0.2842E-08
    -20.357  0.6984E-05  0.6984E-05  0.7453E-06  0.7453E-06
    -20.251  0.2743E-03  0.2743E-03  0.2990E-04  0.2990E-04
    -20.144  0.1980E-02  0.1980E-02  0.2404E-03  0.2404E-03
    -20.038  0.4158E-02  0.4158E-02  0.6824E-03  0.6824E-03
    -19.932  0.4534E-02  0.4534E-02  0.1164E-02  0.1164E-02
    -19.826  0.4947E-02  0.4947E-02  0.1690E-02  0.1690E-02
    -19.719  0.4172E-02  0.4172E-02  0.2134E-02  0.2134E-02
    -19.613  0.5388E-02  0.5388E-02  0.2706E-02  0.2706E-02
    -19.507  0.4242E-02  0.4242E-02  0.3157E-02  0.3157E-02
    -19.400  0.4254E-02  0.4254E-02  0.3610E-02  0.3610E-02
    -19.294  0.6019E-02  0.6019E-02  0.4249E-02  0.4249E-02
    -19.188  0.3852E-02  0.3852E-02  0.4659E-02  0.4659E-02
    -19.081  0.3869E-02  0.3869E-02  0.5070E-02  0.5070E-02
    -18.975  0.6118E-02  0.6118E-02  0.5720E-02  0.5720E-02
    -18.869  0.5244E-02  0.5244E-02  0.6278E-02  0.6278E-02
    -18.763  0.2998E-02  0.2998E-02  0.6596E-02  0.6596E-02
    -18.656  0.4329E-02  0.4329E-02  0.7057E-02  0.7057E-02
    -18.550  0.6933E-02  0.6933E-02  0.7793E-02  0.7793E-02
    -18.444  0.4618E-02  0.4618E-02  0.8284E-02  0.8284E-02
    -18.337  0.3814E-02  0.3814E-02  0.8690E-02  0.8690E-02
    -18.231  0.2978E-02  0.2978E-02  0.9006E-02  0.9006E-02
    -18.125  0.6569E-02  0.6569E-02  0.9705E-02  0.9705E-02
    -18.018  0.6678E-02  0.6678E-02  0.1041E-01  0.1041E-01
    -17.912  0.3602E-02  0.3602E-02  0.1080E-01  0.1080E-01
    -17.806  0.3267E-02  0.3267E-02  0.1114E-01  0.1114E-01
    -17.700  0.4104E-02  0.4104E-02  0.1158E-01  0.1158E-01
    -17.593  0.6168E-02  0.6168E-02  0.1224E-01  0.1224E-01
    -17.487  0.6976E-02  0.6976E-02  0.1298E-01  0.1298E-01
    -17.381  0.6836E-02  0.6836E-02  0.1370E-01  0.1370E-01
    -17.274  0.8230E-02  0.8230E-02  0.1458E-01  0.1458E-01
    -17.168  0.1071E-01  0.1071E-01  0.1572E-01  0.1572E-01
    -17.062  0.1503E-01  0.1503E-01  0.1732E-01  0.1732E-01
    -16.956  0.1659E-01  0.1659E-01  0.1908E-01  0.1908E-01
    -16.849  0.1938E-01  0.1938E-01  0.2114E-01  0.2114E-01
    -16.743  0.2099E-01  0.2099E-01  0.2337E-01  0.2337E-01
    -16.637  0.1156E-01  0.1156E-01  0.2460E-01  0.2460E-01
    -16.530  0.2970E-02  0.2970E-02  0.2491E-01  0.2491E-01
    -16.424  0.6959E-02  0.6959E-02  0.2565E-01  0.2565E-01
    -16.318  0.8280E-02  0.8280E-02  0.2653E-01  0.2653E-01
    -16.211  0.4629E-02  0.4629E-02  0.2703E-01  0.2703E-01
    -16.105  0.4186E-02  0.4186E-02  0.2747E-01  0.2747E-01
    -15.999  0.3872E-02  0.3872E-02  0.2788E-01  0.2788E-01
    -15.893  0.3853E-02  0.3853E-02  0.2829E-01  0.2829E-01
    -15.786  0.3598E-02  0.3598E-02  0.2867E-01  0.2867E-01
    -15.680  0.7987E-02  0.7987E-02  0.2952E-01  0.2952E-01
    -15.574  0.8210E-02  0.8210E-02  0.3040E-01  0.3040E-01
    -15.467  0.4024E-02  0.4024E-02  0.3082E-01  0.3082E-01
    -15.361  0.3893E-02  0.3893E-02  0.3124E-01  0.3124E-01
    -15.255  0.3402E-02  0.3402E-02  0.3160E-01  0.3160E-01
    -15.148  0.4614E-02  0.4614E-02  0.3209E-01  0.3209E-01
    -15.042  0.6670E-02  0.6670E-02  0.3280E-01  0.3280E-01
    -14.936  0.1318E-01  0.1318E-01  0.3420E-01  0.3420E-01
    -14.830  0.1899E-01  0.1899E-01  0.3622E-01  0.3622E-01
    -14.723  0.1896E-01  0.1896E-01  0.3824E-01  0.3824E-01
    -14.617  0.1592E-01  0.1592E-01  0.3993E-01  0.3993E-01
    -14.511  0.9829E-02  0.9829E-02  0.4097E-01  0.4097E-01
    -14.404  0.8556E-02  0.8556E-02  0.4188E-01  0.4188E-01
    -14.298  0.1437E-01  0.1437E-01  0.4341E-01  0.4341E-01
    -14.192  0.1578E-01  0.1578E-01  0.4509E-01  0.4509E-01
    -14.085  0.1250E-01  0.1250E-01  0.4642E-01  0.4642E-01
    -13.979  0.1058E-01  0.1058E-01  0.4754E-01  0.4754E-01
    -13.873  0.1469E-01  0.1469E-01  0.4910E-01  0.4910E-01
    -13.767  0.1930E-01  0.1930E-01  0.5115E-01  0.5115E-01
    -13.660  0.1792E-01  0.1792E-01  0.5306E-01  0.5306E-01
    -13.554  0.1692E-01  0.1692E-01  0.5486E-01  0.5486E-01
    -13.448  0.8828E-02  0.8828E-02  0.5579E-01  0.5579E-01
    -13.341  0.5747E-02  0.5747E-02  0.5640E-01  0.5640E-01
    -13.235  0.3536E-02  0.3536E-02  0.5678E-01  0.5678E-01
    -13.129  0.3816E-02  0.3816E-02  0.5719E-01  0.5719E-01
    -13.023  0.6680E-02  0.6680E-02  0.5790E-01  0.5790E-01
    -12.916  0.7127E-02  0.7127E-02  0.5865E-01  0.5865E-01
    -12.810  0.4837E-02  0.4837E-02  0.5917E-01  0.5917E-01
    -12.704  0.6664E-02  0.6664E-02  0.5988E-01  0.5988E-01
    -12.597  0.7310E-02  0.7310E-02  0.6065E-01  0.6065E-01
    -12.491  0.5520E-02  0.5520E-02  0.6124E-01  0.6124E-01
    -12.385  0.5580E-02  0.5580E-02  0.6183E-01  0.6183E-01
    -12.278  0.3396E-02  0.3396E-02  0.6219E-01  0.6219E-01
    -12.172  0.5847E-02  0.5847E-02  0.6282E-01  0.6282E-01
    -12.066  0.8413E-02  0.8413E-02  0.6371E-01  0.6371E-01
    -11.960  0.3682E-02  0.3682E-02  0.6410E-01  0.6410E-01
    -11.853  0.3195E-02  0.3195E-02  0.6444E-01  0.6444E-01
    -11.747  0.3415E-02  0.3415E-02  0.6480E-01  0.6480E-01
    -11.641  0.5715E-02  0.5715E-02  0.6541E-01  0.6541E-01
    -11.534  0.6884E-02  0.6884E-02  0.6614E-01  0.6614E-01
    -11.428  0.4147E-02  0.4147E-02  0.6658E-01  0.6658E-01
    -11.322  0.1846E-02  0.1846E-02  0.6678E-01  0.6678E-01
    -11.215  0.4303E-02  0.4303E-02  0.6724E-01  0.6724E-01
    -11.109  0.5820E-02  0.5820E-02  0.6786E-01  0.6786E-01
    -11.003  0.5131E-02  0.5131E-02  0.6840E-01  0.6840E-01
    -10.897  0.6970E-02  0.6970E-02  0.6914E-01  0.6914E-01
    -10.790  0.7172E-02  0.7172E-02  0.6991E-01  0.6991E-01
    -10.684  0.3100E-02  0.3100E-02  0.7023E-01  0.7023E-01
    -10.578  0.8346E-02  0.8346E-02  0.7112E-01  0.7112E-01
    -10.471  0.1425E-01  0.1425E-01  0.7264E-01  0.7264E-01
    -10.365  0.1534E-01  0.1534E-01  0.7427E-01  0.7427E-01
    -10.259  0.1461E-01  0.1461E-01  0.7582E-01  0.7582E-01
    -10.152  0.1579E-01  0.1579E-01  0.7750E-01  0.7750E-01
    -10.046  0.1775E-01  0.1775E-01  0.7939E-01  0.7939E-01
     -9.940  0.1614E-01  0.1614E-01  0.8110E-01  0.8110E-01
     -9.834  0.1036E-01  0.1036E-01  0.8220E-01  0.8220E-01
     -9.727  0.9948E-02  0.9948E-02  0.8326E-01  0.8326E-01
     -9.621  0.1360E-01  0.1360E-01  0.8471E-01  0.8471E-01
     -9.515  0.1180E-01  0.1180E-01  0.8596E-01  0.8596E-01
     -9.408  0.1678E-01  0.1678E-01  0.8774E-01  0.8774E-01
     -9.302  0.1894E-01  0.1894E-01  0.8976E-01  0.8976E-01
     -9.196  0.1336E-01  0.1336E-01  0.9118E-01  0.9118E-01
     -9.090  0.8987E-02  0.8987E-02  0.9213E-01  0.9213E-01
     -8.983  0.7499E-02  0.7499E-02  0.9293E-01  0.9293E-01
     -8.877  0.1762E-01  0.1762E-01  0.9480E-01  0.9480E-01
     -8.771  0.2024E-01  0.2024E-01  0.9695E-01  0.9695E-01
     -8.664  0.1257E-01  0.1257E-01  0.9829E-01  0.9829E-01
     -8.558  0.8264E-02  0.8264E-02  0.9917E-01  0.9917E-01
     -8.452  0.1274E-01  0.1274E-01  0.1005E+00  0.1005E+00
     -8.345  0.1932E-01  0.1932E-01  0.1026E+00  0.1026E+00
     -8.239  0.1624E-01  0.1624E-01  0.1043E+00  0.1043E+00
     -8.133  0.1337E-01  0.1337E-01  0.1057E+00  0.1057E+00
     -8.027  0.1798E-01  0.1798E-01  0.1076E+00  0.1076E+00
     -7.920  0.2320E-01  0.2320E-01  0.1101E+00  0.1101E+00
     -7.814  0.2517E-01  0.2517E-01  0.1128E+00  0.1128E+00
     -7.708  0.1806E-01  0.1806E-01  0.1147E+00  0.1147E+00
     -7.601  0.1086E-01  0.1086E-01  0.1159E+00  0.1159E+00
     -7.495  0.7283E-02  0.7283E-02  0.1166E+00  0.1166E+00
     -7.389  0.1659E-01  0.1659E-01  0.1184E+00  0.1184E+00
     -7.282  0.1883E-01  0.1883E-01  0.1204E+00  0.1204E+00
     -7.176  0.1354E-01  0.1354E-01  0.1218E+00  0.1218E+00
     -7.070  0.1056E-01  0.1056E-01  0.1230E+00  0.1230E+00
     -6.964  0.1531E-01  0.1531E-01  0.1246E+00  0.1246E+00
     -6.857  0.1851E-01  0.1851E-01  0.1265E+00  0.1265E+00
     -6.751  0.1994E-01  0.1994E-01  0.1287E+00  0.1287E+00
     -6.645  0.2230E-01  0.2230E-01  0.1310E+00  0.1310E+00
     -6.538  0.1862E-01  0.1862E-01  0.1330E+00  0.1330E+00
     -6.432  0.2120E-01  0.2120E-01  0.1353E+00  0.1353E+00
     -6.326  0.1831E-01  0.1831E-01  0.1372E+00  0.1372E+00
     -6.219  0.1870E-01  0.1870E-01  0.1392E+00  0.1392E+00
     -6.113  0.2667E-01  0.2667E-01  0.1420E+00  0.1420E+00
     -6.007  0.2419E-01  0.2419E-01  0.1446E+00  0.1446E+00
     -5.901  0.3014E-01  0.3014E-01  0.1478E+00  0.1478E+00
     -5.794  0.2788E-01  0.2788E-01  0.1508E+00  0.1508E+00
     -5.688  0.1894E-01  0.1894E-01  0.1528E+00  0.1528E+00
     -5.582  0.2029E-01  0.2029E-01  0.1549E+00  0.1549E+00
     -5.475  0.3304E-01  0.3304E-01  0.1585E+00  0.1585E+00
     -5.369  0.3531E-01  0.3531E-01  0.1622E+00  0.1622E+00
     -5.263  0.2019E-01  0.2019E-01  0.1644E+00  0.1644E+00
     -5.157  0.1566E-01  0.1566E-01  0.1660E+00  0.1660E+00
     -5.050  0.1080E-01  0.1080E-01  0.1672E+00  0.1672E+00
     -4.944  0.1150E-01  0.1150E-01  0.1684E+00  0.1684E+00
     -4.838  0.1374E-01  0.1374E-01  0.1699E+00  0.1699E+00
     -4.731  0.1056E-01  0.1056E-01  0.1710E+00  0.1710E+00
     -4.625  0.7545E-02  0.7545E-02  0.1718E+00  0.1718E+00
     -4.519  0.9042E-02  0.9042E-02  0.1727E+00  0.1727E+00
     -4.412  0.1732E-01  0.1732E-01  0.1746E+00  0.1746E+00
     -4.306  0.2427E-01  0.2427E-01  0.1772E+00  0.1772E+00
     -4.200  0.2173E-01  0.2173E-01  0.1795E+00  0.1795E+00
     -4.094  0.1682E-01  0.1682E-01  0.1813E+00  0.1813E+00
     -3.987  0.1918E-01  0.1918E-01  0.1833E+00  0.1833E+00
     -3.881  0.2410E-01  0.2410E-01  0.1859E+00  0.1859E+00
     -3.775  0.1912E-01  0.1912E-01  0.1879E+00  0.1879E+00
     -3.668  0.1940E-01  0.1940E-01  0.1900E+00  0.1900E+00
     -3.562  0.2025E-01  0.2025E-01  0.1921E+00  0.1921E+00
     -3.456  0.1623E-01  0.1623E-01  0.1938E+00  0.1938E+00
     -3.349  0.1274E-01  0.1274E-01  0.1952E+00  0.1952E+00
     -3.243  0.1221E-01  0.1221E-01  0.1965E+00  0.1965E+00
     -3.137  0.1763E-01  0.1763E-01  0.1984E+00  0.1984E+00
     -3.031  0.1793E-01  0.1793E-01  0.2003E+00  0.2003E+00
     -2.924  0.1221E-01  0.1221E-01  0.2016E+00  0.2016E+00
     -2.818  0.1227E-01  0.1227E-01  0.2029E+00  0.2029E+00
     -2.712  0.8513E-02  0.8513E-02  0.2038E+00  0.2038E+00
     -2.605  0.9446E-02  0.9446E-02  0.2048E+00  0.2048E+00
     -2.499  0.1687E-01  0.1687E-01  0.2066E+00  0.2066E+00
     -2.393  0.1751E-01  0.1751E-01  0.2084E+00  0.2084E+00
     -2.286  0.5447E-02  0.5447E-02  0.2090E+00  0.2090E+00
     -2.180  0.5192E-02  0.5192E-02  0.2096E+00  0.2096E+00
     -2.074  0.9456E-02  0.9456E-02  0.2106E+00  0.2106E+00
     -1.968  0.9407E-02  0.9407E-02  0.2116E+00  0.2116E+00
     -1.861  0.1072E-01  0.1072E-01  0.2127E+00  0.2127E+00
     -1.755  0.1111E-01  0.1111E-01  0.2139E+00  0.2139E+00
     -1.649  0.1035E-01  0.1035E-01  0.2150E+00  0.2150E+00
     -1.542  0.8482E-02  0.8482E-02  0.2159E+00  0.2159E+00
     -1.436  0.3842E-02  0.3842E-02  0.2163E+00  0.2163E+00
     -1.330  0.4061E-02  0.4061E-02  0.2167E+00  0.2167E+00
     -1.224  0.4472E-02  0.4472E-02  0.2172E+00  0.2172E+00
     -1.117  0.3189E-02  0.3189E-02  0.2175E+00  0.2175E+00
     -1.011  0.5145E-02  0.5145E-02  0.2181E+00  0.2181E+00
     -0.905  0.4147E-02  0.4147E-02  0.2185E+00  0.2185E+00
     -0.798  0.9658E-03  0.9658E-03  0.2186E+00  0.2186E+00
     -0.692  0.8859E-04  0.8859E-04  0.2186E+00  0.2186E+00
     -0.586  0.1931E-05  0.1930E-05  0.2186E+00  0.2186E+00
     -0.479  0.1515E-04  0.1515E-04  0.2186E+00  0.2186E+00
     -0.373  0.3440E-03  0.3440E-03  0.2187E+00  0.2187E+00
     -0.267  0.1103E-02  0.1103E-02  0.2188E+00  0.2188E+00
     -0.161  0.5402E-03  0.5402E-03  0.2189E+00  0.2189E+00
     -0.054  0.3837E-04  0.3837E-04  0.2189E+00  0.2189E+00
      0.052  0.3668E-06  0.3668E-06  0.2189E+00  0.2189E+00
      0.158  0.6610E-05  0.6610E-05  0.2189E+00  0.2189E+00
      0.265  0.3545E-03  0.3545E-03  0.2189E+00  0.2189E+00
      0.371  0.2554E-02  0.2554E-02  0.2192E+00  0.2192E+00
      0.477  0.2776E-02  0.2776E-02  0.2195E+00  0.2195E+00
      0.584  0.1173E-02  0.1173E-02  0.2196E+00  0.2196E+00
      0.690  0.4160E-02  0.4160E-02  0.2200E+00  0.2200E+00
      0.796  0.7189E-02  0.7190E-02  0.2208E+00  0.2208E+00
      0.902  0.1301E-01  0.1301E-01  0.2222E+00  0.2222E+00
      1.009  0.2486E-01  0.2486E-01  0.2248E+00  0.2248E+00
      1.115  0.1663E-01  0.1663E-01  0.2266E+00  0.2266E+00
      1.221  0.3345E-02  0.3345E-02  0.2269E+00  0.2269E+00
      1.328  0.1020E-02  0.1020E-02  0.2271E+00  0.2271E+00
      1.434  0.5003E-02  0.5003E-02  0.2276E+00  0.2276E+00
      1.540  0.1512E-01  0.1512E-01  0.2292E+00  0.2292E+00
      1.647  0.2061E-01  0.2061E-01  0.2314E+00  0.2314E+00
      1.753  0.1448E-01  0.1448E-01  0.2329E+00  0.2329E+00
      1.859  0.9328E-02  0.9328E-02  0.2339E+00  0.2339E+00
      1.965  0.8767E-02  0.8767E-02  0.2348E+00  0.2348E+00
      2.072  0.9632E-02  0.9632E-02  0.2359E+00  0.2359E+00
      2.178  0.7055E-02  0.7055E-02  0.2366E+00  0.2366E+00
      2.284  0.9286E-02  0.9286E-02  0.2376E+00  0.2376E+00
      2.391  0.5749E-02  0.5749E-02  0.2382E+00  0.2382E+00
      2.497  0.7242E-02  0.7242E-02  0.2390E+00  0.2390E+00
      2.603  0.1403E-01  0.1403E-01  0.2405E+00  0.2405E+00
      2.709  0.8808E-02  0.8808E-02  0.2414E+00  0.2414E+00
      2.816  0.4514E-02  0.4514E-02  0.2419E+00  0.2419E+00
      2.922  0.6341E-02  0.6342E-02  0.2426E+00  0.2426E+00
      3.028  0.1072E-01  0.1072E-01  0.2437E+00  0.2437E+00
      3.135  0.1179E-01  0.1179E-01  0.2450E+00  0.2450E+00
      3.241  0.9668E-02  0.9669E-02  0.2460E+00  0.2460E+00
      3.347  0.1049E-01  0.1049E-01  0.2471E+00  0.2471E+00
      3.454  0.9255E-02  0.9255E-02  0.2481E+00  0.2481E+00
      3.560  0.1803E-01  0.1803E-01  0.2500E+00  0.2500E+00
      3.666  0.2571E-01  0.2571E-01  0.2527E+00  0.2527E+00
      3.772  0.2459E-01  0.2459E-01  0.2553E+00  0.2554E+00
      3.879  0.2229E-01  0.2229E-01  0.2577E+00  0.2577E+00
      3.985  0.2234E-01  0.2234E-01  0.2601E+00  0.2601E+00
      4.091  0.2765E-01  0.2765E-01  0.2630E+00  0.2630E+00
      4.198  0.2481E-01  0.2481E-01  0.2657E+00  0.2657E+00
      4.304  0.2250E-01  0.2250E-01  0.2681E+00  0.2681E+00
      4.410  0.2367E-01  0.2367E-01  0.2706E+00  0.2706E+00
      4.517  0.2202E-01  0.2202E-01  0.2729E+00  0.2729E+00
      4.623  0.1879E-01  0.1880E-01  0.2749E+00  0.2749E+00
      4.729  0.2811E-01  0.2811E-01  0.2779E+00  0.2779E+00
      4.835  0.2757E-01  0.2757E-01  0.2808E+00  0.2808E+00
      4.942  0.2038E-01  0.2038E-01  0.2830E+00  0.2830E+00
      5.048  0.2405E-01  0.2406E-01  0.2856E+00  0.2856E+00
      5.154  0.2682E-01  0.2682E-01  0.2884E+00  0.2884E+00
      5.261  0.2261E-01  0.2261E-01  0.2908E+00  0.2908E+00
      5.367  0.2191E-01  0.2191E-01  0.2931E+00  0.2931E+00
      5.473  0.2389E-01  0.2389E-01  0.2957E+00  0.2957E+00
      5.579  0.2648E-01  0.2647E-01  0.2985E+00  0.2985E+00
      5.686  0.2037E-01  0.2038E-01  0.3007E+00  0.3007E+00
      5.792  0.2253E-01  0.2253E-01  0.3031E+00  0.3031E+00
      5.898  0.2132E-01  0.2132E-01  0.3053E+00  0.3053E+00
      6.005  0.2081E-01  0.2081E-01  0.3075E+00  0.3075E+00
      6.111  0.1588E-01  0.1588E-01  0.3092E+00  0.3092E+00
      6.217  0.1811E-01  0.1811E-01  0.3111E+00  0.3111E+00
      6.324  0.2293E-01  0.2293E-01  0.3136E+00  0.3136E+00
      6.430  0.2299E-01  0.2299E-01  0.3160E+00  0.3160E+00
      6.536  0.2611E-01  0.2611E-01  0.3188E+00  0.3188E+00
      6.642  0.2789E-01  0.2789E-01  0.3218E+00  0.3218E+00
      6.749  0.3349E-01  0.3350E-01  0.3253E+00  0.3253E+00
      6.855  0.2620E-01  0.2619E-01  0.3281E+00  0.3281E+00
      6.961  0.2480E-01  0.2480E-01  0.3307E+00  0.3308E+00
      7.068  0.2575E-01  0.2574E-01  0.3335E+00  0.3335E+00
      7.174  0.2156E-01  0.2155E-01  0.3358E+00  0.3358E+00
      7.280  0.1869E-01  0.1869E-01  0.3378E+00  0.3378E+00
      7.387  0.2117E-01  0.2118E-01  0.3400E+00  0.3400E+00
      7.493  0.2316E-01  0.2316E-01  0.3425E+00  0.3425E+00
      7.599  0.2348E-01  0.2347E-01  0.3450E+00  0.3450E+00
      7.705  0.2839E-01  0.2840E-01  0.3480E+00  0.3480E+00
      7.812  0.3421E-01  0.3420E-01  0.3516E+00  0.3516E+00
      7.918  0.2743E-01  0.2744E-01  0.3545E+00  0.3545E+00
      8.024  0.3143E-01  0.3144E-01  0.3579E+00  0.3579E+00
      8.131  0.3414E-01  0.3413E-01  0.3615E+00  0.3615E+00
      8.237  0.3052E-01  0.3052E-01  0.3648E+00  0.3648E+00
      8.343  0.3805E-01  0.3805E-01  0.3688E+00  0.3688E+00
      8.450  0.2988E-01  0.2987E-01  0.3720E+00  0.3720E+00
      8.556  0.1448E-01  0.1447E-01  0.3735E+00  0.3735E+00
      8.662  0.7254E-02  0.7253E-02  0.3743E+00  0.3743E+00
      8.768  0.3738E-02  0.3738E-02  0.3747E+00  0.3747E+00
      8.875  0.2410E-02  0.2410E-02  0.3749E+00  0.3749E+00
      8.981  0.5372E-03  0.5371E-03  0.3750E+00  0.3750E+00
      9.087  0.2144E-04  0.2143E-04  0.3750E+00  0.3750E+00
      9.194  0.1134E-06  0.1133E-06  0.3750E+00  0.3750E+00
      9.300  0.7031E-10  0.7026E-10  0.3750E+00  0.3750E+00
      9.406  0.4862E-14  0.4858E-14  0.3750E+00  0.3750E+00
      9.512  0.0000E+00  0.0000E+00  0.3750E+00  0.3750E+00
      9.619  0.0000E+00  0.0000E+00  0.3750E+00  0.3750E+00
      9.725  0.0000E+00  0.0000E+00  0.3750E+00  0.3750E+00
      9.831  0.0000E+00  0.0000E+00  0.3750E+00  0.3750E+00
      9.938  0.0000E+00  0.0000E+00  0.3750E+00  0.3750E+00
     10.044  0.0000E+00  0.0000E+00  0.3750E+00  0.3750E+00
     10.150  0.0000E+00  0.0000E+00  0.3750E+00  0.3750E+00
     10.257  0.0000E+00  0.0000E+00  0.3750E+00  0.3750E+00
