   2   2   0  16
  0.3953030E+02  0.2467000E-09  0.2467000E-09  0.1500000E-08  0.5000000E-15
  1.000000000000000E-004
  CAR 
 SC                                      
     43.92780363    -24.88504786  301     -2.25426103      1.00000000
    -24.885  0.0000E+00  0.0000E+00
    -24.656  0.0000E+00  0.0000E+00
    -24.426  0.0000E+00  0.0000E+00
    -24.197  0.0000E+00  0.0000E+00
    -23.968  0.0000E+00  0.0000E+00
    -23.738  0.0000E+00  0.0000E+00
    -23.509  0.0000E+00  0.0000E+00
    -23.279  0.0000E+00  0.0000E+00
    -23.050  0.0000E+00  0.0000E+00
    -22.821  0.0000E+00  0.0000E+00
    -22.591  0.0000E+00  0.0000E+00
    -22.362  0.0000E+00  0.0000E+00
    -22.133  0.9270E-09  0.2126E-09
    -21.903  0.6753E-03  0.1549E-03
    -21.674  0.1166E+00  0.2689E-01
    -21.444  0.3021E+00  0.9618E-01
    -21.215  0.3088E+00  0.1670E+00
    -20.986  0.3089E+00  0.2379E+00
    -20.756  0.3079E+00  0.3085E+00
    -20.527  0.3092E+00  0.3794E+00
    -20.298  0.3108E+00  0.4507E+00
    -20.068  0.3140E+00  0.5227E+00
    -19.839  0.3217E+00  0.5965E+00
    -19.609  0.3223E+00  0.6704E+00
    -19.380  0.3081E+00  0.7411E+00
    -19.151  0.3044E+00  0.8109E+00
    -18.921  0.3376E+00  0.8884E+00
    -18.692  0.3250E+00  0.9629E+00
    -18.463  0.2961E+00  0.1031E+01
    -18.233  0.3538E+00  0.1112E+01
    -18.004  0.3205E+00  0.1186E+01
    -17.774  0.3182E+00  0.1259E+01
    -17.545  0.3670E+00  0.1343E+01
    -17.316  0.3001E+00  0.1412E+01
    -17.086  0.3877E+00  0.1500E+01
    -16.857  0.3329E+00  0.1577E+01
    -16.628  0.4161E+00  0.1672E+01
    -16.398  0.4492E+00  0.1775E+01
    -16.169  0.2919E+00  0.1842E+01
    -15.939  0.2735E+00  0.1905E+01
    -15.710  0.1080E+00  0.1930E+01
    -15.481  0.1807E+00  0.1971E+01
    -15.251  0.2943E+00  0.2039E+01
    -15.022  0.3229E+00  0.2113E+01
    -14.792  0.3416E+00  0.2191E+01
    -14.563  0.4333E+00  0.2291E+01
    -14.334  0.4298E+00  0.2389E+01
    -14.104  0.3767E+00  0.2476E+01
    -13.875  0.3423E+00  0.2554E+01
    -13.646  0.3150E+00  0.2626E+01
    -13.416  0.3038E+00  0.2696E+01
    -13.187  0.3078E+00  0.2767E+01
    -12.957  0.2788E+00  0.2831E+01
    -12.728  0.2726E+00  0.2893E+01
    -12.499  0.3699E+00  0.2978E+01
    -12.269  0.3535E+00  0.3059E+01
    -12.040  0.3617E+00  0.3142E+01
    -11.811  0.3776E+00  0.3229E+01
    -11.581  0.3767E+00  0.3315E+01
    -11.352  0.4165E+00  0.3410E+01
    -11.122  0.3277E+00  0.3486E+01
    -10.893  0.4293E+00  0.3584E+01
    -10.664  0.3949E+00  0.3675E+01
    -10.434  0.4563E+00  0.3779E+01
    -10.205  0.3713E+00  0.3865E+01
     -9.976  0.4706E+00  0.3972E+01
     -9.746  0.5941E+00  0.4109E+01
     -9.517  0.7441E+00  0.4279E+01
     -9.287  0.7672E+00  0.4455E+01
     -9.058  0.8198E+00  0.4643E+01
     -8.829  0.9158E+00  0.4854E+01
     -8.599  0.1096E+01  0.5105E+01
     -8.370  0.9750E+00  0.5328E+01
     -8.141  0.8239E+00  0.5517E+01
     -7.911  0.8015E+00  0.5701E+01
     -7.682  0.6912E+00  0.5860E+01
     -7.452  0.6855E+00  0.6017E+01
     -7.223  0.6293E+00  0.6161E+01
     -6.994  0.6584E+00  0.6312E+01
     -6.764  0.5843E+00  0.6446E+01
     -6.535  0.6329E+00  0.6592E+01
     -6.306  0.5842E+00  0.6726E+01
     -6.076  0.5233E+00  0.6846E+01
     -5.847  0.6095E+00  0.6985E+01
     -5.617  0.5185E+00  0.7104E+01
     -5.388  0.5845E+00  0.7238E+01
     -5.159  0.4347E+00  0.7338E+01
     -4.929  0.3857E+00  0.7427E+01
     -4.700  0.4782E+00  0.7536E+01
     -4.471  0.4852E+00  0.7648E+01
     -4.241  0.4614E+00  0.7753E+01
     -4.012  0.2156E+00  0.7803E+01
     -3.782  0.2541E+00  0.7861E+01
     -3.553  0.1761E+00  0.7902E+01
     -3.324  0.1367E+00  0.7933E+01
     -3.094  0.1261E+00  0.7962E+01
     -2.865  0.6309E-01  0.7976E+01
     -2.636  0.6927E-01  0.7992E+01
     -2.406  0.2847E-01  0.7999E+01
     -2.177  0.5939E-02  0.8000E+01
     -1.947  0.2734E-01  0.8006E+01
     -1.718  0.4913E-01  0.8018E+01
     -1.489  0.6677E-01  0.8033E+01
     -1.259  0.1433E+00  0.8066E+01
     -1.030  0.1338E+00  0.8097E+01
     -0.801  0.2599E+00  0.8156E+01
     -0.571  0.5050E+00  0.8272E+01
     -0.342  0.5287E+00  0.8393E+01
     -0.112  0.4362E+00  0.8493E+01
      0.117  0.3052E+00  0.8563E+01
      0.346  0.3439E+00  0.8642E+01
      0.576  0.2522E+00  0.8700E+01
      0.805  0.2861E+00  0.8766E+01
      1.034  0.2605E+00  0.8825E+01
      1.264  0.4765E+00  0.8935E+01
      1.493  0.4549E+00  0.9039E+01
      1.723  0.4332E+00  0.9138E+01
      1.952  0.4964E+00  0.9252E+01
      2.181  0.6322E+00  0.9397E+01
      2.411  0.6812E+00  0.9554E+01
      2.640  0.7647E+00  0.9729E+01
      2.869  0.9203E+00  0.9940E+01
      3.099  0.8134E+00  0.1013E+02
      3.328  0.8301E+00  0.1032E+02
      3.558  0.8885E+00  0.1052E+02
      3.787  0.8226E+00  0.1071E+02
      4.016  0.9032E+00  0.1092E+02
      4.246  0.7937E+00  0.1110E+02
      4.475  0.8448E+00  0.1129E+02
      4.704  0.1070E+01  0.1154E+02
      4.934  0.1082E+01  0.1179E+02
      5.163  0.1280E+01  0.1208E+02
      5.393  0.1765E+01  0.1248E+02
      5.622  0.1766E+01  0.1289E+02
      5.851  0.1947E+01  0.1334E+02
      6.081  0.2009E+01  0.1380E+02
      6.310  0.2514E+01  0.1437E+02
      6.539  0.1922E+01  0.1481E+02
      6.769  0.1966E+01  0.1527E+02
      6.998  0.1661E+01  0.1565E+02
      7.228  0.1763E+01  0.1605E+02
      7.457  0.1690E+01  0.1644E+02
      7.686  0.1579E+01  0.1680E+02
      7.916  0.1703E+01  0.1719E+02
      8.145  0.1744E+01  0.1759E+02
      8.374  0.1650E+01  0.1797E+02
      8.604  0.2470E+01  0.1854E+02
      8.833  0.1978E+01  0.1899E+02
      9.063  0.1806E+01  0.1940E+02
      9.292  0.2071E+01  0.1988E+02
      9.521  0.1755E+01  0.2028E+02
      9.751  0.1975E+01  0.2073E+02
      9.980  0.2082E+01  0.2121E+02
     10.210  0.1890E+01  0.2165E+02
     10.439  0.2417E+01  0.2220E+02
     10.668  0.2533E+01  0.2278E+02
     10.898  0.2242E+01  0.2330E+02
     11.127  0.2068E+01  0.2377E+02
     11.356  0.1997E+01  0.2423E+02
     11.586  0.2373E+01  0.2477E+02
     11.815  0.2759E+01  0.2541E+02
     12.045  0.2299E+01  0.2593E+02
     12.274  0.1785E+01  0.2634E+02
     12.503  0.1674E+01  0.2673E+02
     12.733  0.1534E+01  0.2708E+02
     12.962  0.1601E+01  0.2744E+02
     13.191  0.1456E+01  0.2778E+02
     13.421  0.1726E+01  0.2817E+02
     13.650  0.1957E+01  0.2862E+02
     13.880  0.2213E+01  0.2913E+02
     14.109  0.2369E+01  0.2967E+02
     14.338  0.2372E+01  0.3022E+02
     14.568  0.2748E+01  0.3085E+02
     14.797  0.2841E+01  0.3150E+02
     15.026  0.2592E+01  0.3210E+02
     15.256  0.2215E+01  0.3260E+02
     15.485  0.2255E+01  0.3312E+02
     15.715  0.1770E+01  0.3353E+02
     15.944  0.1946E+01  0.3397E+02
     16.173  0.2136E+01  0.3446E+02
     16.403  0.2456E+01  0.3503E+02
     16.632  0.2370E+01  0.3557E+02
     16.861  0.2275E+01  0.3609E+02
     17.091  0.2370E+01  0.3664E+02
     17.320  0.2816E+01  0.3728E+02
     17.550  0.2264E+01  0.3780E+02
     17.779  0.1990E+01  0.3826E+02
     18.008  0.2373E+01  0.3880E+02
     18.238  0.2407E+01  0.3935E+02
     18.467  0.2140E+01  0.3984E+02
     18.696  0.2222E+01  0.4035E+02
     18.926  0.2420E+01  0.4091E+02
     19.155  0.2812E+01  0.4155E+02
     19.385  0.2309E+01  0.4208E+02
     19.614  0.2788E+01  0.4272E+02
     19.843  0.2648E+01  0.4333E+02
     20.073  0.3238E+01  0.4407E+02
     20.302  0.3143E+01  0.4479E+02
     20.531  0.2772E+01  0.4543E+02
     20.761  0.2227E+01  0.4594E+02
     20.990  0.2062E+01  0.4641E+02
     21.220  0.2391E+01  0.4696E+02
     21.449  0.3149E+01  0.4768E+02
     21.678  0.3216E+01  0.4842E+02
     21.908  0.3083E+01  0.4913E+02
     22.137  0.3302E+01  0.4989E+02
     22.366  0.2680E+01  0.5050E+02
     22.596  0.2710E+01  0.5112E+02
     22.825  0.2384E+01  0.5167E+02
     23.055  0.2665E+01  0.5228E+02
     23.284  0.2893E+01  0.5295E+02
     23.513  0.2524E+01  0.5352E+02
     23.743  0.3199E+01  0.5426E+02
     23.972  0.3309E+01  0.5502E+02
     24.201  0.3599E+01  0.5584E+02
     24.431  0.2458E+01  0.5641E+02
     24.660  0.3138E+01  0.5713E+02
     24.890  0.2745E+01  0.5776E+02
     25.119  0.2768E+01  0.5839E+02
     25.348  0.2890E+01  0.5905E+02
     25.578  0.2770E+01  0.5969E+02
     25.807  0.2886E+01  0.6035E+02
     26.036  0.2765E+01  0.6099E+02
     26.266  0.2358E+01  0.6153E+02
     26.495  0.2260E+01  0.6204E+02
     26.725  0.2046E+01  0.6251E+02
     26.954  0.3041E+01  0.6321E+02
     27.183  0.3509E+01  0.6402E+02
     27.413  0.3020E+01  0.6471E+02
     27.642  0.2716E+01  0.6533E+02
     27.871  0.2774E+01  0.6597E+02
     28.101  0.2330E+01  0.6650E+02
     28.330  0.2685E+01  0.6712E+02
     28.560  0.2807E+01  0.6776E+02
     28.789  0.2626E+01  0.6836E+02
     29.018  0.2643E+01  0.6897E+02
     29.248  0.3266E+01  0.6972E+02
     29.477  0.2875E+01  0.7038E+02
     29.706  0.2860E+01  0.7104E+02
     29.936  0.2761E+01  0.7167E+02
     30.165  0.2637E+01  0.7227E+02
     30.395  0.2838E+01  0.7292E+02
     30.624  0.2958E+01  0.7360E+02
     30.853  0.3324E+01  0.7437E+02
     31.083  0.3319E+01  0.7513E+02
     31.312  0.2878E+01  0.7579E+02
     31.541  0.2779E+01  0.7642E+02
     31.771  0.2589E+01  0.7702E+02
     32.000  0.2821E+01  0.7766E+02
     32.230  0.3378E+01  0.7844E+02
     32.459  0.4084E+01  0.7938E+02
     32.688  0.4020E+01  0.8030E+02
     32.918  0.3098E+01  0.8101E+02
     33.147  0.3173E+01  0.8174E+02
     33.376  0.2594E+01  0.8233E+02
     33.606  0.2639E+01  0.8294E+02
     33.835  0.2956E+01  0.8362E+02
     34.065  0.2638E+01  0.8422E+02
     34.294  0.2520E+01  0.8480E+02
     34.523  0.2936E+01  0.8547E+02
     34.753  0.3179E+01  0.8620E+02
     34.982  0.3468E+01  0.8700E+02
     35.212  0.3253E+01  0.8774E+02
     35.441  0.3320E+01  0.8850E+02
     35.670  0.3576E+01  0.8932E+02
     35.900  0.3173E+01  0.9005E+02
     36.129  0.3585E+01  0.9087E+02
     36.358  0.2881E+01  0.9154E+02
     36.588  0.2589E+01  0.9213E+02
     36.817  0.2640E+01  0.9273E+02
     37.047  0.1989E+01  0.9319E+02
     37.276  0.1934E+01  0.9363E+02
     37.505  0.2319E+01  0.9417E+02
     37.735  0.1676E+01  0.9455E+02
     37.964  0.1443E+01  0.9488E+02
     38.193  0.1001E+01  0.9511E+02
     38.423  0.8715E+00  0.9531E+02
     38.652  0.7442E+00  0.9548E+02
     38.882  0.5114E+00  0.9560E+02
     39.111  0.3388E+00  0.9568E+02
     39.340  0.3571E+00  0.9576E+02
     39.570  0.2587E+00  0.9582E+02
     39.799  0.2972E+00  0.9589E+02
     40.028  0.1205E+00  0.9591E+02
     40.258  0.3898E-01  0.9592E+02
     40.487  0.1791E+00  0.9596E+02
     40.717  0.7422E-01  0.9598E+02
     40.946  0.7979E-01  0.9600E+02
     41.175  0.1586E-02  0.9600E+02
     41.405  0.3867E-08  0.9600E+02
     41.634  0.0000E+00  0.9600E+02
     41.863  0.0000E+00  0.9600E+02
     42.093  0.0000E+00  0.9600E+02
     42.322  0.0000E+00  0.9600E+02
     42.552  0.0000E+00  0.9600E+02
     42.781  0.0000E+00  0.9600E+02
     43.010  0.0000E+00  0.9600E+02
     43.240  0.0000E+00  0.9600E+02
     43.469  0.0000E+00  0.9600E+02
     43.698  0.0000E+00  0.9600E+02
     43.928  0.0000E+00  0.9600E+02
