    2    2    1    1
  0.3953030E+02  0.2467000E-09  0.2467000E-09  0.1500000E-08  0.5000000E-15
  1.000000000000000E-004
  CAR 
 SC                                      
      8    441     48
 
  0.0000000E+00  0.0000000E+00  0.0000000E+00  0.5948840E-03
      1        -21.757191   1.000000
      2         -9.860682   1.000000
      3         -5.282683   1.000000
      4         -5.282642   1.000000
      5          1.007945   0.000000
      6          1.911197   0.000000
      7          2.458934   0.000000
      8          4.335485   0.000000
      9          5.104791   0.000000
     10          6.062921   0.000000
     11          6.062979   0.000000
     12          8.242163   0.000000
     13          9.161142   0.000000
     14          9.351496   0.000000
     15         10.217796   0.000000
     16         13.561388   0.000000
     17         15.077276   0.000000
     18         20.129148   0.000000
     19         20.225867   0.000000
     20         22.220629   0.000000
     21         25.917913   0.000000
     22         25.917923   0.000000
     23         27.120782   0.000000
     24         29.332426   0.000000
     25         29.332439   0.000000
     26         30.722164   0.000000
     27         31.454963   0.000000
     28         32.945708   0.000000
     29         32.945709   0.000000
     30         33.452018   0.000000
     31         33.452034   0.000000
     32         33.940327   0.000000
     33         34.196642   0.000000
     34         34.480091   0.000000
     35         35.125091   0.000000
     36         35.125104   0.000000
     37         35.228655   0.000000
     38         35.228639   0.000000
     39         35.281697   0.000000
     40         35.282159   0.000000
     41         35.299774   0.000000
     42         35.411741   0.000000
     43         35.411753   0.000000
     44         35.413112   0.000000
     45         35.649028   0.000000
     46         36.735602   0.000000
     47         37.338467   0.000000
     48         37.579576   0.000000
 
  0.2439024E-01 -0.2548630E-17  0.0000000E+00  0.2379536E-02
      1        -21.743129   1.000000
      2         -9.843908   1.000000
      3         -5.341130   1.000000
      4         -5.313615   1.000000
      5          1.027016   0.000000
      6          1.930436   0.000000
      7          2.478355   0.000000
      8          4.354602   0.000000
      9          5.123394   0.000000
     10          6.073167   0.000000
     11          6.124855   0.000000
     12          8.260724   0.000000
     13          9.111256   0.000000
     14          9.370812   0.000000
     15         10.242576   0.000000
     16         13.578575   0.000000
     17         15.096244   0.000000
     18         20.139805   0.000000
     19         20.272567   0.000000
     20         22.238965   0.000000
     21         25.762360   0.000000
     22         25.777536   0.000000
     23         27.006693   0.000000
     24         29.375285   0.000000
     25         29.522111   0.000000
     26         30.739398   0.000000
     27         31.767802   0.000000
     28         31.910090   0.000000
     29         32.397740   0.000000
     30         33.130171   0.000000
     31         33.404411   0.000000
     32         33.694507   0.000000
     33         34.023629   0.000000
     34         34.260013   0.000000
     35         34.484708   0.000000
     36         34.485263   0.000000
     37         34.530048   0.000000
     38         34.659226   0.000000
     39         35.358388   0.000000
     40         35.445403   0.000000
     41         36.034095   0.000000
     42         36.071938   0.000000
     43         36.079475   0.000000
     44         36.154069   0.000000
     45         36.449532   0.000000
     46         36.492564   0.000000
     47         36.755595   0.000000
     48         36.875484   0.000000
 
 -0.2439024E-01  0.2439024E-01  0.0000000E+00  0.1189768E-02
      1        -21.743129   1.000000
      2         -9.843908   1.000000
      3         -5.341161   1.000000
      4         -5.313584   1.000000
      5          1.027016   0.000000
      6          1.930436   0.000000
      7          2.478355   0.000000
      8          4.354602   0.000000
      9          5.123394   0.000000
     10          6.073210   0.000000
     11          6.124812   0.000000
     12          8.260724   0.000000
     13          9.111256   0.000000
     14          9.370812   0.000000
     15         10.242577   0.000000
     16         13.578575   0.000000
     17         15.096244   0.000000
     18         20.139805   0.000000
     19         20.272567   0.000000
     20         22.238965   0.000000
     21         25.762367   0.000000
     22         25.777532   0.000000
     23         27.006689   0.000000
     24         29.375293   0.000000
     25         29.522102   0.000000
     26         30.739398   0.000000
     27         31.767804   0.000000
     28         31.910094   0.000000
     29         32.397737   0.000000
     30         33.130171   0.000000
     31         33.404413   0.000000
     32         33.694509   0.000000
     33         34.023626   0.000000
     34         34.260011   0.000000
     35         34.484696   0.000000
     36         34.485248   0.000000
     37         34.530054   0.000000
     38         34.659227   0.000000
     39         35.358404   0.000000
     40         35.445407   0.000000
     41         36.034090   0.000000
     42         36.071913   0.000000
     43         36.079468   0.000000
     44         36.154062   0.000000
     45         36.449544   0.000000
     46         36.493302   0.000000
     47         36.755578   0.000000
     48         36.862775   0.000000
 
  0.4878049E-01 -0.5097260E-17  0.0000000E+00  0.2379536E-02
      1        -21.700971   1.000000
      2         -9.793644   1.000000
      3         -5.513519   1.000000
      4         -5.404136   1.000000
      5          1.084237   0.000000
      6          1.988124   0.000000
      7          2.536623   0.000000
      8          4.411906   0.000000
      9          5.179193   0.000000
     10          6.097111   0.000000
     11          6.307443   0.000000
     12          8.316279   0.000000
     13          8.963649   0.000000
     14          9.428686   0.000000
     15         10.318826   0.000000
     16         13.629790   0.000000
     17         15.153064   0.000000
     18         20.169184   0.000000
     19         20.409684   0.000000
     20         22.294207   0.000000
     21         25.295084   0.000000
     22         25.372432   0.000000
     23         26.905068   0.000000
     24         29.448232   0.000000
     25         30.011662   0.000000
     26         30.514389   0.000000
     27         30.792592   0.000000
     28         31.690852   0.000000
     29         32.027104   0.000000
     30         32.156212   0.000000
     31         32.530825   0.000000
     32         32.578962   0.000000
     33         33.493550   0.000000
     34         33.723420   0.000000
     35         33.762376   0.000000
     36         33.875688   0.000000
     37         34.508446   0.000000
     38         34.524356   0.000000
     39         34.847416   0.000000
     40         35.698832   0.000000
     41         35.805592   0.000000
     42         36.028267   0.000000
     43         36.196240   0.000000
     44         36.267076   0.000000
     45         36.617431   0.000000
     46         36.932100   0.000000
     47         36.997531   0.000000
     48         37.034151   0.000000
 
 -0.4878049E-01  0.4878049E-01  0.0000000E+00  0.1189768E-02
      1        -21.700971   1.000000
      2         -9.793644   1.000000
      3         -5.513549   1.000000
      4         -5.404106   1.000000
      5          1.084237   0.000000
      6          1.988124   0.000000
      7          2.536623   0.000000
      8          4.411906   0.000000
      9          5.179194   0.000000
     10          6.097152   0.000000
     11          6.307400   0.000000
     12          8.316279   0.000000
     13          8.963648   0.000000
     14          9.428686   0.000000
     15         10.318827   0.000000
     16         13.629790   0.000000
     17         15.153064   0.000000
     18         20.169185   0.000000
     19         20.409684   0.000000
     20         22.294207   0.000000
     21         25.295086   0.000000
     22         25.372437   0.000000
     23         26.905059   0.000000
     24         29.448238   0.000000
     25         30.011655   0.000000
     26         30.514393   0.000000
     27         30.792591   0.000000
     28         31.690849   0.000000
     29         32.027106   0.000000
     30         32.156215   0.000000
     31         32.530826   0.000000
     32         32.578965   0.000000
     33         33.493552   0.000000
     34         33.723401   0.000000
     35         33.762366   0.000000
     36         33.875704   0.000000
     37         34.508446   0.000000
     38         34.524361   0.000000
     39         34.847413   0.000000
     40         35.698837   0.000000
     41         35.805597   0.000000
     42         36.028245   0.000000
     43         36.196252   0.000000
     44         36.267074   0.000000
     45         36.617435   0.000000
     46         36.932106   0.000000
     47         36.997574   0.000000
     48         37.034927   0.000000
 
  0.7317073E-01 -0.7527509E-17  0.0000000E+00  0.2379536E-02
      1        -21.630740   1.000000
      2         -9.709910   1.000000
      3         -5.790606   1.000000
      4         -5.547439   1.000000
      5          1.179615   0.000000
      6          2.084274   0.000000
      7          2.633744   0.000000
      8          4.507414   0.000000
      9          5.272059   0.000000
     10          6.126193   0.000000
     11          6.603669   0.000000
     12          8.408689   0.000000
     13          8.724134   0.000000
     14          9.524879   0.000000
     15         10.450910   0.000000
     16         13.714825   0.000000
     17         15.247483   0.000000
     18         20.210386   0.000000
     19         20.628124   0.000000
     20         22.387119   0.000000
     21         24.562622   0.000000
     22         24.869944   0.000000
     23         26.962652   0.000000
     24         29.115179   0.000000
     25         29.494758   0.000000
     26         30.640016   0.000000
     27         30.667516   0.000000
     28         30.693368   0.000000
     29         30.877679   0.000000
     30         31.006777   0.000000
     31         31.854684   0.000000
     32         32.692773   0.000000
     33         33.023693   0.000000
     34         33.089560   0.000000
     35         33.097916   0.000000
     36         33.292552   0.000000
     37         33.314419   0.000000
     38         33.647278   0.000000
     39         35.208043   0.000000
     40         35.289159   0.000000
     41         35.607725   0.000000
     42         35.743143   0.000000
     43         35.801102   0.000000
     44         36.268263   0.000000
     45         36.796835   0.000000
     46         37.435777   0.000000
     47         37.707304   0.000000
     48         38.207037   0.000000
 
 -0.7317073E-01  0.7317073E-01  0.0000000E+00  0.1189768E-02
      1        -21.630740   1.000000
      2         -9.709910   1.000000
      3         -5.790634   1.000000
      4         -5.547410   1.000000
      5          1.179615   0.000000
      6          2.084274   0.000000
      7          2.633744   0.000000
      8          4.507414   0.000000
      9          5.272060   0.000000
     10          6.126230   0.000000
     11          6.603628   0.000000
     12          8.408689   0.000000
     13          8.724133   0.000000
     14          9.524879   0.000000
     15         10.450912   0.000000
     16         13.714826   0.000000
     17         15.247483   0.000000
     18         20.210387   0.000000
     19         20.628125   0.000000
     20         22.387119   0.000000
     21         24.562627   0.000000
     22         24.869948   0.000000
     23         26.962640   0.000000
     24         29.115182   0.000000
     25         29.494764   0.000000
     26         30.640016   0.000000
     27         30.667511   0.000000
     28         30.693371   0.000000
     29         30.877679   0.000000
     30         31.006774   0.000000
     31         31.854685   0.000000
     32         32.692774   0.000000
     33         33.023674   0.000000
     34         33.089550   0.000000
     35         33.097933   0.000000
     36         33.292553   0.000000
     37         33.314425   0.000000
     38         33.647281   0.000000
     39         35.208046   0.000000
     40         35.289140   0.000000
     41         35.607723   0.000000
     42         35.743137   0.000000
     43         35.801119   0.000000
     44         36.268263   0.000000
     45         36.796844   0.000000
     46         37.435742   0.000000
     47         37.707189   0.000000
     48         38.210484   0.000000
 
  0.9756098E-01 -0.1019452E-16  0.0000000E+00  0.2379536E-02
      1        -21.532509   1.000000
      2         -9.592943   1.000000
      3         -6.159258   1.000000
      4         -5.734632   1.000000
      5          1.313155   0.000000
      6          2.218810   0.000000
      7          2.769724   0.000000
      8          4.641008   0.000000
      9          5.401448   0.000000
     10          6.148291   0.000000
     11          7.004088   0.000000
     12          8.396195   0.000000
     13          8.540463   0.000000
     14          9.658987   0.000000
     15         10.642972   0.000000
     16         13.832653   0.000000
     17         15.379135   0.000000
     18         20.246567   0.000000
     19         20.910934   0.000000
     20         22.519276   0.000000
     21         23.766560   0.000000
     22         24.328948   0.000000
     23         27.097586   0.000000
     24         27.743962   0.000000
     25         29.089745   0.000000
     26         29.250352   0.000000
     27         29.722821   0.000000
     28         30.355468   0.000000
     29         30.987559   0.000000
     30         31.203820   0.000000
     31         31.350187   0.000000
     32         31.573289   0.000000
     33         31.818094   0.000000
     34         32.360124   0.000000
     35         32.521537   0.000000
     36         32.528920   0.000000
     37         32.577748   0.000000
     38         34.475618   0.000000
     39         34.657945   0.000000
     40         34.939185   0.000000
     41         34.973077   0.000000
     42         35.208771   0.000000
     43         35.749911   0.000000
     44         35.763268   0.000000
     45         36.598785   0.000000
     46         37.502201   0.000000
     47         38.198761   0.000000
     48         38.290683   0.000000
 
 -0.9756098E-01  0.9756098E-01  0.0000000E+00  0.1189768E-02
      1        -21.532509   1.000000
      2         -9.592942   1.000000
      3         -6.159284   1.000000
      4         -5.734604   1.000000
      5          1.313156   0.000000
      6          2.218810   0.000000
      7          2.769724   0.000000
      8          4.641009   0.000000
      9          5.401449   0.000000
     10          6.148324   0.000000
     11          7.004048   0.000000
     12          8.396193   0.000000
     13          8.540463   0.000000
     14          9.658987   0.000000
     15         10.642976   0.000000
     16         13.832654   0.000000
     17         15.379135   0.000000
     18         20.246569   0.000000
     19         20.910936   0.000000
     20         22.519276   0.000000
     21         23.766565   0.000000
     22         24.328951   0.000000
     23         27.097575   0.000000
     24         27.743965   0.000000
     25         29.089751   0.000000
     26         29.250355   0.000000
     27         29.722818   0.000000
     28         30.355465   0.000000
     29         30.987558   0.000000
     30         31.203820   0.000000
     31         31.350184   0.000000
     32         31.573288   0.000000
     33         31.818102   0.000000
     34         32.360106   0.000000
     35         32.521543   0.000000
     36         32.528909   0.000000
     37         32.577759   0.000000
     38         34.475617   0.000000
     39         34.657924   0.000000
     40         34.939193   0.000000
     41         34.973075   0.000000
     42         35.208788   0.000000
     43         35.749916   0.000000
     44         35.763271   0.000000
     45         36.598783   0.000000
     46         37.502256   0.000000
     47         38.201890   0.000000
     48         38.301929   0.000000
 
  0.1219512E+00 -0.1117038E-16  0.0000000E+00  0.2379536E-02
      1        -21.406360   1.000000
      2         -9.442985   1.000000
      3         -6.604971   1.000000
      4         -5.955199   1.000000
      5          1.484849   0.000000
      6          2.391666   0.000000
      7          2.944562   0.000000
      8          4.812561   0.000000
      9          5.565504   0.000000
     10          6.156699   0.000000
     11          7.497714   0.000000
     12          7.995067   0.000000
     13          8.705722   0.000000
     14          9.830561   0.000000
     15         10.896418   0.000000
     16         13.982124   0.000000
     17         15.547605   0.000000
     18         20.243485   0.000000
     19         21.232386   0.000000
     20         22.693246   0.000000
     21         23.024760   0.000000
     22         23.785229   0.000000
     23         26.418348   0.000000
     24         27.136347   0.000000
     25         27.846203   0.000000
     26         27.937058   0.000000
     27         29.662651   0.000000
     28         29.739827   0.000000
     29         30.295585   0.000000
     30         30.334547   0.000000
     31         30.753214   0.000000
     32         31.169931   0.000000
     33         31.513646   0.000000
     34         31.734881   0.000000
     35         31.961125   0.000000
     36         32.000418   0.000000
     37         32.565300   0.000000
     38         33.903547   0.000000
     39         34.040767   0.000000
     40         34.397580   0.000000
     41         34.408957   0.000000
     42         34.611495   0.000000
     43         34.768845   0.000000
     44         36.018724   0.000000
     45         37.497383   0.000000
     46         37.928836   0.000000
     47         38.050030   0.000000
     48         38.156408   0.000000
 
 -0.1219512E+00  0.1219512E+00  0.0000000E+00  0.1189768E-02
      1        -21.406360   1.000000
      2         -9.442984   1.000000
      3         -6.604995   1.000000
      4         -5.955173   1.000000
      5          1.484849   0.000000
      6          2.391667   0.000000
      7          2.944563   0.000000
      8          4.812561   0.000000
      9          5.565505   0.000000
     10          6.156727   0.000000
     11          7.497676   0.000000
     12          7.995064   0.000000
     13          8.705722   0.000000
     14          9.830561   0.000000
     15         10.896423   0.000000
     16         13.982125   0.000000
     17         15.547605   0.000000
     18         20.243489   0.000000
     19         21.232389   0.000000
     20         22.693246   0.000000
     21         23.024765   0.000000
     22         23.785231   0.000000
     23         26.418350   0.000000
     24         27.136343   0.000000
     25         27.846206   0.000000
     26         27.937054   0.000000
     27         29.662651   0.000000
     28         29.739824   0.000000
     29         30.295585   0.000000
     30         30.334549   0.000000
     31         30.753219   0.000000
     32         31.169932   0.000000
     33         31.513640   0.000000
     34         31.734862   0.000000
     35         31.961137   0.000000
     36         32.000424   0.000000
     37         32.565293   0.000000
     38         33.903548   0.000000
     39         34.040745   0.000000
     40         34.397597   0.000000
     41         34.408954   0.000000
     42         34.611499   0.000000
     43         34.768857   0.000000
     44         36.018727   0.000000
     45         37.497380   0.000000
     46         37.928856   0.000000
     47         38.050011   0.000000
     48         38.156426   0.000000
 
  0.1463415E+00 -0.6424977E-17  0.0000000E+00  0.2379536E-02
      1        -21.252436   1.000000
      2         -9.260460   1.000000
      3         -7.112804   1.000000
      4         -6.198723   1.000000
      5          1.694653   0.000000
      6          2.602675   0.000000
      7          3.158243   0.000000
      8          5.021708   0.000000
      9          5.756302   0.000000
     10          6.151466   0.000000
     11          7.524867   0.000000
     12          8.070242   0.000000
     13          8.908389   0.000000
     14         10.039232   0.000000
     15         11.206688   0.000000
     16         14.161047   0.000000
     17         15.752410   0.000000
     18         20.134659   0.000000
     19         21.543666   0.000000
     20         22.433615   0.000000
     21         22.910565   0.000000
     22         23.256190   0.000000
     23         25.163379   0.000000
     24         26.315631   0.000000
     25         26.488150   0.000000
     26         27.520716   0.000000
     27         29.041012   0.000000
     28         29.139064   0.000000
     29         29.160298   0.000000
     30         29.673089   0.000000
     31         30.135114   0.000000
     32         31.054919   0.000000
     33         31.148230   0.000000
     34         31.315078   0.000000
     35         31.425799   0.000000
     36         31.618859   0.000000
     37         32.971626   0.000000
     38         33.102482   0.000000
     39         33.184541   0.000000
     40         33.458784   0.000000
     41         33.902034   0.000000
     42         34.096015   0.000000
     43         34.161593   0.000000
     44         36.666322   0.000000
     45         37.467865   0.000000
     46         37.802193   0.000000
     47         38.334110   0.000000
     48         38.404177   0.000000
 
 -0.1463415E+00  0.1463415E+00  0.0000000E+00  0.1189768E-02
      1        -21.252436   1.000000
      2         -9.260459   1.000000
      3         -7.112826   1.000000
      4         -6.198699   1.000000
      5          1.694653   0.000000
      6          2.602675   0.000000
      7          3.158243   0.000000
      8          5.021709   0.000000
      9          5.756305   0.000000
     10          6.151488   0.000000
     11          7.524862   0.000000
     12          8.070205   0.000000
     13          8.908389   0.000000
     14         10.039232   0.000000
     15         11.206695   0.000000
     16         14.161048   0.000000
     17         15.752410   0.000000
     18         20.134665   0.000000
     19         21.543671   0.000000
     20         22.433618   0.000000
     21         22.910565   0.000000
     22         23.256191   0.000000
     23         25.163380   0.000000
     24         26.315637   0.000000
     25         26.488153   0.000000
     26         27.520705   0.000000
     27         29.041014   0.000000
     28         29.139066   0.000000
     29         29.160295   0.000000
     30         29.673087   0.000000
     31         30.135118   0.000000
     32         31.054911   0.000000
     33         31.148212   0.000000
     34         31.315087   0.000000
     35         31.425803   0.000000
     36         31.618865   0.000000
     37         32.971630   0.000000
     38         33.102480   0.000000
     39         33.184546   0.000000
     40         33.458762   0.000000
     41         33.902033   0.000000
     42         34.096010   0.000000
     43         34.161609   0.000000
     44         36.666320   0.000000
     45         37.467853   0.000000
     46         37.802229   0.000000
     47         38.334103   0.000000
     48         38.404178   0.000000
 
  0.1707317E+00 -0.3038220E-16  0.0000000E+00  0.2379536E-02
      1        -21.070864   1.000000
      2         -9.045798   1.000000
      3         -7.668408   1.000000
      4         -6.455398   1.000000
      5          1.942523   0.000000
      6          2.851631   0.000000
      7          3.410743   0.000000
      8          5.267666   0.000000
      9          5.925427   0.000000
     10          6.183124   0.000000
     11          6.999778   0.000000
     12          8.712434   0.000000
     13          9.147252   0.000000
     14         10.284813   0.000000
     15         11.566040   0.000000
     16         14.366687   0.000000
     17         15.993095   0.000000
     18         19.843740   0.000000
     19         21.750738   0.000000
     20         22.073393   0.000000
     21         22.751009   0.000000
     22         23.150420   0.000000
     23         24.057595   0.000000
     24         25.109355   0.000000
     25         25.193998   0.000000
     26         27.091881   0.000000
     27         27.782191   0.000000
     28         28.417820   0.000000
     29         28.617731   0.000000
     30         29.576532   0.000000
     31         29.599096   0.000000
     32         30.539366   0.000000
     33         30.600363   0.000000
     34         30.828380   0.000000
     35         31.334472   0.000000
     36         31.593826   0.000000
     37         31.887774   0.000000
     38         31.955214   0.000000
     39         32.913832   0.000000
     40         32.980301   0.000000
     41         33.532930   0.000000
     42         33.635039   0.000000
     43         34.608893   0.000000
     44         36.517109   0.000000
     45         36.924490   0.000000
     46         37.180149   0.000000
     47         37.360942   0.000000
     48         37.468377   0.000000
 
 -0.1707317E+00  0.1707317E+00  0.0000000E+00  0.1189768E-02
      1        -21.070864   1.000000
      2         -9.045797   1.000000
      3         -7.668428   1.000000
      4         -6.455376   1.000000
      5          1.942524   0.000000
      6          2.851632   0.000000
      7          3.410743   0.000000
      8          5.267666   0.000000
      9          5.925437   0.000000
     10          6.183134   0.000000
     11          6.999773   0.000000
     12          8.712400   0.000000
     13          9.147252   0.000000
     14         10.284813   0.000000
     15         11.566048   0.000000
     16         14.366688   0.000000
     17         15.993095   0.000000
     18         19.843749   0.000000
     19         21.750745   0.000000
     20         22.073393   0.000000
     21         22.751009   0.000000
     22         23.150422   0.000000
     23         24.057593   0.000000
     24         25.109361   0.000000
     25         25.194000   0.000000
     26         27.091877   0.000000
     27         27.782193   0.000000
     28         28.417817   0.000000
     29         28.617727   0.000000
     30         29.576528   0.000000
     31         29.599100   0.000000
     32         30.539357   0.000000
     33         30.600344   0.000000
     34         30.828392   0.000000
     35         31.334480   0.000000
     36         31.593826   0.000000
     37         31.887779   0.000000
     38         31.955217   0.000000
     39         32.913808   0.000000
     40         32.980300   0.000000
     41         33.532928   0.000000
     42         33.635055   0.000000
     43         34.608889   0.000000
     44         36.517107   0.000000
     45         36.924477   0.000000
     46         37.180145   0.000000
     47         37.361079   0.000000
     48         37.468246   0.000000
 
  0.1951220E+00 -0.1175900E-16  0.0000000E+00  0.2379536E-02
      1        -20.861858   1.000000
      2         -8.799701   1.000000
      3         -8.259993   1.000000
      4         -6.717402   1.000000
      5          2.228366   0.000000
      6          3.138029   0.000000
      7          3.702005   0.000000
      8          5.546429   0.000000
      9          5.946725   0.000000
     10          6.379601   0.000000
     11          6.431202   0.000000
     12          9.412148   0.000000
     13          9.421572   0.000000
     14         10.567192   0.000000
     15         11.960301   0.000000
     16         14.593835   0.000000
     17         16.269049   0.000000
     18         19.375965   0.000000
     19         21.588847   0.000000
     20         21.908191   0.000000
     21         22.274648   0.000000
     22         23.068084   0.000000
     23         23.534748   0.000000
     24         23.951999   0.000000
     25         24.100198   0.000000
     26         26.151507   0.000000
     27         26.583388   0.000000
     28         28.107840   0.000000
     29         28.111793   0.000000
     30         29.100688   0.000000
     31         29.468448   0.000000
     32         30.044558   0.000000
     33         30.091228   0.000000
     34         30.292645   0.000000
     35         30.785968   0.000000
     36         30.882206   0.000000
     37         31.122444   0.000000
     38         31.862279   0.000000
     39         32.405875   0.000000
     40         32.552386   0.000000
     41         33.151751   0.000000
     42         33.343400   0.000000
     43         35.457639   0.000000
     44         35.858136   0.000000
     45         36.221911   0.000000
     46         36.414075   0.000000
     47         36.570670   0.000000
     48         37.073015   0.000000
 
 -0.1951220E+00  0.1951220E+00  0.0000000E+00  0.1189768E-02
      1        -20.861858   1.000000
      2         -8.799700   1.000000
      3         -8.260011   1.000000
      4         -6.717381   1.000000
      5          2.228367   0.000000
      6          3.138029   0.000000
      7          3.702005   0.000000
      8          5.546430   0.000000