 ----------------------------------------------------
    OOO  PPPP  EEEEE N   N M   M PPPP
   O   O P   P E     NN  N MM MM P   P
   O   O PPPP  EEEEE N N N M M M PPPP   -- VERSION
   O   O P     E     N  NN M   M P
    OOO  P     EEEEE N   N M   M P
 ----------------------------------------------------
 running   48 mpi-ranks, with    1 threads/rank
 distrk:  each k-point on   48 cores,    1 groups
 distr:  one band on    1 cores,   48 groups
 vasp.6.3.2 27Jun22 (build Dec 22 2022 13:13:19) complex                        
  
 POSCAR found type information on POSCAR C 
 POSCAR found :  1 types and       2 ions
 Reading from existing POTCAR
 scaLAPACK will be used
 Reading from existing POTCAR
 LDA part: xc-table for Pade appr. of Perdew
 POSCAR found type information on POSCAR C 
 POSCAR found :  1 types and       2 ions
 POSCAR, INCAR and KPOINTS ok, starting setup
 FFT: planning ... GRIDC
 FFT: planning ... GRID_SOFT
 FFT: planning ... GRID
 WAVECAR not read
 entering main loop
       N       E                     dE             d eps       ncg     rms          rms(c)
DAV:   1    -0.100150453095E+02   -0.10015E+02   -0.39106E+03 42336   0.111E+02
DAV:   2    -0.197129096467E+02   -0.96979E+01   -0.96979E+01 63216   0.174E+01
DAV:   3    -0.197212440344E+02   -0.83344E-02   -0.83344E-02 42480   0.663E-01
DAV:   4    -0.197212567998E+02   -0.12765E-04   -0.12765E-04 82992   0.254E-02
DAV:   5    -0.197212568002E+02   -0.34856E-09   -0.11282E-09 42432   0.614E-05    0.633E+00
RMM:   6    -0.188125970314E+02    0.90866E+00   -0.14734E-01 47705   0.679E-01    0.368E+00
RMM:   7    -0.184624906496E+02    0.35011E+00   -0.25138E-01 55901   0.920E-01    0.903E-01
RMM:   8    -0.184534740064E+02    0.90166E-02   -0.73416E-03 49156   0.180E-01    0.131E-01
RMM:   9    -0.184534680929E+02    0.59135E-05   -0.94299E-04 49057   0.720E-02    0.559E-02
RMM:  10    -0.184516737307E+02    0.17944E-02   -0.15160E-04 56850   0.257E-02    0.936E-02
RMM:  11    -0.184518435158E+02   -0.16979E-03   -0.67184E-05 55739   0.185E-02    0.275E-02
RMM:  12    -0.184527214383E+02   -0.87792E-03   -0.30045E-05 56032   0.941E-03    0.181E-02
RMM:  13    -0.184531624695E+02   -0.44103E-03   -0.11580E-05 50960   0.487E-03    0.123E-02
RMM:  14    -0.184533992043E+02   -0.23673E-03   -0.45787E-06 54615   0.321E-03    0.573E-03
RMM:  15    -0.184534728179E+02   -0.73614E-04   -0.70485E-07 52463   0.119E-03    0.180E-03
RMM:  16    -0.184534748407E+02   -0.20228E-05   -0.14576E-08 46737   0.251E-04    0.652E-04
RMM:  17    -0.184534772073E+02   -0.23666E-05   -0.12058E-08 49492   0.206E-04    0.307E-04
RMM:  18    -0.184534772759E+02   -0.68674E-07   -0.36474E-11 44839   0.475E-05
   1 F= -.18630896E+02 E0= -.18630894E+02  d E =-.322116E-05
 writing wavefunctions
