   8   8   0   4
  0.4338553E+02  0.5169000E-09  0.5169000E-09  0.1500000E-08  0.5000000E-15
  1.000000000000000E-004
  CAR 
 Lattice                                 
      6.17406933    -21.09875716  301     -3.38155182      1.00000000
    -21.099  0.0000E+00  0.0000E+00
    -21.008  0.0000E+00  0.0000E+00
    -20.917  0.0000E+00  0.0000E+00
    -20.826  0.0000E+00  0.0000E+00
    -20.735  0.0000E+00  0.0000E+00
    -20.644  0.0000E+00  0.0000E+00
    -20.553  0.0000E+00  0.0000E+00
    -20.462  0.0000E+00  0.0000E+00
    -20.371  0.4087E-14  0.3715E-15
    -20.281  0.2397E-10  0.2179E-11
    -20.190  0.2803E-07  0.2550E-08
    -20.099  0.6659E-05  0.6079E-06
    -20.008  0.3313E-03  0.3073E-04
    -19.917  0.3608E-02  0.3587E-03
    -19.826  0.9039E-02  0.1180E-02
    -19.735  0.5370E-02  0.1669E-02
    -19.644  0.1873E-02  0.1839E-02
    -19.553  0.1601E-01  0.3294E-02
    -19.462  0.5135E-01  0.7962E-02
    -19.371  0.3911E-01  0.1152E-01
    -19.281  0.1052E-01  0.1247E-01
    -19.190  0.1561E-01  0.1389E-01
    -19.099  0.1528E-01  0.1528E-01
    -19.008  0.3576E-02  0.1561E-01
    -18.917  0.1892E-03  0.1562E-01
    -18.826  0.2154E-05  0.1562E-01
    -18.735  0.5069E-08  0.1562E-01
    -18.644  0.2404E-11  0.1562E-01
    -18.553  0.2290E-15  0.1562E-01
    -18.462  0.0000E+00  0.1562E-01
    -18.371  0.0000E+00  0.1562E-01
    -18.281  0.0000E+00  0.1562E-01
    -18.190  0.0000E+00  0.1562E-01
    -18.099  0.0000E+00  0.1562E-01
    -18.008  0.0000E+00  0.1562E-01
    -17.917  0.0000E+00  0.1562E-01
    -17.826  0.2544E-16  0.1562E-01
    -17.735  0.4227E-12  0.1563E-01
    -17.644  0.1407E-08  0.1563E-01
    -17.553  0.9468E-06  0.1563E-01
    -17.462  0.1340E-03  0.1564E-01
    -17.371  0.4292E-02  0.1603E-01
    -17.281  0.3504E-01  0.1921E-01
    -17.190  0.8226E-01  0.2669E-01
    -17.099  0.5754E-01  0.3192E-01
    -17.008  0.1116E-01  0.3294E-01
    -16.917  0.5344E-03  0.3299E-01
    -16.826  0.5713E-05  0.3299E-01
    -16.735  0.1340E-07  0.3299E-01
    -16.644  0.5160E-06  0.3299E-01
    -16.553  0.9180E-04  0.3299E-01
    -16.462  0.3445E-02  0.3331E-01
    -16.371  0.2856E-01  0.3590E-01
    -16.281  0.5487E-01  0.4089E-01
    -16.190  0.2495E-01  0.4316E-01
    -16.099  0.3330E-02  0.4346E-01
    -16.008  0.7562E-02  0.4415E-01
    -15.917  0.1815E-01  0.4580E-01
    -15.826  0.1039E-01  0.4675E-01
    -15.735  0.1381E-02  0.4687E-01
    -15.644  0.4070E-04  0.4687E-01
    -15.553  0.2537E-06  0.4687E-01
    -15.462  0.3233E-09  0.4687E-01
    -15.371  0.8244E-13  0.4688E-01
    -15.281  0.4240E-17  0.4688E-01
    -15.190  0.0000E+00  0.4688E-01
    -15.099  0.0000E+00  0.4688E-01
    -15.008  0.0000E+00  0.4688E-01
    -14.917  0.0000E+00  0.4688E-01
    -14.826  0.0000E+00  0.4688E-01
    -14.735  0.0000E+00  0.4688E-01
    -14.644  0.0000E+00  0.4688E-01
    -14.553  0.5096E-13  0.4688E-01
    -14.462  0.2636E-09  0.4688E-01
    -14.371  0.2722E-06  0.4688E-01
    -14.281  0.5720E-04  0.4688E-01
    -14.190  0.2525E-02  0.4711E-01
    -14.099  0.2449E-01  0.4934E-01
    -14.008  0.5483E-01  0.5432E-01
    -13.917  0.2902E-01  0.5696E-01
    -13.826  0.3609E-02  0.5729E-01
    -13.735  0.1593E-02  0.5743E-01
    -13.644  0.1078E-01  0.5841E-01
    -13.553  0.1806E-01  0.6005E-01
    -13.462  0.7151E-02  0.6070E-01
    -13.371  0.6512E-03  0.6076E-01
    -13.281  0.1298E-04  0.6076E-01
    -13.190  0.5981E-07  0.6076E-01
    -13.099  0.2749E-05  0.6076E-01
    -13.008  0.2755E-03  0.6079E-01
    -12.917  0.5915E-02  0.6133E-01
    -12.826  0.2859E-01  0.6393E-01
    -12.735  0.3255E-01  0.6689E-01
    -12.644  0.1093E-01  0.6788E-01
    -12.553  0.1158E-01  0.6893E-01
    -12.462  0.3339E-01  0.7197E-01
    -12.371  0.5641E-01  0.7709E-01
    -12.281  0.2724E-01  0.7957E-01
    -12.190  0.3110E-02  0.7985E-01
    -12.099  0.7848E-04  0.7986E-01
    -12.008  0.4171E-06  0.7986E-01
    -11.917  0.4521E-09  0.7986E-01
    -11.826  0.9790E-13  0.7986E-01
    -11.735  0.8278E-14  0.7986E-01
    -11.644  0.4301E-10  0.7986E-01
    -11.553  0.4461E-07  0.7986E-01
    -11.462  0.9415E-05  0.7986E-01
    -11.371  0.4173E-03  0.7990E-01
    -11.281  0.4065E-02  0.8027E-01
    -11.190  0.9136E-02  0.8110E-01
    -11.099  0.4945E-02  0.8155E-01
    -11.008  0.4345E-02  0.8194E-01
    -10.917  0.3448E-01  0.8508E-01
    -10.826  0.7325E-01  0.9174E-01
    -10.735  0.3683E-01  0.9509E-01
    -10.644  0.4288E-02  0.9548E-01
    -10.553  0.1102E-03  0.9549E-01
    -10.462  0.5963E-06  0.9549E-01
    -10.371  0.6584E-09  0.9549E-01
    -10.281  0.1453E-12  0.9549E-01
    -10.190  0.0000E+00  0.9549E-01
    -10.099  0.0000E+00  0.9549E-01
    -10.008  0.0000E+00  0.9549E-01
     -9.917  0.6545E-14  0.9549E-01
     -9.826  0.4803E-10  0.9549E-01
     -9.735  0.7024E-07  0.9549E-01
     -9.644  0.2094E-04  0.9549E-01
     -9.553  0.1328E-02  0.9561E-01
     -9.462  0.1952E-01  0.9738E-01
     -9.371  0.7643E-01  0.1043E+00
     -9.281  0.9241E-01  0.1127E+00
     -9.190  0.3551E-01  0.1160E+00
     -9.099  0.3839E-02  0.1163E+00
     -9.008  0.1002E-03  0.1163E+00
     -8.917  0.4047E-05  0.1163E+00
     -8.826  0.2134E-03  0.1163E+00
     -8.735  0.2848E-02  0.1166E+00
     -8.644  0.8710E-02  0.1174E+00
     -8.553  0.7202E-02  0.1180E+00
     -8.462  0.1133E-01  0.1191E+00
     -8.371  0.3567E-01  0.1223E+00
     -8.281  0.3745E-01  0.1257E+00
     -8.190  0.1224E-01  0.1268E+00
     -8.099  0.2325E-01  0.1289E+00
     -8.008  0.6906E-01  0.1352E+00
     -7.917  0.6540E-01  0.1412E+00
     -7.826  0.5966E-01  0.1466E+00
     -7.735  0.4094E-01  0.1503E+00
     -7.644  0.7645E-02  0.1510E+00
     -7.553  0.4085E-03  0.1510E+00
     -7.462  0.2215E-02  0.1513E+00
     -7.371  0.1321E-01  0.1525E+00
     -7.281  0.2315E-01  0.1546E+00
     -7.190  0.2301E-01  0.1566E+00
     -7.099  0.1265E-01  0.1578E+00
     -7.008  0.2007E-02  0.1580E+00
     -6.917  0.7302E-04  0.1580E+00
     -6.826  0.5665E-06  0.1580E+00
     -6.735  0.9053E-09  0.1580E+00
     -6.644  0.6922E-08  0.1580E+00
     -6.553  0.3374E-05  0.1580E+00
     -6.462  0.3640E-03  0.1580E+00
     -6.371  0.9225E-02  0.1589E+00
     -6.281  0.5997E-01  0.1643E+00
     -6.190  0.1161E+00  0.1749E+00
     -6.099  0.8754E-01  0.1828E+00
     -6.008  0.4129E-01  0.1866E+00
     -5.917  0.5092E-01  0.1912E+00
     -5.826  0.4838E-01  0.1956E+00
     -5.735  0.3991E-01  0.1992E+00
     -5.644  0.5516E-01  0.2042E+00
     -5.553  0.2348E-01  0.2064E+00
     -5.462  0.2323E-02  0.2066E+00
     -5.371  0.5047E-04  0.2066E+00
     -5.281  0.2300E-06  0.2066E+00
     -5.190  0.2132E-09  0.2066E+00
     -5.099  0.3512E-10  0.2066E+00
     -5.008  0.5511E-07  0.2066E+00
     -4.917  0.1779E-04  0.2066E+00
     -4.826  0.1237E-02  0.2067E+00
     -4.735  0.1998E-01  0.2085E+00
     -4.644  0.8258E-01  0.2160E+00
     -4.553  0.9613E-01  0.2248E+00
     -4.462  0.4291E-01  0.2287E+00
     -4.371  0.1920E-01  0.2304E+00
     -4.281  0.4974E-02  0.2309E+00
     -4.190  0.3296E-03  0.2309E+00
     -4.099  0.4819E-05  0.2309E+00
     -4.008  0.1198E-04  0.2309E+00
     -3.917  0.6165E-03  0.2310E+00
     -3.826  0.6948E-02  0.2316E+00
     -3.735  0.1799E-01  0.2332E+00
     -3.644  0.1101E-01  0.2342E+00
     -3.553  0.1568E-02  0.2344E+00
     -3.462  0.4965E-04  0.2344E+00
     -3.371  0.3354E-06  0.2344E+00
     -3.281  0.1526E-05  0.2344E+00
     -3.190  0.2025E-03  0.2344E+00
     -3.099  0.5716E-02  0.2349E+00
     -3.008  0.3598E-01  0.2382E+00
     -2.917  0.5286E-01  0.2430E+00
     -2.826  0.1834E-01  0.2447E+00
     -2.735  0.1457E-02  0.2448E+00
     -2.644  0.2523E-04  0.2448E+00
     -2.553  0.9114E-07  0.2448E+00
     -2.462  0.6674E-10  0.2448E+00
     -2.371  0.2602E-10  0.2448E+00
     -2.281  0.2991E-07  0.2448E+00
     -2.190  0.6990E-05  0.2448E+00
     -2.099  0.3422E-03  0.2448E+00
     -2.008  0.3670E-02  0.2452E+00
     -1.917  0.9056E-02  0.2460E+00
     -1.826  0.5283E-02  0.2465E+00
     -1.735  0.7165E-03  0.2465E+00
     -1.644  0.2240E-04  0.2465E+00
     -1.553  0.1177E-03  0.2465E+00
     -1.462  0.3491E-02  0.2469E+00
     -1.371  0.2309E-01  0.2490E+00
     -1.281  0.3561E-01  0.2522E+00
     -1.190  0.1297E-01  0.2534E+00
     -1.099  0.1084E-02  0.2535E+00
     -1.008  0.1976E-04  0.2535E+00
     -0.917  0.7530E-07  0.2535E+00
     -0.826  0.5819E-10  0.2535E+00
     -0.735  0.9115E-14  0.2535E+00
     -0.644  0.1787E-11  0.2535E+00
     -0.553  0.3986E-08  0.2535E+00
     -0.462  0.1791E-05  0.2535E+00
     -0.371  0.1661E-03  0.2535E+00
     -0.280  0.3310E-02  0.2538E+00
     -0.190  0.1488E-01  0.2551E+00
     -0.099  0.1571E-01  0.2566E+00
     -0.008  0.3904E-02  0.2569E+00
      0.083  0.2198E-03  0.2569E+00
      0.174  0.6963E-05  0.2569E+00
      0.265  0.2735E-03  0.2570E+00
      0.356  0.4756E-02  0.2574E+00
      0.447  0.2878E-01  0.2600E+00
      0.538  0.5964E-01  0.2654E+00
      0.629  0.3501E-01  0.2686E+00
      0.720  0.5803E-02  0.2692E+00
      0.810  0.5525E-02  0.2697E+00
      0.901  0.9038E-02  0.2705E+00
      0.992  0.3641E-02  0.2708E+00
      1.083  0.2279E-02  0.2710E+00
      1.174  0.2143E-01  0.2730E+00
      1.265  0.5416E-01  0.2779E+00
      1.356  0.3237E-01  0.2808E+00
      1.447  0.4611E-02  0.2812E+00
      1.538  0.4058E-02  0.2816E+00
      1.629  0.3039E-01  0.2844E+00
      1.720  0.5538E-01  0.2894E+00
      1.810  0.2866E-01  0.2920E+00
      1.901  0.1130E-01  0.2930E+00
      1.992  0.3599E-02  0.2934E+00
      2.083  0.4388E-03  0.2934E+00
      2.174  0.2038E-02  0.2936E+00
      2.265  0.7967E-02  0.2943E+00
      2.356  0.8343E-02  0.2951E+00
      2.447  0.1658E-01  0.2966E+00
      2.538  0.5063E-01  0.3012E+00
      2.629  0.4020E-01  0.3048E+00
      2.720  0.7485E-02  0.3055E+00
      2.810  0.3171E-03  0.3056E+00
      2.901  0.4462E-03  0.3056E+00
      2.992  0.9725E-02  0.3065E+00
      3.083  0.5403E-01  0.3114E+00
      3.174  0.9858E-01  0.3204E+00
      3.265  0.9222E-01  0.3287E+00
      3.356  0.6526E-01  0.3347E+00
      3.447  0.2150E-01  0.3366E+00
      3.538  0.1939E-02  0.3368E+00
      3.629  0.4143E-04  0.3368E+00
      3.720  0.1657E-03  0.3368E+00
      3.810  0.4332E-02  0.3372E+00
      3.901  0.2574E-01  0.3396E+00
      3.992  0.4473E-01  0.3436E+00
      4.083  0.6538E-01  0.3496E+00
      4.174  0.7186E-01  0.3561E+00
      4.265  0.2894E-01  0.3587E+00
      4.356  0.6684E-02  0.3593E+00
      4.447  0.5057E-02  0.3598E+00
      4.538  0.1628E-01  0.3613E+00
      4.629  0.1424E-01  0.3626E+00
      4.720  0.3574E-02  0.3629E+00
      4.810  0.9096E-02  0.3637E+00
      4.901  0.4130E-01  0.3675E+00
      4.992  0.5860E-01  0.3728E+00
      5.083  0.2211E-01  0.3748E+00
      5.174  0.1996E-02  0.3750E+00
      5.265  0.3991E-04  0.3750E+00
      5.356  0.1676E-06  0.3750E+00
      5.447  0.1432E-09  0.3750E+00
      5.538  0.2438E-13  0.3750E+00
      5.629  0.0000E+00  0.3750E+00
      5.720  0.0000E+00  0.3750E+00
      5.810  0.0000E+00  0.3750E+00
      5.901  0.0000E+00  0.3750E+00
      5.992  0.0000E+00  0.3750E+00
      6.083  0.0000E+00  0.3750E+00
      6.174  0.0000E+00  0.3750E+00
