    8    8  128    1
  0.4338553E+02  0.5169000E-09  0.5169000E-09  0.1500000E-08  0.5000000E-15
  1.000000000000000E-004
  CAR 
 Lattice                                 
     30      5     24
 
  0.0000000E+00  0.0000000E+00  0.0000000E+00  0.1111111E+00
      1        -19.859083   1.000000
      2        -15.952231   1.000000
      3        -15.952054   1.000000
      4        -13.611653   1.000000
      5        -13.611603   1.000000
      6        -12.561993   1.000000
      7        -11.229497   1.000000
      8         -8.664894   1.000000
      9         -8.429677   1.000000
     10         -6.281069   1.000000
     11         -6.280891   1.000000
     12         -4.448570   1.000000
     13         -4.448481   1.000000
     14         -3.766134   1.000000
     15         -3.765945   1.000000
     16         -1.950870   0.000000
     17         -0.186165   0.000000
     18         -0.186129   0.000000
     19          0.422647   0.000000
     20          0.843379   0.000000
     21          1.842559   0.000000
     22          2.259816   0.000000
     23          4.228178   0.000000
     24          4.854807   0.000000
 
  0.3333333E+00 -0.5796109E-18  0.0000000E+00  0.2222222E+00
      1        -19.479883   1.000000
      2        -17.192213   1.000000
      3        -16.330300   1.000000
      4        -14.047945   1.000000
      5        -12.415882   1.000000
      6        -10.869456   1.000000
      7         -9.391982   1.000000
      8         -9.320335   1.000000
      9         -8.034797   1.000000
     10         -7.839618   1.000000
     11         -6.251111   1.000000
     12         -5.920856   1.000000
     13         -5.697386   1.000000
     14         -4.661123   1.000000
     15         -4.609200   1.000000
     16         -2.983488   0.000000
     17          0.508955   0.000000
     18          1.232441   0.000000
     19          1.665640   0.000000
     20          2.523219   0.000000
     21          3.089732   0.000000
     22          3.175468   0.000000
     23          4.095180   0.000000
     24          4.934312   0.000000
 
 -0.5796109E-18  0.3333333E+00  0.0000000E+00  0.2222222E+00
      1        -19.479886   1.000000
      2        -17.192191   1.000000
      3        -16.330320   1.000000
      4        -14.047959   1.000000
      5        -12.415859   1.000000
      6        -10.869449   1.000000
      7         -9.391995   1.000000
      8         -9.320348   1.000000
      9         -8.034798   1.000000
     10         -7.839615   1.000000
     11         -6.251103   1.000000
     12         -5.920840   1.000000
     13         -5.697418   1.000000
     14         -4.661147   1.000000
     15         -4.609161   1.000000
     16         -2.983494   0.000000
     17          0.508984   0.000000
     18          1.232454   0.000000
     19          1.665640   0.000000
     20          2.523214   0.000000
     21          3.089732   0.000000
     22          3.175454   0.000000
     23          4.095181   0.000000
     24          4.934321   0.000000
 
 -0.3333333E+00  0.3333333E+00  0.0000000E+00  0.2222222E+00
      1        -19.479868   1.000000
      2        -17.192324   1.000000
      3        -16.330208   1.000000
      4        -14.047911   1.000000
      5        -12.415860   1.000000
      6        -10.869506   1.000000
      7         -9.391999   1.000000
      8         -9.320272   1.000000
      9         -8.034787   1.000000
     10         -7.839801   1.000000
     11         -6.250956   1.000000
     12         -5.920892   1.000000
     13         -5.697494   1.000000
     14         -4.661078   1.000000
     15         -4.609098   1.000000
     16         -2.983543   0.000000
     17          0.508988   0.000000
     18          1.232515   0.000000
     19          1.665640   0.000000
     20          2.523239   0.000000
     21          3.089732   0.000000
     22          3.175402   0.000000
     23          4.095182   0.000000
     24          4.934395   0.000000
 
  0.3333333E+00  0.3333333E+00  0.0000000E+00  0.2222222E+00
      1        -19.189926   1.000000
      2        -17.254918   1.000000
      3        -17.254734   1.000000
      4        -12.818089   1.000000
      5        -12.818044   1.000000
      6        -10.869014   1.000000
      7         -8.356324   1.000000
      8         -8.356166   1.000000
      9         -8.003023   1.000000
     10         -7.352387   1.000000
     11         -7.212151   1.000000
     12         -6.202842   1.000000
     13         -6.202764   1.000000
     14         -6.128697   1.000000
     15         -6.128596   1.000000
     16         -1.344127   0.000000
     17         -1.344048   0.000000
     18          3.279581   0.000000
     19          3.303399   0.000000
     20          3.303450   0.000000
     21          3.921029   0.000000
     22          3.921077   0.000000
     23          4.103057   0.000000
     24          4.529259   0.000000
