 vasp.6.3.2 27Jun22 (build Dec 22 2022 13:13:19) complex                        
  
 executed on             LinuxIFC date 2023.09.12  17:20:43
 running   24 mpi-ranks, with    1 threads/rank
 distrk:  each k-point on   24 cores,    1 groups
 distr:  one band on NCORE=   1 cores,   24 groups


--------------------------------------------------------------------------------------------------------


 INCAR:
   SYSTEM = Lattice
   ISTART = 0
   ICHARG = 2
   PREC = Accurate
   ENCUT = 450
   LCHARG = .FALSE.
   LWAVE = .FALSE.
   ALGO = Normal
   NELM = 64
   EDIFF = 1E-6
   EDIFFG = -1E-3
   SIGMA = 0.1
   ISMEAR = 0
   ISPIN = 1
   NSW = 128
   IBRION = 2
   POTIM = .5
   ISIF = 2
   GGA = PE
   IVDW = 12

 POTCAR:    PAW_PBE B 06Sep2000                   
 POTCAR:    PAW_PBE C 08Apr2002                   
 POTCAR:    PAW_PBE B 06Sep2000                   
   SHA256 =  a32ced30f5ae56fd4d10b4325ff17eb3e4e38ee0f4288bc219fb012fddfa6e97 B/POTCAR              
   COPYR  = (c) Copyright 06Sep2000 Georg Kresse                                                    
   COPYR  = This file is part of the software VASP. Any use, copying, and all other rights are regul
   COPYR  = If you do not have a valid VASP license, you may not use, copy or distribute this file. 
   VRHFIN =B: s2p1                                                                                  
   LEXCH  = PE                                                                                      
   EATOM  =    71.1703 eV,    5.2309 Ry                                                             
                                                                                                    
   TITEL  = PAW_PBE B 06Sep2000                                                                     
   LULTRA =        F    use ultrasoft PP ?                                                          
   IUNSCR =        1    unscreen: 0-lin 1-nonlin 2-no                                               
   RPACOR =    1.200    partial core radius                                                         
   POMASS =   10.811; ZVAL   =    3.000    mass and valenz                                          
   RCORE  =    1.700    outmost cutoff radius                                                       
   RWIGS  =    1.710; RWIGS  =    0.905    wigner-seitz radius (au A)                               
   ENMAX  =  318.614; ENMIN  =  238.960 eV                                                          
   ICORE  =        2    local potential                                                             
   LCOR   =        T    correct aug charges                                                         
   LPAW   =        T    paw PP                                                                      
   EAUG   =  535.514                                                                                
   DEXC   =    0.000                                                                                
   RMAX   =    1.732    core radius for proj-oper                                                   
   RAUG   =    1.300    factor for augmentation sphere                                              
   RDEP   =    1.757    radius for radial grids                                                     
   RDEPT  =    1.436    core radius for aug-charge                                                  
                                                                                                    
   Atomic configuration                                                                             
    4 entries                                                                                       
     n  l   j            E        occ.                                                              
     1  0  0.50      -180.5896   2.0000                                                             
     2  0  0.50        -9.4431   2.0000                                                             
     2  1  0.50        -3.6068   1.0000                                                             
     3  2  1.50        -4.0817   0.0000                                                             
   Description                                                                                      
     l       E           TYP  RCUT    TYP  RCUT                                                     
     0     -9.4430752     23  1.500                                                                 
     0      0.8675899     23  1.500                                                                 
     1     -3.6067955     23  1.700                                                                 
     1      6.1086146     23  1.700                                                                 
     2     -4.0817478      7  1.700                                                                 
  local pseudopotential read in
  partial core-charges read in
  partial kinetic energy density read in
  atomic valenz-charges read in
  non local Contribution for L=           0  read in
    real space projection operators read in
  non local Contribution for L=           0  read in
    real space projection operators read in
  non local Contribution for L=           1  read in
    real space projection operators read in
  non local Contribution for L=           1  read in
    real space projection operators read in
    PAW grid and wavefunctions read in
 
   number of l-projection  operators is LMAX  =           4
   number of lm-projection operators is LMMAX =           8
 
 POTCAR:    PAW_PBE C 08Apr2002                   
   SHA256 =  253f7b50bb8d59471dbedb8285d89021f4a42ed1a2c5d38a03a736e69125dd95 C/POTCAR              
   COPYR  = (c) Copyright 08Apr2002 Georg Kresse                                                    
   COPYR  = This file is part of the software VASP. Any use, copying, and all other rights are regul
   COPYR  = If you do not have a valid VASP license, you may not use, copy or distribute this file. 
   VRHFIN =C: s2p2                                                                                  
   LEXCH  = PE                                                                                      
   EATOM  =   147.1560 eV,   10.8157 Ry                                                             
                                                                                                    
   TITEL  = PAW_PBE C 08Apr2002                                                                     
   LULTRA =        F    use ultrasoft PP ?                                                          
   IUNSCR =        1    unscreen: 0-lin 1-nonlin 2-no                                               
   RPACOR =    1.200    partial core radius                                                         
   POMASS =   12.011; ZVAL   =    4.000    mass and valenz                                          
   RCORE  =    1.500    outmost cutoff radius                                                       
   RWIGS  =    1.630; RWIGS  =    0.863    wigner-seitz radius (au A)                               
   ENMAX  =  400.000; ENMIN  =  300.000 eV                                                          
   ICORE  =        2    local potential                                                             
   LCOR   =        T    correct aug charges                                                         
   LPAW   =        T    paw PP                                                                      
   EAUG   =  644.873                                                                                
   DEXC   =    0.000                                                                                
   RMAX   =    1.529    core radius for proj-oper                                                   
   RAUG   =    1.300    factor for augmentation sphere                                              
   RDEP   =    1.501    radius for radial grids                                                     
   RDEPT  =    1.300    core radius for aug-charge                                                  
                                                                                                    
   Atomic configuration                                                                             
    4 entries                                                                                       
     n  l   j            E        occ.                                                              
     1  0  0.50      -273.3789   2.0000                                                             
     2  0  0.50       -13.7508   2.0000                                                             
     2  1  0.50        -5.2854   2.0000                                                             
     3  2  1.50        -5.4423   0.0000                                                             
   Description                                                                                      
     l       E           TYP  RCUT    TYP  RCUT                                                     
     0    -13.7508458     23  1.200                                                                 
     0     -8.2022199     23  1.200                                                                 
     1     -5.2854383     23  1.500                                                                 
     1     34.0145650     23  1.500                                                                 
     2     -5.4423304      7  1.500                                                                 
  local pseudopotential read in
  partial core-charges read in
  partial kinetic energy density read in
  atomic valenz-charges read in
  non local Contribution for L=           0  read in
    real space projection operators read in
  non local Contribution for L=           0  read in
    real space projection operators read in
  non local Contribution for L=           1  read in
    real space projection operators read in
  non local Contribution for L=           1  read in
    real space projection operators read in
    PAW grid and wavefunctions read in
 
   number of l-projection  operators is LMAX  =           4
   number of lm-projection operators is LMMAX =           8
 
  PAW_PBE B 06Sep2000                   :
 energy of atom  1       EATOM=  -71.1703
 kinetic energy error for atom=    0.0015 (will be added to EATOM!!)
  PAW_PBE C 08Apr2002                   :
 energy of atom  2       EATOM= -147.1560
 kinetic energy error for atom=    0.0116 (will be added to EATOM!!)
 
 
 POSCAR: BC3 with lattice parameter 5.169
  positions in direct lattice
  No initial velocities read in
 exchange correlation table for  LEXCH =        8
   RHO(1)=    0.500       N(1)  =     2000
   RHO(2)=  100.500       N(2)  =     4000

 VTST: version 4.2, (08/11/21)

 CHAIN: initializing optimizer
 
 OPT: Using VASP Conjugate-Gradient optimizer
 CHAIN: Read ICHAIN            0
 
 POSCAR: BC3 with lattice parameter 5.169
  positions in direct lattice
  No initial velocities read in
 


--------------------------------------------------------------------------------------------------------


 ion  position               nearest neighbor table
   1  0.338  0.669  0.250-   7 1.56   5 1.56   3 1.56
   2  0.672  0.336  0.250-   6 1.56   4 1.56   8 1.56
   3  0.164  0.321  0.250-   6 1.43   4 1.43   1 1.56
   4  0.323  0.162  0.250-   5 1.43   3 1.43   2 1.56
   5  0.164  0.844  0.250-   8 1.43   4 1.43   1 1.56
   6  0.846  0.161  0.250-   3 1.43   7 1.43   2 1.56
   7  0.687  0.843  0.250-   6 1.43   8 1.43   1 1.56
   8  0.846  0.684  0.250-   5 1.43   7 1.43   2 1.56
 
  LATTYP: Found a hexagonal cell.
 ALAT       =     5.1689997297
 C/A-ratio  =     2.9019154158
  
  Lattice vectors:
  
 A1 = (   4.4764850000,   2.5845000000,   0.0000000000)
 A2 = (  -4.4764850000,   2.5845000000,   0.0000000000)
 A3 = (   0.0000000000,   0.0000000000,  15.0000000000)


Analysis of symmetry for initial positions (statically):
=====================================================================
 Subroutine PRICEL returns:
 Original cell was already a primitive cell.
 

 Routine SETGRP: Setting up the symmetry group for a 
 hexagonal supercell.


 Subroutine GETGRP returns: Found  2 space group operations
 (whereof  1 operations were pure point group operations)
 out of a pool of 24 trial point group operations.


The static configuration has the point symmetry C_1 .
 The point group associated with its full space group is C_1h.


Analysis of symmetry for dynamics (positions and initial velocities):
=====================================================================
 Subroutine PRICEL returns:
 Original cell was already a primitive cell.
 

 Routine SETGRP: Setting up the symmetry group for a 
 hexagonal supercell.


 Subroutine GETGRP returns: Found  2 space group operations
 (whereof  1 operations were pure point group operations)
 out of a pool of 24 trial point group operations.


The dynamic configuration has the point symmetry C_1 .
 The point group associated with its full space group is C_1h.


 Subroutine INISYM returns: Found  2 space group operations
 (whereof  1 operations are pure point group operations),
 and found     1 'primitive' translations


----------------------------------------------------------------------------------------

                                     Primitive cell                                     

  volume of cell :     347.0843

  direct lattice vectors                    reciprocal lattice vectors
     4.476485000  2.584500000  0.000000000     0.111694778  0.193461018  0.000000000
    -4.476485000  2.584500000  0.000000000    -0.111694778  0.193461018  0.000000000
     0.000000000  0.000000000 15.000000000     0.000000000  0.000000000  0.066666667

  length of vectors
     5.168999730  5.168999730 15.000000000     0.223389545  0.223389545  0.066666667

  position of ions in fractional coordinates (direct lattice)
     0.338355679  0.669193380  0.250000000
     0.671685498  0.335784119  0.250000000
     0.163934177  0.320961209  0.250000000
     0.323443825  0.161949178  0.250000000
     0.164451415  0.843507827  0.250000000
     0.845556746  0.161476941  0.250000000
     0.686507302  0.843049958  0.250000000
     0.846061357  0.684073387  0.250000000

  ion indices of the primitive-cell ions
   primitive index   ion index
                 1           1
                 2           2
                 3           3
                 4           4
                 5           5
                 6           6
                 7           7
                 8           8

----------------------------------------------------------------------------------------

 
 
 KPOINTS: k-points 3                              

Automatic generation of k-mesh.
 Grid dimensions read from file:
 generate k-points for:    3    3    1

 Generating k-lattice:

  Cartesian coordinates                     Fractional coordinates (reciprocal lattice)
     0.037231593  0.064487006  0.000000000     0.333333333  0.000000000  0.000000000
    -0.037231593  0.064487006  0.000000000     0.000000000  0.333333333  0.000000000
     0.000000000  0.000000000  0.066666667     0.000000000  0.000000000  1.000000000

  Length of vectors
     0.074463182  0.074463182  0.066666667

  Shift w.r.t. Gamma in fractional coordinates (k-lattice)
     0.000000000  0.000000000  0.000000000

 
 Subroutine IBZKPT returns following result:
 ===========================================
 
 Found      5 irreducible k-points:
 
 Following reciprocal coordinates:
            Coordinates               Weight
  0.000000  0.000000  0.000000      1.000000
  0.333333 -0.000000  0.000000      2.000000
 -0.000000  0.333333  0.000000      2.000000
 -0.333333  0.333333  0.000000      2.000000
  0.333333  0.333333  0.000000      2.000000
 
 Following cartesian coordinates:
            Coordinates               Weight
  0.000000  0.000000  0.000000      1.000000
  0.037232  0.064487  0.000000      2.000000
 -0.037232  0.064487  0.000000      2.000000
 -0.074463 -0.000000  0.000000      2.000000
 -0.000000  0.128974  0.000000      2.000000
 


--------------------------------------------------------------------------------------------------------




 Dimension of arrays:
   k-points           NKPTS =      5   k-points in BZ     NKDIM =      5   number of bands    NBANDS=     24
   number of dos      NEDOS =    301   number of ions     NIONS =      8
   non local maximal  LDIM  =      4   non local SUM 2l+1 LMDIM =      8
   total plane-waves  NPLWV = 139968
   max r-space proj   IRMAX =      1   max aug-charges    IRDMAX=   6487
   dimension x,y,z NGX =    36 NGY =   36 NGZ =  108
   dimension x,y,z NGXF=    72 NGYF=   72 NGZF=  216
   support grid    NGXF=    72 NGYF=   72 NGZF=  216
   ions per type =               2   6
   NGX,Y,Z   is equivalent  to a cutoff of  11.58, 11.58, 11.97 a.u.
   NGXF,Y,Z  is equivalent  to a cutoff of  23.16, 23.16, 23.94 a.u.

 SYSTEM =  Lattice                                 
 POSCAR =  BC3 with lattice parameter 5.169        

 Startparameter for this run:
   NWRITE =      2    write-flag & timer
   PREC   = accura    normal or accurate (medium, high low for compatibility)
   ISTART =      0    job   : 0-new  1-cont  2-samecut
   ICHARG =      2    charge: 1-file 2-atom 10-const
   ISPIN  =      1    spin polarized calculation?
   LNONCOLLINEAR =      F non collinear calculations
   LSORBIT =      F    spin-orbit coupling
   INIWAV =      1    electr: 0-lowe 1-rand  2-diag
   LASPH  =      F    aspherical Exc in radial PAW
 Electronic Relaxation 1
   ENCUT  =  450.0 eV  33.07 Ry    5.75 a.u.   8.94  8.94 25.95*2*pi/ulx,y,z
   ENINI  =  450.0     initial cutoff
   ENAUG  =  644.9 eV  augmentation charge cutoff
   NELM   =     64;   NELMIN=  2; NELMDL= -5     # of ELM steps 
   EDIFF  = 0.1E-05   stopping-criterion for ELM
   LREAL  =      F    real-space projection
   NLSPLINE    = F    spline interpolate recip. space projectors
   LCOMPAT=      F    compatible to vasp.4.4
   GGA_COMPAT  = T    GGA compatible to vasp.4.4-vasp.4.6
   LMAXPAW     = -100 max onsite density
   LMAXMIX     =    2 max onsite mixed and CHGCAR
   VOSKOWN=      0    Vosko Wilk Nusair interpolation
   ROPT   =    0.00000   0.00000
 Ionic relaxation
   EDIFFG = -.1E-02   stopping-criterion for IOM
   NSW    =    128    number of steps for IOM
   NBLOCK =      1;   KBLOCK =    128    inner block; outer block 
   IBRION =      2    ionic relax: 0-MD 1-quasi-New 2-CG
   NFREE  =      1    steps in history (QN), initial steepest desc. (CG)
   ISIF   =      2    stress and relaxation
   IWAVPR =     11    prediction:  0-non 1-charg 2-wave 3-comb
   ISYM   =      2    0-nonsym 1-usesym 2-fastsym
   LCORR  =      T    Harris-Foulkes like correction to forces

   POTIM  = 0.5000    time-step for ionic-motion
   TEIN   =    0.0    initial temperature
   TEBEG  =    0.0;   TEEND  =   0.0 temperature during run
   SMASS  =  -3.00    Nose mass-parameter (am)
   estimated Nose-frequenzy (Omega)   =  0.10E-29 period in steps = 0.13E+47 mass=  -0.611E-27a.u.
   SCALEE = 1.0000    scale energy and forces
   NPACO  =    256;   APACO  = 10.0  distance and # of slots for P.C.
   PSTRESS=    0.0 pullay stress

  Mass of Ions in am
   POMASS =  10.81 12.01
  Ionic Valenz
   ZVAL   =   3.00  4.00
  Atomic Wigner-Seitz radii
   RWIGS  =  -1.00 -1.00
  virtual crystal weights 
   VCA    =   1.00  1.00
   NELECT =      30.0000    total number of electrons
   NUPDOWN=      -1.0000    fix difference up-down

 DOS related values:
   EMIN   =  10.00;   EMAX   =-10.00  energy-range for DOS
   EFERMI =   0.00
   ISMEAR =     0;   SIGMA  =   0.10  broadening in eV -4-tet -1-fermi 0-gaus

 Electronic relaxation 2 (details)
   IALGO  =     38    algorithm
   LDIAG  =      T    sub-space diagonalisation (order eigenvalues)
   LSUBROT=      F    optimize rotation matrix (better conditioning)
   TURBO    =      0    0=normal 1=particle mesh
   IRESTART =      0    0=no restart 2=restart with 2 vectors
   NREBOOT  =      0    no. of reboots
   NMIN     =      0    reboot dimension
   EREF     =   0.00    reference energy to select bands
   IMIX   =      4    mixing-type and parameters
     AMIX     =   0.40;   BMIX     =  1.00
     AMIX_MAG =   1.60;   BMIX_MAG =  1.00
     AMIN     =   0.10
     WC   =   100.;   INIMIX=   1;  MIXPRE=   1;  MAXMIX= -45

 Intra band minimization:
   WEIMIN = 0.0010     energy-eigenvalue tresh-hold
   EBREAK =  0.10E-07  absolut break condition
   DEPER  =   0.30     relativ break condition  

   TIME   =   0.40     timestep for ELM

  volume/ion in A,a.u.               =      43.39       292.78
  Fermi-wavevector in a.u.,A,eV,Ry     =   0.723831  1.367842  7.128511  0.523931
  Thomas-Fermi vector in A             =   1.814147
 
 Write flags
   LWAVE        =      F    write WAVECAR
   LDOWNSAMPLE  =      F    k-point downsampling of WAVECAR
   LCHARG       =      F    write CHGCAR
   LVTOT        =      F    write LOCPOT, total local potential
   LVHAR        =      F    write LOCPOT, Hartree potential only
   LELF         =      F    write electronic localiz. function (ELF)
   LORBIT       =      0    0 simple, 1 ext, 2 COOP (PROOUT), +10 PAW based schemes


 Dipole corrections
   LMONO  =      F    monopole corrections only (constant potential shift)
   LDIPOL =      F    correct potential (dipole corrections)
   IDIPOL =      0    1-x, 2-y, 3-z, 4-all directions 
   EPSILON=  1.0000000 bulk dielectric constant

 Exchange correlation treatment:
   GGA     =    PE    GGA type
   LEXCH   =     8    internal setting for exchange type
   LIBXC   =     F    Libxc                    
   VOSKOWN =     0    Vosko Wilk Nusair interpolation
   LHFCALC =     F    Hartree Fock is set to
   LHFONE  =     F    Hartree Fock one center treatment
   AEXX    =    0.0000 exact exchange contribution

 Linear response parameters
   LEPSILON=     F    determine dielectric tensor
   LRPA    =     F    only Hartree local field effects (RPA)
   LNABLA  =     F    use nabla operator in PAW spheres
   LVEL    =     F    velocity operator in full k-point grid
   CSHIFT  =0.1000    complex shift for real part using Kramers Kronig
   OMEGAMAX=  -1.0    maximum frequency
   DEG_THRESHOLD= 0.2000000E-02 threshold for treating states as degnerate
   RTIME   =   -0.100 relaxation time in fs
  (WPLASMAI=    0.000 imaginary part of plasma frequency in eV, 0.658/RTIME)
   DFIELD  = 0.0000000 0.0000000 0.0000000 field for delta impulse in time
 
  Optional k-point grid parameters
   LKPOINTS_OPT  =     F    use optional k-point grid
   KPOINTS_OPT_MODE=     1    mode for optional k-point grid
 
 Orbital magnetization related:
   ORBITALMAG=     F  switch on orbital magnetization
   LCHIMAG   =     F  perturbation theory with respect to B field
   DQ        =  0.001000  dq finite difference perturbation B field
   LLRAUG    =     F  two centre corrections for induced B field



--------------------------------------------------------------------------------------------------------


 conjugate gradient relaxation of ions
 charge density and potential will be updated during run
 non-spin polarized calculation
 Variant of blocked Davidson
 Davidson routine will perform the subspace rotation
 perform sub-space diagonalisation
    after iterative eigenvector-optimisation
 modified Broyden-mixing scheme, WC =      100.0
 initial mixing is a Kerker type mixing with AMIX =  0.4000 and BMIX =      1.0000
 Hartree-type preconditioning will be used
 using additional bands            9
 reciprocal scheme for non local part
 use partial core corrections
 calculate Harris-corrections to forces 
   (improved forces if not selfconsistent)
 use gradient corrections 
 use of overlap-Matrix (Vanderbilt PP)
 Gauss-broadening in eV      SIGMA  =   0.10


--------------------------------------------------------------------------------------------------------


  energy-cutoff  :      450.00
  volume of cell :      347.08
      direct lattice vectors                 reciprocal lattice vectors
     4.476485000  2.584500000  0.000000000     0.111694778  0.193461018  0.000000000
    -4.476485000  2.584500000  0.000000000    -0.111694778  0.193461018  0.000000000
     0.000000000  0.000000000 15.000000000     0.000000000  0.000000000  0.066666667

  length of vectors
     5.168999730  5.168999730 15.000000000     0.223389545  0.223389545  0.066666667


 
 k-points in units of 2pi/SCALE and weight: k-points 3                              
   0.00000000  0.00000000  0.00000000       0.111
   0.03723159  0.06448701  0.00000000       0.222
  -0.03723159  0.06448701  0.00000000       0.222
  -0.07446319 -0.00000000  0.00000000       0.222
  -0.00000000  0.12897401  0.00000000       0.222
 
 k-points in reciprocal lattice and weights: k-points 3                              
   0.00000000  0.00000000  0.00000000       0.111
   0.33333333 -0.00000000  0.00000000       0.222
  -0.00000000  0.33333333  0.00000000       0.222
  -0.33333333  0.33333333  0.00000000       0.222
   0.33333333  0.33333333  0.00000000       0.222
 
 position of ions in fractional coordinates (direct lattice) 
   0.33835568  0.66919338  0.25000000
   0.67168550  0.33578412  0.25000000
   0.16393418  0.32096121  0.25000000
   0.32344383  0.16194918  0.25000000
   0.16445142  0.84350783  0.25000000
   0.84555675  0.16147694  0.25000000
   0.68650730  0.84304996  0.25000000
   0.84606136  0.68407339  0.25000000
 
 position of ions in cartesian coordinates  (Angst):
  -1.48099001  2.60401054  3.75000000
   1.50365748  2.60380523  3.75000000
  -0.70292916  1.25321212  3.75000000
   0.72292837  1.25449822  3.75000000
  -3.03978584  2.60507066  3.75000000
   3.06227299  2.60267856  3.75000000
  -0.70076085  3.95314074  3.75000000
   0.72513672  3.95463325  3.75000000
 


--------------------------------------------------------------------------------------------------------


 k-point   1 :   0.0000 0.0000 0.0000  plane waves:    7497
 k-point   2 :   0.3333-0.0000 0.0000  plane waves:    7530
 k-point   3 :  -0.0000 0.3333 0.0000  plane waves:    7530
 k-point   4 :  -0.3333 0.3333 0.0000  plane waves:    7530
 k-point   5 :   0.3333 0.3333 0.0000  plane waves:    7545

 maximum and minimum number of plane-waves per node :      7545     7497

 maximum number of plane-waves:      7545
 maximum index in each direction: 
   IXMAX=    9   IYMAX=    8   IZMAX=   25
   IXMIN=   -9   IYMIN=   -9   IZMIN=  -25


 serial   3D FFT for wavefunctions
 parallel 3D FFT for charge:
    minimum data exchange during FFTs selected (reduces bandwidth)


 total amount of memory used by VASP MPI-rank0    46843. kBytes
=======================================================================

   base      :      30000. kBytes
   nonl-proj :       5806. kBytes
   fftplans  :       2154. kBytes
   grid      :       8249. kBytes
   one-center:         24. kBytes
   wavefun   :        610. kBytes
 
     INWAV:  cpu time      0.0000: real time      0.0000
 Broyden mixing: mesh for mixing (old mesh)
   NGX = 17   NGY = 17   NGZ = 51
  (NGX  = 72   NGY  = 72   NGZ  =216)
  gives a total of  14739 points

 initial charge density was supplied:
 charge density of overlapping atoms calculated
 number of electron      30.0000000 magnetization 
 keeping initial charge density in first step


--------------------------------------------------------------------------------------------------------


 Maximum index for augmentation-charges          367 (set IRDMAX)


--------------------------------------------------------------------------------------------------------


 First call to EWALD:  gamma=   0.252
 Maximum number of real-space cells 4x 4x 2
 Maximum number of reciprocal cells 2x 2x 5

    FEWALD:  cpu time      0.0012: real time      0.0012


--------------------------------------- Iteration      1(   1)  ---------------------------------------


    POTLOK:  cpu time      0.0251: real time      0.0254
    SETDIJ:  cpu time      0.0013: real time      0.0013
     EDDAV:  cpu time      0.1492: real time      0.1495
       DOS:  cpu time      0.0007: real time      0.0007
    --------------------------------------------
      LOOP:  cpu time      0.1763: real time      0.1770

 eigenvalue-minimisations  :   240
 total energy-change (2. order) : 0.1810492E+03  (-0.1142942E+04)
 number of electron      30.0000000 magnetization 
 augmentation part       30.0000000 magnetization 

 Free energy of the ion-electron system (eV)
  ---------------------------------------------------
  alpha Z        PSCENC =        14.61461864
  Ewald energy   TEWEN  =      2602.09786459
  -Hartree energ DENC   =     -3360.46115414
  -exchange      EXHF   =         0.00000000
  -V(xc)+E(xc)   XCENC  =        91.16088409
  PAW double counting   =       738.13200929     -739.83780425
  entropy T*S    EENTRO =        -0.03132979
  eigenvalues    EBANDS =      -189.82980737
  atomic energy  EATOM  =      1025.20389953
  Solvation  Ediel_sol  =         0.00000000
  ---------------------------------------------------
  free energy    TOTEN  =       181.04918060 eV

  energy without entropy =      181.08051039  energy(sigma->0) =      181.06484550


--------------------------------------------------------------------------------------------------------




--------------------------------------- Iteration      1(   2)  ---------------------------------------


     EDDAV:  cpu time      0.2089: real time      0.2095
       DOS:  cpu time      0.0002: real time      0.0002
    --------------------------------------------
      LOOP:  cpu time      0.2091: real time      0.2097

 eigenvalue-minimisations  :   384
 total energy-change (2. order) :-0.2375603E+03  (-0.2366718E+03)
 number of electron      30.0000000 magnetization 
 augmentation part       30.0000000 magnetization 

 Free energy of the ion-electron system (eV)
  ---------------------------------------------------
  alpha Z        PSCENC =        14.61461864
  Ewald energy   TEWEN  =      2602.09786459
  -Hartree energ DENC   =     -3360.46115414
  -exchange      EXHF   =         0.00000000
  -V(xc)+E(xc)   XCENC  =        91.16088409
  PAW double counting   =       738.13200929     -739.83780425
  entropy T*S    EENTRO =        -0.00000000
  eigenvalues    EBANDS =      -427.42146529
  atomic energy  EATOM  =      1025.20389953
  Solvation  Ediel_sol  =         0.00000000
  ---------------------------------------------------
  free energy    TOTEN  =       -56.51114753 eV

  energy without entropy =      -56.51114753  energy(sigma->0) =      -56.51114753


--------------------------------------------------------------------------------------------------------




--------------------------------------- Iteration      1(   3)  ---------------------------------------


     EDDAV:  cpu time      0.2445: real time      0.2445
       DOS:  cpu time      0.0002: real time      0.0001
    --------------------------------------------
      LOOP:  cpu time      0.2446: real time      0.2446

 eigenvalue-minimisations  :   456
 total energy-change (2. order) :-0.1683624E+02  (-0.1683624E+02)
 number of electron      30.0000000 magnetization 
 augmentation part       30.0000000 magnetization 

 Free energy of the ion-electron system (eV)
  ---------------------------------------------------
  alpha Z        PSCENC =        14.61461864
  Ewald energy   TEWEN  =      2602.09786459
  -Hartree energ DENC   =     -3360.46115414
  -exchange      EXHF   =         0.00000000
  -V(xc)+E(xc)   XCENC  =        91.16088409
  PAW double counting   =       738.13200929     -739.83780425
  entropy T*S    EENTRO =        -0.00000000
  eigenvalues    EBANDS =      -444.25770483
  atomic energy  EATOM  =      1025.20389953
  Solvation  Ediel_sol  =         0.00000000
  ---------------------------------------------------
  free energy    TOTEN  =       -73.34738707 eV

  energy without entropy =      -73.34738707  energy(sigma->0) =      -73.34738707


--------------------------------------------------------------------------------------------------------




--------------------------------------- Iteration      1(   4)  ---------------------------------------


     EDDAV:  cpu time      0.1996: real time      0.1997
       DOS:  cpu time      0.0001: real time      0.0001
    --------------------------------------------
      LOOP:  cpu time      0.1998: real time      0.1998

 eigenvalue-minimisations  :   360
 total energy-change (2. order) :-0.3387064E-01  (-0.3387064E-01)
 number of electron      30.0000000 magnetization 
 augmentation part       30.0000000 magnetization 

 Free energy of the ion-electron system (eV)
  ---------------------------------------------------
  alpha Z        PSCENC =        14.61461864
  Ewald energy   TEWEN  =      2602.09786459
  -Hartree energ DENC   =     -3360.46115414
  -exchange      EXHF   =         0.00000000
  -V(xc)+E(xc)   XCENC  =        91.16088409
  PAW double counting   =       738.13200929     -739.83780425
  entropy T*S    EENTRO =        -0.00000000
  eigenvalues    EBANDS =      -444.29157548
  atomic energy  EATOM  =      1025.20389953
  Solvation  Ediel_sol  =         0.00000000
  ---------------------------------------------------
  free energy    TOTEN  =       -73.38125772 eV

  energy without entropy =      -73.38125772  energy(sigma->0) =      -73.38125772


--------------------------------------------------------------------------------------------------------




--------------------------------------- Iteration      1(   5)  ---------------------------------------


     EDDAV:  cpu time      0.2320: real time      0.2320
       DOS:  cpu time      0.0002: real time      0.0001
    CHARGE:  cpu time      0.0286: real time      0.0293
    MIXING:  cpu time      0.0016: real time      0.0016
    --------------------------------------------
      LOOP:  cpu time      0.2624: real time      0.2630

 eigenvalue-minimisations  :   432
 total energy-change (2. order) :-0.1781424E-03  (-0.1781424E-03)
 number of electron      30.0000000 magnetization 
 augmentation part        0.5836691 magnetization 

 Broyden mixing:
  rms(total) = 0.13134E+01    rms(broyden)= 0.13129E+01
  rms(prec ) = 0.14996E+01
  weight for this iteration     100.00

 Free energy of the ion-electron system (eV)
  ---------------------------------------------------
  alpha Z        PSCENC =        14.61461864
  Ewald energy   TEWEN  =      2602.09786459
  -Hartree energ DENC   =     -3360.46115414
  -exchange      EXHF   =         0.00000000
  -V(xc)+E(xc)   XCENC  =        91.16088409
  PAW double counting   =       738.13200929     -739.83780425
  entropy T*S    EENTRO =        -0.00000000
  eigenvalues    EBANDS =      -444.29175362
  atomic energy  EATOM  =      1025.20389953
  Solvation  Ediel_sol  =         0.00000000
  ---------------------------------------------------
  free energy    TOTEN  =       -73.38143586 eV

  energy without entropy =      -73.38143586  energy(sigma->0) =      -73.38143586


--------------------------------------------------------------------------------------------------------




--------------------------------------- Iteration      1(   6)  ---------------------------------------


    POTLOK:  cpu time      0.0213: real time      0.0213
    SETDIJ:  cpu time      0.0017: real time      0.0017
     EDDAV:  cpu time      0.2317: real time      0.2317
       DOS:  cpu time      0.0001: real time      0.0001
    CHARGE:  cpu time      0.0262: real time      0.0263
    MIXING:  cpu time      0.0013: real time      0.0013
    --------------------------------------------
      LOOP:  cpu time      0.2824: real time      0.2824

 eigenvalue-minimisations  :   432
 total energy-change (2. order) : 0.4483961E+01  (-0.5909709E+00)
 number of electron      30.0000000 magnetization 
 augmentation part        0.5371238 magnetization 

 Broyden mixing:
  rms(total) = 0.74480E+00    rms(broyden)= 0.74475E+00
  rms(prec ) = 0.83733E+00
  weight for this iteration     100.00

 eigenvalues of (default mixing * dielectric matrix)
  average eigenvalue GAMMA=   1.9647
  1.9647

 Free energy of the ion-electron system (eV)
  ---------------------------------------------------
  alpha Z        PSCENC =        14.61461864
  Ewald energy   TEWEN  =      2602.09786459
  -Hartree energ DENC   =     -3406.80868698
  -exchange      EXHF   =         0.00000000
  -V(xc)+E(xc)   XCENC  =        93.18279116
  PAW double counting   =      1378.38600747    -1380.65471324
  entropy T*S    EENTRO =        -0.00000000
  eigenvalues    EBANDS =      -394.91925636
  atomic energy  EATOM  =      1025.20389953
  Solvation  Ediel_sol  =         0.00000000
  ---------------------------------------------------
  free energy    TOTEN  =       -68.89747519 eV

  energy without entropy =      -68.89747519  energy(sigma->0) =      -68.89747519


--------------------------------------------------------------------------------------------------------




--------------------------------------- Iteration      1(   7)  ---------------------------------------


    POTLOK:  cpu time      0.0201: real time      0.0201
    SETDIJ:  cpu time      0.0010: real time      0.0010
     EDDAV:  cpu time      0.2393: real time      0.2393
       DOS:  cpu time      0.0002: real time      0.0002
    CHARGE:  cpu time      0.0250: real time      0.0250
    MIXING:  cpu time      0.0011: real time      0.0011
    --------------------------------------------
      LOOP:  cpu time      0.2867: real time      0.2867

 eigenvalue-minimisations  :   456
 total energy-change (2. order) : 0.1662475E+01  (-0.4029753E+00)
 number of electron      30.0000000 magnetization 
 augmentation part        0.5006383 magnetization 

 Broyden mixing:
  rms(total) = 0.21819E+00    rms(broyden)= 0.21809E+00
  rms(prec ) = 0.24095E+00
  weight for this iteration     100.00

 eigenvalues of (default mixing * dielectric matrix)
  average eigenvalue GAMMA=   1.9102
  1.4516  2.3688

 Free energy of the ion-electron system (eV)
  ---------------------------------------------------
  alpha Z        PSCENC =        14.61461864
  Ewald energy   TEWEN  =      2602.09786459
  -Hartree energ DENC   =     -3458.63413879
  -exchange      EXHF   =         0.00000000
  -V(xc)+E(xc)   XCENC  =        95.40480237
  PAW double counting   =      2464.76712254    -2467.44324160
  entropy T*S    EENTRO =        -0.00000000
  eigenvalues    EBANDS =      -343.24592784
  atomic energy  EATOM  =      1025.20389953
  Solvation  Ediel_sol  =         0.00000000
  ---------------------------------------------------
  free energy    TOTEN  =       -67.23500056 eV

  energy without entropy =      -67.23500056  energy(sigma->0) =      -67.23500056


--------------------------------------------------------------------------------------------------------




--------------------------------------- Iteration      1(   8)  ---------------------------------------


    POTLOK:  cpu time      0.0181: real time      0.0181
    SETDIJ:  cpu time      0.0010: real time      0.0010
     EDDAV:  cpu time      0.2084: real time      0.2084
       DOS:  cpu time      0.0002: real time      0.0002
    CHARGE:  cpu time      0.0264: real time      0.0264
    MIXING:  cpu time      0.0009: real time      0.0009
    --------------------------------------------
      LOOP:  cpu time      0.2550: real time      0.2550

 eigenvalue-minimisations  :   384
 total energy-change (2. order) : 0.8483953E-01  (-0.1848637E-01)
 number of electron      30.0000000 magnetization 
 augmentation part        0.4977259 magnetization 

 Broyden mixing:
  rms(total) = 0.56663E-01    rms(broyden)= 0.56640E-01
  rms(prec ) = 0.81004E-01
  weight for this iteration     100.00

 eigenvalues of (default mixing * dielectric matrix)
  average eigenvalue GAMMA=   1.8225
  1.1779  2.0567  2.2328

 Free energy of the ion-electron system (eV)
  ---------------------------------------------------
  alpha Z        PSCENC =        14.61461864
  Ewald energy   TEWEN  =      2602.09786459
  -Hartree energ DENC   =     -3473.17708151
  -exchange      EXHF   =         0.00000000
  -V(xc)+E(xc)   XCENC  =        95.82741522
  PAW double counting   =      2867.18225117    -2869.79674361
  entropy T*S    EENTRO =        -0.00000000
  eigenvalues    EBANDS =      -329.10238506
  atomic energy  EATOM  =      1025.20389953
  Solvation  Ediel_sol  =         0.00000000
  ---------------------------------------------------
  free energy    TOTEN  =       -67.15016104 eV

  energy without entropy =      -67.15016103  energy(sigma->0) =      -67.15016103


--------------------------------------------------------------------------------------------------------




--------------------------------------- Iteration      1(   9)  ---------------------------------------


    POTLOK:  cpu time      0.0245: real time      0.0245
    SETDIJ:  cpu time      0.0011: real time      0.0011
     EDDAV:  cpu time      0.2297: real time      0.2297
       DOS:  cpu time      0.0002: real time      0.0002
    CHARGE:  cpu time      0.0278: real time      0.0278
    MIXING:  cpu time      0.0010: real time      0.0010
    --------------------------------------------
      LOOP:  cpu time      0.2842: real time      0.2842

 eigenvalue-minimisations  :   432
 total energy-change (2. order) : 0.1770891E-01  (-0.1358065E-02)
 number of electron      30.0000000 magnetization 
 augmentation part        0.4981213 magnetization 

 Broyden mixing:
  rms(total) = 0.17454E-01    rms(broyden)= 0.17446E-01
  rms(prec ) = 0.42840E-01
  weight for this iteration     100.00

 eigenvalues of (default mixing * dielectric matrix)
  average eigenvalue GAMMA=   1.9205
  2.4891  2.4891  1.1747  1.5290

 Free energy of the ion-electron system (eV)
  ---------------------------------------------------
  alpha Z        PSCENC =        14.61461864
  Ewald energy   TEWEN  =      2602.09786459
  -Hartree energ DENC   =     -3479.47828881
  -exchange      EXHF   =         0.00000000
  -V(xc)+E(xc)   XCENC  =        95.89576284
  PAW double counting   =      2924.20691675    -2926.75431037
  entropy T*S    EENTRO =        -0.00000001
  eigenvalues    EBANDS =      -322.91891530
  atomic energy  EATOM  =      1025.20389953
  Solvation  Ediel_sol  =         0.00000000
  ---------------------------------------------------
  free energy    TOTEN  =       -67.13245213 eV

  energy without entropy =      -67.13245212  energy(sigma->0) =      -67.13245213


--------------------------------------------------------------------------------------------------------




--------------------------------------- Iteration      1(  10)  ---------------------------------------


    POTLOK:  cpu time      0.0187: real time      0.0187
    SETDIJ:  cpu time      0.0010: real time      0.0010
     EDDAV:  cpu time      0.2069: real time      0.2069
       DOS:  cpu time      0.0002: real time      0.0002
    CHARGE:  cpu time      0.0232: real time      0.0232
    MIXING:  cpu time      0.0010: real time      0.0010
    --------------------------------------------
      LOOP:  cpu time      0.2511: real time      0.2511

 eigenvalue-minimisations  :   384
 total energy-change (2. order) : 0.9997863E-02  (-0.9488237E-03)
 number of electron      30.0000000 magnetization 
 augmentation part        0.4973051 magnetization 

 Broyden mixing:
  rms(total) = 0.11888E-01    rms(broyden)= 0.11883E-01
  rms(prec ) = 0.24153E-01
  weight for this iteration     100.00

 eigenvalues of (default mixing * dielectric matrix)
  average eigenvalue GAMMA=   2.0276
  3.3090  1.0078  1.2317  2.5906  1.9990

 Free energy of the ion-electron system (eV)
  ---------------------------------------------------
  alpha Z        PSCENC =        14.61461864
  Ewald energy   TEWEN  =      2602.09786459
  -Hartree energ DENC   =     -3488.02127491
  -exchange      EXHF   =         0.00000000
  -V(xc)+E(xc)   XCENC  =        96.00656159
  PAW double counting   =      2921.17232796    -2923.69815644
  entropy T*S    EENTRO =        -0.00000002
  eigenvalues    EBANDS =      -314.49829521
  atomic energy  EATOM  =      1025.20389953
  Solvation  Ediel_sol  =         0.00000000
  ---------------------------------------------------
  free energy    TOTEN  =       -67.12245427 eV

  energy without entropy =      -67.12245425  energy(sigma->0) =      -67.12245426


--------------------------------------------------------------------------------------------------------




--------------------------------------- Iteration      1(  11)  ---------------------------------------


    POTLOK:  cpu time      0.0189: real time      0.0189
    SETDIJ:  cpu time      0.0010: real time      0.0010
     EDDAV:  cpu time      0.2281: real time      0.2281
       DOS:  cpu time      0.0002: real time      0.0002
    CHARGE:  cpu time      0.0237: real time      0.0237
    MIXING:  cpu time      0.0010: real time      0.0010
    --------------------------------------------
      LOOP:  cpu time      0.2729: real time      0.2729

 eigenvalue-minimisations  :   432
 total energy-change (2. order) : 0.1522791E-02  (-0.4730501E-03)
 number of electron      30.0000000 magnetization 
 augmentation part        0.4965321 magnetization 

 Broyden mixing:
  rms(total) = 0.61356E-02    rms(broyden)= 0.61309E-02
  rms(prec ) = 0.12538E-01
  weight for this iteration     100.00

 eigenvalues of (default mixing * dielectric matrix)
  average eigenvalue GAMMA=   2.1942
  4.6697  2.4167  2.2213  0.9476  1.2037  1.7063

 Free energy of the ion-electron system (eV)
  ---------------------------------------------------
  alpha Z        PSCENC =        14.61461864
  Ewald energy   TEWEN  =      2602.09786459
  -Hartree energ DENC   =     -3494.11700710
  -exchange      EXHF   =         0.00000000
  -V(xc)+E(xc)   XCENC  =        96.07603893
  PAW double counting   =      2894.46830186    -2897.00413201
  entropy T*S    EENTRO =        -0.00000003
  eigenvalues    EBANDS =      -308.46051589
  atomic energy  EATOM  =      1025.20389953
  Solvation  Ediel_sol  =         0.00000000
  ---------------------------------------------------
  free energy    TOTEN  =       -67.12093148 eV

  energy without entropy =      -67.12093145  energy(sigma->0) =      -67.12093146


--------------------------------------------------------------------------------------------------------




--------------------------------------- Iteration      1(  12)  ---------------------------------------


    POTLOK:  cpu time      0.0180: real time      0.0180
    SETDIJ:  cpu time      0.0011: real time      0.0010
     EDDAV:  cpu time      0.1795: real time      0.1795
       DOS:  cpu time      0.0002: real time      0.0002
    CHARGE:  cpu time      0.0263: real time      0.0263
    MIXING:  cpu time      0.0012: real time      0.0012
    --------------------------------------------
      LOOP:  cpu time      0.2262: real time      0.2262

 eigenvalue-minimisations  :   312
 total energy-change (2. order) : 0.4990822E-03  (-0.9237595E-04)
 number of electron      30.0000000 magnetization 
 augmentation part        0.4965043 magnetization 

 Broyden mixing:
  rms(total) = 0.32562E-02    rms(broyden)= 0.32551E-02
  rms(prec ) = 0.73227E-02
  weight for this iteration     100.00

 eigenvalues of (default mixing * dielectric matrix)
  average eigenvalue GAMMA=   2.2857
  5.3511  2.7662  2.4648  1.9935  0.9945  1.1844  1.2458

 Free energy of the ion-electron system (eV)
  ---------------------------------------------------
  alpha Z        PSCENC =        14.61461864
  Ewald energy   TEWEN  =      2602.09786459
  -Hartree energ DENC   =     -3496.62880827
  -exchange      EXHF   =         0.00000000
  -V(xc)+E(xc)   XCENC  =        96.08539149
  PAW double counting   =      2897.32278857    -2899.85659196
  entropy T*S    EENTRO =        -0.00000003
  eigenvalues    EBANDS =      -305.95959496
  atomic energy  EATOM  =      1025.20389953
  Solvation  Ediel_sol  =         0.00000000
  ---------------------------------------------------
  free energy    TOTEN  =       -67.12043239 eV

  energy without entropy =      -67.12043236  energy(sigma->0) =      -67.12043238


--------------------------------------------------------------------------------------------------------




--------------------------------------- Iteration      1(  13)  ---------------------------------------


    POTLOK:  cpu time      0.0248: real time      0.0248
    SETDIJ:  cpu time      0.0011: real time      0.0011
     EDDAV:  cpu time      0.1935: real time      0.1935
       DOS:  cpu time      0.0002: real time      0.0002
    CHARGE:  cpu time      0.0238: real time      0.0238
    MIXING:  cpu time      0.0011: real time      0.0011
    --------------------------------------------
      LOOP:  cpu time      0.2445: real time      0.2445

 eigenvalue-minimisations  :   360
 total energy-change (2. order) :-0.3106457E-02  (-0.5602290E-04)
 number of electron      30.0000000 magnetization 
 augmentation part        0.4964952 magnetization 

 Broyden mixing:
  rms(total) = 0.18574E-02    rms(broyden)= 0.18573E-02
  rms(prec ) = 0.39508E-02
  weight for this iteration     100.00

 eigenvalues of (default mixing * dielectric matrix)
  average eigenvalue GAMMA=   2.4725
  6.3871  3.5890  2.3528  2.3528  1.8479  1.2163  1.0172  1.0172

 Free energy of the ion-electron system (eV)
  ---------------------------------------------------
  alpha Z        PSCENC =        14.61461864
  Ewald energy   TEWEN  =      2602.09786459
  -Hartree energ DENC   =     -3497.43309962
  -exchange      EXHF   =         0.00000000
  -V(xc)+E(xc)   XCENC  =        96.07285724
  PAW double counting   =      2900.85855523    -2903.39188412
  entropy T*S    EENTRO =        -0.00000003
  eigenvalues    EBANDS =      -305.14635032
  atomic energy  EATOM  =      1025.20389953
  Solvation  Ediel_sol  =         0.00000000
  ---------------------------------------------------
  free energy    TOTEN  =       -67.12353885 eV

  energy without entropy =      -67.12353882  energy(sigma->0) =      -67.12353884


--------------------------------------------------------------------------------------------------------




--------------------------------------- Iteration      1(  14)  ---------------------------------------


    POTLOK:  cpu time      0.0176: real time      0.0176
    SETDIJ:  cpu time      0.0011: real time      0.0011
     EDDAV:  cpu time      0.1796: real time      0.1796
       DOS:  cpu time      0.0002: real time      0.0002
    CHARGE:  cpu time      0.0238: real time      0.0238
    MIXING:  cpu time      0.0010: real time      0.0010
    --------------------------------------------
      LOOP:  cpu time      0.2232: real time      0.2232

 eigenvalue-minimisations  :   336
 total energy-change (2. order) :-0.1869456E-02  (-0.3625016E-04)
 number of electron      30.0000000 magnetization 
 augmentation part        0.4964950 magnetization 

 Broyden mixing:
  rms(total) = 0.12801E-02    rms(broyden)= 0.12801E-02
  rms(prec ) = 0.20340E-02
  weight for this iteration     100.00

 eigenvalues of (default mixing * dielectric matrix)
  average eigenvalue GAMMA=   2.4638
  6.6056  3.8503  2.4295  2.0551  1.9932  1.9932  1.0127  1.0127  1.2218

 Free energy of the ion-electron system (eV)
  ---------------------------------------------------
  alpha Z        PSCENC =        14.61461864
  Ewald energy   TEWEN  =      2602.09786459
  -Hartree energ DENC   =     -3497.89918683
  -exchange      EXHF   =         0.00000000
  -V(xc)+E(xc)   XCENC  =        96.06876409
  PAW double counting   =      2902.57456938    -2905.10701391
  entropy T*S    EENTRO =        -0.00000003
  eigenvalues    EBANDS =      -304.67892377
  atomic energy  EATOM  =      1025.20389953
  Solvation  Ediel_sol  =         0.00000000
  ---------------------------------------------------
  free energy    TOTEN  =       -67.12540831 eV

  energy without entropy =      -67.12540828  energy(sigma->0) =      -67.12540829


--------------------------------------------------------------------------------------------------------




--------------------------------------- Iteration      1(  15)  ---------------------------------------


    POTLOK:  cpu time      0.0176: real time      0.0176
    SETDIJ:  cpu time      0.0010: real time      0.0010
     EDDAV:  cpu time      0.2153: real time      0.2153
       DOS:  cpu time      0.0002: real time      0.0002
    CHARGE:  cpu time      0.0234: real time      0.0234
    MIXING:  cpu time      0.0011: real time      0.0011
    --------------------------------------------
      LOOP:  cpu time      0.2585: real time      0.2585

 eigenvalue-minimisations  :   408
 total energy-change (2. order) :-0.5403493E-03  (-0.4285505E-05)
 number of electron      30.0000000 magnetization 
 augmentation part        0.4964502 magnetization 

 Broyden mixing:
  rms(total) = 0.48266E-03    rms(broyden)= 0.48253E-03
  rms(prec ) = 0.94816E-03
  weight for this iteration     100.00

 eigenvalues of (default mixing * dielectric matrix)
  average eigenvalue GAMMA=   2.7262
  8.3488  5.1054  3.0691  2.4549  2.1866  1.8411  1.2109  1.0385  1.0385  0.9684

 Free energy of the ion-electron system (eV)
  ---------------------------------------------------
  alpha Z        PSCENC =        14.61461864
  Ewald energy   TEWEN  =      2602.09786459
  -Hartree energ DENC   =     -3498.31164992
  -exchange      EXHF   =         0.00000000
  -V(xc)+E(xc)   XCENC  =        96.07367628
  PAW double counting   =      2901.45781687    -2903.99065495
  entropy T*S    EENTRO =        -0.00000003
  eigenvalues    EBANDS =      -304.27151967
  atomic energy  EATOM  =      1025.20389953
  Solvation  Ediel_sol  =         0.00000000
  ---------------------------------------------------
  free energy    TOTEN  =       -67.12594866 eV

  energy without entropy =      -67.12594863  energy(sigma->0) =      -67.12594864


--------------------------------------------------------------------------------------------------------




--------------------------------------- Iteration      1(  16)  ---------------------------------------


    POTLOK:  cpu time      0.0176: real time      0.0176
    SETDIJ:  cpu time      0.0011: real time      0.0011
     EDDAV:  cpu time      0.2118: real time      0.2118
       DOS:  cpu time      0.0002: real time      0.0002
    CHARGE:  cpu time      0.0244: real time      0.0244
    MIXING:  cpu time      0.0014: real time      0.0014
    --------------------------------------------
      LOOP:  cpu time      0.2566: real time      0.2566

 eigenvalue-minimisations  :   384
 total energy-change (2. order) :-0.4557183E-03  (-0.6942667E-05)
 number of electron      30.0000000 magnetization 
 augmentation part        0.4964594 magnetization 

 Broyden mixing:
  rms(total) = 0.23172E-03    rms(broyden)= 0.23171E-03
  rms(prec ) = 0.31465E-03
  weight for this iteration     100.00

 eigenvalues of (default mixing * dielectric matrix)
  average eigenvalue GAMMA=   2.8038
  8.7875  5.6702  3.2547  2.4834  2.2831  2.2831  1.8047  1.2122  0.9977  0.9977
  1.0675

 Free energy of the ion-electron system (eV)
  ---------------------------------------------------
  alpha Z        PSCENC =        14.61461864
  Ewald energy   TEWEN  =      2602.09786459
  -Hartree energ DENC   =     -3498.27610962
  -exchange      EXHF   =         0.00000000
  -V(xc)+E(xc)   XCENC  =        96.07185545
  PAW double counting   =      2900.53040523    -2903.06341887
  entropy T*S    EENTRO =        -0.00000003
  eigenvalues    EBANDS =      -304.30551929
  atomic energy  EATOM  =      1025.20389953
  Solvation  Ediel_sol  =         0.00000000
  ---------------------------------------------------
  free energy    TOTEN  =       -67.12640437 eV

  energy without entropy =      -67.12640434  energy(sigma->0) =      -67.12640436


--------------------------------------------------------------------------------------------------------




--------------------------------------- Iteration      1(  17)  ---------------------------------------


    POTLOK:  cpu time      0.0235: real time      0.0235
    SETDIJ:  cpu time      0.0011: real time      0.0011
     EDDAV:  cpu time      0.2064: real time      0.2064
       DOS:  cpu time      0.0002: real time      0.0002
    CHARGE:  cpu time      0.0231: real time      0.0231
    MIXING:  cpu time      0.0012: real time      0.0012
    --------------------------------------------
      LOOP:  cpu time      0.2554: real time      0.2554

 eigenvalue-minimisations  :   384
 total energy-change (2. order) :-0.6915188E-04  (-0.2513201E-06)
 number of electron      30.0000000 magnetization 
 augmentation part        0.4964629 magnetization 

 Broyden mixing:
  rms(total) = 0.85423E-04    rms(broyden)= 0.85410E-04
  rms(prec ) = 0.10289E-03
  weight for this iteration     100.00

 eigenvalues of (default mixing * dielectric matrix)
  average eigenvalue GAMMA=   2.8016
  9.4827  5.8666  3.6756  2.8208  2.4540  2.1079  1.8650  1.2033  0.9702  1.0008
  1.0863  1.0863

 Free energy of the ion-electron system (eV)
  ---------------------------------------------------
  alpha Z        PSCENC =        14.61461864
  Ewald energy   TEWEN  =      2602.09786459
  -Hartree energ DENC   =     -3498.28927292
  -exchange      EXHF   =         0.00000000
  -V(xc)+E(xc)   XCENC  =        96.07160234
  PAW double counting   =      2900.78125474    -2903.31405441
  entropy T*S    EENTRO =        -0.00000003
  eigenvalues    EBANDS =      -304.29238600
  atomic energy  EATOM  =      1025.20389953
  Solvation  Ediel_sol  =         0.00000000
  ---------------------------------------------------
  free energy    TOTEN  =       -67.12647353 eV

  energy without entropy =      -67.12647350  energy(sigma->0) =      -67.12647351


--------------------------------------------------------------------------------------------------------




--------------------------------------- Iteration      1(  18)  ---------------------------------------


    POTLOK:  cpu time      0.0178: real time      0.0178
    SETDIJ:  cpu time      0.0010: real time      0.0010
     EDDAV:  cpu time      0.1614: real time      0.1614
       DOS:  cpu time      0.0002: real time      0.0002
    CHARGE:  cpu time      0.0234: real time      0.0234
    MIXING:  cpu time      0.0011: real time      0.0011
    --------------------------------------------
      LOOP:  cpu time      0.2048: real time      0.2048

 eigenvalue-minimisations  :   288
 total energy-change (2. order) :-0.1308398E-04  (-0.4537489E-07)
 number of electron      30.0000000 magnetization 
 augmentation part        0.4964602 magnetization 

 Broyden mixing:
  rms(total) = 0.20978E-04    rms(broyden)= 0.20974E-04
  rms(prec ) = 0.25366E-04
  weight for this iteration     100.00

 eigenvalues of (default mixing * dielectric matrix)
  average eigenvalue GAMMA=   2.7615
  9.5302  5.9245  3.7290  2.8618  2.3510  2.3510  2.0154  1.8453  1.2061  1.0870
  0.9776  1.0106  1.0106

 Free energy of the ion-electron system (eV)
  ---------------------------------------------------
  alpha Z        PSCENC =        14.61461864
  Ewald energy   TEWEN  =      2602.09786459
  -Hartree energ DENC   =     -3498.29008664
  -exchange      EXHF   =         0.00000000
  -V(xc)+E(xc)   XCENC  =        96.07160471
  PAW double counting   =      2900.73373262    -2903.26663284
  entropy T*S    EENTRO =        -0.00000003
  eigenvalues    EBANDS =      -304.29148720
  atomic energy  EATOM  =      1025.20389953
  Solvation  Ediel_sol  =         0.00000000
  ---------------------------------------------------
  free energy    TOTEN  =       -67.12648661 eV

  energy without entropy =      -67.12648658  energy(sigma->0) =      -67.12648660


--------------------------------------------------------------------------------------------------------




--------------------------------------- Iteration      1(  19)  ---------------------------------------


    POTLOK:  cpu time      0.0180: real time      0.0180
    SETDIJ:  cpu time      0.0010: real time      0.0010
     EDDAV:  cpu time      0.2043: real time      0.2043
       DOS:  cpu time      0.0002: real time      0.0002
    CHARGE:  cpu time      0.0222: real time      0.0222
    MIXING:  cpu time      0.0012: real time      0.0012
    --------------------------------------------
      LOOP:  cpu time      0.2469: real time      0.2469

 eigenvalue-minimisations  :   384
 total energy-change (2. order) :-0.2099623E-05  (-0.4409118E-08)
 number of electron      30.0000000 magnetization 
 augmentation part        0.4964606 magnetization 

 Broyden mixing:
  rms(total) = 0.62781E-05    rms(broyden)= 0.62771E-05
  rms(prec ) = 0.81691E-05
  weight for this iteration     100.00

 eigenvalues of (default mixing * dielectric matrix)
  average eigenvalue GAMMA=   2.7051
  9.5551  5.9273  3.8744  2.9614  2.6483  2.3178  2.2028  1.8645  1.2151  1.2151
  1.0839  0.9910  1.0072  1.0072

 Free energy of the ion-electron system (eV)
  ---------------------------------------------------
  alpha Z        PSCENC =        14.61461864
  Ewald energy   TEWEN  =      2602.09786459
  -Hartree energ DENC   =     -3498.28812477
  -exchange      EXHF   =         0.00000000
  -V(xc)+E(xc)   XCENC  =        96.07155353
  PAW double counting   =      2900.74254027    -2903.27543198
  entropy T*S    EENTRO =        -0.00000003
  eigenvalues    EBANDS =      -304.29340849
  atomic energy  EATOM  =      1025.20389953
  Solvation  Ediel_sol  =         0.00000000
  ---------------------------------------------------
  free energy    TOTEN  =       -67.12648871 eV

  energy without entropy =      -67.12648868  energy(sigma->0) =      -67.12648869


--------------------------------------------------------------------------------------------------------




--------------------------------------- Iteration      1(  20)  ---------------------------------------


    POTLOK:  cpu time      0.0181: real time      0.0181
    SETDIJ:  cpu time      0.0010: real time      0.0010
     EDDAV:  cpu time      0.1384: real time      0.1384
       DOS:  cpu time      0.0002: real time      0.0002
    --------------------------------------------
      LOOP:  cpu time      0.1577: real time      0.1577

 eigenvalue-minimisations  :   240
 total energy-change (2. order) :-0.5085012E-06  (-0.9815464E-09)
 number of electron      30.0000000 magnetization 
 augmentation part        0.4964606 magnetization 

 Free energy of the ion-electron system (eV)
  ---------------------------------------------------
  alpha Z        PSCENC =        14.61461864
  Ewald energy   TEWEN  =      2602.09786459
  -Hartree energ DENC   =     -3498.28969743
  -exchange      EXHF   =         0.00000000
  -V(xc)+E(xc)   XCENC  =        96.07157718
  PAW double counting   =      2900.74812298    -2903.28101723
  entropy T*S    EENTRO =        -0.00000003
  eigenvalues    EBANDS =      -304.29185745
  atomic energy  EATOM  =      1025.20389953
  Solvation  Ediel_sol  =         0.00000000
  ---------------------------------------------------
  free energy    TOTEN  =       -67.12648922 eV

  energy without entropy =      -67.12648919  energy(sigma->0) =      -67.12648920


--------------------------------------------------------------------------------------------------------




 average (electrostatic) potential at core
  the test charge radii are     0.7672  0.6991
  (the norm of the test charge is              1.0000)
       1 -34.5939       2 -34.5941       3 -57.0318       4 -57.0318       5 -57.0311
       6 -57.0313       7 -57.0318       8 -57.0319
 
 
 
 E-fermi :  -3.4092     XC(G=0):  -2.7897     alpha+bet : -2.3721

 Fermi energy:        -3.4092292840

 k-point     1 :       0.0000    0.0000    0.0000
  band No.  band energies     occupation 
      1     -19.8154      2.00000
      2     -15.9170      2.00000
      3     -15.9133      2.00000
      4     -13.6286      2.00000
      5     -13.6252      2.00000
      6     -12.5430      2.00000
      7     -11.3096      2.00000
      8      -8.6528      2.00000
      9      -8.3793      2.00000
     10      -6.3060      2.00000
     11      -6.3039      2.00000
     12      -4.4321      2.00000
     13      -4.4291      2.00000
     14      -3.7816      2.00000
     15      -3.7761      2.00000
     16      -2.0078      0.00000
     17      -0.2287      0.00000
     18      -0.2249      0.00000
     19       0.4738      0.00000
     20       0.8433      0.00000
     21       1.8427      0.00000
     22       2.2445      0.00000
     23       4.2350      0.00000
     24       4.8487      0.00000

 k-point     2 :       0.3333   -0.0000    0.0000
  band No.  band energies     occupation 
      1     -19.4243      2.00000
      2     -17.1818      2.00000
      3     -16.3057      2.00000
      4     -14.0698      2.00000
      5     -12.4097      2.00000
      6     -10.8561      2.00000
      7      -9.3728      2.00000
      8      -9.3602      2.00000
      9      -8.0152      2.00000
     10      -7.8514      2.00000
     11      -6.2543      2.00000
     12      -5.9184      2.00000
     13      -5.7288      2.00000
     14      -4.6479      2.00000
     15      -4.6386      2.00000
     16      -3.0262      0.00000
     17       0.4716      0.00000
     18       1.2501      0.00000
     19       1.6653      0.00000
     20       2.5158      0.00000
     21       3.0742      0.00000
     22       3.1666      0.00000
     23       4.0953      0.00000
     24       4.9403      0.00000

 k-point     3 :      -0.0000    0.3333    0.0000
  band No.  band energies     occupation 
      1     -19.4243      2.00000
      2     -17.1820      2.00000
      3     -16.3054      2.00000
      4     -14.0697      2.00000
      5     -12.4107      2.00000
      6     -10.8561      2.00000
      7      -9.3723      2.00000
      8      -9.3595      2.00000
      9      -8.0152      2.00000
     10      -7.8503      2.00000
     11      -6.2558      2.00000
     12      -5.9188      2.00000
     13      -5.7266      2.00000
     14      -4.6473      2.00000
     15      -4.6411      2.00000
     16      -3.0256      0.00000
     17       0.4703      0.00000
     18       1.2491      0.00000
     19       1.6652      0.00000
     20       2.5159      0.00000
     21       3.0742      0.00000
     22       3.1676      0.00000
     23       4.0953      0.00000
     24       4.9403      0.00000

 k-point     4 :      -0.3333    0.3333    0.0000
  band No.  band energies     occupation 
      1     -19.4240      2.00000
      2     -17.1840      2.00000
      3     -16.3038      2.00000
      4     -14.0684      2.00000
      5     -12.4120      2.00000
      6     -10.8569      2.00000
      7      -9.3717      2.00000
      8      -9.3588      2.00000
      9      -8.0151      2.00000
     10      -7.8515      2.00000
     11      -6.2549      2.00000
     12      -5.9200      2.00000
     13      -5.7257      2.00000
     14      -4.6457      2.00000
     15      -4.6423      2.00000
     16      -3.0255      0.00000
     17       0.4683      0.00000
     18       1.2496      0.00000
     19       1.6652      0.00000
     20       2.5164      0.00000
     21       3.0742      0.00000
     22       3.1676      0.00000
     23       4.0953      0.00000
     24       4.9404      0.00000

 k-point     5 :       0.3333    0.3333    0.0000
  band No.  band energies     occupation 
      1     -19.1183      2.00000
      2     -17.2554      2.00000
      3     -17.2523      2.00000
      4     -12.8190      2.00000
      5     -12.8163      2.00000
      6     -10.8681      2.00000
      7      -8.3428      2.00000
      8      -8.3389      2.00000
      9      -7.9588      2.00000
     10      -7.3065      2.00000
     11      -7.2889      2.00000
     12      -6.2479      2.00000
     13      -6.2442      2.00000
     14      -6.1451      2.00000
     15      -6.1427      2.00000
     16      -1.3660      0.00000
     17      -1.3634      0.00000
     18       3.2835      0.00000
     19       3.3007      0.00000
     20       3.3010      0.00000
     21       3.9326      0.00000
     22       3.9338      0.00000
     23       4.1087      0.00000
     24       4.7274      0.00000


--------------------------------------------------------------------------------------------------------


 soft charge-density along one line, spin component           1
         0         1         2         3         4         5         6         7         8         9
 total charge-density along one line
 
 pseudopotential strength for first ion, spin component:           1
  6.735  10.277   0.000  -0.000   0.000   0.000  -0.000   0.000
 10.277  15.677   0.000  -0.000   0.000   0.000  -0.000   0.000
  0.000   0.000  -2.316   0.000  -0.000  -3.975   0.000  -0.000
 -0.000  -0.000   0.000  -2.322   0.000   0.000  -3.983   0.000
  0.000   0.000  -0.000   0.000  -2.316  -0.000   0.000  -3.975
  0.000   0.000  -3.975   0.000  -0.000  -6.627   0.000  -0.000
 -0.000  -0.000   0.000  -3.983   0.000   0.000  -6.635   0.000
  0.000   0.000  -0.000   0.000  -3.975  -0.000   0.000  -6.627
 total augmentation occupancy for first ion, spin component:           1
  3.740  -0.960   0.001   0.000   0.000  -0.000   0.000  -0.000
 -0.960   0.266  -0.000   0.000  -0.000   0.000   0.000   0.000
  0.001  -0.000   4.177   0.000   0.001  -1.113   0.000  -0.000
  0.000   0.000   0.000   0.855   0.000   0.000  -0.216   0.000
  0.000  -0.000   0.001   0.000   4.176  -0.000   0.000  -1.113
 -0.000   0.000  -1.113   0.000  -0.000   0.308   0.000   0.000
  0.000   0.000   0.000  -0.216   0.000   0.000   0.055   0.000
 -0.000   0.000  -0.000   0.000  -1.113   0.000   0.000   0.308


------------------------ aborting loop because EDIFF is reached ----------------------------------------


    CHARGE:  cpu time      0.0238: real time      0.0238
    FORLOC:  cpu time      0.0022: real time      0.0022
    FORNL :  cpu time      0.0195: real time      0.0195
    STRESS:  cpu time      0.1730: real time      0.1731
    FORCOR:  cpu time      0.0195: real time      0.0195
    FORHAR:  cpu time      0.0054: real time      0.0054
    MIXING:  cpu time      0.0013: real time      0.0013
    OFIELD:  cpu time      0.0000: real time      0.0000

 ---------------------------------------------------------------------------------------------

         DFTD3 V3.0 Rev 1        
 IVDW         = 12
 DF pbe       
 parameters
 VDW_S6       =    1.0000
 VDW_S8       =    0.7875
 VDW_A1       =    0.4289
 VDW_A2       =    4.4407
 k1-k3        =   16.0000    1.3333   -4.0000
 VDW_RADIUS   =   50.2022 A
 VDW_CNRADIUS =   21.1671 A
 Edisp (eV)   -0.67834

 E6    (eV) :    -0.4581
 E8    (eV) :    -0.2202
 % E8        : 32.46
    FORVDW:  cpu time      0.0145: real time      0.0145

  FORCE on cell =-STRESS in cart. coord.  units (eV):
  Direction    XX          YY          ZZ          XY          YZ          ZX
  --------------------------------------------------------------------------------------
  Alpha Z    14.61462    14.61462    14.61462
  Ewald    3500.40216  3500.60238 -4398.90803     0.10310     0.00000    -0.00000
  Hartree  3440.14351  3440.14488 -3381.99885     0.01258    -0.00000     0.00000
  E(xc)    -107.49445  -107.49376  -111.31699     0.00023    -0.00000     0.00000
  Local   -7257.48438 -7257.63566  7444.19665    -0.09501     0.00000    -0.00000
  n-local   -21.69415   -21.69333   -10.49818     0.00143    -0.00000     0.00000
  augment    -1.80225    -1.80256    -1.78867    -0.00013     0.00000     0.00000
  Kinetic   433.64387   433.61934   445.51937    -0.01489     0.00000    -0.00000
  Fock        0.00000     0.00000     0.00000     0.00000     0.00000     0.00000
  vdW        -0.54724    -0.54726    -0.00593    -0.00002    -0.00000    -0.00000
  -------------------------------------------------------------------------------------
  Total      -0.21831    -0.19135    -0.18602     0.00730     0.00000     0.00000
  in kB      -1.00773    -0.88331    -0.85867     0.03370     0.00000     0.00000
  external pressure =       -0.92 kB  Pullay stress =        0.00 kB


 VOLUME and BASIS-vectors are now :
 -----------------------------------------------------------------------------
  energy-cutoff  :      450.00
  volume of cell :      347.08
      direct lattice vectors                 reciprocal lattice vectors
     4.476485000  2.584500000  0.000000000     0.111694778  0.193461018  0.000000000
    -4.476485000  2.584500000  0.000000000    -0.111694778  0.193461018  0.000000000
     0.000000000  0.000000000 15.000000000     0.000000000  0.000000000  0.066666667

  length of vectors
     5.168999730  5.168999730 15.000000000     0.223389545  0.223389545  0.066666667


 FORCES acting on ions
    electron-ion (+dipol)            ewald-force                    non-local-force                 convergence-correction
 -----------------------------------------------------------------------------------------------
   -.179E-01 0.210E-01 0.146E-06   0.152E-01 -.250E-01 0.917E-18   -.860E-03 -.397E-02 0.388E-25   0.112E-05 0.102E-04 0.551E-13
   0.596E-01 -.104E-01 0.332E-07   -.633E-01 0.132E-01 -.752E-18   -.758E-02 0.226E-02 -.775E-25   -.868E-06 -.855E-05 0.571E-13
   0.247E+02 -.429E+02 -.281E-06   -.266E+02 0.460E+02 -.748E-18   0.206E+01 -.351E+01 0.414E-24   0.101E-04 -.482E-06 0.771E-13
   -.246E+02 -.429E+02 -.399E-06   0.264E+02 0.461E+02 -.579E-18   -.201E+01 -.353E+01 0.207E-24   0.106E-04 0.280E-05 0.823E-13
   -.495E+02 -.990E-01 0.382E-07   0.531E+02 0.114E+00 0.274E-18   -.407E+01 -.213E-01 -.310E-24   -.192E-05 0.152E-04 0.812E-13
   0.495E+02 0.974E-01 -.150E-06   -.531E+02 -.113E+00 -.789E-18   0.406E+01 0.219E-01 -.620E-24   -.178E-05 -.181E-04 0.799E-13
   0.246E+02 0.429E+02 0.312E-06   -.264E+02 -.461E+02 0.102E-17   0.202E+01 0.354E+01 0.258E-25   -.761E-05 -.596E-06 0.789E-13
   -.247E+02 0.429E+02 0.103E-06   0.266E+02 -.460E+02 0.645E-18   -.206E+01 0.350E+01 -.310E-24   -.101E-04 -.378E-05 0.785E-13
 -----------------------------------------------------------------------------------------------
   0.146E-02 0.409E-03 -.197E-06   0.000E+00 0.000E+00 -.929E-20   -.119E-02 0.295E-04 -.633E-24   -.336E-06 -.318E-05 0.590E-12
 
 
 POSITION                                       TOTAL-FORCE (eV/Angst)
 -----------------------------------------------------------------------------------
     -1.48099      2.60401      3.75000        -0.003569     -0.007981      0.000000
      1.50366      2.60381      3.75000        -0.011335      0.004913      0.000000
     -0.70293      1.25321      3.75000         0.236868     -0.338126     -0.000000
      0.72293      1.25450      3.75000        -0.202498     -0.358874     -0.000000
     -3.03979      2.60507      3.75000        -0.408120     -0.005798      0.000000
      3.06227      2.60268      3.75000         0.400488      0.006486      0.000000
     -0.70076      3.95314      3.75000         0.215018      0.366986      0.000000
      0.72514      3.95463      3.75000        -0.226852      0.332394     -0.000000
 -----------------------------------------------------------------------------------
    total drift:                                0.000272      0.000435     -0.000000


--------------------------------------------------------------------------------------------------------



  FREE ENERGIE OF THE ION-ELECTRON SYSTEM (eV)
  ---------------------------------------------------
  free  energy   TOTEN  =       -67.80482579 eV

  energy  without entropy=      -67.80482576  energy(sigma->0) =      -67.80482577
 


--------------------------------------------------------------------------------------------------------


    POTLOK:  cpu time      0.0247: real time      0.0251


--------------------------------------------------------------------------------------------------------


 stress matrix after NEB project (eV)
     -0.21831      0.00730      0.00000
      0.00730     -0.19135      0.00000
      0.00000      0.00000     -0.18602
  FORCES: max atom, RMS     0.425337    0.355378
  FORCE total and by dimension    1.005161    0.408120
  Stress total and by dimension    0.344939    0.218308


--------------------------------------------------------------------------------------------------------


    WAVPRE:  cpu time      0.0071: real time      0.0099
    FEWALD:  cpu time      0.0004: real time      0.0004
    ORTHCH:  cpu time      0.0129: real time      0.0129
     LOOP+:  cpu time      5.1050: real time      5.1115


--------------------------------------- Iteration      2(   1)  ---------------------------------------


    POTLOK:  cpu time      0.0186: real time      0.0186
    SETDIJ:  cpu time      0.0010: real time      0.0010
     EDDAV:  cpu time      0.1394: real time      0.1394
       DOS:  cpu time      0.0010: real time      0.0010
    CHARGE:  cpu time      0.0252: real time      0.0252
    MIXING:  cpu time      0.0008: real time      0.0007
    --------------------------------------------
      LOOP:  cpu time      0.1859: real time      0.1859

 eigenvalue-minimisations  :   240
 total energy-change (2. order) : 0.1355030E-01  (-0.7508070E+00)
 number of electron      30.0000000 magnetization 
 augmentation part        0.5054764 magnetization 

 Broyden mixing:
  rms(total) = 0.73505E-01    rms(broyden)= 0.73288E-01
  rms(prec ) = 0.85383E-01
  weight for this iteration     100.00

 Free energy of the ion-electron system (eV)
  ---------------------------------------------------
  alpha Z        PSCENC =        14.61461864
  Ewald energy   TEWEN  =      2608.95834889
  -Hartree energ DENC   =     -3503.11092320
  -exchange      EXHF   =         0.00000000
  -V(xc)+E(xc)   XCENC  =        96.17876177
  PAW double counting   =      2900.74517471    -2903.27806907
  entropy T*S    EENTRO =        -0.00000000
  eigenvalues    EBANDS =      -306.42474968
  atomic energy  EATOM  =      1025.20389953
  Solvation  Ediel_sol  =         0.00000000
  ---------------------------------------------------
  free energy    TOTEN  =       -67.11293841 eV

  energy without entropy =      -67.11293841  energy(sigma->0) =      -67.11293841


--------------------------------------------------------------------------------------------------------




--------------------------------------- Iteration      2(   2)  ---------------------------------------


    POTLOK:  cpu time      0.0230: real time      0.0230
    SETDIJ:  cpu time      0.0016: real time      0.0016
     EDDAV:  cpu time      0.2060: real time      0.2060
       DOS:  cpu time      0.0002: real time      0.0002
    CHARGE:  cpu time      0.0234: real time      0.0234
    MIXING:  cpu time      0.0009: real time      0.0009
    --------------------------------------------
      LOOP:  cpu time      0.2550: real time      0.2550

 eigenvalue-minimisations  :   384
 total energy-change (2. order) : 0.1050225E-01  (-0.1180508E-01)
 number of electron      30.0000000 magnetization 
 augmentation part        0.5066161 magnetization 

 Broyden mixing:
  rms(total) = 0.37377E-01    rms(broyden)= 0.37361E-01
  rms(prec ) = 0.41495E-01
  weight for this iteration     100.00

 eigenvalues of (default mixing * dielectric matrix)
  average eigenvalue GAMMA=   1.4794
  1.4794

 Free energy of the ion-electron system (eV)
  ---------------------------------------------------
  alpha Z        PSCENC =        14.61461864
  Ewald energy   TEWEN  =      2608.95834889
  -Hartree energ DENC   =     -3504.40830493
  -exchange      EXHF   =         0.00000000
  -V(xc)+E(xc)   XCENC  =        96.23498471
[...]
     -0.69838      1.24845      3.75000        -0.001666     -0.001236      0.000000
      0.72078      1.24845      3.75000        -0.000252     -0.000970     -0.000000
     -3.04610      2.60390      3.75000         0.000408     -0.000264      0.000000
      3.06849      2.60388      3.75000        -0.001170     -0.000360     -0.000000
     -0.69836      3.95931      3.75000        -0.001800      0.001146      0.000000
      0.72082      3.95933      3.75000        -0.001049      0.000789      0.000000
 -----------------------------------------------------------------------------------
    total drift:                                0.000320      0.000593     -0.000000


--------------------------------------------------------------------------------------------------------



  FREE ENERGIE OF THE ION-ELECTRON SYSTEM (eV)
  ---------------------------------------------------
  free  energy   TOTEN  =       -67.81269080 eV

  energy  without entropy=      -67.81269079  energy(sigma->0) =      -67.81269080
 
 d Force = 0.7172887E-05[-0.391E-07, 0.144E-04]  d Energy = 0.7211416E-05-0.385E-07
 d Force = 0.2553289E-02[ 0.259E-02, 0.252E-02]  d Ewald  = 0.2553289E-02-0.681E-09


--------------------------------------------------------------------------------------------------------


    POTLOK:  cpu time      0.0198: real time      0.0198


--------------------------------------------------------------------------------------------------------


 stress matrix after NEB project (eV)
      0.16878      0.00019      0.00000
      0.00019      0.16846      0.00000
      0.00000      0.00000     -0.18552
  FORCES: max atom, RMS     0.004917    0.002195
  FORCE total and by dimension    0.006208    0.004916
  Stress total and by dimension    0.302132    0.185522


--------------------------------------------------------------------------------------------------------


    WAVPRE:  cpu time      0.0066: real time      0.0090
    FEWALD:  cpu time      0.0003: real time      0.0003
    ORTHCH:  cpu time      0.0127: real time      0.0127
     LOOP+:  cpu time      0.8293: real time      0.8341


--------------------------------------- Iteration      8(   1)  ---------------------------------------


    POTLOK:  cpu time      0.0180: real time      0.0180
    SETDIJ:  cpu time      0.0010: real time      0.0010
     EDDAV:  cpu time      0.1388: real time      0.1388
       DOS:  cpu time      0.0002: real time      0.0002
    CHARGE:  cpu time      0.0225: real time      0.0225
    MIXING:  cpu time      0.0007: real time      0.0007
    --------------------------------------------
      LOOP:  cpu time      0.1813: real time      0.1813

 eigenvalue-minimisations  :   240
 total energy-change (2. order) :-0.9024729E-06  (-0.2864870E-05)
 number of electron      29.9999999 magnetization 
 augmentation part        0.4991863 magnetization 

 Broyden mixing:
  rms(total) = 0.15224E-03    rms(broyden)= 0.15172E-03
  rms(prec ) = 0.17151E-03
  weight for this iteration     100.00

 Free energy of the ion-electron system (eV)
  ---------------------------------------------------
  alpha Z        PSCENC =        14.61461864
  Ewald energy   TEWEN  =      2604.17586840
  -Hartree energ DENC   =     -3500.37989840
  -exchange      EXHF   =         0.00000000
  -V(xc)+E(xc)   XCENC  =        96.12790342
  PAW double counting   =      2911.31202915    -2913.84868139
  entropy T*S    EENTRO =        -0.00000001
  eigenvalues    EBANDS =      -304.34055093
  atomic energy  EATOM  =      1025.20389953
  Solvation  Ediel_sol  =         0.00000000
  ---------------------------------------------------
  free energy    TOTEN  =       -67.13481160 eV

  energy without entropy =      -67.13481159  energy(sigma->0) =      -67.13481160


--------------------------------------------------------------------------------------------------------




--------------------------------------- Iteration      8(   2)  ---------------------------------------


    POTLOK:  cpu time      0.0184: real time      0.0184
    SETDIJ:  cpu time      0.0010: real time      0.0010
     EDDAV:  cpu time      0.2308: real time      0.2308
       DOS:  cpu time      0.0002: real time      0.0002
    --------------------------------------------
      LOOP:  cpu time      0.2504: real time      0.2504

 eigenvalue-minimisations  :   432
 total energy-change (2. order) : 0.1229819E-07  (-0.5701979E-07)
 number of electron      29.9999999 magnetization 
 augmentation part        0.4991863 magnetization 

 Free energy of the ion-electron system (eV)
  ---------------------------------------------------
  alpha Z        PSCENC =        14.61461864
  Ewald energy   TEWEN  =      2604.17586840
  -Hartree energ DENC   =     -3500.38010534
  -exchange      EXHF   =         0.00000000
  -V(xc)+E(xc)   XCENC  =        96.12791559
  PAW double counting   =      2911.30975231    -2913.84640735
  entropy T*S    EENTRO =        -0.00000001
  eigenvalues    EBANDS =      -304.34035335
  atomic energy  EATOM  =      1025.20389953
  Solvation  Ediel_sol  =         0.00000000
  ---------------------------------------------------
  free energy    TOTEN  =       -67.13481159 eV

  energy without entropy =      -67.13481158  energy(sigma->0) =      -67.13481159


--------------------------------------------------------------------------------------------------------




 average (electrostatic) potential at core
  the test charge radii are     0.7672  0.6991
  (the norm of the test charge is              1.0000)
       1 -34.6161       2 -34.6161       3 -57.0125       4 -57.0124       5 -57.0125
       6 -57.0128       7 -57.0126       8 -57.0124
 
 
 
 E-fermi :  -3.3816     XC(G=0):  -2.7852     alpha+bet : -2.3721

 Fermi energy:        -3.3815518168

 k-point     1 :       0.0000    0.0000    0.0000
  band No.  band energies     occupation 
      1     -19.8591      2.00000
      2     -15.9522      2.00000
      3     -15.9521      2.00000
      4     -13.6117      2.00000
      5     -13.6116      2.00000
      6     -12.5620      2.00000
      7     -11.2295      2.00000
      8      -8.6649      2.00000
      9      -8.4297      2.00000
     10      -6.2811      2.00000
     11      -6.2809      2.00000
     12      -4.4486      2.00000
     13      -4.4485      2.00000
     14      -3.7661      2.00000
     15      -3.7659      2.00000
     16      -1.9509      0.00000
     17      -0.1862      0.00000
     18      -0.1861      0.00000
     19       0.4226      0.00000
     20       0.8434      0.00000
     21       1.8426      0.00000
     22       2.2598      0.00000
     23       4.2282      0.00000
     24       4.8548      0.00000

 k-point     2 :       0.3333   -0.0000    0.0000
  band No.  band energies     occupation 
      1     -19.4799      2.00000
      2     -17.1922      2.00000
      3     -16.3303      2.00000
      4     -14.0479      2.00000
      5     -12.4159      2.00000
      6     -10.8695      2.00000
      7      -9.3920      2.00000
      8      -9.3203      2.00000
      9      -8.0348      2.00000
     10      -7.8396      2.00000
     11      -6.2511      2.00000
     12      -5.9209      2.00000
     13      -5.6974      2.00000
     14      -4.6611      2.00000
     15      -4.6092      2.00000
     16      -2.9835      0.00000
     17       0.5090      0.00000
     18       1.2324      0.00000
     19       1.6656      0.00000
     20       2.5232      0.00000
     21       3.0897      0.00000
     22       3.1755      0.00000
     23       4.0952      0.00000
     24       4.9343      0.00000

 k-point     3 :      -0.0000    0.3333    0.0000
  band No.  band energies     occupation 
      1     -19.4799      2.00000
      2     -17.1922      2.00000
      3     -16.3303      2.00000
      4     -14.0480      2.00000
      5     -12.4159      2.00000
      6     -10.8694      2.00000
      7      -9.3920      2.00000
      8      -9.3203      2.00000
      9      -8.0348      2.00000
     10      -7.8396      2.00000
     11      -6.2511      2.00000
     12      -5.9208      2.00000
     13      -5.6974      2.00000
     14      -4.6611      2.00000
     15      -4.6092      2.00000
     16      -2.9835      0.00000
     17       0.5090      0.00000
     18       1.2325      0.00000
     19       1.6656      0.00000
     20       2.5232      0.00000
     21       3.0897      0.00000
     22       3.1755      0.00000
     23       4.0952      0.00000
     24       4.9343      0.00000

 k-point     4 :      -0.3333    0.3333    0.0000
  band No.  band energies     occupation 
      1     -19.4799      2.00000
      2     -17.1923      2.00000
      3     -16.3302      2.00000
      4     -14.0479      2.00000
      5     -12.4159      2.00000
      6     -10.8695      2.00000
      7      -9.3920      2.00000
      8      -9.3203      2.00000
      9      -8.0348      2.00000
     10      -7.8398      2.00000
     11      -6.2510      2.00000
     12      -5.9209      2.00000
     13      -5.6975      2.00000
     14      -4.6611      2.00000
     15      -4.6091      2.00000
     16      -2.9835      0.00000
     17       0.5090      0.00000
     18       1.2325      0.00000
     19       1.6656      0.00000
     20       2.5232      0.00000
     21       3.0897      0.00000
     22       3.1754      0.00000
     23       4.0952      0.00000
     24       4.9344      0.00000

 k-point     5 :       0.3333    0.3333    0.0000
  band No.  band energies     occupation 
      1     -19.1899      2.00000
      2     -17.2549      2.00000
      3     -17.2547      2.00000
      4     -12.8181      2.00000
      5     -12.8180      2.00000
      6     -10.8690      2.00000
      7      -8.3563      2.00000
      8      -8.3562      2.00000
      9      -8.0030      2.00000
     10      -7.3524      2.00000
     11      -7.2122      2.00000
     12      -6.2028      2.00000
     13      -6.2028      2.00000
     14      -6.1287      2.00000
     15      -6.1286      2.00000
     16      -1.3441      0.00000
     17      -1.3440      0.00000
     18       3.2796      0.00000
     19       3.3034      0.00000
     20       3.3035      0.00000
     21       3.9210      0.00000
     22       3.9211      0.00000
     23       4.1031      0.00000
     24       4.5293      0.00000


--------------------------------------------------------------------------------------------------------


 soft charge-density along one line, spin component           1
         0         1         2         3         4         5         6         7         8         9
 total charge-density along one line
 
 pseudopotential strength for first ion, spin component:           1
  6.735  10.277  -0.000  -0.000  -0.000  -0.000  -0.000  -0.000
 10.277  15.677  -0.000  -0.000  -0.000  -0.000  -0.000  -0.000
 -0.000  -0.000  -2.317   0.000   0.000  -3.977   0.000   0.000
 -0.000  -0.000   0.000  -2.323   0.000   0.000  -3.985   0.000
 -0.000  -0.000   0.000   0.000  -2.317   0.000   0.000  -3.977
 -0.000  -0.000  -3.977   0.000   0.000  -6.630   0.000   0.000
 -0.000  -0.000   0.000  -3.985   0.000   0.000  -6.639   0.000
 -0.000  -0.000   0.000   0.000  -3.977   0.000   0.000  -6.630
 total augmentation occupancy for first ion, spin component:           1
  3.698  -0.943   0.000   0.000  -0.000  -0.000   0.000   0.000
 -0.943   0.260   0.000   0.000   0.000   0.000   0.000  -0.000
  0.000   0.000   4.119   0.000   0.000  -1.094   0.000  -0.000
  0.000   0.000   0.000   0.836   0.000   0.000  -0.211   0.000
 -0.000   0.000   0.000   0.000   4.119  -0.000   0.000  -1.094
 -0.000   0.000  -1.094   0.000  -0.000   0.302   0.000   0.000
  0.000   0.000   0.000  -0.211   0.000   0.000   0.053   0.000
  0.000  -0.000  -0.000   0.000  -1.094   0.000   0.000   0.302


------------------------ aborting loop because EDIFF is reached ----------------------------------------


    CHARGE:  cpu time      0.0244: real time      0.0244
    FORLOC:  cpu time      0.0020: real time      0.0020
    FORNL :  cpu time      0.0200: real time      0.0200
    STRESS:  cpu time      0.1692: real time      0.1692
    FORCOR:  cpu time      0.0185: real time      0.0185
    FORHAR:  cpu time      0.0051: real time      0.0051
    MIXING:  cpu time      0.0008: real time      0.0008
    OFIELD:  cpu time      0.0000: real time      0.0000

 ---------------------------------------------------------------------------------------------

         DFTD3 V3.0 Rev 1        
 Edisp (eV)   -0.67788

 E6    (eV) :    -0.4578
 E8    (eV) :    -0.2201
 % E8        : 32.46
    FORVDW:  cpu time      0.0132: real time      0.0132

  FORCE on cell =-STRESS in cart. coord.  units (eV):
  Direction    XX          YY          ZZ          XY          YZ          ZX
  --------------------------------------------------------------------------------------
  Alpha Z    14.61462    14.61462    14.61462
  Ewald    3501.54635  3501.53619 -4398.90803    -0.00180     0.00000     0.00000
  Hartree  3440.89166  3440.88866 -3381.40066    -0.00012    -0.00000     0.00000
  E(xc)    -107.54535  -107.54538  -111.37075    -0.00001    -0.00000    -0.00000
  Local   -7259.15446 -7259.14309  7443.39422     0.00145    -0.00000     0.00000
  n-local   -21.80893   -21.80919   -10.60178    -0.00002     0.00000    -0.00000
  augment    -1.81966    -1.81958    -1.79792    -0.00002     0.00000     0.00000
  Kinetic   433.98492   433.98722   445.89072     0.00021     0.00000     0.00000
  Fock        0.00000     0.00000     0.00000     0.00000     0.00000     0.00000
  vdW        -0.54050    -0.54050    -0.00592     0.00000     0.00000    -0.00000
  -------------------------------------------------------------------------------------
  Total       0.16864     0.16895    -0.18552    -0.00030     0.00000     0.00000
  in kB       0.77847     0.77991    -0.85636    -0.00136     0.00000     0.00000
  external pressure =        0.23 kB  Pullay stress =        0.00 kB


 VOLUME and BASIS-vectors are now :
 -----------------------------------------------------------------------------
  energy-cutoff  :      450.00
  volume of cell :      347.08
      direct lattice vectors                 reciprocal lattice vectors
     4.476485000  2.584500000  0.000000000     0.111694778  0.193461018  0.000000000
    -4.476485000  2.584500000  0.000000000    -0.111694778  0.193461018  0.000000000
     0.000000000  0.000000000 15.000000000     0.000000000  0.000000000  0.066666667

  length of vectors
     5.168999730  5.168999730 15.000000000     0.223389545  0.223389545  0.066666667


 FORCES acting on ions
    electron-ion (+dipol)            ewald-force                    non-local-force                 convergence-correction
 -----------------------------------------------------------------------------------------------
   -.222E-02 0.491E-04 0.183E-06   0.232E-02 0.163E-03 -.181E-18   0.158E-04 0.408E-04 0.145E-23   0.553E-04 -.128E-03 0.104E-11
   0.399E-02 -.276E-03 0.252E-07   -.337E-02 0.240E-03 0.525E-19   -.101E-03 0.332E-04 0.000E+00   -.792E-03 0.176E-04 0.113E-11
   0.261E+02 -.453E+02 -.196E-06   -.281E+02 0.486E+02 -.454E-18   0.194E+01 -.336E+01 -.124E-23   0.747E-03 0.544E-03 0.143E-11
   -.261E+02 -.453E+02 -.386E-06   0.281E+02 0.486E+02 -.429E-18   -.194E+01 -.336E+01 0.827E-23   -.264E-03 0.685E-03 0.161E-11
   -.523E+02 0.615E-03 0.438E-07   0.561E+02 -.760E-03 0.389E-19   -.388E+01 0.128E-03 -.517E-25   0.172E-03 0.170E-04 0.965E-12
   0.523E+02 -.567E-03 -.166E-06   -.561E+02 0.479E-03 0.895E-18   0.388E+01 0.215E-03 -.248E-23   0.614E-03 0.141E-03 0.149E-11
   0.261E+02 0.453E+02 0.229E-06   -.281E+02 -.486E+02 -.150E-18   0.194E+01 0.336E+01 -.165E-23   0.768E-03 -.386E-03 0.141E-11
   -.261E+02 0.453E+02 -.567E-07   0.281E+02 -.486E+02 0.218E-18   -.194E+01 0.336E+01 0.000E+00   -.128E-04 -.694E-03 0.781E-12
 -----------------------------------------------------------------------------------------------
   -.128E-02 -.272E-03 -.323E-06   0.213E-13 -.711E-14 -.104E-19   0.348E-03 0.620E-03 0.429E-23   0.129E-02 0.197E-03 0.984E-11
 
 
 POSITION                                       TOTAL-FORCE (eV/Angst)
 -----------------------------------------------------------------------------------
     -1.48096      2.60388      3.75000         0.000136      0.000056      0.000000
      1.50335      2.60388      3.75000        -0.000315     -0.000053     -0.000000
     -0.69841      1.24842      3.75000        -0.000002      0.000230      0.000000
      0.72078      1.24843      3.75000         0.000107      0.000210     -0.000000
     -3.04609      2.60389      3.75000        -0.000553     -0.000068     -0.000000
      3.06847      2.60388      3.75000         0.000359      0.000201      0.000000
     -0.69840      3.95934      3.75000        -0.000039     -0.000325     -0.000000
      0.72079      3.95934      3.75000         0.000307     -0.000251     -0.000000
 -----------------------------------------------------------------------------------
    total drift:                                0.000352      0.000545     -0.000000


--------------------------------------------------------------------------------------------------------



  FREE ENERGIE OF THE ION-ELECTRON SYSTEM (eV)
  ---------------------------------------------------
  free  energy   TOTEN  =       -67.81269123 eV

  energy  without entropy=      -67.81269122  energy(sigma->0) =      -67.81269123
 
 d Force = 0.3702987E-06[-0.737E-07, 0.814E-06]  d Energy = 0.4326834E-06-0.624E-07
 d Force =-0.1040162E-02[-0.104E-02,-0.104E-02]  d Ewald  =-0.1040162E-02-0.477E-10


--------------------------------------------------------------------------------------------------------


    POTLOK:  cpu time      0.0215: real time      0.0215


--------------------------------------------------------------------------------------------------------


 stress matrix after NEB project (eV)
      0.16864     -0.00030      0.00000
     -0.00030      0.16895      0.00000
      0.00000      0.00000     -0.18552
  FORCES: max atom, RMS     0.000557    0.000349
  FORCE total and by dimension    0.000988    0.000553
  Stress total and by dimension    0.302329    0.185516
 Conjugate gradient step on ions:
 trial-energy change:   -0.000000  1 .order   -0.000000   -0.000001    0.000000
  (g-gl).g = 0.130E-05      g.g   = 0.186E-05  gl.gl    = 0.590E-04
 g(Force)  = 0.186E-05   g(Stress)= 0.000E+00 ortho     =-0.888E-07
 gamma     =   0.02209
 trial     =   0.43842
 opt step  =   0.40203  (harmonic =   0.40203) maximal distance =0.00009436
 next E    =   -67.812691   (d E  =  -0.00000)


--------------------------------------------------------------------------------------------------------


  
 reached required accuracy - stopping structural energy minimisation
     LOOP+:  cpu time      0.7099: real time      0.7153
    4ORBIT:  cpu time      0.0000: real time      0.0000

 total amount of memory used by VASP MPI-rank0    46843. kBytes
=======================================================================

   base      :      30000. kBytes
   nonl-proj :       5806. kBytes
   fftplans  :       2154. kBytes
   grid      :       8249. kBytes
   one-center:         24. kBytes
   wavefun   :        610. kBytes
 
  
  
 General timing and accounting informations for this job:
 ========================================================
  
                  Total CPU time used (sec):       16.345
                            User time (sec):       15.463
                          System time (sec):        0.882
                         Elapsed time (sec):       17.807
  
                   Maximum memory used (kb):      501880.
                   Average memory used (kb):          N/A
  
                          Minor page faults:       112745
                          Major page faults:         1845
                 Voluntary context switches:         2616
