       N       E                     dE             d eps       ncg     rms          ort
SDA:   1    -0.140191515054E+03   -0.14019E+03   -0.34580E-06  3168   0.865E-06 0.000E+00
DMP:   2    -0.140191515373E+03   -0.31907E-06   -0.35946E-06  3168   0.626E-06 0.713E-06
   1 F= -.14019152E+03 E0= -.14019058E+03  d E =-.187532E-02
