  16  16   0   4
  0.2008693E+02  0.4974000E-09  0.4974000E-09  0.1500000E-08  0.5000000E-15
  1.000000000000000E-004
  CAR 
 Lattice                                 
      9.54420541    -21.08561848  301     -0.21013616      1.00000000
    -21.086  0.0000E+00  0.0000E+00  0.0000E+00  0.0000E+00
    -20.984  0.0000E+00  0.0000E+00  0.0000E+00  0.0000E+00
    -20.881  0.0000E+00  0.0000E+00  0.0000E+00  0.0000E+00
    -20.779  0.0000E+00  0.0000E+00  0.0000E+00  0.0000E+00
    -20.677  0.0000E+00  0.0000E+00  0.0000E+00  0.0000E+00
    -20.575  0.0000E+00  0.0000E+00  0.0000E+00  0.0000E+00
    -20.473  0.0000E+00  0.0000E+00  0.0000E+00  0.0000E+00
    -20.371  0.0000E+00  0.0000E+00  0.0000E+00  0.0000E+00
    -20.269  0.1180E-18  0.1180E-18  0.1205E-19  0.1205E-19
    -20.167  0.6340E-14  0.6340E-14  0.6473E-15  0.6473E-15
    -20.065  0.4953E-10  0.4953E-10  0.5057E-11  0.5058E-11
    -19.963  0.5647E-07  0.5647E-07  0.5771E-08  0.5771E-08
    -19.860  0.1016E-04  0.1016E-04  0.1043E-05  0.1043E-05
    -19.758  0.3174E-03  0.3174E-03  0.3345E-04  0.3345E-04
    -19.656  0.2078E-02  0.2078E-02  0.2456E-03  0.2456E-03
    -19.554  0.4289E-02  0.4289E-02  0.6835E-03  0.6835E-03
    -19.452  0.4750E-02  0.4750E-02  0.1168E-02  0.1168E-02
    -19.350  0.5109E-02  0.5109E-02  0.1690E-02  0.1690E-02
    -19.248  0.4429E-02  0.4429E-02  0.2142E-02  0.2142E-02
    -19.146  0.5543E-02  0.5543E-02  0.2708E-02  0.2708E-02
    -19.044  0.4446E-02  0.4446E-02  0.3162E-02  0.3162E-02
    -18.942  0.4521E-02  0.4521E-02  0.3624E-02  0.3624E-02
    -18.839  0.6161E-02  0.6161E-02  0.4253E-02  0.4253E-02
    -18.737  0.4043E-02  0.4043E-02  0.4666E-02  0.4666E-02
    -18.635  0.4147E-02  0.4147E-02  0.5089E-02  0.5089E-02
    -18.533  0.6315E-02  0.6315E-02  0.5734E-02  0.5734E-02
    -18.431  0.5396E-02  0.5396E-02  0.6285E-02  0.6285E-02
    -18.329  0.3172E-02  0.3172E-02  0.6609E-02  0.6609E-02
    -18.227  0.4689E-02  0.4689E-02  0.7087E-02  0.7087E-02
    -18.125  0.7080E-02  0.7080E-02  0.7810E-02  0.7810E-02
    -18.023  0.4815E-02  0.4815E-02  0.8302E-02  0.8302E-02
    -17.921  0.3907E-02  0.3907E-02  0.8701E-02  0.8701E-02
    -17.818  0.3318E-02  0.3318E-02  0.9039E-02  0.9039E-02
    -17.716  0.6919E-02  0.6919E-02  0.9746E-02  0.9746E-02
    -17.614  0.6773E-02  0.6773E-02  0.1044E-01  0.1044E-01
    -17.512  0.3697E-02  0.3697E-02  0.1081E-01  0.1081E-01
    -17.410  0.3515E-02  0.3515E-02  0.1117E-01  0.1117E-01
    -17.308  0.4382E-02  0.4382E-02  0.1162E-01  0.1162E-01
    -17.206  0.6599E-02  0.6599E-02  0.1229E-01  0.1229E-01
    -17.104  0.6919E-02  0.6919E-02  0.1300E-01  0.1300E-01
    -17.002  0.4861E-02  0.4861E-02  0.1350E-01  0.1350E-01
    -16.900  0.2551E-02  0.2551E-02  0.1376E-01  0.1376E-01
    -16.797  0.3720E-02  0.3720E-02  0.1414E-01  0.1414E-01
    -16.695  0.6967E-02  0.6967E-02  0.1485E-01  0.1485E-01
    -16.593  0.6736E-02  0.6736E-02  0.1554E-01  0.1554E-01
    -16.491  0.5613E-02  0.5613E-02  0.1611E-01  0.1611E-01
    -16.389  0.4636E-02  0.4636E-02  0.1658E-01  0.1658E-01
    -16.287  0.3327E-02  0.3327E-02  0.1692E-01  0.1692E-01
    -16.185  0.2617E-02  0.2617E-02  0.1719E-01  0.1719E-01
    -16.083  0.8787E-02  0.8787E-02  0.1809E-01  0.1809E-01
    -15.981  0.1138E-01  0.1138E-01  0.1925E-01  0.1925E-01
    -15.879  0.1058E-01  0.1058E-01  0.2033E-01  0.2033E-01
    -15.776  0.1062E-01  0.1062E-01  0.2141E-01  0.2141E-01
    -15.674  0.1057E-01  0.1057E-01  0.2249E-01  0.2249E-01
    -15.572  0.1043E-01  0.1043E-01  0.2356E-01  0.2356E-01
    -15.470  0.1144E-01  0.1144E-01  0.2473E-01  0.2473E-01
    -15.368  0.1711E-01  0.1711E-01  0.2647E-01  0.2647E-01
    -15.266  0.1532E-01  0.1532E-01  0.2804E-01  0.2804E-01
    -15.164  0.1456E-01  0.1456E-01  0.2952E-01  0.2952E-01
    -15.062  0.1087E-01  0.1087E-01  0.3063E-01  0.3063E-01
    -14.960  0.8850E-02  0.8850E-02  0.3154E-01  0.3154E-01
    -14.858  0.6712E-02  0.6712E-02  0.3222E-01  0.3222E-01
    -14.755  0.8506E-02  0.8506E-02  0.3309E-01  0.3309E-01
    -14.653  0.1132E-01  0.1132E-01  0.3425E-01  0.3425E-01
    -14.551  0.1098E-01  0.1098E-01  0.3537E-01  0.3537E-01
    -14.449  0.1278E-01  0.1278E-01  0.3667E-01  0.3667E-01
    -14.347  0.1088E-01  0.1088E-01  0.3778E-01  0.3778E-01
    -14.245  0.9306E-02  0.9306E-02  0.3873E-01  0.3873E-01
    -14.143  0.9487E-02  0.9487E-02  0.3970E-01  0.3970E-01
    -14.041  0.1378E-01  0.1378E-01  0.4111E-01  0.4111E-01
    -13.939  0.9878E-02  0.9878E-02  0.4212E-01  0.4212E-01
    -13.837  0.4644E-02  0.4644E-02  0.4259E-01  0.4259E-01
    -13.734  0.2564E-02  0.2564E-02  0.4285E-01  0.4285E-01
    -13.632  0.4791E-02  0.4791E-02  0.4334E-01  0.4334E-01
    -13.530  0.6631E-02  0.6631E-02  0.4402E-01  0.4402E-01
    -13.428  0.6616E-02  0.6616E-02  0.4470E-01  0.4470E-01
    -13.326  0.7147E-02  0.7147E-02  0.4543E-01  0.4543E-01
    -13.224  0.7065E-02  0.7065E-02  0.4615E-01  0.4615E-01
    -13.122  0.7345E-02  0.7345E-02  0.4690E-01  0.4690E-01
    -13.020  0.6964E-02  0.6964E-02  0.4761E-01  0.4761E-01
    -12.918  0.5540E-02  0.5540E-02  0.4817E-01  0.4817E-01
    -12.816  0.8214E-02  0.8214E-02  0.4901E-01  0.4901E-01
    -12.713  0.1157E-01  0.1157E-01  0.5019E-01  0.5019E-01
    -12.611  0.1203E-01  0.1203E-01  0.5142E-01  0.5142E-01
    -12.509  0.1344E-01  0.1344E-01  0.5279E-01  0.5279E-01
    -12.407  0.1518E-01  0.1518E-01  0.5434E-01  0.5434E-01
    -12.305  0.1290E-01  0.1290E-01  0.5566E-01  0.5566E-01
    -12.203  0.1625E-01  0.1625E-01  0.5732E-01  0.5732E-01
    -12.101  0.1496E-01  0.1496E-01  0.5885E-01  0.5885E-01
    -11.999  0.1629E-01  0.1629E-01  0.6051E-01  0.6051E-01
    -11.897  0.1827E-01  0.1827E-01  0.6238E-01  0.6238E-01
    -11.795  0.1134E-01  0.1134E-01  0.6353E-01  0.6353E-01
    -11.692  0.7367E-02  0.7367E-02  0.6429E-01  0.6429E-01
    -11.590  0.5282E-02  0.5282E-02  0.6482E-01  0.6482E-01
    -11.488  0.6388E-02  0.6388E-02  0.6548E-01  0.6548E-01
    -11.386  0.6472E-02  0.6472E-02  0.6614E-01  0.6614E-01
    -11.284  0.5209E-02  0.5209E-02  0.6667E-01  0.6667E-01
    -11.182  0.4519E-02  0.4519E-02  0.6713E-01  0.6713E-01
    -11.080  0.4382E-02  0.4382E-02  0.6758E-01  0.6758E-01
    -10.978  0.4904E-02  0.4904E-02  0.6808E-01  0.6808E-01
    -10.876  0.9392E-02  0.9392E-02  0.6904E-01  0.6904E-01
    -10.774  0.1216E-01  0.1216E-01  0.7028E-01  0.7028E-01
    -10.671  0.1177E-01  0.1177E-01  0.7148E-01  0.7148E-01
    -10.569  0.1420E-01  0.1420E-01  0.7293E-01  0.7293E-01
    -10.467  0.1630E-01  0.1630E-01  0.7460E-01  0.7460E-01
    -10.365  0.1077E-01  0.1077E-01  0.7570E-01  0.7570E-01
    -10.263  0.9799E-02  0.9799E-02  0.7670E-01  0.7670E-01
    -10.161  0.9632E-02  0.9632E-02  0.7768E-01  0.7768E-01
    -10.059  0.1017E-01  0.1017E-01  0.7872E-01  0.7872E-01
     -9.957  0.8091E-02  0.8091E-02  0.7954E-01  0.7954E-01
     -9.855  0.1109E-01  0.1109E-01  0.8068E-01  0.8068E-01
     -9.753  0.9549E-02  0.9549E-02  0.8165E-01  0.8165E-01
     -9.650  0.1278E-01  0.1278E-01  0.8296E-01  0.8296E-01
     -9.548  0.1818E-01  0.1818E-01  0.8481E-01  0.8481E-01
     -9.446  0.1140E-01  0.1140E-01  0.8598E-01  0.8598E-01
     -9.344  0.1565E-01  0.1565E-01  0.8757E-01  0.8757E-01
     -9.242  0.1957E-01  0.1957E-01  0.8957E-01  0.8957E-01
     -9.140  0.1434E-01  0.1434E-01  0.9104E-01  0.9104E-01
     -9.038  0.8129E-02  0.8129E-02  0.9187E-01  0.9187E-01
     -8.936  0.1514E-01  0.1514E-01  0.9341E-01  0.9341E-01
     -8.834  0.2472E-01  0.2472E-01  0.9594E-01  0.9594E-01
     -8.732  0.1201E-01  0.1201E-01  0.9716E-01  0.9716E-01
     -8.629  0.5058E-02  0.5058E-02  0.9768E-01  0.9768E-01
     -8.527  0.1409E-01  0.1409E-01  0.9912E-01  0.9912E-01
     -8.425  0.1844E-01  0.1844E-01  0.1010E+00  0.1010E+00
     -8.323  0.1433E-01  0.1433E-01  0.1025E+00  0.1025E+00
     -8.221  0.1437E-01  0.1437E-01  0.1039E+00  0.1039E+00
     -8.119  0.1360E-01  0.1360E-01  0.1053E+00  0.1053E+00
     -8.017  0.1168E-01  0.1168E-01  0.1065E+00  0.1065E+00
     -7.915  0.1356E-01  0.1356E-01  0.1079E+00  0.1079E+00
     -7.813  0.1918E-01  0.1918E-01  0.1099E+00  0.1099E+00
     -7.711  0.2402E-01  0.2402E-01  0.1123E+00  0.1123E+00
     -7.608  0.1740E-01  0.1740E-01  0.1141E+00  0.1141E+00
     -7.506  0.1226E-01  0.1226E-01  0.1153E+00  0.1153E+00
     -7.404  0.1335E-01  0.1335E-01  0.1167E+00  0.1167E+00
     -7.302  0.1717E-01  0.1717E-01  0.1185E+00  0.1185E+00
     -7.200  0.1956E-01  0.1956E-01  0.1204E+00  0.1204E+00
     -7.098  0.1699E-01  0.1699E-01  0.1222E+00  0.1222E+00
     -6.996  0.1886E-01  0.1886E-01  0.1241E+00  0.1241E+00
     -6.894  0.1791E-01  0.1792E-01  0.1259E+00  0.1259E+00
     -6.792  0.2133E-01  0.2133E-01  0.1281E+00  0.1281E+00
     -6.690  0.2841E-01  0.2841E-01  0.1310E+00  0.1310E+00
     -6.588  0.3545E-01  0.3545E-01  0.1346E+00  0.1346E+00
     -6.485  0.3470E-01  0.3470E-01  0.1382E+00  0.1382E+00
     -6.383  0.1950E-01  0.1950E-01  0.1402E+00  0.1402E+00
     -6.281  0.1682E-01  0.1682E-01  0.1419E+00  0.1419E+00
     -6.179  0.1832E-01  0.1832E-01  0.1438E+00  0.1438E+00
     -6.077  0.1765E-01  0.1765E-01  0.1456E+00  0.1456E+00
     -5.975  0.1702E-01  0.1702E-01  0.1473E+00  0.1473E+00
     -5.873  0.1332E-01  0.1332E-01  0.1487E+00  0.1487E+00
     -5.771  0.1777E-01  0.1777E-01  0.1505E+00  0.1505E+00
     -5.669  0.2045E-01  0.2045E-01  0.1526E+00  0.1526E+00
     -5.567  0.1200E-01  0.1200E-01  0.1538E+00  0.1538E+00
     -5.464  0.7792E-02  0.7792E-02  0.1546E+00  0.1546E+00
     -5.362  0.1403E-01  0.1403E-01  0.1560E+00  0.1560E+00
     -5.260  0.2160E-01  0.2160E-01  0.1582E+00  0.1582E+00
     -5.158  0.1620E-01  0.1620E-01  0.1599E+00  0.1599E+00
     -5.056  0.1126E-01  0.1126E-01  0.1610E+00  0.1610E+00
     -4.954  0.1451E-01  0.1451E-01  0.1625E+00  0.1625E+00
     -4.852  0.2032E-01  0.2032E-01  0.1646E+00  0.1646E+00
     -4.750  0.1248E-01  0.1248E-01  0.1659E+00  0.1659E+00
     -4.648  0.7780E-02  0.7780E-02  0.1666E+00  0.1666E+00
     -4.546  0.1555E-01  0.1555E-01  0.1682E+00  0.1682E+00
     -4.443  0.2026E-01  0.2026E-01  0.1703E+00  0.1703E+00
     -4.341  0.2235E-01  0.2235E-01  0.1726E+00  0.1726E+00
     -4.239  0.2193E-01  0.2193E-01  0.1748E+00  0.1748E+00
     -4.137  0.1797E-01  0.1797E-01  0.1767E+00  0.1767E+00
     -4.035  0.1985E-01  0.1985E-01  0.1787E+00  0.1787E+00
     -3.933  0.2495E-01  0.2495E-01  0.1812E+00  0.1812E+00
     -3.831  0.2850E-01  0.2850E-01  0.1841E+00  0.1841E+00
     -3.729  0.2670E-01  0.2670E-01  0.1869E+00  0.1869E+00
     -3.627  0.2195E-01  0.2195E-01  0.1891E+00  0.1891E+00
     -3.525  0.1968E-01  0.1968E-01  0.1911E+00  0.1911E+00
     -3.422  0.1668E-01  0.1668E-01  0.1928E+00  0.1928E+00
     -3.320  0.1246E-01  0.1246E-01  0.1941E+00  0.1941E+00
     -3.218  0.8049E-02  0.8050E-02  0.1949E+00  0.1949E+00
     -3.116  0.8574E-02  0.8574E-02  0.1958E+00  0.1958E+00
     -3.014  0.1551E-01  0.1551E-01  0.1974E+00  0.1974E+00
     -2.912  0.1589E-01  0.1589E-01  0.1990E+00  0.1990E+00
     -2.810  0.1162E-01  0.1162E-01  0.2002E+00  0.2002E+00
     -2.708  0.1125E-01  0.1125E-01  0.2013E+00  0.2013E+00
     -2.606  0.1120E-01  0.1120E-01  0.2025E+00  0.2025E+00
     -2.504  0.1187E-01  0.1187E-01  0.2037E+00  0.2037E+00
     -2.401  0.1663E-01  0.1663E-01  0.2054E+00  0.2054E+00
     -2.299  0.1205E-01  0.1205E-01  0.2066E+00  0.2066E+00
     -2.197  0.9453E-02  0.9453E-02  0.2076E+00  0.2076E+00
     -2.095  0.9764E-02  0.9764E-02  0.2086E+00  0.2086E+00
     -1.993  0.7776E-02  0.7776E-02  0.2094E+00  0.2094E+00
     -1.891  0.5292E-02  0.5292E-02  0.2099E+00  0.2099E+00
     -1.789  0.6254E-02  0.6254E-02  0.2106E+00  0.2106E+00
     -1.687  0.9683E-02  0.9683E-02  0.2115E+00  0.2115E+00
     -1.585  0.9647E-02  0.9647E-02  0.2125E+00  0.2125E+00
     -1.483  0.9085E-02  0.9085E-02  0.2135E+00  0.2135E+00
     -1.380  0.6312E-02  0.6312E-02  0.2141E+00  0.2141E+00
     -1.278  0.5160E-02  0.5160E-02  0.2146E+00  0.2146E+00
     -1.176  0.4830E-02  0.4830E-02  0.2151E+00  0.2151E+00
     -1.074  0.6062E-02  0.6062E-02  0.2157E+00  0.2157E+00
     -0.972  0.8071E-02  0.8071E-02  0.2166E+00  0.2166E+00
     -0.870  0.5670E-02  0.5670E-02  0.2171E+00  0.2171E+00
     -0.768  0.2868E-02  0.2868E-02  0.2174E+00  0.2174E+00
     -0.666  0.1211E-02  0.1211E-02  0.2176E+00  0.2176E+00
     -0.564  0.1415E-02  0.1415E-02  0.2177E+00  0.2177E+00
     -0.462  0.3631E-02  0.3631E-02  0.2181E+00  0.2181E+00
     -0.359  0.3023E-02  0.3023E-02  0.2184E+00  0.2184E+00
     -0.257  0.2032E-02  0.2032E-02  0.2186E+00  0.2186E+00
     -0.155  0.4149E-02  0.4149E-02  0.2190E+00  0.2190E+00
     -0.053  0.4834E-02  0.4834E-02  0.2195E+00  0.2195E+00
      0.049  0.3389E-02  0.3390E-02  0.2199E+00  0.2199E+00
      0.151  0.3657E-02  0.3657E-02  0.2202E+00  0.2202E+00
      0.253  0.8732E-02  0.8732E-02  0.2211E+00  0.2211E+00
      0.355  0.1213E-01  0.1213E-01  0.2224E+00  0.2224E+00
      0.457  0.1143E-01  0.1143E-01  0.2235E+00  0.2235E+00
      0.559  0.8796E-02  0.8796E-02  0.2244E+00  0.2244E+00
      0.662  0.3268E-02  0.3268E-02  0.2248E+00  0.2248E+00
      0.764  0.6523E-02  0.6523E-02  0.2254E+00  0.2254E+00
      0.866  0.1222E-01  0.1222E-01  0.2267E+00  0.2267E+00
      0.968  0.5972E-02  0.5972E-02  0.2273E+00  0.2273E+00
      1.070  0.1748E-02  0.1748E-02  0.2275E+00  0.2275E+00
      1.172  0.5445E-02  0.5445E-02  0.2280E+00  0.2280E+00
      1.274  0.1456E-01  0.1456E-01  0.2295E+00  0.2295E+00
      1.376  0.2066E-01  0.2066E-01  0.2316E+00  0.2316E+00
      1.478  0.1531E-01  0.1531E-01  0.2332E+00  0.2332E+00
      1.580  0.1161E-01  0.1161E-01  0.2344E+00  0.2344E+00
      1.683  0.7174E-02  0.7174E-02  0.2351E+00  0.2351E+00
      1.785  0.8718E-02  0.8718E-02  0.2360E+00  0.2360E+00
      1.887  0.1302E-01  0.1302E-01  0.2373E+00  0.2373E+00
      1.989  0.1143E-01  0.1143E-01  0.2385E+00  0.2385E+00
      2.091  0.1256E-01  0.1256E-01  0.2398E+00  0.2398E+00
      2.193  0.1225E-01  0.1225E-01  0.2410E+00  0.2410E+00
      2.295  0.1064E-01  0.1064E-01  0.2421E+00  0.2421E+00
      2.397  0.7828E-02  0.7828E-02  0.2429E+00  0.2429E+00
      2.499  0.5740E-02  0.5740E-02  0.2435E+00  0.2435E+00
      2.601  0.1005E-01  0.1005E-01  0.2445E+00  0.2445E+00
      2.704  0.1425E-01  0.1425E-01  0.2460E+00  0.2460E+00
      2.806  0.1423E-01  0.1423E-01  0.2474E+00  0.2474E+00
      2.908  0.1284E-01  0.1284E-01  0.2487E+00  0.2487E+00
      3.010  0.1287E-01  0.1287E-01  0.2500E+00  0.2500E+00
      3.112  0.1293E-01  0.1293E-01  0.2514E+00  0.2514E+00
      3.214  0.1675E-01  0.1675E-01  0.2531E+00  0.2531E+00
      3.316  0.1578E-01  0.1578E-01  0.2547E+00  0.2547E+00
      3.418  0.1198E-01  0.1198E-01  0.2559E+00  0.2559E+00
      3.520  0.1768E-01  0.1768E-01  0.2577E+00  0.2577E+00
      3.622  0.2758E-01  0.2758E-01  0.2605E+00  0.2605E+00
      3.725  0.2093E-01  0.2094E-01  0.2627E+00  0.2627E+00
      3.827  0.1567E-01  0.1567E-01  0.2643E+00  0.2643E+00
      3.929  0.1976E-01  0.1976E-01  0.2663E+00  0.2663E+00
      4.031  0.2660E-01  0.2660E-01  0.2690E+00  0.2690E+00
      4.133  0.2010E-01  0.2010E-01  0.2710E+00  0.2710E+00
      4.235  0.1806E-01  0.1806E-01  0.2729E+00  0.2729E+00
      4.337  0.2143E-01  0.2142E-01  0.2751E+00  0.2751E+00
      4.439  0.2286E-01  0.2286E-01  0.2774E+00  0.2774E+00
      4.541  0.2313E-01  0.2313E-01  0.2798E+00  0.2798E+00
      4.643  0.1928E-01  0.1928E-01  0.2817E+00  0.2817E+00
      4.746  0.1985E-01  0.1984E-01  0.2838E+00  0.2838E+00
      4.848  0.2590E-01  0.2588E-01  0.2864E+00  0.2864E+00
      4.950  0.3056E-01  0.3057E-01  0.2895E+00  0.2895E+00
      5.052  0.2624E-01  0.2623E-01  0.2922E+00  0.2922E+00
      5.154  0.2895E-01  0.2895E-01  0.2952E+00  0.2952E+00
      5.256  0.2076E-01  0.2076E-01  0.2973E+00  0.2973E+00
      5.358  0.1993E-01  0.1992E-01  0.2993E+00  0.2993E+00
      5.460  0.2653E-01  0.2653E-01  0.3020E+00  0.3020E+00
      5.562  0.2849E-01  0.2850E-01  0.3049E+00  0.3049E+00
      5.664  0.2497E-01  0.2498E-01  0.3075E+00  0.3075E+00
      5.767  0.2401E-01  0.2400E-01  0.3099E+00  0.3099E+00
      5.869  0.2478E-01  0.2478E-01  0.3125E+00  0.3125E+00
      5.971  0.2344E-01  0.2344E-01  0.3149E+00  0.3149E+00
      6.073  0.2958E-01  0.2958E-01  0.3179E+00  0.3179E+00
      6.175  0.2709E-01  0.2710E-01  0.3206E+00  0.3206E+00
      6.277  0.1736E-01  0.1737E-01  0.3224E+00  0.3224E+00
      6.379  0.1505E-01  0.1505E-01  0.3240E+00  0.3240E+00
      6.481  0.2194E-01  0.2193E-01  0.3262E+00  0.3262E+00
      6.583  0.3142E-01  0.3141E-01  0.3294E+00  0.3294E+00
      6.685  0.2989E-01  0.2989E-01  0.3325E+00  0.3325E+00
      6.788  0.2450E-01  0.2451E-01  0.3350E+00  0.3350E+00
      6.890  0.2184E-01  0.2185E-01  0.3372E+00  0.3372E+00
      6.992  0.2772E-01  0.2771E-01  0.3400E+00  0.3400E+00
      7.094  0.2988E-01  0.2987E-01  0.3431E+00  0.3431E+00
      7.196  0.3763E-01  0.3762E-01  0.3469E+00  0.3469E+00
      7.298  0.4211E-01  0.4211E-01  0.3512E+00  0.3512E+00
      7.400  0.3625E-01  0.3625E-01  0.3549E+00  0.3549E+00
      7.502  0.2835E-01  0.2836E-01  0.3578E+00  0.3578E+00
      7.604  0.2586E-01  0.2586E-01  0.3604E+00  0.3604E+00
      7.706  0.3367E-01  0.3367E-01  0.3639E+00  0.3639E+00
      7.809  0.3326E-01  0.3326E-01  0.3673E+00  0.3673E+00
      7.911  0.3160E-01  0.3161E-01  0.3705E+00  0.3705E+00
      8.013  0.2481E-01  0.2481E-01  0.3730E+00  0.3730E+00
      8.115  0.1304E-01  0.1303E-01  0.3744E+00  0.3744E+00
      8.217  0.5353E-02  0.5352E-02  0.3749E+00  0.3749E+00
      8.319  0.7713E-03  0.7714E-03  0.3750E+00  0.3750E+00
      8.421  0.2179E-04  0.2179E-04  0.3750E+00  0.3750E+00
      8.523  0.1011E-06  0.1012E-06  0.3750E+00  0.3750E+00
      8.625  0.7326E-10  0.7332E-10  0.3750E+00  0.3750E+00
      8.727  0.8013E-14  0.8022E-14  0.3750E+00  0.3750E+00
      8.830  0.1180E-18  0.1180E-18  0.3750E+00  0.3750E+00
      8.932  0.0000E+00  0.0000E+00  0.3750E+00  0.3750E+00
      9.034  0.0000E+00  0.0000E+00  0.3750E+00  0.3750E+00
      9.136  0.0000E+00  0.0000E+00  0.3750E+00  0.3750E+00
      9.238  0.0000E+00  0.0000E+00  0.3750E+00  0.3750E+00
      9.340  0.0000E+00  0.0000E+00  0.3750E+00  0.3750E+00
      9.442  0.0000E+00  0.0000E+00  0.3750E+00  0.3750E+00
      9.544  0.0000E+00  0.0000E+00  0.3750E+00  0.3750E+00
