<?xml version="1.0" encoding="ISO-8859-1"?>
<modeling>
 <generator>
  <i name="program" type="string">vasp </i>
  <i name="version" type="string">6.3.2  </i>
  <i name="subversion" type="string">27Jun22 (build Dec 22 2022 13:13:19) complex                          parallel </i>
  <i name="platform" type="string">LinuxIFC </i>
  <i name="date" type="string">2023 08 22 </i>
  <i name="time" type="string">23:21:30 </i>
 </generator>
 <incar>
  <i type="string" name="SYSTEM">Lattice</i>
  <i type="int" name="ISTART">     0</i>
  <i type="string" name="PREC">Accurate</i>
  <i type="string" name="ALGO">Normal</i>
  <i type="int" name="ISPIN">     2</i>
  <i type="int" name="ICHARG">     2</i>
  <i type="int" name="NELM">    64</i>
  <i type="int" name="IBRION">     2</i>
  <i name="EDIFF">      0.00000100</i>
  <i name="EDIFFG">     -0.00100000</i>
  <i type="int" name="NSW">   128</i>
  <i type="int" name="ISIF">     2</i>
  <i name="ENCUT">    450.00000000</i>
  <i name="POTIM">      0.50000000</i>
  <i type="int" name="ISMEAR">     0</i>
  <i name="SIGMA">      0.10000000</i>
  <i type="logical" name="LWAVE"> F  </i>
  <i type="logical" name="LCHARG"> F  </i>
  <i type="string" name="GGA">PE</i>
  <i type="int" name="IVDW">    12</i>
 </incar>
 <primitive_cell>
  <structure name="primitive_cell" >
   <crystal>
    <varray name="basis" >
     <v>       4.30761036       2.48700000       0.00000000 </v>
     <v>      -4.30761036       2.48700000       0.00000000 </v>
     <v>       0.00000000       0.00000000      15.00000000 </v>
    </varray>
    <i name="volume">    321.39080884 </i>
    <varray name="rec_basis" >
     <v>       0.11607364       0.20104544       0.00000000 </v>
     <v>      -0.11607364       0.20104544       0.00000000 </v>
     <v>       0.00000000       0.00000000       0.06666667 </v>
    </varray>
   </crystal>
   <varray name="positions" >
    <v>       0.66888689       1.00000000       0.10000000 </v>
    <v>       0.33111211       1.00000000       0.10000000 </v>
    <v>       1.00000000       0.33111211       0.10000000 </v>
    <v>       1.00000000       0.66888689       0.10000000 </v>
    <v>       0.33111211       0.33111211       0.10000000 </v>
    <v>       0.66888689       0.66888689       0.10000000 </v>
    <v>       0.66666600       0.33333300       0.09922189 </v>
    <v>       0.33333300       0.66666600       0.10077811 </v>
    <v>       0.33333267       0.16666633       0.47060000 </v>
    <v>       0.49999967       0.99999933       0.47060000 </v>
    <v>       0.33333267       0.66666633       0.47060000 </v>
    <v>       0.49999967       0.49999933       0.47060000 </v>
    <v>       0.83333267       0.16666633       0.47060000 </v>
    <v>       0.99999967       0.99999933       0.47060000 </v>
    <v>       0.83333267       0.66666633       0.47060000 </v>
    <v>       0.99999967       0.49999933       0.47060000 </v>
   </varray>
  </structure>
  <varray name="primitive_index" >
   <v type="int" >        1 </v>
   <v type="int" >        2 </v>
   <v type="int" >        3 </v>
   <v type="int" >        4 </v>
   <v type="int" >        5 </v>
   <v type="int" >        6 </v>
   <v type="int" >        7 </v>
   <v type="int" >        8 </v>
   <v type="int" >        9 </v>
   <v type="int" >       10 </v>
   <v type="int" >       11 </v>
   <v type="int" >       12 </v>
   <v type="int" >       13 </v>
   <v type="int" >       14 </v>
   <v type="int" >       15 </v>
   <v type="int" >       16 </v>
  </varray>
 </primitive_cell>
 <kpoints>
  <generation param="Gamma">
   <v type="int" name="divisions">      12       12        1 </v>
   <v name="usershift">      0.00000000       0.00000000       0.00000000 </v>
   <v name="genvec1">      0.08333333      -0.00000000       0.00000000 </v>
   <v name="genvec2">     -0.00000000       0.08333333       0.00000000 </v>
   <v name="genvec3">      0.00000000       0.00000000       1.00000000 </v>
   <v name="shift">      0.00000000       0.00000000       0.00000000 </v>
  </generation>
  <varray name="kpointlist" >
   <v>       0.00000000       0.00000000       0.00000000 </v>
   <v>       0.08333333       0.00000000       0.00000000 </v>
   <v>       0.16666667      -0.00000000       0.00000000 </v>
   <v>       0.25000000      -0.00000000       0.00000000 </v>
   <v>       0.33333333       0.00000000       0.00000000 </v>
   <v>       0.41666667       0.00000000       0.00000000 </v>
   <v>       0.50000000      -0.00000000       0.00000000 </v>
   <v>       0.08333333       0.08333333       0.00000000 </v>
   <v>       0.16666667       0.08333333       0.00000000 </v>
   <v>       0.25000000       0.08333333       0.00000000 </v>
   <v>       0.33333333       0.08333333       0.00000000 </v>
   <v>       0.41666667       0.08333333       0.00000000 </v>
   <v>       0.16666667       0.16666667       0.00000000 </v>
   <v>       0.25000000       0.16666667       0.00000000 </v>
   <v>       0.33333333       0.16666667       0.00000000 </v>
   <v>       0.41666667       0.16666667       0.00000000 </v>
   <v>       0.25000000       0.25000000       0.00000000 </v>
   <v>       0.33333333       0.25000000       0.00000000 </v>
   <v>       0.33333333       0.33333333       0.00000000 </v>
  </varray>
  <varray name="weights" >
   <v>       0.00694444 </v>
   <v>       0.04166667 </v>
   <v>       0.04166667 </v>
   <v>       0.04166667 </v>
   <v>       0.04166667 </v>
   <v>       0.04166667 </v>
   <v>       0.02083333 </v>
   <v>       0.04166667 </v>
   <v>       0.08333333 </v>
   <v>       0.08333333 </v>
   <v>       0.08333333 </v>
   <v>       0.08333333 </v>
   <v>       0.04166667 </v>
   <v>       0.08333333 </v>
   <v>       0.08333333 </v>
   <v>       0.04166667 </v>
   <v>       0.04166667 </v>
   <v>       0.08333333 </v>
   <v>       0.01388889 </v>
  </varray>
 </kpoints>
 <parameters>
  <separator name="general" >
   <i type="string" name="SYSTEM">Lattice</i>
   <i type="logical" name="LCOMPAT"> F  </i>
  </separator>
  <separator name="electronic" >
   <i type="string" name="PREC">accura</i>
   <i name="ENMAX">    450.00000000</i>
   <i name="ENAUG">    644.87300000</i>
   <i name="EDIFF">      0.00000100</i>
   <i type="int" name="IALGO">    38</i>
   <i type="int" name="IWAVPR">    11</i>
   <i type="int" name="NBANDS">    48</i>
   <i type="int" name="NBANDSLOW">    -1</i>
   <i type="int" name="NBANDSHIGH">    -1</i>
   <i name="NELECT">     56.00000000</i>
   <i type="int" name="TURBO">     0</i>
   <i type="int" name="IRESTART">     0</i>
   <i type="int" name="NREBOOT">     0</i>
   <i type="int" name="NMIN">     0</i>
   <i name="EREF">      0.00000000</i>
   <separator name="electronic smearing" >
    <i type="int" name="ISMEAR">     0</i>
    <i name="SIGMA">      0.10000000</i>
    <i name="KSPACING">      0.50000000</i>
    <i type="logical" name="KGAMMA"> T  </i>
    <i type="logical" name="KBLOWUP"> T  </i>
   </separator>
   <separator name="electronic projectors" >
    <i type="logical" name="LREAL"> F  </i>
    <v name="ROPT">      0.00000000      0.00000000</v>
    <i type="int" name="LMAXPAW">  -100</i>
    <i type="int" name="LMAXMIX">     2</i>
    <i type="logical" name="NLSPLINE"> F  </i>
   </separator>
   <separator name="electronic startup" >
    <i type="int" name="ISTART">     0</i>
    <i type="int" name="ICHARG">     2</i>
    <i type="int" name="INIWAV">     1</i>
   </separator>
   <separator name="electronic spin" >
    <i type="int" name="ISPIN">     2</i>
    <i type="logical" name="LNONCOLLINEAR"> F  </i>
    <v name="MAGMOM">      1.00000000      1.00000000      1.00000000      1.00000000      1.00000000      1.00000000      1.00000000      1.00000000      1.00000000      1.00000000      1.00000000      1.00000000      1.00000000      1.00000000      1.00000000      1.00000000</v>
    <i name="NUPDOWN">     -1.00000000</i>
    <i type="logical" name="LSORBIT"> F  </i>
    <v name="SAXIS">      0.00000000      0.00000000      1.00000000</v>
    <i type="logical" name="LSPIRAL"> F  </i>
    <v name="QSPIRAL">      0.00000000      0.00000000      0.00000000</v>
    <i type="logical" name="LZEROZ"> F  </i>
   </separator>
   <separator name="electronic exchange-correlation" >
    <i type="logical" name="LASPH"> F  </i>
    <i type="logical" name="LMETAGGA"> F  </i>
   </separator>
   <separator name="electronic convergence" >
    <i type="int" name="NELM">    64</i>
    <i type="int" name="NELMDL">    -5</i>
    <i type="int" name="NELMIN">     2</i>
    <i name="ENINI">    450.00000000</i>
    <separator name="electronic convergence detail" >
     <i type="logical" name="LDIAG"> T  </i>
     <i type="logical" name="LSUBROT"> F  </i>
     <i name="WEIMIN">      0.00100000</i>
     <i name="EBREAK">      0.00000001</i>
     <i name="DEPER">      0.30000000</i>
     <i type="int" name="NRMM">     4</i>
     <i name="TIME">      0.40000000</i>
    </separator>
   </separator>
   <separator name="electronic mixer" >
    <i name="AMIX">      0.40000000</i>
    <i name="BMIX">      1.00000000</i>
    <i name="AMIN">      0.10000000</i>
    <i name="AMIX_MAG">      1.60000000</i>
    <i name="BMIX_MAG">      1.00000000</i>
    <separator name="electronic mixer details" >
     <i type="int" name="IMIX">     4</i>
     <i type="logical" name="MIXFIRST"> F  </i>
     <i type="int" name="MAXMIX">   -45</i>
     <i name="WC">    100.00000000</i>
     <i type="int" name="INIMIX">     1</i>
     <i type="int" name="MIXPRE">     1</i>
     <i type="int" name="MREMOVE">     5</i>
    </separator>
   </separator>
   <separator name="electronic dipolcorrection" >
    <i type="logical" name="LDIPOL"> F  </i>
    <i type="logical" name="LMONO"> F  </i>
    <i type="int" name="IDIPOL">     0</i>
    <i name="EPSILON">      1.00000000</i>
    <v name="DIPOL">   -100.00000000   -100.00000000   -100.00000000</v>
    <i name="EFIELD">      0.00000000</i>
   </separator>
  </separator>
  <separator name="grids" >
   <i type="int" name="NGX">    36</i>
   <i type="int" name="NGY">    36</i>
   <i type="int" name="NGZ">   108</i>
   <i type="int" name="NGXF">    72</i>
   <i type="int" name="NGYF">    72</i>
   <i type="int" name="NGZF">   216</i>
   <i type="logical" name="ADDGRID"> F  </i>
  </separator>
  <separator name="ionic" >
   <i type="int" name="NSW">   128</i>
   <i type="int" name="IBRION">     2</i>
   <i type="int" name="MDALGO">     0</i>
   <i type="int" name="ISIF">     2</i>
   <i name="PSTRESS">      0.00000000</i>
   <i name="EDIFFG">     -0.00100000</i>
   <i type="int" name="NFREE">     1</i>
   <i name="POTIM">      0.50000000</i>
   <i name="SMASS">     -3.00000000</i>
   <i name="SCALEE">      1.00000000</i>
  </separator>
  <separator name="ionic md" >
   <i name="TEBEG">      0.00010000</i>
   <i name="TEEND">      0.00010000</i>
   <i type="int" name="NBLOCK">     1</i>
   <i type="int" name="KBLOCK">   128</i>
   <i type="int" name="NPACO">   256</i>
   <i name="APACO">     10.00000000</i>
  </separator>
  <separator name="symmetry" >
   <i type="int" name="ISYM">     2</i>
   <i name="SYMPREC">      0.00001000</i>
  </separator>
  <separator name="dos" >
   <i type="int" name="LORBIT">     0</i>
   <v name="RWIGS">     -1.00000000     -1.00000000</v>
   <i type="int" name="NEDOS">   301</i>
   <i name="EMIN">     10.00000000</i>
   <i name="EMAX">    -10.00000000</i>
   <i name="EFERMI">      0.00000000</i>
  </separator>
  <separator name="writing" >
   <i type="int" name="NWRITE">     2</i>
   <i type="logical" name="LWAVE"> F  </i>
   <i type="logical" name="LDOWNSAMPLE"> F  </i>
   <i type="logical" name="LCHARG"> F  </i>
   <i type="logical" name="LPARD"> F  </i>
   <i type="logical" name="LVTOT"> F  </i>
   <i type="logical" name="LVHAR"> F  </i>
   <i type="logical" name="LELF"> F  </i>
   <i type="logical" name="LOPTICS"> F  </i>
   <v name="STM">      0.00000000      0.00000000      0.00000000      0.00000000      0.00000000      0.00000000      0.00000000</v>
  </separator>
  <separator name="performance" >
   <i type="int" name="NPAR">    48</i>
   <i type="int" name="NSIM">     4</i>
   <i type="int" name="NBLK">    -1</i>
   <i type="logical" name="LPLANE"> T  </i>
   <i type="logical" name="LSCALAPACK"> T  </i>
   <i type="logical" name="LSCAAWARE"> F  </i>
   <i type="logical" name="LSCALU"> F  </i>
   <i type="logical" name="LASYNC"> F  </i>
   <i type="logical" name="LORBITALREAL"> F  </i>
  </separator>
  <separator name="miscellaneous" >
   <i type="int" name="IDIOT">     3</i>
   <i type="int" name="PHON_NSTRUCT">    -1</i>
   <i type="logical" name="LMUSIC"> F  </i>
   <v name="POMASS">     10.81100000     12.01100000</v>
   <v name="DARWINR">      0.00000000      0.00000000</v>
   <v name="DARWINV">      1.00000000      1.00000000</v>
   <i type="logical" name="LCORR"> T  </i>
  </separator>
  <i type="logical" name="GGA_COMPAT"> T  </i>
  <i type="logical" name="LBERRY"> F  </i>
  <i type="int" name="ICORELEVEL">     0</i>
  <i type="logical" name="LDAU"> F  </i>
  <i type="int" name="I_CONSTRAINED_M">     0</i>
  <separator name="electronic exchange-correlation" >
   <i type="string" name="GGA">PE</i>
   <i type="int" name="VOSKOWN">     0</i>
   <i type="logical" name="LHFCALC"> F  </i>
   <i type="string" name="PRECFOCK"></i>
   <i type="logical" name="LSYMGRAD"> F  </i>
   <i type="logical" name="LHFONE"> F  </i>
   <i type="logical" name="LRHFCALC"> F  </i>
   <i type="logical" name="LTHOMAS"> F  </i>
   <i type="logical" name="LMODELHF"> F  </i>
   <i type="logical" name="LFOCKACE"> F  </i>
   <i name="ENCUT4O">     -1.00000000</i>
   <i type="int" name="EXXOEP">     0</i>
   <i type="int" name="FOURORBIT">     0</i>
   <i name="AEXX">      0.00000000</i>
   <i name="HFALPHA">      0.00000000</i>
   <i name="MCALPHA">      0.00000000</i>
   <i name="ALDAX">      1.00000000</i>
   <i name="AGGAX">      1.00000000</i>
   <i name="ALDAC">      1.00000000</i>
   <i name="AGGAC">      1.00000000</i>
   <i type="int" name="NKREDX">     1</i>
   <i type="int" name="NKREDY">     1</i>
   <i type="int" name="NKREDZ">     1</i>
   <i type="logical" name="SHIFTRED"> F  </i>
   <i type="logical" name="ODDONLY"> F  </i>
   <i type="logical" name="EVENONLY"> F  </i>
   <i type="int" name="LMAXFOCK">     0</i>
   <i type="int" name="NMAXFOCKAE">     0</i>
   <i type="logical" name="LFOCKAEDFT"> F  </i>
   <i name="HFSCREEN">      0.00000000</i>
   <i name="HFSCREENC">      0.00000000</i>
   <i type="int" name="NBANDSGWLOW">     0</i>
  </separator>
  <separator name="vdW DFT" >
   <i type="logical" name="LUSE_VDW"> F  </i>
   <i name="Zab_VDW">     -0.84910000</i>
   <i name="PARAM1">      0.12340000</i>
   <i name="PARAM2">      1.00000000</i>
   <i name="PARAM3">      0.00000000</i>
  </separator>
  <separator name="model GW" >
   <i type="int" name="MODEL_GW">     0</i>
   <i name="MODEL_EPS0">     12.05215533</i>
   <i name="MODEL_ALPHA">      1.00000000</i>
  </separator>
  <separator name="linear response parameters" >
   <i type="logical" name="LEPSILON"> F  </i>
   <i type="logical" name="LRPA"> F  </i>
   <i type="logical" name="LNABLA"> F  </i>
   <i type="logical" name="LVEL"> F  </i>
   <i name="CSHIFT">      0.10000000</i>
   <i name="OMEGAMAX">     -1.00000000</i>
   <i name="DEG_THRESHOLD">      0.00200000</i>
   <i name="RTIME">     -0.10000000</i>
   <i name="WPLASMAI">      0.00000000</i>
   <v name="DFIELD">      0.00000000      0.00000000      0.00000000</v>
   <v name="WPLASMA">      0.00000000      0.00000000      0.00000000      0.00000000      0.00000000      0.00000000      0.00000000      0.00000000      0.00000000</v>
  </separator>
  <separator name="orbital magnetization" >
   <i type="logical" name="NUCIND"> F  </i>
   <v name="MAGPOS">      0.00000000      0.00000000      0.00000000</v>
   <i type="logical" name="LNICSALL"> T  </i>
   <i type="logical" name="ORBITALMAG"> F  </i>
   <i type="logical" name="LMAGBLOCH"> F  </i>
   <i type="logical" name="LCHIMAG"> F  </i>
   <i type="logical" name="LGAUGE"> T  </i>
   <i type="int" name="MAGATOM">     0</i>
   <v name="MAGDIPOL">      0.00000000      0.00000000      0.00000000</v>
   <v name="AVECCONST">      0.00000000      0.00000000      0.00000000</v>
  </separator>
  <separator name="response functions" >
   <i type="logical" name="LFINITE_TEMPERATURE"> F  </i>
   <i type="logical" name="LADDER"> F  </i>
   <i type="logical" name="LRPAFORCE"> F  </i>
   <i type="logical" name="LFXC"> F  </i>
   <i type="logical" name="LHARTREE"> T  </i>
   <i type="int" name="IBSE">     0</i>
   <v type="int" name="KPOINT">    -1     0     0     0</v>
   <i type="logical" name="LTCTC"> F  </i>
   <i type="logical" name="LTCTE"> F  </i>
   <i type="logical" name="LTETE"> F  </i>
   <i type="logical" name="LTRIPLET"> F  </i>
   <i type="logical" name="LFXCEPS"> F  </i>
   <i type="logical" name="LFXHEG"> F  </i>
   <i type="int" name="NATURALO">     2</i>
   <i type="logical" name="LHOLEGF"> F  </i>
   <i type="logical" name="L2ORDER"> F  </i>
   <i type="logical" name="LDMP1"> F  </i>
   <i type="logical" name="LMP2LT"> F  </i>
   <i type="logical" name="LSMP2LT"> F  </i>
   <i type="logical" name="LGWLF"> F  </i>
   <i name="ENCUTGW">     -2.00000000</i>
   <i name="ENCUTGWSOFT">     -2.00000000</i>
   <i name="ENCUTLF">     -1.00000000</i>
   <i type="logical" name="LESF_SPLINES"> F  </i>
   <i type="int" name="LMAXMP2">    -1</i>
   <i name="SCISSOR">      0.00000000</i>
   <i type="int" name="NOMEGA">     0</i>
   <i type="int" name="NOMEGAR">     0</i>
   <i type="int" name="NBANDSGW">    -1</i>
   <i type="int" name="NBANDSO">    -1</i>
   <i type="int" name="NBANDSV">    -1</i>
   <i type="int" name="NELMGW">     1</i>
   <i type="int" name="NELMHF">     1</i>
   <i type="int" name="DIM">     3</i>
   <i type="int" name="IESPILON">     4</i>
   <i type="int" name="ANTIRES">     0</i>
   <i name="OMEGAMAX">    -30.00000000</i>
   <i name="OMEGAMIN">    -30.00000000</i>
   <i name="OMEGATL">   -200.00000000</i>
   <i type="int" name="OMEGAGRID">     0</i>
   <i name="CSHIFT">     -0.10000000</i>
   <i type="logical" name="LSELFENERGY"> F  </i>
   <i type="logical" name="LSPECTRAL"> F  </i>
   <i type="logical" name="LSPECTRALGW"> F  </i>
   <i type="logical" name="LSINGLES"> F  </i>
   <i type="logical" name="LFERMIGW"> F  </i>
   <i type="logical" name="ODDONLYGW"> F  </i>
   <i type="logical" name="EVENONLYGW"> F  </i>
   <i type="int" name="NKREDLFX">     1</i>
   <i type="int" name="NKREDLFY">     1</i>
   <i type="int" name="NKREDLFZ">     1</i>
   <i type="int" name="MAXMEM">  2800</i>
   <i type="int" name="TELESCOPE">     0</i>
   <i type="int" name="NTAUPAR">    -1</i>
   <i type="int" name="NOMEGAPAR">    -1</i>
   <i name="DAMP_NEWTON">      0.80000001</i>
   <i name="LAMBDA">      1.00000000</i>
  </separator>
  <separator name="External order field" >
   <i name="OFIELD_KAPPA">      0.00000000</i>
   <v name="OFIELD_K">      0.00000000      0.00000000      0.00000000</v>
   <i name="OFIELD_Q6_NEAR">      0.00000000</i>
   <i name="OFIELD_Q6_FAR">      0.00000000</i>
   <i name="OFIELD_A">      0.00000000</i>
  </separator>
  <separator name="optional k-points parameters" >
   <i type="int" name="KPOINTS_OPT_MODE">     1</i>
   <i type="logical" name="LKPOINTS_OPT"> F  </i>
  </separator>
  <separator name="solvation model" >
   <i type="logical" name="LSOL"> F  </i>
  </separator>
 </parameters>
 <atominfo>
  <atoms>      16 </atoms>
  <types>       2 </types>
  <array name="atoms" >
   <dimension dim="1">ion</dimension>
   <field type="string">element</field>
   <field type="int">atomtype</field>
   <set>
    <rc><c>B </c><c>   1</c></rc>
    <rc><c>B </c><c>   1</c></rc>
    <rc><c>B </c><c>   1</c></rc>
    <rc><c>B </c><c>   1</c></rc>
    <rc><c>B </c><c>   1</c></rc>
    <rc><c>B </c><c>   1</c></rc>
    <rc><c>B </c><c>   1</c></rc>
    <rc><c>B </c><c>   1</c></rc>
    <rc><c>C </c><c>   2</c></rc>
    <rc><c>C </c><c>   2</c></rc>
    <rc><c>C </c><c>   2</c></rc>
    <rc><c>C </c><c>   2</c></rc>
    <rc><c>C </c><c>   2</c></rc>
    <rc><c>C </c><c>   2</c></rc>
    <rc><c>C </c><c>   2</c></rc>
    <rc><c>C </c><c>   2</c></rc>
   </set>
  </array>
  <array name="atomtypes" >
   <dimension dim="1">type</dimension>
   <field type="int">atomspertype</field>
   <field type="string">element</field>
   <field>mass</field>
   <field>valence</field>
   <field type="string">pseudopotential</field>
   <set>
    <rc><c>   8</c><c>B </c><c>     10.81100000</c><c>      3.00000000</c><c>  PAW_PBE B 06Sep2000                   </c></rc>
    <rc><c>   8</c><c>C </c><c>     12.01100000</c><c>      4.00000000</c><c>  PAW_PBE C 08Apr2002                   </c></rc>
   </set>
  </array>
 </atominfo>
 <structure name="initialpos" >
  <crystal>
   <varray name="basis" >
    <v>       4.30761036       2.48700000       0.00000000 </v>
    <v>      -4.30761036       2.48700000       0.00000000 </v>
    <v>       0.00000000       0.00000000      15.00000000 </v>
   </varray>
   <i name="volume">    321.39080884 </i>
   <varray name="rec_basis" >
    <v>       0.11607364       0.20104544       0.00000000 </v>
    <v>      -0.11607364       0.20104544       0.00000000 </v>
    <v>       0.00000000       0.00000000       0.06666667 </v>
   </varray>
  </crystal>
  <varray name="positions" >
   <v>       0.66888689       0.00000000       0.10000000 </v>
   <v>       0.33111211       0.00000000       0.10000000 </v>
   <v>       0.00000000       0.33111211       0.10000000 </v>
   <v>       0.00000000       0.66888689       0.10000000 </v>
   <v>       0.33111211       0.33111211       0.10000000 </v>
   <v>       0.66888689       0.66888689       0.10000000 </v>
   <v>       0.66666600       0.33333300       0.09922189 </v>
   <v>       0.33333300       0.66666600       0.10077811 </v>
   <v>       0.33333267       0.16666633       0.47060000 </v>
   <v>       0.49999967       0.99999933       0.47060000 </v>
   <v>       0.33333267       0.66666633       0.47060000 </v>
   <v>       0.49999967       0.49999933       0.47060000 </v>
   <v>       0.83333267       0.16666633       0.47060000 </v>
   <v>       0.99999967       0.99999933       0.47060000 </v>
   <v>       0.83333267       0.66666633       0.47060000 </v>
   <v>       0.99999967       0.49999933       0.47060000 </v>
  </varray>
 </structure>
 <calculation>
  <scstep>
   <time name="dav">    1.51    1.52</time>
   <time name="total">    1.55    1.57</time>
   <energy>
    <i name="alphaZ">     60.59237790 </i>
    <i name="ewald">   1863.42545054 </i>
    <i name="hartreedc">  -3276.67968928 </i>
    <i name="XCdc">    163.56389283 </i>
    <i name="pawpsdc">   1214.24570090 </i>
    <i name="pawaedc">  -1211.68112031 </i>
    <i name="eentropy">     -0.01881420 </i>
    <i name="bandstr">   -372.15925153 </i>
    <i name="atom">   1746.50554237 </i>
    <i name="e_fr_energy">    187.79408922 </i>
    <i name="e_wo_entrp">    187.81290343 </i>
    <i name="e_0_energy">    187.80349632 </i>
   </energy>
  </scstep>
  <scstep>
   <time name="dav">    2.39    2.41</time>
   <time name="total">    2.39    2.41</time>
   <energy>
    <i name="e_fr_energy">   -117.96066826 </i>
    <i name="e_wo_entrp">   -117.94513996 </i>
    <i name="e_0_energy">   -117.95290411 </i>
   </energy>
  </scstep>
  <scstep>
   <time name="dav">    2.70    2.73</time>
   <time name="total">    2.70    2.73</time>
   <energy>
    <i name="e_fr_energy">   -128.00719695 </i>
    <i name="e_wo_entrp">   -127.99490816 </i>
    <i name="e_0_energy">   -128.00105255 </i>
   </energy>
  </scstep>
  <scstep>
   <time name="dav">    2.48    2.51</time>
   <time name="total">    2.48    2.51</time>
   <energy>
    <i name="e_fr_energy">   -128.03194203 </i>
    <i name="e_wo_entrp">   -128.01962234 </i>
    <i name="e_0_energy">   -128.02578218 </i>
   </energy>
  </scstep>
  <scstep>
   <time name="dav">    2.52    2.54</time>
   <time name="total">    2.64    2.68</time>
   <energy>
    <i name="e_fr_energy">   -128.03197903 </i>
    <i name="e_wo_entrp">   -128.01965855 </i>
    <i name="e_0_energy">   -128.02581879 </i>
   </energy>
  </scstep>
  <scstep>
   <time name="dav">    2.02    2.04</time>
   <time name="total">    2.18    2.22</time>
   <energy>
    <i name="e_fr_energy">    -94.64088130 </i>
    <i name="e_wo_entrp">    -94.62961305 </i>
    <i name="e_0_energy">    -94.63524718 </i>
   </energy>
  </scstep>
  <scstep>
   <time name="dav">    2.38    2.40</time>
   <time name="total">    2.53    2.58</time>
   <energy>
    <i name="e_fr_energy">   -105.82204284 </i>
    <i name="e_wo_entrp">   -105.81261563 </i>
    <i name="e_0_energy">   -105.81732924 </i>
   </energy>
  </scstep>
  <scstep>
   <time name="dav">    2.27    2.28</time>
   <time name="total">    2.42    2.45</time>
   <energy>
    <i name="e_fr_energy">   -111.51826483 </i>
    <i name="e_wo_entrp">   -111.50896250 </i>
    <i name="e_0_energy">   -111.51361366 </i>
   </energy>
  </scstep>
  <scstep>
   <time name="dav">    2.00    2.02</time>
   <time name="total">    2.16    2.19</time>
   <energy>
    <i name="e_fr_energy">   -116.82909036 </i>
    <i name="e_wo_entrp">   -116.82667295 </i>
    <i name="e_0_energy">   -116.82788166 </i>
   </energy>
  </scstep>
  <scstep>
   <time name="dav">    2.37    2.39</time>
   <time name="total">    2.52    2.55</time>
   <energy>
    <i name="e_fr_energy">   -120.94689134 </i>
    <i name="e_wo_entrp">   -120.94198951 </i>
    <i name="e_0_energy">   -120.94444043 </i>
   </energy>
  </scstep>
  <scstep>
   <time name="dav">    2.10    2.11</time>
   <time name="total">    2.25    2.27</time>
   <energy>
    <i name="e_fr_energy">   -122.78545234 </i>
    <i name="e_wo_entrp">   -122.78225596 </i>
    <i name="e_0_energy">   -122.78385415 </i>
   </energy>
  </scstep>
  <scstep>
   <time name="dav">    2.51    2.53</time>
   <time name="total">    2.66    2.69</time>
   <energy>
    <i name="e_fr_energy">   -123.75166972 </i>
    <i name="e_wo_entrp">   -123.74691355 </i>
    <i name="e_0_energy">   -123.74929163 </i>
   </energy>
  </scstep>
  <scstep>
   <time name="dav">    2.32    2.34</time>
   <time name="total">    2.47    2.50</time>
   <energy>
    <i name="e_fr_energy">   -124.05776898 </i>
    <i name="e_wo_entrp">   -124.05170535 </i>
    <i name="e_0_energy">   -124.05473716 </i>
   </energy>
  </scstep>
  <scstep>
   <time name="dav">    1.91    1.94</time>
   <time name="total">    2.06    2.10</time>
   <energy>
    <i name="e_fr_energy">   -124.11286072 </i>
    <i name="e_wo_entrp">   -124.10677475 </i>
    <i name="e_0_energy">   -124.10981773 </i>
   </energy>
  </scstep>
  <scstep>
   <time name="dav">    1.77    1.79</time>
   <time name="total">    1.92    1.95</time>
   <energy>
    <i name="e_fr_energy">   -124.13639374 </i>
    <i name="e_wo_entrp">   -124.13032118 </i>
    <i name="e_0_energy">   -124.13335746 </i>
   </energy>
  </scstep>
  <scstep>
   <time name="dav">    1.80    1.81</time>
   <time name="total">    1.95    1.97</time>
   <energy>
    <i name="e_fr_energy">   -124.13796178 </i>
    <i name="e_wo_entrp">   -124.13190632 </i>
    <i name="e_0_energy">   -124.13493405 </i>
   </energy>
  </scstep>
  <scstep>
   <time name="dav">    1.68    1.69</time>
   <time name="total">    1.83    1.85</time>
   <energy>
    <i name="e_fr_energy">   -124.13852795 </i>
    <i name="e_wo_entrp">   -124.13248060 </i>
    <i name="e_0_energy">   -124.13550428 </i>
   </energy>
  </scstep>
  <scstep>
   <time name="dav">    1.63    1.64</time>
   <time name="total">    1.78    1.80</time>
   <energy>
    <i name="e_fr_energy">   -124.13854516 </i>
    <i name="e_wo_entrp">   -124.13248690 </i>
    <i name="e_0_energy">   -124.13551603 </i>
   </energy>
  </scstep>
  <scstep>
   <time name="dav">    1.56    1.58</time>
   <time name="total">    1.71    1.73</time>
   <energy>
    <i name="e_fr_energy">   -124.13859804 </i>
    <i name="e_wo_entrp">   -124.13253539 </i>
    <i name="e_0_energy">   -124.13556672 </i>
   </energy>
  </scstep>
  <scstep>
   <time name="dav">    1.61    1.62</time>
   <time name="total">    1.76    1.78</time>
   <energy>
    <i name="e_fr_energy">   -124.13862019 </i>
    <i name="e_wo_entrp">   -124.13256063 </i>
    <i name="e_0_energy">   -124.13559041 </i>
   </energy>
  </scstep>
  <scstep>
   <time name="dav">    1.59    1.60</time>
   <time name="total">    1.74    1.76</time>
   <energy>
    <i name="e_fr_energy">   -124.13867007 </i>
    <i name="e_wo_entrp">   -124.13261223 </i>
    <i name="e_0_energy">   -124.13564115 </i>
   </energy>
  </scstep>
  <scstep>
   <time name="dav">    1.78    1.79</time>
   <time name="total">    1.92    1.94</time>
   <energy>
    <i name="e_fr_energy">   -124.13869458 </i>
    <i name="e_wo_entrp">   -124.13263602 </i>
    <i name="e_0_energy">   -124.13566530 </i>
   </energy>
  </scstep>
  <scstep>
   <time name="dav">    2.19    2.21</time>
   <time name="total">    2.34    2.36</time>
   <energy>
    <i name="e_fr_energy">   -124.13869915 </i>
    <i name="e_wo_entrp">   -124.13264038 </i>
    <i name="e_0_energy">   -124.13566976 </i>
   </energy>
  </scstep>
  <scstep>
   <time name="dav">    2.21    2.22</time>
   <time name="total">    2.36    2.39</time>
   <energy>
    <i name="e_fr_energy">   -124.13870198 </i>
    <i name="e_wo_entrp">   -124.13264314 </i>
    <i name="e_0_energy">   -124.13567256 </i>
   </energy>
  </scstep>
  <scstep>
   <time name="dav">    1.86    1.87</time>
   <time name="total">    2.01    2.04</time>
   <energy>
    <i name="e_fr_energy">   -124.13870341 </i>
    <i name="e_wo_entrp">   -124.13264466 </i>
    <i name="e_0_energy">   -124.13567403 </i>
   </energy>
  </scstep>
  <scstep>
   <time name="dav">    2.40    2.42</time>
   <time name="total">    2.44    2.46</time>
   <energy>
    <i name="alphaZ">     60.59237790 </i>
    <i name="ewald">   1863.42545054 </i>
    <i name="hartreedc">  -3473.56132624 </i>
    <i name="XCdc">    168.44133647 </i>
    <i name="pawpsdc">   5835.57329079 </i>
    <i name="pawaedc">  -5834.96095558 </i>
    <i name="eentropy">     -0.00605863 </i>
    <i name="bandstr">   -490.14836137 </i>
    <i name="atom">   1746.50554237 </i>
    <i name="e_fr_energy">   -124.13870374 </i>
    <i name="e_wo_entrp">   -124.13264511 </i>
    <i name="e_0_energy">   -124.13567442 </i>
   </energy>
  </scstep>
  <structure>
   <crystal>
    <varray name="basis" >
     <v>       4.30761036       2.48700000       0.00000000 </v>
     <v>      -4.30761036       2.48700000       0.00000000 </v>
     <v>       0.00000000       0.00000000      15.00000000 </v>
    </varray>
    <i name="volume">    321.39080884 </i>
    <varray name="rec_basis" >
     <v>       0.11607364       0.20104544       0.00000000 </v>
     <v>      -0.11607364       0.20104544       0.00000000 </v>
     <v>       0.00000000       0.00000000       0.06666667 </v>
    </varray>
   </crystal>
   <varray name="positions" >
    <v>       0.66888689       0.00000000       0.10000000 </v>
    <v>       0.33111211       0.00000000       0.10000000 </v>
    <v>       0.00000000       0.33111211       0.10000000 </v>
    <v>       0.00000000       0.66888689       0.10000000 </v>
    <v>       0.33111211       0.33111211       0.10000000 </v>
    <v>       0.66888689       0.66888689       0.10000000 </v>
    <v>       0.66666600       0.33333300       0.09922189 </v>
    <v>       0.33333300       0.66666600       0.10077811 </v>
    <v>       0.33333267       0.16666633       0.47060000 </v>
    <v>       0.49999967       0.99999933       0.47060000 </v>
    <v>       0.33333267       0.66666633       0.47060000 </v>
    <v>       0.49999967       0.49999933       0.47060000 </v>
    <v>       0.83333267       0.16666633       0.47060000 </v>
    <v>       0.99999967       0.99999933       0.47060000 </v>
    <v>       0.83333267       0.66666633       0.47060000 </v>
    <v>       0.99999967       0.49999933       0.47060000 </v>
   </varray>
  </structure>
  <varray name="forces" >
   <v>       0.16288978       0.09404544       0.00800054 </v>
   <v>      -0.16289063      -0.09404397       0.00800054 </v>
   <v>       0.16288978      -0.09404544       0.00800054 </v>
   <v>      -0.16289063       0.09404397       0.00800054 </v>
   <v>       0.00000085      -0.18808941       0.00800054 </v>
   <v>       0.00000085       0.18808941       0.00800054 </v>
   <v>       0.00000000      -0.00000000       0.00634449 </v>
   <v>       0.00000000      -0.00000000       0.01142871 </v>
   <v>      -0.00027151      -0.00047027      -0.00813844 </v>
   <v>      -0.00010715       0.00018560      -0.00830185 </v>
   <v>       0.00000000      -0.00000000      -0.00850470 </v>
   <v>       0.00021431      -0.00000000      -0.00830185 </v>
   <v>       0.00054302      -0.00000000      -0.00813844 </v>
   <v>       0.00000000      -0.00000000      -0.00795087 </v>
   <v>      -0.00027151       0.00047027      -0.00813844 </v>
   <v>      -0.00010715      -0.00018560      -0.00830185 </v>
  </varray>
  <varray name="stress" >
   <v>       7.75937871       0.00000000      -0.00000000 </v>
   <v>       0.00000000       7.75937871       0.00000000 </v>
   <v>      -0.00000000       0.00000000      -3.61242747 </v>
  </varray>
  <energy>
   <i name="e_fr_energy">   -125.63011612 </i>
   <i name="e_wo_entrp">   -125.62405749 </i>
   <i name="e_0_energy">   -125.62708681 </i>
  </energy>
  <time name="totalsc">   58.29   59.00</time>
 </calculation>
 <calculation>
  <scstep>
   <time name="dav">    1.54    1.55</time>
   <time name="total">    1.69    1.72</time>
   <energy>
    <i name="alphaZ">     60.59237790 </i>
    <i name="ewald">   1862.30924151 </i>
    <i name="hartreedc">  -3473.20502994 </i>
    <i name="XCdc">    168.40330854 </i>
    <i name="pawpsdc">   5835.57377220 </i>
    <i name="pawaedc">  -5834.96144016 </i>
    <i name="eentropy">     -0.00605600 </i>
    <i name="bandstr">   -489.35484047 </i>
    <i name="atom">   1746.50554237 </i>
    <i name="e_fr_energy">   -124.14312404 </i>
    <i name="e_wo_entrp">   -124.13706805 </i>
    <i name="e_0_energy">   -124.14009604 </i>
   </energy>
  </scstep>
  <scstep>
   <time name="dav">    2.38    2.40</time>
   <time name="total">    2.53    2.56</time>
   <energy>
    <i name="e_fr_energy">   -124.13926855 </i>
    <i name="e_wo_entrp">   -124.13318161 </i>
    <i name="e_0_energy">   -124.13622508 </i>
   </energy>
  </scstep>
  <scstep>
   <time name="dav">    2.22    2.23</time>
   <time name="total">    2.37    2.39</time>
   <energy>
    <i name="e_fr_energy">   -124.13866186 </i>
    <i name="e_wo_entrp">   -124.13260764 </i>
    <i name="e_0_energy">   -124.13563475 </i>
   </energy>
  </scstep>
  <scstep>
   <time name="dav">    2.34    2.35</time>
   <time name="total">    2.48    2.51</time>
   <energy>
    <i name="e_fr_energy">   -124.13863965 </i>
    <i name="e_wo_entrp">   -124.13259652 </i>
    <i name="e_0_energy">   -124.13561809 </i>
   </energy>
  </scstep>
  <scstep>
   <time name="dav">    2.35    2.37</time>
   <time name="total">    2.50    2.52</time>
   <energy>
    <i name="e_fr_energy">   -124.13863920 </i>
    <i name="e_wo_entrp">   -124.13259355 </i>
    <i name="e_0_energy">   -124.13561637 </i>
   </energy>
  </scstep>
  <scstep>
   <time name="dav">    1.70    1.71</time>
   <time name="total">    1.85    1.87</time>
   <energy>
    <i name="e_fr_energy">   -124.13864048 </i>
    <i name="e_wo_entrp">   -124.13259470 </i>
    <i name="e_0_energy">   -124.13561759 </i>
   </energy>
  </scstep>
  <scstep>
   <time name="dav">    1.87    1.88</time>
   <time name="total">    2.02    2.04</time>
   <energy>
    <i name="e_fr_energy">   -124.13864201 </i>
    <i name="e_wo_entrp">   -124.13259688 </i>
    <i name="e_0_energy">   -124.13561944 </i>
   </energy>
  </scstep>
  <scstep>
   <time name="dav">    1.74    1.76</time>
   <time name="total">    1.89    1.91</time>
   <energy>
    <i name="e_fr_energy">   -124.13864427 </i>
    <i name="e_wo_entrp">   -124.13259999 </i>
    <i name="e_0_energy">   -124.13562213 </i>
   </energy>
  </scstep>
  <scstep>
   <time name="dav">    1.83    1.84</time>
   <time name="total">    1.97    2.00</time>
   <energy>
    <i name="e_fr_energy">   -124.13864615 </i>
    <i name="e_wo_entrp">   -124.13260188 </i>
    <i name="e_0_energy">   -124.13562402 </i>
   </energy>
  </scstep>
  <scstep>
   <time name="dav">    1.78    1.80</time>
   <time name="total">    1.82    1.83</time>
   <energy>
    <i name="alphaZ">     60.59237790 </i>
    <i name="ewald">   1862.30924151 </i>
    <i name="hartreedc">  -3472.53128612 </i>
    <i name="XCdc">    168.39047603 </i>
    <i name="pawpsdc">   5817.47606135 </i>
    <i name="pawaedc">  -5816.85818278 </i>
    <i name="eentropy">     -0.00604425 </i>
    <i name="bandstr">   -490.01683291 </i>
    <i name="atom">   1746.50554237 </i>
    <i name="e_fr_energy">   -124.13864691 </i>
    <i name="e_wo_entrp">   -124.13260266 </i>
    <i name="e_0_energy">   -124.13562478 </i>
   </energy>
  </scstep>
  <structure>
   <crystal>
    <varray name="basis" >
     <v>       4.30761036       2.48700000       0.00000000 </v>
     <v>      -4.30761036       2.48700000       0.00000000 </v>
     <v>       0.00000000       0.00000000      15.00000000 </v>
    </varray>
    <i name="volume">    321.39080884 </i>
    <varray name="rec_basis" >
     <v>       0.11607364       0.20104544       0.00000000 </v>
     <v>      -0.11607364       0.20104544       0.00000000 </v>
     <v>       0.00000000       0.00000000       0.06666667 </v>
    </varray>
   </crystal>
   <varray name="positions" >
    <v>       0.67071117       0.00000001       0.10002573 </v>
    <v>       0.32928784       0.00000001       0.10002573 </v>
    <v>      -0.00000001       0.32928783       0.10002573 </v>
    <v>      -0.00000001       0.67071116       0.10002573 </v>
    <v>       0.32928784       0.32928783       0.10002573 </v>
    <v>       0.67071117       0.67071116       0.10002573 </v>
    <v>       0.66666600       0.33333300       0.09924229 </v>
    <v>       0.33333300       0.66666600       0.10081487 </v>
    <v>       0.33332659       0.16666329       0.47057383 </v>
    <v>       0.50000087       0.00000173       0.47057330 </v>
    <v>       0.33333267       0.66666633       0.47057265 </v>
    <v>       0.50000087       0.49999813       0.47057330 </v>
    <v>       0.83333571       0.16666329       0.47057383 </v>
    <v>       0.99999967       0.99999933       0.47057443 </v>
    <v>       0.83333571       0.66667241       0.47057383 </v>
    <v>       0.99999727       0.49999813       0.47057330 </v>
   </varray>
  </structure>
  <varray name="forces" >
   <v>      -0.15679656      -0.09053205       0.00807934 </v>
   <v>       0.15680133       0.09052378       0.00807934 </v>
   <v>      -0.15679656       0.09053205       0.00807934 </v>
   <v>       0.15680133      -0.09052378       0.00807934 </v>
   <v>      -0.00000477       0.18105583       0.00807934 </v>
   <v>      -0.00000477      -0.18105583       0.00807934 </v>
   <v>       0.00000000      -0.00000000       0.00836503 </v>
   <v>      -0.00000000      -0.00000000       0.00896463 </v>
   <v>       0.00070577       0.00122244      -0.00817407 </v>
   <v>       0.00028242      -0.00048916      -0.00827528 </v>
   <v>       0.00000000      -0.00000000      -0.00836403 </v>
   <v>      -0.00056484       0.00000000      -0.00827528 </v>
   <v>      -0.00141155      -0.00000000      -0.00817407 </v>
   <v>       0.00000000       0.00000000      -0.00809360 </v>
   <v>       0.00070577      -0.00122244      -0.00817407 </v>
   <v>       0.00028242       0.00048916      -0.00827528 </v>
  </varray>
  <varray name="stress" >
   <v>       6.19722424       0.00000000       0.00000000 </v>
   <v>       0.00000000       6.19722424       0.00000000 </v>
   <v>       0.00000000       0.00000000      -3.61505657 </v>
  </varray>
  <energy>
   <i name="e_fr_energy">   -125.63031342 </i>
   <i name="e_wo_entrp">   -125.62426917 </i>
   <i name="e_0_energy">   -125.62729129 </i>
  </energy>
  <time name="totalsc">   22.63   22.89</time>
 </calculation>
 <calculation>
  <scstep>
   <time name="dav">    1.54    1.56</time>
   <time name="total">    1.69    1.72</time>
   <energy>
    <i name="alphaZ">     60.59237790 </i>
    <i name="ewald">   1862.84348108 </i>
    <i name="hartreedc">  -3472.69213558 </i>
    <i name="XCdc">    168.40874213 </i>
    <i name="pawpsdc">   5817.46646252 </i>
    <i name="pawaedc">  -5816.84858648 </i>
    <i name="eentropy">     -0.00594082 </i>
    <i name="bandstr">   -490.41219474 </i>
    <i name="atom">   1746.50554237 </i>
    <i name="e_fr_energy">   -124.14225164 </i>
    <i name="e_wo_entrp">   -124.13631082 </i>
    <i name="e_0_energy">   -124.13928123 </i>
   </energy>
  </scstep>
  <scstep>
   <time name="dav">    2.45    2.47</time>
   <time name="total">    2.60    2.63</time>
   <energy>
    <i name="e_fr_energy">   -124.14133508 </i>
    <i name="e_wo_entrp">   -124.13533787 </i>
    <i name="e_0_energy">   -124.13833647 </i>
   </energy>
  </scstep>
  <scstep>
   <time name="dav">    2.73    2.75</time>
   <time name="total">    2.87    2.90</time>
   <energy>
    <i name="e_fr_energy">   -124.14118971 </i>
    <i name="e_wo_entrp">   -124.13515750 </i>
    <i name="e_0_energy">   -124.13817361 </i>
   </energy>
  </scstep>
  <scstep>
   <time name="dav">    2.13    2.15</time>
   <time name="total">    2.28    2.31</time>
   <energy>
    <i name="e_fr_energy">   -124.14118464 </i>
    <i name="e_wo_entrp">   -124.13514959 </i>
    <i name="e_0_energy">   -124.13816711 </i>
   </energy>
  </scstep>
  <scstep>
   <time name="dav">    2.69    2.71</time>
   <time name="total">    2.73    2.74</time>
   <energy>
    <i name="alphaZ">     60.59237790 </i>
    <i name="ewald">   1862.84348108 </i>
    <i name="hartreedc">  -3473.00625976 </i>
    <i name="XCdc">    168.41484507 </i>
    <i name="pawpsdc">   5826.12990274 </i>
    <i name="pawaedc">  -5825.51463404 </i>
    <i name="eentropy">     -0.00603476 </i>
    <i name="bandstr">   -490.10040531 </i>
    <i name="atom">   1746.50554237 </i>
    <i name="e_fr_energy">   -124.14118471 </i>
    <i name="e_wo_entrp">   -124.13514995 </i>
    <i name="e_0_energy">   -124.13816733 </i>
   </energy>
  </scstep>
  <structure>
   <crystal>
    <varray name="basis" >
     <v>       4.30761036       2.48700000       0.00000000 </v>
     <v>      -4.30761036       2.48700000       0.00000000 </v>
     <v>       0.00000000       0.00000000      15.00000000 </v>
    </varray>
    <i name="volume">    321.39080884 </i>
    <varray name="rec_basis" >
     <v>       0.11607364       0.20104544       0.00000000 </v>
     <v>      -0.11607364       0.20104544       0.00000000 </v>
     <v>       0.00000000       0.00000000       0.06666667 </v>
    </varray>
   </crystal>
   <varray name="positions" >
    <v>       0.66981482       0.00000000       0.10001309 </v>
    <v>       0.33018419       0.00000000       0.10001309 </v>
    <v>      -0.00000000       0.33018418       0.10001309 </v>
    <v>      -0.00000000       0.66981481       0.10001309 </v>
    <v>       0.33018419       0.33018418       0.10001309 </v>
    <v>       0.66981482       0.66981481       0.10001309 </v>
    <v>       0.66666600       0.33333300       0.09923227 </v>
    <v>       0.33333300       0.66666600       0.10079681 </v>
    <v>       0.33332957       0.16666479       0.47058669 </v>
    <v>       0.50000028       0.00000055       0.47058642 </v>
    <v>       0.33333267       0.66666633       0.47058609 </v>
    <v>       0.50000028       0.49999872       0.47058642 </v>
    <v>       0.83333421       0.16666479       0.47058669 </v>
    <v>       0.99999967       0.99999933       0.47058699 </v>
    <v>       0.83333421       0.66666943       0.47058669 </v>
    <v>       0.99999845       0.49999872       0.47058642 </v>
   </varray>
  </structure>
  <varray name="forces" >
   <v>       0.00013213       0.00007341       0.00804223 </v>
   <v>      -0.00012964      -0.00007772       0.00804223 </v>
   <v>       0.00013213      -0.00007341       0.00804223 </v>
   <v>      -0.00012964       0.00007772       0.00804223 </v>
   <v>      -0.00000249      -0.00015113       0.00804223 </v>
   <v>      -0.00000249       0.00015113       0.00804223 </v>
   <v>       0.00000000       0.00000000       0.00736445 </v>
   <v>       0.00000000       0.00000000       0.01014446 </v>
   <v>       0.00022482       0.00038940      -0.00815264 </v>
   <v>       0.00009066      -0.00015703      -0.00828510 </v>
   <v>       0.00000000      -0.00000000      -0.00843036 </v>
   <v>      -0.00018132       0.00000000      -0.00828510 </v>
   <v>      -0.00044964       0.00000000      -0.00815264 </v>
   <v>      -0.00000000       0.00000000      -0.00801872 </v>
   <v>       0.00022482      -0.00038940      -0.00815264 </v>
   <v>       0.00009066       0.00015703      -0.00828510 </v>
  </varray>
  <varray name="stress" >
   <v>       6.91440109       0.00000000      -0.00000000 </v>
   <v>       0.00000000       6.91440109       0.00000000 </v>
   <v>       0.00000000       0.00000000      -3.60536630 </v>
  </varray>
  <energy>
   <i name="e_fr_energy">   -125.63272749 </i>
   <i name="e_wo_entrp">   -125.62669273 </i>
   <i name="e_0_energy">   -125.62971011 </i>
  </energy>
  <time name="totalsc">   13.68   13.83</time>
 </calculation>
 <calculation>
  <scstep>
   <time name="dav">    1.66    1.67</time>
   <time name="total">    1.80    1.82</time>
   <energy>
    <i name="alphaZ">     60.59237790 </i>
    <i name="ewald">   1862.84010749 </i>
    <i name="hartreedc">  -3473.00723906 </i>
    <i name="XCdc">    168.41465400 </i>
    <i name="pawpsdc">   5826.19230197 </i>
    <i name="pawaedc">  -5825.57702932 </i>
    <i name="eentropy">     -0.00603493 </i>
    <i name="bandstr">   -490.09586443 </i>
    <i name="atom">   1746.50554237 </i>
    <i name="e_fr_energy">   -124.14118401 </i>
    <i name="e_wo_entrp">   -124.13514908 </i>
    <i name="e_0_energy">   -124.13816654 </i>
   </energy>
  </scstep>
  <scstep>
   <time name="dav">    2.04    2.05</time>
   <time name="total">    2.07    2.08</time>
   <energy>
    <i name="alphaZ">     60.59237790 </i>
    <i name="ewald">   1862.84010749 </i>
    <i name="hartreedc">  -3473.00857834 </i>
    <i name="XCdc">    168.41466769 </i>
    <i name="pawpsdc">   5826.15715811 </i>
    <i name="pawaedc">  -5825.54188195 </i>
    <i name="eentropy">     -0.00603506 </i>
    <i name="bandstr">   -490.09454231 </i>
    <i name="atom">   1746.50554237 </i>
    <i name="e_fr_energy">   -124.14118409 </i>
    <i name="e_wo_entrp">   -124.13514903 </i>
    <i name="e_0_energy">   -124.13816656 </i>
   </energy>
  </scstep>
  <structure>
   <crystal>
    <varray name="basis" >
     <v>       4.30761036       2.48700000       0.00000000 </v>
     <v>      -4.30761036       2.48700000       0.00000000 </v>
     <v>       0.00000000       0.00000000      15.00000000 </v>
    </varray>
    <i name="volume">    321.39080884 </i>
    <varray name="rec_basis" >
     <v>       0.11607364       0.20104544       0.00000000 </v>
     <v>      -0.11607364       0.20104544       0.00000000 </v>
     <v>       0.00000000       0.00000000       0.06666667 </v>
    </varray>
   </crystal>
   <varray name="positions" >
    <v>       0.66982034       0.00000000       0.10001317 </v>
    <v>       0.33017867       0.00000000       0.10001317 </v>
    <v>      -0.00000000       0.33017866       0.10001317 </v>
    <v>      -0.00000000       0.66982033       0.10001317 </v>
    <v>       0.33017867       0.33017866       0.10001317 </v>
    <v>       0.66982034       0.66982033       0.10001317 </v>
    <v>       0.66666600       0.33333300       0.09923233 </v>
    <v>       0.33333300       0.66666600       0.10079692 </v>
    <v>       0.33332955       0.16666478       0.47058661 </v>
    <v>       0.50000028       0.00000056       0.47058634 </v>
    <v>       0.33333267       0.66666633       0.47058600 </v>
    <v>       0.50000028       0.49999872       0.47058634 </v>
    <v>       0.83333422       0.16666478       0.47058661 </v>
    <v>       0.99999967       0.99999933       0.47058692 </v>
    <v>       0.83333422       0.66666945       0.47058661 </v>
    <v>       0.99999844       0.49999872       0.47058634 </v>
   </varray>
  </structure>
  <varray name="forces" >
   <v>      -0.00149335      -0.00086417       0.00803547 </v>
   <v>       0.00149507       0.00086119       0.00803547 </v>
   <v>      -0.00149335       0.00086417       0.00803547 </v>
   <v>       0.00149507      -0.00086119       0.00803547 </v>
   <v>      -0.00000172       0.00172537       0.00803547 </v>
   <v>      -0.00000172      -0.00172537       0.00803547 </v>
   <v>       0.00000000       0.00000000       0.00737638 </v>
   <v>       0.00000000       0.00000000       0.01012727 </v>
   <v>       0.00022882       0.00039633      -0.00814736 </v>
   <v>       0.00009227      -0.00015981      -0.00827876 </v>
   <v>       0.00000000       0.00000000      -0.00842320 </v>
   <v>      -0.00018454       0.00000000      -0.00827876 </v>
   <v>      -0.00045764       0.00000000      -0.00814736 </v>
   <v>       0.00000000       0.00000000      -0.00801486 </v>
   <v>       0.00022882      -0.00039633      -0.00814736 </v>
   <v>       0.00009227       0.00015981      -0.00827876 </v>
  </varray>
  <varray name="stress" >
   <v>       6.91434101       0.00000000       0.00000000 </v>
   <v>       0.00000000       6.91434101       0.00000000 </v>
   <v>       0.00000000       0.00000000      -3.60728447 </v>
  </varray>
  <energy>
   <i name="e_fr_energy">   -125.63272764 </i>
   <i name="e_wo_entrp">   -125.62669258 </i>
   <i name="e_0_energy">   -125.62971011 </i>
  </energy>
  <time name="totalsc">    5.37    5.43</time>
 </calculation>
 <calculation>
  <scstep>
   <time name="dav">    1.66    1.67</time>
   <time name="total">    1.80    1.83</time>
   <energy>
    <i name="alphaZ">     60.59237790 </i>
    <i name="ewald">   1862.84147567 </i>
    <i name="hartreedc">  -3473.01084835 </i>
    <i name="XCdc">    168.41473832 </i>
    <i name="pawpsdc">   5826.13128611 </i>
    <i name="pawaedc">  -5825.51600674 </i>
    <i name="eentropy">     -0.00603487 </i>
    <i name="bandstr">   -490.09371502 </i>
    <i name="atom">   1746.50554237 </i>
    <i name="e_fr_energy">   -124.14118461 </i>
    <i name="e_wo_entrp">   -124.13514973 </i>
    <i name="e_0_energy">   -124.13816717 </i>
   </energy>
  </scstep>
  <scstep>
   <time name="dav">    2.09    2.10</time>
   <time name="total">    2.12    2.14</time>
   <energy>
    <i name="alphaZ">     60.59237790 </i>
    <i name="ewald">   1862.84147567 </i>
    <i name="hartreedc">  -3473.01259781 </i>
    <i name="XCdc">    168.41476782 </i>
    <i name="pawpsdc">   5826.13246823 </i>
    <i name="pawaedc">  -5825.51719119 </i>
    <i name="eentropy">     -0.00603502 </i>
    <i name="bandstr">   -490.09199265 </i>
    <i name="atom">   1746.50554237 </i>
    <i name="e_fr_energy">   -124.14118469 </i>
    <i name="e_wo_entrp">   -124.13514967 </i>
    <i name="e_0_energy">   -124.13816718 </i>
   </energy>
  </scstep>
  <structure>
   <crystal>
    <varray name="basis" >
     <v>       4.30761036       2.48700000       0.00000000 </v>
     <v>      -4.30761036       2.48700000       0.00000000 </v>
     <v>       0.00000000       0.00000000      15.00000000 </v>
    </varray>
    <i name="volume">    321.39080884 </i>
    <varray name="rec_basis" >
     <v>       0.11607364       0.20104544       0.00000000 </v>
     <v>      -0.11607364       0.20104544       0.00000000 </v>
     <v>       0.00000000       0.00000000       0.06666667 </v>
    </varray>
   </crystal>
   <varray name="positions" >
    <v>       0.66981810       0.00000000       0.10001313 </v>
    <v>       0.33018091       0.00000000       0.10001313 </v>
    <v>      -0.00000000       0.33018090       0.10001313 </v>
    <v>      -0.00000000       0.66981809       0.10001313 </v>
    <v>       0.33018091       0.33018090       0.10001313 </v>
    <v>       0.66981810       0.66981809       0.10001313 </v>
    <v>       0.66666600       0.33333300       0.09923230 </v>
    <v>       0.33333300       0.66666600       0.10079688 </v>
    <v>       0.33332956       0.16666478       0.47058664 </v>
    <v>       0.50000028       0.00000056       0.47058637 </v>
    <v>       0.33333267       0.66666633       0.47058604 </v>
    <v>       0.50000028       0.49999872       0.47058637 </v>
    <v>       0.83333422       0.16666478       0.47058664 </v>
    <v>       0.99999967       0.99999933       0.47058695 </v>
    <v>       0.83333422       0.66666944       0.47058664 </v>
    <v>       0.99999844       0.49999872       0.47058637 </v>
   </varray>
  </structure>
  <varray name="forces" >
   <v>      -0.00134211      -0.00077699       0.00803398 </v>
   <v>       0.00134395       0.00077381       0.00803398 </v>
   <v>      -0.00134211       0.00077699       0.00803398 </v>
   <v>       0.00134395      -0.00077381       0.00803398 </v>
   <v>      -0.00000184       0.00155080       0.00803398 </v>
   <v>      -0.00000184      -0.00155080       0.00803398 </v>
   <v>      -0.00000000      -0.00000000       0.00738170 </v>
   <v>      -0.00000000      -0.00000000       0.01013255 </v>
   <v>       0.00022742       0.00039391      -0.00814750 </v>
   <v>       0.00009166      -0.00015876      -0.00827912 </v>
   <v>       0.00000000      -0.00000000      -0.00842373 </v>
   <v>      -0.00018333      -0.00000000      -0.00827912 </v>
   <v>      -0.00045485       0.00000000      -0.00814750 </v>
   <v>       0.00000000      -0.00000000      -0.00801454 </v>
   <v>       0.00022742      -0.00039391      -0.00814750 </v>
   <v>       0.00009166       0.00015876      -0.00827912 </v>
  </varray>
  <varray name="stress" >
   <v>       6.91635184       0.00000000       0.00000000 </v>
   <v>       0.00000000       6.91635184       0.00000000 </v>
   <v>      -0.00000000       0.00000000      -3.60629901 </v>
  </varray>
  <energy>
   <i name="e_fr_energy">   -125.63272793 </i>
   <i name="e_wo_entrp">   -125.62669291 </i>
   <i name="e_0_energy">   -125.62971042 </i>
  </energy>
  <time name="totalsc">    5.42    5.48</time>
 </calculation>
 <calculation>
  <scstep>
   <time name="dav">    1.76    1.77</time>
   <time name="total">    1.90    1.93</time>
   <energy>
    <i name="alphaZ">     60.59237790 </i>
    <i name="ewald">   1862.84247833 </i>
    <i name="hartreedc">  -3473.01445263 </i>
    <i name="XCdc">    168.41482385 </i>
    <i name="pawpsdc">   5826.13086966 </i>
    <i name="pawaedc">  -5825.51559371 </i>
    <i name="eentropy">     -0.00603497 </i>
    <i name="bandstr">   -490.09119581 </i>
    <i name="atom">   1746.50554237 </i>
    <i name="e_fr_energy">   -124.14118503 </i>
    <i name="e_wo_entrp">   -124.13515005 </i>
    <i name="e_0_energy">   -124.13816754 </i>
   </energy>
  </scstep>
  <scstep>
   <time name="dav">    2.14    2.15</time>
   <time name="total">    2.17    2.19</time>
   <energy>
    <i name="alphaZ">     60.59237790 </i>
    <i name="ewald">   1862.84247833 </i>
    <i name="hartreedc">  -3473.01573823 </i>
    <i name="XCdc">    168.41484395 </i>
    <i name="pawpsdc">   5826.13738296 </i>
    <i name="pawaedc">  -5825.52210943 </i>
    <i name="eentropy">     -0.00603510 </i>
    <i name="bandstr">   -490.08992782 </i>
    <i name="atom">   1746.50554237 </i>
    <i name="e_fr_energy">   -124.14118508 </i>
    <i name="e_wo_entrp">   -124.13514998 </i>
    <i name="e_0_energy">   -124.13816753 </i>
   </energy>
  </scstep>
  <structure>
   <crystal>
    <varray name="basis" >
     <v>       4.30761036       2.48700000       0.00000000 </v>
     <v>      -4.30761036       2.48700000       0.00000000 </v>
     <v>       0.00000000       0.00000000      15.00000000 </v>
    </varray>
    <i name="volume">    321.39080884 </i>
    <varray name="rec_basis" >
     <v>       0.11607364       0.20104544       0.00000000 </v>
     <v>      -0.11607364       0.20104544       0.00000000 </v>
     <v>       0.00000000       0.00000000       0.06666667 </v>
    </varray>
   </crystal>
   <varray name="positions" >
    <v>       0.66981646       0.00000000       0.10001311 </v>
    <v>       0.33018255       0.00000000       0.10001311 </v>
    <v>      -0.00000000       0.33018254       0.10001311 </v>
    <v>      -0.00000000       0.66981645       0.10001311 </v>
    <v>       0.33018255       0.33018254       0.10001311 </v>
    <v>       0.66981646       0.66981645       0.10001311 </v>
    <v>       0.66666600       0.33333300       0.09923228 </v>
    <v>       0.33333300       0.66666600       0.10079684 </v>
    <v>       0.33332957       0.16666478       0.47058666 </v>
    <v>       0.50000028       0.00000056       0.47058639 </v>
    <v>       0.33333267       0.66666633       0.47058606 </v>
    <v>       0.50000028       0.49999872       0.47058639 </v>
    <v>       0.83333422       0.16666478       0.47058666 </v>
    <v>       0.99999967       0.99999933       0.47058697 </v>
    <v>       0.83333422       0.66666943       0.47058666 </v>
    <v>       0.99999844       0.49999872       0.47058639 </v>
   </varray>
  </structure>
  <varray name="forces" >
   <v>      -0.00105205      -0.00060959       0.00803454 </v>
   <v>       0.00105394       0.00060630       0.00803454 </v>
   <v>      -0.00105205       0.00060959       0.00803454 </v>
   <v>       0.00105394      -0.00060630       0.00803454 </v>
   <v>      -0.00000190       0.00121589       0.00803454 </v>
   <v>      -0.00000190      -0.00121589       0.00803454 </v>
   <v>      -0.00000000       0.00000000       0.00738316 </v>
   <v>       0.00000000      -0.00000000       0.01013851 </v>
   <v>       0.00022654       0.00039237      -0.00814878 </v>
   <v>       0.00009131      -0.00015816      -0.00828054 </v>
   <v>      -0.00000000      -0.00000000      -0.00842527 </v>
   <v>      -0.00018262      -0.00000000      -0.00828054 </v>
   <v>      -0.00045307       0.00000000      -0.00814878 </v>
   <v>      -0.00000000      -0.00000000      -0.00801568 </v>
   <v>       0.00022654      -0.00039237      -0.00814878 </v>
   <v>       0.00009131       0.00015816      -0.00828054 </v>
  </varray>
  <varray name="stress" >
   <v>       6.91779709       0.00000000       0.00000000 </v>
   <v>       0.00000000       6.91779709       0.00000000 </v>
   <v>      -0.00000000       0.00000000      -3.60818028 </v>
  </varray>
  <energy>
   <i name="e_fr_energy">   -125.63272808 </i>
   <i name="e_wo_entrp">   -125.62669298 </i>
   <i name="e_0_energy">   -125.62971053 </i>
  </energy>
  <time name="totalsc">    5.58    5.64</time>
 </calculation>
 <calculation>
  <scstep>
   <time name="dav">    1.76    1.77</time>
   <time name="total">    1.90    1.92</time>
   <energy>
    <i name="alphaZ">     60.59237790 </i>
    <i name="ewald">   1862.84297969 </i>
    <i name="hartreedc">  -3473.01726134 </i>
    <i name="XCdc">    168.41487858 </i>
    <i name="pawpsdc">   5826.14160629 </i>
    <i name="pawaedc">  -5825.52633415 </i>
    <i name="eentropy">     -0.00603512 </i>
    <i name="bandstr">   -490.08893948 </i>
    <i name="atom">   1746.50554237 </i>
    <i name="e_fr_energy">   -124.14118525 </i>
    <i name="e_wo_entrp">   -124.13515013 </i>
    <i name="e_0_energy">   -124.13816769 </i>
   </energy>
  </scstep>
  <scstep>
   <time name="dav">    2.39    2.40</time>
   <time name="total">    2.42    2.44</time>
   <energy>
    <i name="alphaZ">     60.59237790 </i>
    <i name="ewald">   1862.84297969 </i>
    <i name="hartreedc">  -3473.01804546 </i>
    <i name="XCdc">    168.41488919 </i>
    <i name="pawpsdc">   5826.14616006 </i>
    <i name="pawaedc">  -5825.53088906 </i>
    <i name="eentropy">     -0.00603518 </i>
    <i name="bandstr">   -490.08816480 </i>
    <i name="atom">   1746.50554237 </i>
    <i name="e_fr_energy">   -124.14118528 </i>
    <i name="e_wo_entrp">   -124.13515010 </i>
    <i name="e_0_energy">   -124.13816769 </i>
   </energy>
  </scstep>
  <structure>
   <crystal>
    <varray name="basis" >
     <v>       4.30761036       2.48700000       0.00000000 </v>
     <v>      -4.30761036       2.48700000       0.00000000 </v>
     <v>       0.00000000       0.00000000      15.00000000 </v>
    </varray>
    <i name="volume">    321.39080884 </i>
    <varray name="rec_basis" >
     <v>       0.11607364       0.20104544       0.00000000 </v>
     <v>      -0.11607364       0.20104544       0.00000000 </v>
     <v>       0.00000000       0.00000000       0.06666667 </v>
    </varray>
   </crystal>
   <varray name="positions" >
    <v>       0.66981564       0.00000000       0.10001310 </v>
    <v>       0.33018337       0.00000000       0.10001310 </v>
    <v>      -0.00000000       0.33018336       0.10001310 </v>
    <v>      -0.00000000       0.66981563       0.10001310 </v>
    <v>       0.33018337       0.33018336       0.10001310 </v>
    <v>       0.66981564       0.66981563       0.10001310 </v>
    <v>       0.66666600       0.33333300       0.09923228 </v>
    <v>       0.33333300       0.66666600       0.10079683 </v>
    <v>       0.33332957       0.16666479       0.47058667 </v>
    <v>       0.50000028       0.00000056       0.47058641 </v>
    <v>       0.33333267       0.66666633       0.47058607 </v>
    <v>       0.50000028       0.49999872       0.47058641 </v>
    <v>       0.83333421       0.16666479       0.47058667 </v>
    <v>       0.99999967       0.99999933       0.47058698 </v>
    <v>       0.83333421       0.66666943       0.47058667 </v>
    <v>       0.99999844       0.49999872       0.47058641 </v>
   </varray>
  </structure>
  <varray name="forces" >
   <v>      -0.00087929      -0.00050987       0.00803577 </v>
   <v>       0.00088121       0.00050656       0.00803577 </v>
   <v>      -0.00087929       0.00050987       0.00803577 </v>
   <v>       0.00088121      -0.00050656       0.00803577 </v>
   <v>      -0.00000191       0.00101643       0.00803577 </v>
   <v>      -0.00000191      -0.00101643       0.00803577 </v>
   <v>      -0.00000000      -0.00000000       0.00738434 </v>
   <v>      -0.00000000       0.00000000       0.01014201 </v>
   <v>       0.00022610       0.00039161      -0.00815026 </v>
   <v>       0.00009114      -0.00015786      -0.00828208 </v>
   <v>      -0.00000000       0.00000000      -0.00842691 </v>
   <v>      -0.00018228       0.00000000      -0.00828208 </v>
   <v>      -0.00045219      -0.00000000      -0.00815026 </v>
   <v>       0.00000000       0.00000000      -0.00801704 </v>
   <v>       0.00022610      -0.00039161      -0.00815026 </v>
   <v>       0.00009114       0.00015786      -0.00828208 </v>
  </varray>
  <varray name="stress" >
   <v>       6.91858554       0.00000000       0.00000000 </v>
   <v>       0.00000000       6.91858554       0.00000000 </v>
   <v>      -0.00000000       0.00000000      -3.61001054 </v>
  </varray>
  <energy>
   <i name="e_fr_energy">   -125.63272817 </i>
   <i name="e_wo_entrp">   -125.62669299 </i>
   <i name="e_0_energy">   -125.62971058 </i>
  </energy>
  <time name="totalsc">    5.81    5.87</time>
 </calculation>
 <calculation>
  <scstep>
   <time name="dav">    1.54    1.55</time>
   <time name="total">    1.69    1.71</time>
   <energy>
    <i name="alphaZ">     60.59237790 </i>
    <i name="ewald">   1863.44631539 </i>
    <i name="hartreedc">  -3473.62221795 </i>
    <i name="XCdc">    168.41489693 </i>
    <i name="pawpsdc">   5826.14916894 </i>
    <i name="pawaedc">  -5825.53389852 </i>
    <i name="eentropy">     -0.00603525 </i>
    <i name="bandstr">   -490.08734134 </i>
    <i name="atom">   1746.50554237 </i>
    <i name="e_fr_energy">   -124.14119154 </i>
    <i name="e_wo_entrp">   -124.13515629 </i>
    <i name="e_0_energy">   -124.13817391 </i>
   </energy>
  </scstep>
  <scstep>
   <time name="dav">    1.70    1.71</time>
   <time name="total">    1.84    1.86</time>
   <energy>
    <i name="e_fr_energy">   -124.14119055 </i>
    <i name="e_wo_entrp">   -124.13515504 </i>
    <i name="e_0_energy">   -124.13817280 </i>
   </energy>
  </scstep>
  <scstep>
   <time name="dav">    1.82    1.83</time>
   <time name="total">    1.85    1.86</time>
   <energy>
    <i name="alphaZ">     60.59237790 </i>
    <i name="ewald">   1863.44631539 </i>
    <i name="hartreedc">  -3473.63090059 </i>
    <i name="XCdc">    168.41492348 </i>
    <i name="pawpsdc">   5826.14192480 </i>
    <i name="pawaedc">  -5825.52665208 </i>
    <i name="eentropy">     -0.00603533 </i>
    <i name="bandstr">   -490.07868583 </i>
    <i name="atom">   1746.50554237 </i>
    <i name="e_fr_energy">   -124.14118990 </i>
    <i name="e_wo_entrp">   -124.13515457 </i>
    <i name="e_0_energy">   -124.13817224 </i>
   </energy>
  </scstep>
  <structure>
   <crystal>
    <varray name="basis" >
     <v>       4.30761036       2.48700000       0.00000000 </v>
     <v>      -4.30761036       2.48700000       0.00000000 </v>
     <v>       0.00000000       0.00000000      15.00000000 </v>
    </varray>
    <i name="volume">    321.39080884 </i>
    <varray name="rec_basis" >
     <v>       0.11607364       0.20104544       0.00000000 </v>
     <v>      -0.11607364       0.20104544       0.00000000 </v>
     <v>       0.00000000       0.00000000       0.06666667 </v>
    </varray>
   </crystal>
   <varray name="positions" >
    <v>       0.66981561      -0.00000001       0.10003653 </v>
    <v>       0.33018338      -0.00000001       0.10003653 </v>
    <v>       0.00000001       0.33018339       0.10003653 </v>
    <v>       0.00000001       0.66981562       0.10003653 </v>
    <v>       0.33018338       0.33018339       0.10003653 </v>
    <v>       0.66981561       0.66981562       0.10003653 </v>
    <v>       0.66666600       0.33333300       0.09925379 </v>
    <v>       0.33333300       0.66666600       0.10082642 </v>
    <v>       0.33333411       0.16666705       0.47056291 </v>
    <v>       0.49999936      -0.00000127       0.47056226 </v>
    <v>       0.33333267       0.66666633       0.47056150 </v>
    <v>       0.49999936       0.49999964       0.47056226 </v>
    <v>       0.83333195       0.16666705       0.47056291 </v>
    <v>       0.99999967       0.99999933       0.47056360 </v>
    <v>       0.83333195       0.66666489       0.47056291 </v>
    <v>       0.00000027       0.49999964       0.47056226 </v>
   </varray>
  </structure>
  <varray name="forces" >
   <v>      -0.00085009      -0.00049309       0.00775822 </v>
   <v>       0.00085208       0.00048965       0.00775822 </v>
   <v>      -0.00085009       0.00049309       0.00775822 </v>
   <v>       0.00085208      -0.00048965       0.00775822 </v>
   <v>      -0.00000199       0.00098275       0.00775822 </v>
   <v>      -0.00000199      -0.00098275       0.00775822 </v>
   <v>      -0.00000000       0.00000000       0.00709821 </v>
   <v>      -0.00000000       0.00000000       0.00988400 </v>
   <v>      -0.00053226      -0.00092190      -0.00790436 </v>
   <v>      -0.00021142       0.00036619      -0.00797945 </v>
   <v>       0.00000000      -0.00000000      -0.00805125 </v>
   <v>       0.00042284       0.00000000      -0.00797945 </v>
   <v>       0.00106452       0.00000000      -0.00790436 </v>
   <v>      -0.00000000       0.00000000      -0.00782882 </v>
   <v>      -0.00053226       0.00092190      -0.00790436 </v>
   <v>      -0.00021142      -0.00036619      -0.00797945 </v>
  </varray>
  <varray name="stress" >
   <v>       6.91836930       0.00000000       0.00000000 </v>
   <v>       0.00000000       6.91836930       0.00000000 </v>
   <v>       0.00000000       0.00000000      -3.61465029 </v>
  </varray>
  <energy>
   <i name="e_fr_energy">   -125.63277560 </i>
   <i name="e_wo_entrp">   -125.62674026 </i>
   <i name="e_0_energy">   -125.62975793 </i>
  </energy>
  <time name="totalsc">    6.87    6.95</time>
 </calculation>
 <calculation>
  <scstep>
   <time name="dav">    1.49    1.50</time>
   <time name="total">    1.64    1.66</time>
   <energy>
    <i name="alphaZ">     60.59237790 </i>
    <i name="ewald">   1865.25765331 </i>
    <i name="hartreedc">  -3475.44032166 </i>
    <i name="XCdc">    168.41491518 </i>
    <i name="pawpsdc">   5826.14556576 </i>
    <i name="pawaedc">  -5825.53029273 </i>
    <i name="eentropy">     -0.00603536 </i>
    <i name="bandstr">   -490.08062226 </i>
    <i name="atom">   1746.50554237 </i>
    <i name="e_fr_energy">   -124.14121749 </i>
    <i name="e_wo_entrp">   -124.13518213 </i>
    <i name="e_0_energy">   -124.13819981 </i>
   </energy>
  </scstep>
  <scstep>
   <time name="dav">    1.64    1.65</time>
   <time name="total">    1.78    1.80</time>
   <energy>
    <i name="e_fr_energy">   -124.14120806 </i>
    <i name="e_wo_entrp">   -124.13517197 </i>
    <i name="e_0_energy">   -124.13819002 </i>
   </energy>
  </scstep>
  <scstep>
   <time name="dav">    1.97    1.99</time>
   <time name="total">    2.12    2.15</time>
   <energy>
    <i name="e_fr_energy">   -124.14120240 </i>
    <i name="e_wo_entrp">   -124.13516685 </i>
    <i name="e_0_energy">   -124.13818463 </i>
   </energy>
  </scstep>
  <scstep>
   <time name="dav">    1.80    1.81</time>
   <time name="total">    1.83    1.84</time>
   <energy>
    <i name="alphaZ">     60.59237790 </i>
    <i name="ewald">   1865.25765331 </i>
    <i name="hartreedc">  -3475.45503329 </i>
    <i name="XCdc">    168.41496115 </i>
    <i name="pawpsdc">   5826.13614719 </i>
    <i name="pawaedc">  -5825.52086848 </i>
    <i name="eentropy">     -0.00603534 </i>
    <i name="bandstr">   -490.06594761 </i>
    <i name="atom">   1746.50554237 </i>
    <i name="e_fr_energy">   -124.14120281 </i>
    <i name="e_wo_entrp">   -124.13516746 </i>
    <i name="e_0_energy">   -124.13818514 </i>
   </energy>
  </scstep>
  <structure>
   <crystal>
    <varray name="basis" >
     <v>       4.30761036       2.48700000       0.00000000 </v>
     <v>      -4.30761036       2.48700000       0.00000000 </v>
     <v>       0.00000000       0.00000000      15.00000000 </v>
    </varray>
    <i name="volume">    321.39080884 </i>
    <varray name="rec_basis" >
     <v>       0.11607364       0.20104544       0.00000000 </v>
     <v>      -0.11607364       0.20104544       0.00000000 </v>
     <v>       0.00000000       0.00000000       0.06666667 </v>
    </varray>
   </crystal>
   <varray name="positions" >
    <v>       0.66981553      -0.00000007       0.10010683 </v>
    <v>       0.33018340      -0.00000007       0.10010683 </v>
    <v>       0.00000007       0.33018347       0.10010683 </v>
    <v>       0.00000007       0.66981560       0.10010683 </v>
    <v>       0.33018340       0.33018347       0.10010683 </v>
    <v>       0.66981553       0.66981560       0.10010683 </v>
    <v>       0.66666600       0.33333300       0.09931834 </v>
    <v>       0.33333300       0.66666600       0.10091521 </v>
    <v>       0.33334772       0.16667386       0.47049161 </v>
    <v>       0.49999662      -0.00000676       0.47048980 </v>
    <v>       0.33333267       0.66666633       0.47048778 </v>
    <v>       0.49999662       0.50000238       0.47048980 </v>
    <v>       0.83332514       0.16667386       0.47049161 </v>
    <v>       0.99999967       0.99999933       0.47049347 </v>
    <v>       0.83332514       0.66665128       0.47049161 </v>
    <v>       0.00000576       0.50000238       0.47048980 </v>
   </varray>
  </structure>
  <varray name="forces" >
   <v>      -0.00085431      -0.00050231       0.00809450 </v>
   <v>       0.00086217       0.00048870       0.00809450 </v>
   <v>      -0.00085431       0.00050231       0.00809450 </v>
   <v>       0.00086217      -0.00048870       0.00809450 </v>
   <v>      -0.00000786       0.00099101       0.00809450 </v>
   <v>      -0.00000786      -0.00099101       0.00809450 </v>
   <v>      -0.00000000      -0.00000000       0.00725171 </v>
   <v>      -0.00000000      -0.00000000       0.01008854 </v>
   <v>      -0.00272414      -0.00471835      -0.00828463 </v>
   <v>      -0.00110584       0.00191537      -0.00820067 </v>
   <v>      -0.00000000      -0.00000000      -0.00806772 </v>
   <v>       0.00221168      -0.00000000      -0.00820067 </v>
   <v>       0.00544829       0.00000000      -0.00828463 </v>
   <v>      -0.00000000      -0.00000000      -0.00838361 </v>
   <v>      -0.00272414       0.00471835      -0.00828463 </v>
   <v>      -0.00110584      -0.00191537      -0.00820067 </v>
  </varray>
  <varray name="stress" >
   <v>       6.91785464       0.00000000       0.00000000 </v>
   <v>       0.00000000       6.91785464       0.00000000 </v>
   <v>       0.00000000       0.00000000      -3.61909733 </v>
  </varray>
  <energy>
   <i name="e_fr_energy">   -125.63291759 </i>
   <i name="e_wo_entrp">   -125.62688225 </i>
   <i name="e_0_energy">   -125.62989992 </i>
  </energy>
  <time name="totalsc">    8.87    8.98</time>
 </calculation>
 <calculation>
  <scstep>
   <time name="dav">    1.49    1.50</time>
   <time name="total">    1.64    1.66</time>
   <energy>
    <i name="alphaZ">     60.59237790 </i>
    <i name="ewald">   1868.88631793 </i>
    <i name="hartreedc">  -3479.07756437 </i>
    <i name="XCdc">    168.41494717 </i>
    <i name="pawpsdc">   5826.13981252 </i>
    <i name="pawaedc">  -5825.52453614 </i>
    <i name="eentropy">     -0.00603547 </i>
    <i name="bandstr">   -490.07214543 </i>
    <i name="atom">   1746.50554237 </i>
    <i name="e_fr_energy">   -124.14128352 </i>
    <i name="e_wo_entrp">   -124.13524805 </i>
    <i name="e_0_energy">   -124.13826578 </i>
   </energy>
  </scstep>
  <scstep>
   <time name="dav">    1.61    1.61</time>
   <time name="total">    1.75    1.77</time>
   <energy>
    <i name="e_fr_energy">   -124.14124955 </i>
    <i name="e_wo_entrp">   -124.13521263 </i>
    <i name="e_0_energy">   -124.13823109 </i>
   </energy>
  </scstep>
  <scstep>
   <time name="dav">    2.13    2.14</time>
   <time name="total">    2.27    2.29</time>
   <energy>
    <i name="e_fr_energy">   -124.14122294 </i>
    <i name="e_wo_entrp">   -124.13518707 </i>
    <i name="e_0_energy">   -124.13820500 </i>
   </energy>
  </scstep>
  <scstep>
   <time name="dav">    1.94    1.95</time>
   <time name="total">    2.08    2.10</time>
   <energy>
    <i name="e_fr_energy">   -124.14122418 </i>
    <i name="e_wo_entrp">   -124.13518874 </i>
    <i name="e_0_energy">   -124.13820646 </i>
   </energy>
  </scstep>
  <scstep>
   <time name="dav">    1.64    1.66</time>
   <time name="total">    1.68    1.69</time>
   <energy>
    <i name="alphaZ">     60.59237790 </i>
    <i name="ewald">   1868.88631793 </i>
    <i name="hartreedc">  -3479.09341237 </i>
    <i name="XCdc">    168.41501568 </i>
    <i name="pawpsdc">   5826.13060598 </i>
    <i name="pawaedc">  -5825.51532325 </i>
    <i name="eentropy">     -0.00603535 </i>
    <i name="bandstr">   -490.05631371 </i>
    <i name="atom">   1746.50554237 </i>
    <i name="e_fr_energy">   -124.14122483 </i>
    <i name="e_wo_entrp">   -124.13518948 </i>
    <i name="e_0_energy">   -124.13820716 </i>
   </energy>
  </scstep>
  <structure>
   <crystal>
    <varray name="basis" >
     <v>       4.30761036       2.48700000       0.00000000 </v>
     <v>      -4.30761036       2.48700000       0.00000000 </v>
     <v>       0.00000000       0.00000000      15.00000000 </v>
    </varray>
    <i name="volume">    321.39080884 </i>
    <varray name="rec_basis" >
     <v>       0.11607364       0.20104544       0.00000000 </v>
     <v>      -0.11607364       0.20104544       0.00000000 </v>
     <v>       0.00000000       0.00000000       0.06666667 </v>
    </varray>
   </crystal>
   <varray name="positions" >
    <v>       0.66981537      -0.00000019       0.10024742 </v>
    <v>       0.33018344      -0.00000019       0.10024742 </v>
    <v>       0.00000019       0.33018363       0.10024742 </v>
    <v>       0.00000019       0.66981556       0.10024742 </v>
    <v>       0.33018344       0.33018363       0.10024742 </v>
    <v>       0.66981537       0.66981556       0.10024742 </v>
    <v>       0.66666600       0.33333300       0.09944744 </v>
    <v>       0.33333300       0.66666600       0.10109277 </v>
    <v>       0.33337495       0.16668747       0.47034901 </v>
    <v>       0.49999113      -0.00001774       0.47034489 </v>
    <v>       0.33333267       0.66666633       0.47034033 </v>
    <v>       0.49999113       0.50000787       0.47034489 </v>
    <v>       0.83331153       0.16668747       0.47034901 </v>
    <v>       0.99999967       0.99999933       0.47035321 </v>
    <v>       0.83331153       0.66662405       0.47034901 </v>
    <v>       0.00001674       0.50000787       0.47034489 </v>
   </varray>
  </structure>
  <varray name="forces" >
   <v>      -0.00086558      -0.00050693       0.00808956 </v>
   <v>       0.00087180       0.00049615       0.00808956 </v>
   <v>      -0.00086558       0.00050693       0.00808956 </v>
   <v>       0.00087180      -0.00049615       0.00808956 </v>
   <v>      -0.00000623       0.00100308       0.00808956 </v>
   <v>      -0.00000623      -0.00100308       0.00808956 </v>
   <v>      -0.00000000      -0.00000000       0.00686124 </v>
   <v>      -0.00000000      -0.00000000       0.00973488 </v>
   <v>      -0.00713261      -0.01235404      -0.00835458 </v>
   <v>      -0.00289309       0.00501097      -0.00794921 </v>
   <v>      -0.00000000      -0.00000000      -0.00740360 </v>
   <v>       0.00578617      -0.00000000      -0.00794921 </v>
   <v>       0.01426521      -0.00000000      -0.00835458 </v>
   <v>      -0.00000000      -0.00000000      -0.00881853 </v>
   <v>      -0.00713261       0.01235404      -0.00835458 </v>
   <v>      -0.00289309      -0.00501097      -0.00794921 </v>
  </varray>
  <varray name="stress" >
   <v>       6.91639178       0.00000000       0.00000000 </v>
   <v>       0.00000000       6.91639178       0.00000000 </v>
   <v>       0.00000000       0.00000000      -3.62875470 </v>
  </varray>
  <energy>
   <i name="e_fr_energy">   -125.63319801 </i>
   <i name="e_wo_entrp">   -125.62716266 </i>
   <i name="e_0_energy">   -125.63018033 </i>
  </energy>
  <time name="totalsc">   10.91   11.03</time>
 </calculation>
 <calculation>
  <scstep>
   <time name="dav">    1.51    1.52</time>
   <time name="total">    1.65    1.67</time>
   <energy>
    <i name="alphaZ">     60.59237790 </i>
    <i name="ewald">   1876.16760220 </i>
    <i name="hartreedc">  -3486.36720982 </i>
    <i name="XCdc">    168.41496574 </i>
    <i name="pawpsdc">   5826.12969557 </i>
    <i name="pawaedc">  -5825.51441424 </i>
    <i name="eentropy">     -0.00603576 </i>
    <i name="bandstr">   -490.06401398 </i>
    <i name="atom">   1746.50554237 </i>
    <i name="e_fr_energy">   -124.14149002 </i>
    <i name="e_wo_entrp">   -124.13545426 </i>
    <i name="e_0_energy">   -124.13847214 </i>
   </energy>
  </scstep>
  <scstep>
   <time name="dav">    1.76    1.77</time>
   <time name="total">    1.91    1.93</time>
   <energy>
    <i name="e_fr_energy">   -124.14136320 </i>
    <i name="e_wo_entrp">   -124.13532466 </i>
    <i name="e_0_energy">   -124.13834393 </i>
   </energy>
  </scstep>
  <scstep>
   <time name="dav">    1.93    1.94</time>
   <time name="total">    2.08    2.10</time>
   <energy>
[...]
    <v>       0.33333267       0.66666633       0.44004238 </v>
    <v>       0.49914235       0.50085665       0.44055124 </v>
    <v>       0.83118655       0.16881245       0.44101625 </v>
    <v>       0.99999967       0.99999933       0.44148382 </v>
    <v>       0.83118655       0.66237411       0.44101625 </v>
    <v>       0.00171429       0.50085665       0.44055124 </v>
   </varray>
  </structure>
  <varray name="forces" >
   <v>      -0.00912374      -0.04330587       0.03824309 </v>
   <v>       0.04206586      -0.01375154       0.03824309 </v>
   <v>      -0.00912374       0.04330587       0.03824309 </v>
   <v>       0.04206586       0.01375154       0.03824309 </v>
   <v>      -0.03294211       0.02955433       0.03824309 </v>
   <v>      -0.03294211      -0.02955433       0.03824309 </v>
   <v>       0.00000000      -0.00000000      -0.03933911 </v>
   <v>       0.00000000      -0.00000000      -0.04214594 </v>
   <v>      -0.68078778      -1.17915903      -0.05023214 </v>
   <v>      -0.28164384       0.48782144       0.01277940 </v>
   <v>       0.00000000      -0.00000000       0.09143379 </v>
   <v>       0.56328768      -0.00000000       0.01277940 </v>
   <v>       1.36157557      -0.00000000      -0.05023214 </v>
   <v>       0.00000000      -0.00000000      -0.12704905 </v>
   <v>      -0.68078778       1.17915903      -0.05023214 </v>
   <v>      -0.28164384      -0.48782144       0.01277940 </v>
  </varray>
  <varray name="stress" >
   <v>       6.29077686       0.00000000       0.00000000 </v>
   <v>       0.00000000       6.29077686       0.00000000 </v>
   <v>       0.00000000       0.00000000      -5.15002119 </v>
  </varray>
  <energy>
   <i name="e_fr_energy">   -125.67739117 </i>
   <i name="e_wo_entrp">   -125.67093784 </i>
   <i name="e_0_energy">   -125.67416451 </i>
  </energy>
  <time name="totalsc">   37.85   38.24</time>
 </calculation>
 <calculation>
  <scstep>
   <time name="dav">    1.51    1.52</time>
   <time name="total">    1.66    1.68</time>
   <energy>
    <i name="alphaZ">     60.59237790 </i>
    <i name="ewald">   3230.20206730 </i>
    <i name="hartreedc">  -4835.36551240 </i>
    <i name="XCdc">    168.36749812 </i>
    <i name="pawpsdc">   5816.10624288 </i>
    <i name="pawaedc">  -5815.48799531 </i>
    <i name="eentropy">     -0.00699129 </i>
    <i name="bandstr">   -495.07462768 </i>
    <i name="atom">   1746.50554237 </i>
    <i name="e_fr_energy">   -124.16139810 </i>
    <i name="e_wo_entrp">   -124.15440681 </i>
    <i name="e_0_energy">   -124.15790246 </i>
   </energy>
  </scstep>
  <scstep>
   <time name="dav">    1.78    1.79</time>
   <time name="total">    1.92    1.95</time>
   <energy>
    <i name="e_fr_energy">   -124.26541148 </i>
    <i name="e_wo_entrp">   -124.25891088 </i>
    <i name="e_0_energy">   -124.26216118 </i>
   </energy>
  </scstep>
  <scstep>
   <time name="dav">    2.73    2.75</time>
   <time name="total">    2.87    2.90</time>
   <energy>
    <i name="e_fr_energy">   -124.07984108 </i>
    <i name="e_wo_entrp">   -124.07231775 </i>
    <i name="e_0_energy">   -124.07607942 </i>
   </energy>
  </scstep>
  <scstep>
   <time name="dav">    2.49    2.51</time>
   <time name="total">    2.64    2.66</time>
   <energy>
    <i name="e_fr_energy">   -124.07934508 </i>
    <i name="e_wo_entrp">   -124.07206645 </i>
    <i name="e_0_energy">   -124.07570577 </i>
   </energy>
  </scstep>
  <scstep>
   <time name="dav">    2.62    2.64</time>
   <time name="total">    2.76    2.79</time>
   <energy>
    <i name="e_fr_energy">   -124.07685194 </i>
    <i name="e_wo_entrp">   -124.06986136 </i>
    <i name="e_0_energy">   -124.07335665 </i>
   </energy>
  </scstep>
  <scstep>
   <time name="dav">    2.73    2.75</time>
   <time name="total">    2.88    2.90</time>
   <energy>
    <i name="e_fr_energy">   -124.07666230 </i>
    <i name="e_wo_entrp">   -124.06964646 </i>
    <i name="e_0_energy">   -124.07315438 </i>
   </energy>
  </scstep>
  <scstep>
   <time name="dav">    1.80    1.81</time>
   <time name="total">    1.94    1.97</time>
   <energy>
    <i name="e_fr_energy">   -124.07687232 </i>
    <i name="e_wo_entrp">   -124.06980905 </i>
    <i name="e_0_energy">   -124.07334068 </i>
   </energy>
  </scstep>
  <scstep>
   <time name="dav">    1.77    1.78</time>
   <time name="total">    1.91    1.93</time>
   <energy>
    <i name="e_fr_energy">   -124.07701716 </i>
    <i name="e_wo_entrp">   -124.06996093 </i>
    <i name="e_0_energy">   -124.07348905 </i>
   </energy>
  </scstep>
  <scstep>
   <time name="dav">    1.97    1.99</time>
   <time name="total">    2.12    2.14</time>
   <energy>
    <i name="e_fr_energy">   -124.07713294 </i>
    <i name="e_wo_entrp">   -124.07009053 </i>
    <i name="e_0_energy">   -124.07361173 </i>
   </energy>
  </scstep>
  <scstep>
   <time name="dav">    2.26    2.27</time>
   <time name="total">    2.40    2.43</time>
   <energy>
    <i name="e_fr_energy">   -124.07721571 </i>
    <i name="e_wo_entrp">   -124.07017744 </i>
    <i name="e_0_energy">   -124.07369658 </i>
   </energy>
  </scstep>
  <scstep>
   <time name="dav">    2.02    2.03</time>
   <time name="total">    2.16    2.19</time>
   <energy>
    <i name="e_fr_energy">   -124.07726354 </i>
    <i name="e_wo_entrp">   -124.07022219 </i>
    <i name="e_0_energy">   -124.07374287 </i>
   </energy>
  </scstep>
  <scstep>
   <time name="dav">    3.02    3.04</time>
   <time name="total">    3.17    3.20</time>
   <energy>
    <i name="e_fr_energy">   -124.07727478 </i>
    <i name="e_wo_entrp">   -124.07023208 </i>
    <i name="e_0_energy">   -124.07375343 </i>
   </energy>
  </scstep>
  <scstep>
   <time name="dav">    2.30    2.32</time>
   <time name="total">    2.45    2.47</time>
   <energy>
    <i name="e_fr_energy">   -124.07728355 </i>
    <i name="e_wo_entrp">   -124.07023959 </i>
    <i name="e_0_energy">   -124.07376157 </i>
   </energy>
  </scstep>
  <scstep>
   <time name="dav">    2.34    2.35</time>
   <time name="total">    2.48    2.51</time>
   <energy>
    <i name="e_fr_energy">   -124.07728669 </i>
    <i name="e_wo_entrp">   -124.07024246 </i>
    <i name="e_0_energy">   -124.07376457 </i>
   </energy>
  </scstep>
  <scstep>
   <time name="dav">    2.04    2.05</time>
   <time name="total">    2.18    2.21</time>
   <energy>
    <i name="e_fr_energy">   -124.07728829 </i>
    <i name="e_wo_entrp">   -124.07024412 </i>
    <i name="e_0_energy">   -124.07376620 </i>
   </energy>
  </scstep>
  <scstep>
   <time name="dav">    2.39    2.40</time>
   <time name="total">    2.42    2.43</time>
   <energy>
    <i name="alphaZ">     60.59237790 </i>
    <i name="ewald">   3230.20206730 </i>
    <i name="hartreedc">  -4840.71454691 </i>
    <i name="XCdc">    168.38252006 </i>
    <i name="pawpsdc">   5807.77542499 </i>
    <i name="pawaedc">  -5807.15462083 </i>
    <i name="eentropy">     -0.00704407 </i>
    <i name="bandstr">   -489.65900958 </i>
    <i name="atom">   1746.50554237 </i>
    <i name="e_fr_energy">   -124.07728877 </i>
    <i name="e_wo_entrp">   -124.07024470 </i>
    <i name="e_0_energy">   -124.07376673 </i>
   </energy>
  </scstep>
  <structure>
   <crystal>
    <varray name="basis" >
     <v>       4.30761036       2.48700000       0.00000000 </v>
     <v>      -4.30761036       2.48700000       0.00000000 </v>
     <v>       0.00000000       0.00000000      15.00000000 </v>
    </varray>
    <i name="volume">    321.39080884 </i>
    <varray name="rec_basis" >
     <v>       0.11607364       0.20104544       0.00000000 </v>
     <v>      -0.11607364       0.20104544       0.00000000 </v>
     <v>       0.00000000       0.00000000       0.06666667 </v>
    </varray>
   </crystal>
   <varray name="positions" >
    <v>       0.66972548      -0.00006813       0.14036913 </v>
    <v>       0.33020539      -0.00006813       0.14036913 </v>
    <v>       0.00006813       0.33027352       0.14036913 </v>
    <v>       0.00006813       0.66979361       0.14036913 </v>
    <v>       0.33020539       0.33027352       0.14036913 </v>
    <v>       0.66972548       0.66979361       0.14036913 </v>
    <v>       0.66666600       0.33333300       0.13625691 </v>
    <v>       0.33333300       0.66666600       0.15173199 </v>
    <v>       0.33844462       0.16922231       0.42964910 </v>
    <v>       0.49898504      -0.00202992       0.42901413 </v>
    <v>       0.33333267       0.66666633       0.42832093 </v>
    <v>       0.49898504       0.50101396       0.42901413 </v>
    <v>       0.83077669       0.16922231       0.42964910 </v>
    <v>       0.99999967       0.99999933       0.43028570 </v>
    <v>       0.83077669       0.66155438       0.42964910 </v>
    <v>       0.00202892       0.50101396       0.42901413 </v>
   </varray>
  </structure>
  <varray name="forces" >
   <v>      -0.01985227      -0.08369918       0.05297039 </v>
   <v>       0.08241175      -0.02465702       0.05297039 </v>
   <v>      -0.01985227       0.08369918       0.05297039 </v>
   <v>       0.08241175       0.02465702       0.05297039 </v>
   <v>      -0.06255948       0.05904216       0.05297039 </v>
   <v>      -0.06255948      -0.05904216       0.05297039 </v>
   <v>      -0.00000000       0.00000000      -0.05452398 </v>
   <v>      -0.00000000       0.00000000      -0.07656931 </v>
   <v>      -0.80710919      -1.39795413      -0.06648838 </v>
   <v>      -0.33444276       0.57927185       0.02049768 </v>
   <v>      -0.00000000       0.00000000       0.12458773 </v>
   <v>       0.66888552       0.00000000       0.02049768 </v>
   <v>       1.61421839      -0.00000000      -0.06648838 </v>
   <v>      -0.00000000       0.00000000      -0.17334468 </v>
   <v>      -0.80710919       1.39795413      -0.06648838 </v>
   <v>      -0.33444276      -0.57927185       0.02049768 </v>
  </varray>
  <varray name="stress" >
   <v>       5.64814155       0.00000000       0.00000000 </v>
   <v>       0.00000000       5.64814155       0.00000000 </v>
   <v>      -0.00000000       0.00000000      -5.74366380 </v>
  </varray>
  <energy>
   <i name="e_fr_energy">   -125.71302479 </i>
   <i name="e_wo_entrp">   -125.70598072 </i>
   <i name="e_0_energy">   -125.70950275 </i>
  </energy>
  <time name="totalsc">   39.48   39.90</time>
 </calculation>
 <calculation>
  <scstep>
   <time name="dav">    1.50    1.51</time>
   <time name="total">    1.65    1.67</time>
   <energy>
    <i name="alphaZ">     60.59237790 </i>
    <i name="ewald">   4273.14785262 </i>
    <i name="hartreedc">  -5862.95995223 </i>
    <i name="XCdc">    168.39489092 </i>
    <i name="pawpsdc">   5807.77752691 </i>
    <i name="pawaedc">  -5807.15672011 </i>
    <i name="eentropy">     -0.00597370 </i>
    <i name="bandstr">   -508.71005128 </i>
    <i name="atom">   1746.50554237 </i>
    <i name="e_fr_energy">   -122.41450660 </i>
    <i name="e_wo_entrp">   -122.40853290 </i>
    <i name="e_0_energy">   -122.41151975 </i>
   </energy>
  </scstep>
  <scstep>
   <time name="dav">    1.61    1.62</time>
   <time name="total">    1.75    1.77</time>
   <energy>
    <i name="e_fr_energy">   -124.74478339 </i>
    <i name="e_wo_entrp">   -124.73968032 </i>
    <i name="e_0_energy">   -124.74223186 </i>
   </energy>
  </scstep>
  <scstep>
   <time name="dav">    2.78    2.79</time>
   <time name="total">    2.92    2.95</time>
   <energy>
    <i name="e_fr_energy">   -124.11400321 </i>
    <i name="e_wo_entrp">   -124.10834235 </i>
    <i name="e_0_energy">   -124.11117278 </i>
   </energy>
  </scstep>
  <scstep>
   <time name="dav">    2.61    2.63</time>
   <time name="total">    2.76    2.78</time>
   <energy>
    <i name="e_fr_energy">   -123.95705865 </i>
    <i name="e_wo_entrp">   -123.95023503 </i>
    <i name="e_0_energy">   -123.95364684 </i>
   </energy>
  </scstep>
  <scstep>
   <time name="dav">    2.23    2.25</time>
   <time name="total">    2.38    2.40</time>
   <energy>
    <i name="e_fr_energy">   -123.95515614 </i>
    <i name="e_wo_entrp">   -123.94876859 </i>
    <i name="e_0_energy">   -123.95196236 </i>
   </energy>
  </scstep>
  <scstep>
   <time name="dav">    2.80    2.81</time>
   <time name="total">    2.94    2.97</time>
   <energy>
    <i name="e_fr_energy">   -123.95207252 </i>
    <i name="e_wo_entrp">   -123.94598170 </i>
    <i name="e_0_energy">   -123.94902711 </i>
   </energy>
  </scstep>
  <scstep>
   <time name="dav">    2.03    2.04</time>
   <time name="total">    2.18    2.20</time>
   <energy>
    <i name="e_fr_energy">   -123.95180667 </i>
    <i name="e_wo_entrp">   -123.94578936 </i>
    <i name="e_0_energy">   -123.94879801 </i>
   </energy>
  </scstep>
  <scstep>
   <time name="dav">    2.28    2.30</time>
   <time name="total">    2.42    2.45</time>
   <energy>
    <i name="e_fr_energy">   -123.95208454 </i>
    <i name="e_wo_entrp">   -123.94607842 </i>
    <i name="e_0_energy">   -123.94908148 </i>
   </energy>
  </scstep>
  <scstep>
   <time name="dav">    1.95    1.96</time>
   <time name="total">    2.09    2.12</time>
   <energy>
    <i name="e_fr_energy">   -123.95228954 </i>
    <i name="e_wo_entrp">   -123.94627934 </i>
    <i name="e_0_energy">   -123.94928444 </i>
   </energy>
  </scstep>
  <scstep>
   <time name="dav">    2.08    2.10</time>
   <time name="total">    2.23    2.25</time>
   <energy>
    <i name="e_fr_energy">   -123.95243644 </i>
    <i name="e_wo_entrp">   -123.94642004 </i>
    <i name="e_0_energy">   -123.94942824 </i>
   </energy>
  </scstep>
  <scstep>
   <time name="dav">    2.03    2.04</time>
   <time name="total">    2.17    2.20</time>
   <energy>
    <i name="e_fr_energy">   -123.95248484 </i>
    <i name="e_wo_entrp">   -123.94648052 </i>
    <i name="e_0_energy">   -123.94948268 </i>
   </energy>
  </scstep>
  <scstep>
   <time name="dav">    2.43    2.45</time>
   <time name="total">    2.58    2.60</time>
   <energy>
    <i name="e_fr_energy">   -123.95250301 </i>
    <i name="e_wo_entrp">   -123.94650241 </i>
    <i name="e_0_energy">   -123.94950271 </i>
   </energy>
  </scstep>
  <scstep>
   <time name="dav">    2.31    2.33</time>
   <time name="total">    2.46    2.48</time>
   <energy>
    <i name="e_fr_energy">   -123.95251161 </i>
    <i name="e_wo_entrp">   -123.94650897 </i>
    <i name="e_0_energy">   -123.94951029 </i>
   </energy>
  </scstep>
  <scstep>
   <time name="dav">    2.41    2.42</time>
   <time name="total">    2.55    2.58</time>
   <energy>
    <i name="e_fr_energy">   -123.95251823 </i>
    <i name="e_wo_entrp">   -123.94651337 </i>
    <i name="e_0_energy">   -123.94951580 </i>
   </energy>
  </scstep>
  <scstep>
   <time name="dav">    2.42    2.44</time>
   <time name="total">    2.57    2.59</time>
   <energy>
    <i name="e_fr_energy">   -123.95252124 </i>
    <i name="e_wo_entrp">   -123.94651582 </i>
    <i name="e_0_energy">   -123.94951853 </i>
   </energy>
  </scstep>
  <scstep>
   <time name="dav">    2.34    2.36</time>
   <time name="total">    2.49    2.51</time>
   <energy>
    <i name="e_fr_energy">   -123.95252251 </i>
    <i name="e_wo_entrp">   -123.94651694 </i>
    <i name="e_0_energy">   -123.94951973 </i>
   </energy>
  </scstep>
  <scstep>
   <time name="dav">    2.27    2.28</time>
   <time name="total">    2.30    2.32</time>
   <energy>
    <i name="alphaZ">     60.59237790 </i>
    <i name="ewald">   4273.14785262 </i>
    <i name="hartreedc">  -5883.49129335 </i>
    <i name="XCdc">    168.45523789 </i>
    <i name="pawpsdc">   5784.91282352 </i>
    <i name="pawaedc">  -5784.28554307 </i>
    <i name="eentropy">     -0.00600559 </i>
    <i name="bandstr">   -489.78351545 </i>
    <i name="atom">   1746.50554237 </i>
    <i name="e_fr_energy">   -123.95252315 </i>
    <i name="e_wo_entrp">   -123.94651756 </i>
    <i name="e_0_energy">   -123.94952035 </i>
   </energy>
  </scstep>
  <structure>
   <crystal>
    <varray name="basis" >
     <v>       4.30761036       2.48700000       0.00000000 </v>
     <v>      -4.30761036       2.48700000       0.00000000 </v>
     <v>       0.00000000       0.00000000      15.00000000 </v>
    </varray>
    <i name="volume">    321.39080884 </i>
    <varray name="rec_basis" >
     <v>       0.11607364       0.20104544       0.00000000 </v>
     <v>      -0.11607364       0.20104544       0.00000000 </v>
     <v>       0.00000000       0.00000000       0.06666667 </v>
    </varray>
   </crystal>
   <varray name="positions" >
    <v>       0.66965547      -0.00012150       0.16277789 </v>
    <v>       0.33022203      -0.00012150       0.16277789 </v>
    <v>       0.00012150       0.33034353       0.16277789 </v>
    <v>       0.00012150       0.66977697       0.16277789 </v>
    <v>       0.33022203       0.33034353       0.16277789 </v>
    <v>       0.66965547       0.66977697       0.16277789 </v>
    <v>       0.66666600       0.33333300       0.15680126 </v>
    <v>       0.33333300       0.66666600       0.17999981 </v>
    <v>       0.34008407       0.17004203       0.40691478 </v>
    <v>       0.49867041      -0.00265918       0.40593991 </v>
    <v>       0.33333267       0.66666633       0.40487803 </v>
    <v>       0.49867041       0.50132859       0.40593991 </v>
    <v>       0.82995697       0.17004203       0.40691478 </v>
    <v>       0.99999967       0.99999933       0.40788948 </v>
    <v>       0.82995697       0.65991493       0.40691478 </v>
    <v>       0.00265818       0.50132859       0.40593991 </v>
   </varray>
  </structure>
  <varray name="forces" >
   <v>      -0.06206444      -0.22013251       0.06427096 </v>
   <v>       0.22167256      -0.05631688       0.06427096 </v>
   <v>      -0.06206444       0.22013251       0.06427096 </v>
   <v>       0.22167256       0.05631688       0.06427096 </v>
   <v>      -0.15960813       0.16381563       0.06427096 </v>
   <v>      -0.15960813      -0.16381563       0.06427096 </v>
   <v>      -0.00000000       0.00000000      -0.10738095 </v>
   <v>      -0.00000000       0.00000000      -0.19979257 </v>
   <v>      -1.05094419      -1.82028874      -0.07993929 </v>
   <v>      -0.44904692       0.77777209       0.07521907 </v>
   <v>      -0.00000000       0.00000000       0.20297418 </v>
   <v>       0.89809385       0.00000000       0.07521907 </v>
   <v>       2.10188839       0.00000000      -0.07993929 </v>
   <v>      -0.00000000       0.00000000      -0.26726577 </v>
   <v>      -1.05094419       1.82028874      -0.07993929 </v>
   <v>      -0.44904692      -0.77777209       0.07521907 </v>
  </varray>
  <varray name="stress" >
   <v>       3.45748265       0.00000000       0.00000000 </v>
   <v>       0.00000000       3.45748265       0.00000000 </v>
   <v>       0.00000000       0.00000000      -3.30118617 </v>
  </varray>
  <energy>
   <i name="e_fr_energy">   -125.77442733 </i>
   <i name="e_wo_entrp">   -125.76842174 </i>
   <i name="e_0_energy">   -125.77142453 </i>
  </energy>
  <time name="totalsc">   41.93   42.37</time>
 </calculation>
 <calculation>
  <scstep>
   <time name="dav">    1.51    1.52</time>
   <time name="total">    1.65    1.68</time>
   <energy>
    <i name="alphaZ">     60.59237790 </i>
    <i name="ewald">   4528.10982077 </i>
    <i name="hartreedc">  -6137.30143750 </i>
    <i name="XCdc">    168.56046892 </i>
    <i name="pawpsdc">   5784.93359473 </i>
    <i name="pawaedc">  -5784.30630309 </i>
    <i name="eentropy">     -0.00545122 </i>
    <i name="bandstr">   -491.05122214 </i>
    <i name="atom">   1746.50554237 </i>
    <i name="e_fr_energy">   -123.96260927 </i>
    <i name="e_wo_entrp">   -123.95715805 </i>
    <i name="e_0_energy">   -123.95988366 </i>
   </energy>
  </scstep>
  <scstep>
   <time name="dav">    2.03    2.04</time>
   <time name="total">    2.18    2.20</time>
   <energy>
    <i name="e_fr_energy">   -123.93651325 </i>
    <i name="e_wo_entrp">   -123.93146922 </i>
    <i name="e_0_energy">   -123.93399124 </i>
   </energy>
  </scstep>
  <scstep>
