Lattice                                 
           1
     4.307610    2.487000    0.000000
    -4.307610    2.487000    0.000000
     0.000000    0.000000   15.000000
   B    C 
     8     8
Direct configuration=     1
   0.66888689  0.00000000  0.10000000
   0.33111211  0.00000000  0.10000000
   0.00000000  0.33111211  0.10000000
   0.00000000  0.66888689  0.10000000
   0.33111211  0.33111211  0.10000000
   0.66888689  0.66888689  0.10000000
   0.66666600  0.33333300  0.09922189
   0.33333300  0.66666600  0.10077811
   0.33333267  0.16666633  0.47060000
   0.49999967  0.99999933  0.47060000
   0.33333267  0.66666633  0.47060000
   0.49999967  0.49999933  0.47060000
   0.83333267  0.16666633  0.47060000
   0.99999967  0.99999933  0.47060000
   0.83333267  0.66666633  0.47060000
   0.99999967  0.49999933  0.47060000
Direct configuration=     2
   0.67071117  0.00000001  0.10002573
   0.32928784  0.00000001  0.10002573
  -0.00000001  0.32928783  0.10002573
  -0.00000001  0.67071116  0.10002573
   0.32928784  0.32928783  0.10002573
   0.67071117  0.67071116  0.10002573
   0.66666600  0.33333300  0.09924229
   0.33333300  0.66666600  0.10081487
   0.33332659  0.16666329  0.47057383
   0.50000087  0.00000173  0.47057330
   0.33333267  0.66666633  0.47057265
   0.50000087  0.49999813  0.47057330
   0.83333571  0.16666329  0.47057383
   0.99999967  0.99999933  0.47057443
   0.83333571  0.66667241  0.47057383
   0.99999727  0.49999813  0.47057330
Direct configuration=     3
   0.66981482  0.00000000  0.10001309
   0.33018419  0.00000000  0.10001309
  -0.00000000  0.33018418  0.10001309
  -0.00000000  0.66981481  0.10001309
   0.33018419  0.33018418  0.10001309
   0.66981482  0.66981481  0.10001309
   0.66666600  0.33333300  0.09923227
   0.33333300  0.66666600  0.10079681
   0.33332957  0.16666479  0.47058669
   0.50000028  0.00000055  0.47058642
   0.33333267  0.66666633  0.47058609
   0.50000028  0.49999872  0.47058642
   0.83333421  0.16666479  0.47058669
   0.99999967  0.99999933  0.47058699
   0.83333421  0.66666943  0.47058669
   0.99999845  0.49999872  0.47058642
Direct configuration=     4
   0.66982034  0.00000000  0.10001317
   0.33017867  0.00000000  0.10001317
  -0.00000000  0.33017866  0.10001317
  -0.00000000  0.66982033  0.10001317
   0.33017867  0.33017866  0.10001317
   0.66982034  0.66982033  0.10001317
   0.66666600  0.33333300  0.09923233
   0.33333300  0.66666600  0.10079692
   0.33332955  0.16666478  0.47058661
   0.50000028  0.00000056  0.47058634
   0.33333267  0.66666633  0.47058600
   0.50000028  0.49999872  0.47058634
   0.83333422  0.16666478  0.47058661
   0.99999967  0.99999933  0.47058692
   0.83333422  0.66666945  0.47058661
   0.99999844  0.49999872  0.47058634
Direct configuration=     5
   0.66981810  0.00000000  0.10001313
   0.33018091  0.00000000  0.10001313
  -0.00000000  0.33018090  0.10001313
  -0.00000000  0.66981809  0.10001313
   0.33018091  0.33018090  0.10001313
   0.66981810  0.66981809  0.10001313
   0.66666600  0.33333300  0.09923230
   0.33333300  0.66666600  0.10079688
   0.33332956  0.16666478  0.47058664
   0.50000028  0.00000056  0.47058637
   0.33333267  0.66666633  0.47058604
   0.50000028  0.49999872  0.47058637
   0.83333422  0.16666478  0.47058664
   0.99999967  0.99999933  0.47058695
   0.83333422  0.66666944  0.47058664
   0.99999844  0.49999872  0.47058637
Direct configuration=     6
   0.66981646  0.00000000  0.10001311
   0.33018255  0.00000000  0.10001311
  -0.00000000  0.33018254  0.10001311
  -0.00000000  0.66981645  0.10001311
   0.33018255  0.33018254  0.10001311
   0.66981646  0.66981645  0.10001311
   0.66666600  0.33333300  0.09923228
   0.33333300  0.66666600  0.10079684
   0.33332957  0.16666478  0.47058666
   0.50000028  0.00000056  0.47058639
   0.33333267  0.66666633  0.47058606
   0.50000028  0.49999872  0.47058639
   0.83333422  0.16666478  0.47058666
   0.99999967  0.99999933  0.47058697
   0.83333422  0.66666943  0.47058666
   0.99999844  0.49999872  0.47058639
Direct configuration=     7
   0.66981564  0.00000000  0.10001310
   0.33018337  0.00000000  0.10001310
  -0.00000000  0.33018336  0.10001310
  -0.00000000  0.66981563  0.10001310
   0.33018337  0.33018336  0.10001310
   0.66981564  0.66981563  0.10001310
   0.66666600  0.33333300  0.09923228
   0.33333300  0.66666600  0.10079683
   0.33332957  0.16666479  0.47058667
   0.50000028  0.00000056  0.47058641
   0.33333267  0.66666633  0.47058607
   0.50000028  0.49999872  0.47058641
   0.83333421  0.16666479  0.47058667
   0.99999967  0.99999933  0.47058698
   0.83333421  0.66666943  0.47058667
   0.99999844  0.49999872  0.47058641
Direct configuration=     8
   0.66981561 -0.00000001  0.10003653
   0.33018338 -0.00000001  0.10003653
   0.00000001  0.33018339  0.10003653
   0.00000001  0.66981562  0.10003653
   0.33018338  0.33018339  0.10003653
   0.66981561  0.66981562  0.10003653
   0.66666600  0.33333300  0.09925379
   0.33333300  0.66666600  0.10082642
   0.33333411  0.16666705  0.47056291
   0.49999936 -0.00000127  0.47056226
   0.33333267  0.66666633  0.47056150
   0.49999936  0.49999964  0.47056226
   0.83333195  0.16666705  0.47056291
   0.99999967  0.99999933  0.47056360
   0.83333195  0.66666489  0.47056291
   0.00000027  0.49999964  0.47056226
Direct configuration=     9
   0.66981553 -0.00000007  0.10010683
   0.33018340 -0.00000007  0.10010683
   0.00000007  0.33018347  0.10010683
   0.00000007  0.66981560  0.10010683
   0.33018340  0.33018347  0.10010683
   0.66981553  0.66981560  0.10010683
   0.66666600  0.33333300  0.09931834
   0.33333300  0.66666600  0.10091521
   0.33334772  0.16667386  0.47049161
   0.49999662 -0.00000676  0.47048980
   0.33333267  0.66666633  0.47048778
   0.49999662  0.50000238  0.47048980
   0.83332514  0.16667386  0.47049161
   0.99999967  0.99999933  0.47049347
   0.83332514  0.66665128  0.47049161
   0.00000576  0.50000238  0.47048980
Direct configuration=    10
   0.66981537 -0.00000019  0.10024742
   0.33018344 -0.00000019  0.10024742
   0.00000019  0.33018363  0.10024742
   0.00000019  0.66981556  0.10024742
   0.33018344  0.33018363  0.10024742
   0.66981537  0.66981556  0.10024742
   0.66666600  0.33333300  0.09944744
   0.33333300  0.66666600  0.10109277
   0.33337495  0.16668747  0.47034901
   0.49999113 -0.00001774  0.47034489
   0.33333267  0.66666633  0.47034033
   0.49999113  0.50000787  0.47034489
   0.83331153  0.16668747  0.47034901
   0.99999967  0.99999933  0.47035321
   0.83331153  0.66662405  0.47034901
   0.00001674  0.50000787  0.47034489
Direct configuration=    11
   0.66981506 -0.00000042  0.10052861
   0.33018352 -0.00000042  0.10052861
   0.00000042  0.33018394  0.10052861
   0.00000042  0.66981548  0.10052861
   0.33018352  0.33018394  0.10052861
   0.66981506  0.66981548  0.10052861
   0.66666600  0.33333300  0.09970565
   0.33333300  0.66666600  0.10144791
   0.33342940  0.16671470  0.47006381
   0.49998015 -0.00003969  0.47005508
   0.33333267  0.66666633  0.47004543
   0.49998015  0.50001885  0.47005508
   0.83328430  0.16671470  0.47006381
   0.99999967  0.99999933  0.47007268
   0.83328430  0.66656960  0.47006381
   0.00003869  0.50001885  0.47005508
Direct configuration=    12
   0.66981443 -0.00000088  0.10109098
   0.33018369 -0.00000088  0.10109098
   0.00000088  0.33018457  0.10109098
   0.00000088  0.66981531  0.10109098
   0.33018369  0.33018457  0.10109098
   0.66981443  0.66981531  0.10109098
   0.66666600  0.33333300  0.10022205
   0.33333300  0.66666600  0.10215819
   0.33353830  0.16676915  0.46949342
   0.49995820 -0.00008359  0.46947544
   0.33333267  0.66666633  0.46945564
   0.49995820  0.50004080  0.46947544
   0.83322985  0.16676915  0.46949342
   0.99999967  0.99999933  0.46951163
   0.83322985  0.66646070  0.46949342
   0.00008259  0.50004080  0.46947544
Direct configuration=    13
   0.66981316 -0.00000181  0.10221573
   0.33018403 -0.00000181  0.10221573
   0.00000181  0.33018584  0.10221573
   0.00000181  0.66981497  0.10221573
   0.33018403  0.33018584  0.10221573
   0.66981316  0.66981497  0.10221573
   0.66666600  0.33333300  0.10125487
   0.33333300  0.66666600  0.10357874
   0.33375610  0.16687805  0.46835263
   0.49991430 -0.00017140  0.46831618
   0.33333267  0.66666633  0.46827606
   0.49991430  0.50008470  0.46831618
   0.83312095  0.16687805  0.46835263
   0.99999967  0.99999933  0.46838953
   0.83312095  0.66624290  0.46835263
   0.00017040  0.50008470  0.46831618
Direct configuration=    14
   0.66981064 -0.00000366  0.10446523
   0.33018470 -0.00000366  0.10446523
   0.00000366  0.33018836  0.10446523
   0.00000366  0.66981430  0.10446523
   0.33018470  0.33018836  0.10446523
   0.66981064  0.66981430  0.10446523
   0.66666600  0.33333300  0.10332049
   0.33333300  0.66666600  0.10641984
   0.33419170  0.16709585  0.46607105
   0.49982649 -0.00034702  0.46599765
   0.33333267  0.66666633  0.46591690
   0.49982649  0.50017251  0.46599765
   0.83290315  0.16709585  0.46607105
   0.99999967  0.99999933  0.46614533
   0.83290315  0.66580730  0.46607105
   0.00034602  0.50017251  0.46599765
Direct configuration=    15
   0.66980558 -0.00000736  0.10896422
   0.33018606 -0.00000736  0.10896422
   0.00000736  0.33019342  0.10896422
   0.00000736  0.66981294  0.10896422
   0.33018606  0.33019342  0.10896422
   0.66980558  0.66981294  0.10896422
   0.66666600  0.33333300  0.10745174
   0.33333300  0.66666600  0.11210205
   0.33506290  0.16753145  0.46150788
   0.49965087 -0.00069825  0.46136059
   0.33333267  0.66666633  0.46119858
   0.49965087  0.50034813  0.46136059
   0.83246755  0.16753145  0.46150788
   0.99999967  0.99999933  0.46165692
   0.83246755  0.66493610  0.46150788
   0.00069725  0.50034813  0.46136059
Direct configuration=    16
   0.66979548 -0.00001476  0.11796220
   0.33018876 -0.00001476  0.11796220
   0.00001476  0.33020352  0.11796220
   0.00001476  0.66981024  0.11796220
   0.33018876  0.33020352  0.11796220
   0.66979548  0.66981024  0.11796220
   0.66666600  0.33333300  0.11571423
   0.33333300  0.66666600  0.12346646
   0.33680530  0.16840265  0.45238156
   0.49929964 -0.00140071  0.45208647
   0.33333267  0.66666633  0.45176193
   0.49929964  0.50069936  0.45208647
   0.83159635  0.16840265  0.45238156
   0.99999967  0.99999933  0.45268011
   0.83159635  0.66319370  0.45238156
   0.00139971  0.50069936  0.45208647
Direct configuration=    17
   0.66979548 -0.00001477  0.11796311
   0.33018876 -0.00001477  0.11796311
   0.00001477  0.33020352  0.11796311
   0.00001477  0.66981024  0.11796311
   0.33018876  0.33020352  0.11796311
   0.66979548  0.66981024  0.11796311
   0.66666600  0.33333300  0.11571507
   0.33333300  0.66666600  0.12346761
   0.33680537  0.16840268  0.45238063
   0.49929963 -0.00140074  0.45208553
   0.33333267  0.66666633  0.45176098
   0.49929963  0.50069937  0.45208553
   0.83159632  0.16840268  0.45238063
   0.99999967  0.99999933  0.45267919
   0.83159632  0.66319363  0.45238063
   0.00139974  0.50069937  0.45208553
Direct configuration=    18
   0.66979547 -0.00001477  0.11796584
   0.33018876 -0.00001477  0.11796584
   0.00001477  0.33020353  0.11796584
   0.00001477  0.66981024  0.11796584
   0.33018876  0.33020353  0.11796584
   0.66979547  0.66981024  0.11796584
   0.66666600  0.33333300  0.11571758
   0.33333300  0.66666600  0.12347107
   0.33680557  0.16840278  0.45237786
   0.49929959 -0.00140082  0.45208272
   0.33333267  0.66666633  0.45175811
   0.49929959  0.50069941  0.45208272
   0.83159622  0.16840278  0.45237786
   0.99999967  0.99999933  0.45267646
   0.83159622  0.66319343  0.45237786
   0.00139982  0.50069941  0.45208272
Direct configuration=    19
   0.66979545 -0.00001479  0.11797131
   0.33018876 -0.00001479  0.11797131
   0.00001479  0.33020355  0.11797131
   0.00001479  0.66981024  0.11797131
   0.33018876  0.33020355  0.11797131
   0.66979545  0.66981024  0.11797131
   0.66666600  0.33333300  0.11572259
   0.33333300  0.66666600  0.12347797
   0.33680597  0.16840298  0.45237231
   0.49929951 -0.00140097  0.45207708
   0.33333267  0.66666633  0.45175239
   0.49929951  0.50069949  0.45207708
   0.83159602  0.16840298  0.45237231
   0.99999967  0.99999933  0.45267099
   0.83159602  0.66319303  0.45237231
   0.00139997  0.50069949  0.45207708
Direct configuration=    20
   0.66979542 -0.00001481  0.11798226
   0.33018877 -0.00001481  0.11798226
   0.00001481  0.33020358  0.11798226
   0.00001481  0.66981023  0.11798226
   0.33018877  0.33020358  0.11798226
   0.66979542  0.66981023  0.11798226
   0.66666600  0.33333300  0.11573262
   0.33333300  0.66666600  0.12349177
   0.33680677  0.16840338  0.45236121
   0.49929936 -0.00140128  0.45206582
   0.33333267  0.66666633  0.45174094
   0.49929936  0.50069964  0.45206582
   0.83159562  0.16840338  0.45236121
   0.99999967  0.99999933  0.45266006
   0.83159562  0.66319223  0.45236121
   0.00140028  0.50069964  0.45206582
Direct configuration=    21
   0.66979535 -0.00001486  0.11800414
   0.33018879 -0.00001486  0.11800414
   0.00001486  0.33020365  0.11800414
   0.00001486  0.66981021  0.11800414
   0.33018879  0.33020365  0.11800414
   0.66979535  0.66981021  0.11800414
   0.66666600  0.33333300  0.11575269
   0.33333300  0.66666600  0.12351937
   0.33680837  0.16840418  0.45233901
   0.49929905 -0.00140189  0.45204328
   0.33333267  0.66666633  0.45171805
   0.49929905  0.50069995  0.45204328
   0.83159482  0.16840418  0.45233901
   0.99999967  0.99999933  0.45263819
   0.83159482  0.66319063  0.45233901
   0.00140089  0.50069995  0.45204328
Direct configuration=    22
   0.66979521 -0.00001497  0.11804791
   0.33018882 -0.00001497  0.11804791
   0.00001497  0.33020379  0.11804791
   0.00001497  0.66981018  0.11804791
   0.33018882  0.33020379  0.11804791
   0.66979521  0.66981018  0.11804791
   0.66666600  0.33333300  0.11579281
   0.33333300  0.66666600  0.12357459
   0.33681157  0.16840578  0.45229460
   0.49929844 -0.00140312  0.45199822
   0.33333267  0.66666633  0.45167226
   0.49929844  0.50070056  0.45199822
   0.83159322  0.16840578  0.45229460
   0.99999967  0.99999933  0.45259444
   0.83159322  0.66318743  0.45229460
   0.00140212  0.50070056  0.45199822
Direct configuration=    23
   0.66979494 -0.00001518  0.11813544
   0.33018888 -0.00001518  0.11813544
   0.00001518  0.33020406  0.11813544
   0.00001518  0.66981012  0.11813544
   0.33018888  0.33020406  0.11813544
   0.66979494  0.66981012  0.11813544
   0.66666600  0.33333300  0.11587306
   0.33333300  0.66666600  0.12368501
   0.33681797  0.16840899  0.45220580
   0.49929721 -0.00140558  0.45190808
   0.33333267  0.66666633  0.45158069
   0.49929721  0.50070179  0.45190808
   0.83159001  0.16840899  0.45220580
   0.99999967  0.99999933  0.45250696
   0.83159001  0.66318103  0.45220580
   0.00140458  0.50070179  0.45190808
Direct configuration=    24
   0.66979439 -0.00001559  0.11831051
   0.33018901 -0.00001559  0.11831051
   0.00001559  0.33020461  0.11831051
   0.00001559  0.66980999  0.11831051
   0.33018901  0.33020461  0.11831051
   0.66979439  0.66980999  0.11831051
   0.66666600  0.33333300  0.11603357
   0.33333300  0.66666600  0.12390585
   0.33683078  0.16841539  0.45202819
   0.49929475 -0.00141049  0.45172782
   0.33333267  0.66666633  0.45139754
   0.49929475  0.50070425  0.45172782
   0.83158361  0.16841539  0.45202819
   0.99999967  0.99999933  0.45233199
   0.83158361  0.66316822  0.45202819
   0.00140949  0.50070425  0.45172782
Direct configuration=    25
   0.66979330 -0.00001643  0.11866065
   0.33018927 -0.00001643  0.11866065
   0.00001643  0.33020570  0.11866065
   0.00001643  0.66980973  0.11866065
   0.33018927  0.33020570  0.11866065
   0.66979330  0.66980973  0.11866065
   0.66666600  0.33333300  0.11635457
   0.33333300  0.66666600  0.12434753
   0.33685640  0.16842820  0.45167296
   0.49928984 -0.00142033  0.45136728
   0.33333267  0.66666633  0.45103125
   0.49928984  0.50070916  0.45136728
   0.83157080  0.16842820  0.45167296
   0.99999967  0.99999933  0.45198205
   0.83157080  0.66314260  0.45167296
   0.00141933  0.50070916  0.45136728
Direct configuration=    26
   0.66979111 -0.00001810  0.11936092
   0.33018979 -0.00001810  0.11936092
   0.00001810  0.33020789  0.11936092
   0.00001810  0.66980921  0.11936092
   0.33018979  0.33020789  0.11936092
   0.66979111  0.66980921  0.11936092
   0.66666600  0.33333300  0.11699658
   0.33333300  0.66666600  0.12523090
   0.33690763  0.16845382  0.45096251
   0.49928000 -0.00143999  0.45064621
   0.33333267  0.66666633  0.45029866
   0.49928000  0.50071900  0.45064621
   0.83154518  0.16845382  0.45096251
   0.99999967  0.99999933  0.45128216
   0.83154518  0.66309137  0.45096251
   0.00143899  0.50071900  0.45064621
Direct configuration=    27
   0.66978673 -0.00002143  0.12076147
   0.33019083 -0.00002143  0.12076147
   0.00002143  0.33021227  0.12076147
   0.00002143  0.66980817  0.12076147
   0.33019083  0.33021227  0.12076147
   0.66978673  0.66980817  0.12076147
   0.66666600  0.33333300  0.11828060
   0.33333300  0.66666600  0.12699764
   0.33701010  0.16850505  0.44954162
   0.49926034 -0.00147932  0.44920407
   0.33333267  0.66666633  0.44883347
   0.49926034  0.50073866  0.44920407
   0.83149395  0.16850505  0.44954162
   0.99999967  0.99999933  0.44988240
   0.83149395  0.66298890  0.44954162
   0.00147832  0.50073866  0.44920407
Direct configuration=    28
   0.66977798 -0.00002810  0.12356256
   0.33019291 -0.00002810  0.12356256
   0.00002810  0.33022102  0.12356256
   0.00002810  0.66980609  0.12356256
   0.33019291  0.33022102  0.12356256
   0.66977798  0.66980609  0.12356256
   0.66666600  0.33333300  0.12084865
   0.33333300  0.66666600  0.13053112
   0.33721503  0.16860751  0.44669983
   0.49922101 -0.00155798  0.44631979
   0.33333267  0.66666633  0.44590311
   0.49922101  0.50077799  0.44631979
   0.83139149  0.16860751  0.44669983
   0.99999967  0.99999933  0.44708287
   0.83139149  0.66278397  0.44669983
   0.00155698  0.50077799  0.44631979
Direct configuration=    29
   0.66976048 -0.00004144  0.12916475
   0.33019707 -0.00004144  0.12916475
   0.00004144  0.33023852  0.12916475
   0.00004144  0.66980193  0.12916475
   0.33019707  0.33023852  0.12916475
   0.66976048  0.66980193  0.12916475
   0.66666600  0.33333300  0.12598474
   0.33333300  0.66666600  0.13759807
   0.33762489  0.16881245  0.44101625
   0.49914235 -0.00171529  0.44055124
   0.33333267  0.66666633  0.44004238
   0.49914235  0.50085665  0.44055124
   0.83118655  0.16881245  0.44101625
   0.99999967  0.99999933  0.44148382
   0.83118655  0.66237411  0.44101625
   0.00171429  0.50085665  0.44055124
Direct configuration=    30
   0.66972548 -0.00006813  0.14036913
   0.33020539 -0.00006813  0.14036913
   0.00006813  0.33027352  0.14036913
   0.00006813  0.66979361  0.14036913
   0.33020539  0.33027352  0.14036913
   0.66972548  0.66979361  0.14036913
   0.66666600  0.33333300  0.13625691
   0.33333300  0.66666600  0.15173199
   0.33844462  0.16922231  0.42964910
   0.49898504 -0.00202992  0.42901413
   0.33333267  0.66666633  0.42832093
   0.49898504  0.50101396  0.42901413
   0.83077669  0.16922231  0.42964910
   0.99999967  0.99999933  0.43028570
   0.83077669  0.66155438  0.42964910
   0.00202892  0.50101396  0.42901413
Direct configuration=    31
   0.66965547 -0.00012150  0.16277789
   0.33022203 -0.00012150  0.16277789
   0.00012150  0.33034353  0.16277789
   0.00012150  0.66977697  0.16277789
   0.33022203  0.33034353  0.16277789
   0.66965547  0.66977697  0.16277789
   0.66666600  0.33333300  0.15680126
   0.33333300  0.66666600  0.17999981
   0.34008407  0.17004203  0.40691478
   0.49867041 -0.00265918  0.40593991
   0.33333267  0.66666633  0.40487803
   0.49867041  0.50132859  0.40593991
   0.82995697  0.17004203  0.40691478
   0.99999967  0.99999933  0.40788948
   0.82995697  0.65991493  0.40691478
   0.00265818  0.50132859  0.40593991
Direct configuration=    32
   0.66957566 -0.00017961  0.16768021
   0.33024373 -0.00017961  0.16768021
   0.00017961  0.33042334  0.16768021
   0.00017961  0.66975527  0.16768021
   0.33024373  0.33042334  0.16768021
   0.66957566  0.66975527  0.16768021
   0.66666600  0.33333300  0.16128180
   0.33333300  0.66666600  0.18616042
   0.33983063  0.16991532  0.40194002
   0.49873234 -0.00253532  0.40090383
   0.33333267  0.66666633  0.39977206
   0.49873234  0.50126666  0.40090383
   0.83008368  0.16991532  0.40194002
   0.99999967  0.99999933  0.40297294
   0.83008368  0.66016837  0.40194002
   0.00253432  0.50126666  0.40090383
Direct configuration=    33
   0.66959741 -0.00016377  0.16634388
   0.33023782 -0.00016377  0.16634388
   0.00016377  0.33040159  0.16634388
   0.00016377  0.66976118  0.16634388
   0.33023782  0.33040159  0.16634388
   0.66959741  0.66976118  0.16634388
   0.66666600  0.33333300  0.16006044
   0.33333300  0.66666600  0.18448109
   0.33989972  0.16994986  0.40329610
   0.49871546 -0.00256909  0.40227662
   0.33333267  0.66666633  0.40116390
   0.49871546  0.50128354  0.40227662
   0.83004914  0.16994986  0.40329610
   0.99999967  0.99999933  0.40431315
   0.83004914  0.66009928  0.40329610
   0.00256809  0.50128354  0.40227662
Direct configuration=    34
   0.66953393 -0.00020983  0.16623906
   0.33025525 -0.00020983  0.16623906
   0.00020983  0.33046507  0.16623906
   0.00020983  0.66974375  0.16623906
   0.33025525  0.33046507  0.16623906
   0.66953393  0.66974375  0.16623906
   0.66666600  0.33333300  0.15995109
   0.33333300  0.66666600  0.18432532
   0.33934367  0.16967183  0.40340110
   0.49883478 -0.00233045  0.40239666
   0.33333267  0.66666633  0.40129518
   0.49883478  0.50116422  0.40239666
   0.83032717  0.16967183  0.40340110
   0.99999967  0.99999933  0.40440081
   0.83032717  0.66065533  0.40340110
   0.00232945  0.50116422  0.40239666
Direct configuration=    35
   0.66934347 -0.00034800  0.16592458
   0.33030753 -0.00034800  0.16592458
   0.00034800  0.33065553  0.16592458
   0.00034800  0.66969147  0.16592458
   0.33030753  0.33065553  0.16592458
   0.66934347  0.66969147  0.16592458
   0.66666600  0.33333300  0.15962302
   0.33333300  0.66666600  0.18385799
   0.33767553  0.16883777  0.40371610
   0.49919273 -0.00161453  0.40275679
   0.33333267  0.66666633  0.40168901
   0.49919273  0.50080627  0.40275679
   0.83116123  0.16883777  0.40371610
   0.99999967  0.99999933  0.40466382
   0.83116123  0.66232347  0.40371610
   0.00161353  0.50080627  0.40275679
Direct configuration=    36
   0.66896257 -0.00062433  0.16529563
   0.33041210 -0.00062433  0.16529563
   0.00062433  0.33103643  0.16529563
   0.00062433  0.66958690  0.16529563
   0.33041210  0.33103643  0.16529563
   0.66896257  0.66958690  0.16529563
   0.66666600  0.33333300  0.15896689
   0.33333300  0.66666600  0.18292333
   0.33433926  0.16716963  0.40434610
   0.49990865 -0.00018270  0.40347706
   0.33333267  0.66666633  0.40247669
   0.49990865  0.50009035  0.40347706
   0.83282937  0.16716963  0.40434610
   0.99999967  0.99999933  0.40518982
   0.83282937  0.66565974  0.40434610
   0.00018170  0.50009035  0.40347706
Direct configuration=    37
   0.66884000 -0.00071326  0.16509324
   0.33044575 -0.00071326  0.16509324
   0.00071326  0.33115900  0.16509324
   0.00071326  0.66955325  0.16509324
   0.33044575  0.33115900  0.16509324
   0.66884000  0.66955325  0.16509324
   0.66666600  0.33333300  0.15875575
   0.33333300  0.66666600  0.18262257
   0.33326567  0.16663284  0.40454883
   0.50013903  0.00027805  0.40370883
   0.33333267  0.66666633  0.40273015
   0.50013903  0.49985997  0.40370883
   0.83336616  0.16663284  0.40454883
   0.99999967  0.99999933  0.40535908
   0.83336616  0.66673333  0.40454883
  -0.00027905  0.49985997  0.40370883
Direct configuration=    38
   0.66884243 -0.00071149  0.16509725
   0.33044508 -0.00071149  0.16509725
   0.00071149  0.33115657  0.16509725
   0.00071149  0.66955392  0.16509725
   0.33044508  0.33115657  0.16509725
   0.66884243  0.66955392  0.16509725
   0.66666600  0.33333300  0.15875994
   0.33333300  0.66666600  0.18262853
   0.33328696  0.16664348  0.40454481
   0.50013446  0.00026892  0.40370424
   0.33333267  0.66666633  0.40272513
   0.50013446  0.49986454  0.40370424
   0.83335552  0.16664348  0.40454481
   0.99999967  0.99999933  0.40535573
   0.83335552  0.66671204  0.40454481
  -0.00026992  0.49986454  0.40370424
Direct configuration=    39
   0.66877190 -0.00073419  0.16510465
   0.33049291 -0.00073419  0.16510465
   0.00073419  0.33122710  0.16510465
   0.00073419  0.66950609  0.16510465
   0.33049291  0.33122710  0.16510465
   0.66877190  0.66950609  0.16510465
   0.66666600  0.33333300  0.15872685
   0.33333300  0.66666600  0.18257848
   0.33328383  0.16664192  0.40453196
   0.50011390  0.00022780  0.40372821
   0.33333267  0.66666633  0.40278140
   0.50011390  0.49988510  0.40372821
   0.83335708  0.16664192  0.40453196
   0.99999967  0.99999933  0.40530490
   0.83335708  0.66671517  0.40453196
  -0.00022880  0.49988510  0.40372821
Direct configuration=    40
   0.66856033 -0.00080227  0.16512682
   0.33063640 -0.00080227  0.16512682
   0.00080227  0.33143867  0.16512682
   0.00080227  0.66936260  0.16512682
   0.33063640  0.33143867  0.16512682
   0.66856033  0.66936260  0.16512682
   0.66666600  0.33333300  0.15862760
   0.33333300  0.66666600  0.18242832
   0.33327447  0.16663723  0.40449340
   0.50005223  0.00010445  0.40380011
   0.33333267  0.66666633  0.40295022
   0.50005223  0.49994677  0.40380011
   0.83336177  0.16663723  0.40449340
   0.99999967  0.99999933  0.40515244
   0.83336177  0.66672453  0.40449340
  -0.00010545  0.49994677  0.40380011
Direct configuration=    41
   0.66813718 -0.00093844  0.16517117
   0.33092338 -0.00093844  0.16517117
   0.00093844  0.33186182  0.16517117
   0.00093844  0.66907562  0.16517117
   0.33092338  0.33186182  0.16517117
   0.66813718  0.66907562  0.16517117
   0.66666600  0.33333300  0.15842908
   0.33333300  0.66666600  0.18212800
   0.33325573  0.16662786  0.40441627
   0.49992888 -0.00014224  0.40394391
   0.33333267  0.66666633  0.40328785
   0.49992888  0.50007012  0.40394391
   0.83337114  0.16662786  0.40441627
   0.99999967  0.99999933  0.40484751
   0.83337114  0.66674327  0.40441627
   0.00014124  0.50007012  0.40394391
Direct configuration=    42
   0.66729089 -0.00121077  0.16525986
   0.33149735 -0.00121077  0.16525986
   0.00121077  0.33270811  0.16525986
   0.00121077  0.66850165  0.16525986
   0.33149735  0.33270811  0.16525986
   0.66729089  0.66850165  0.16525986
   0.66666600  0.33333300  0.15803206
   0.33333300  0.66666600  0.18152737
   0.33321826  0.16660913  0.40426202
   0.49968218 -0.00063563  0.40423153
   0.33333267  0.66666633  0.40396312
   0.49968218  0.50031682  0.40423153
   0.83338987  0.16660913  0.40426202
   0.99999967  0.99999933  0.40423765
   0.83338987  0.66678074  0.40426202
   0.00063463  0.50031682  0.40423153
Direct configuration=    43
   0.66774115 -0.00106588  0.16521267
   0.33119197 -0.00106588  0.16521267
   0.00106588  0.33225785  0.16521267
   0.00106588  0.66880703  0.16521267
   0.33119197  0.33225785  0.16521267
   0.66774115  0.66880703  0.16521267
   0.66666600  0.33333300  0.15824329
   0.33333300  0.66666600  0.18184693
   0.33323819  0.16661910  0.40434409
   0.49981344 -0.00037313  0.40407851
   0.33333267  0.66666633  0.40360385
   0.49981344  0.50018556  0.40407851
   0.83337990  0.16661910  0.40434409
   0.99999967  0.99999933  0.40456212
   0.83337990  0.66676081  0.40434409
   0.00037213  0.50018556  0.40407851
Direct configuration=    44
   0.66783351 -0.00096887  0.16524478
   0.33119661 -0.00096887  0.16524478
   0.00096887  0.33216549  0.16524478
   0.00096887  0.66880239  0.16524478
   0.33119661  0.33216549  0.16524478
   0.66783351  0.66880239  0.16524478
   0.66666600  0.33333300  0.15812809
   0.33333300  0.66666600  0.18170294
   0.33330283  0.16665141  0.40430468
   0.49989588 -0.00020823  0.40413679
   0.33333267  0.66666633  0.40375642
   0.49989588  0.50010312  0.40413679
   0.83334759  0.16665141  0.40430468
   0.99999967  0.99999933  0.40441946
   0.83334759  0.66669617  0.40430468
   0.00020723  0.50010312  0.40413679
Direct configuration=    45
   0.66811060 -0.00067787  0.16534111
   0.33121053 -0.00067787  0.16534111
   0.00067787  0.33188840  0.16534111
   0.00067787  0.66878847  0.16534111
   0.33121053  0.33188840  0.16534111
   0.66811060  0.66878847  0.16534111
   0.66666600  0.33333300  0.15778247
   0.33333300  0.66666600  0.18127096
   0.33349674  0.16674837  0.40418645
   0.50014323  0.00028646  0.40431164
   0.33333267  0.66666633  0.40421413
   0.50014323  0.49985577  0.40431164
   0.83325063  0.16674837  0.40418645
   0.99999967  0.99999933  0.40399149
   0.83325063  0.66650226  0.40418645
  -0.00028746  0.49985577  0.40431164
Direct configuration=    46
   0.66821568 -0.00056751  0.16537764
   0.33121580 -0.00056751  0.16537764
   0.00056751  0.33178332  0.16537764
   0.00056751  0.66878320  0.16537764
   0.33121580  0.33178332  0.16537764
   0.66821568  0.66878320  0.16537764
   0.66666600  0.33333300  0.15765140
   0.33333300  0.66666600  0.18110714
   0.33357028  0.16678514  0.40414162
   0.50023703  0.00047407  0.40437795
   0.33333267  0.66666633  0.40438771
   0.50023703  0.49976197  0.40437795
   0.83321386  0.16678514  0.40414162
   0.99999967  0.99999933  0.40382918
   0.83321386  0.66642872  0.40414162
  -0.00047507  0.49976197  0.40437795
Direct configuration=    47
   0.66849234 -0.00049575  0.16543761
   0.33101092 -0.00049575  0.16543761
   0.00049575  0.33150666  0.16543761
   0.00049575  0.66898808  0.16543761
   0.33101092  0.33150666  0.16543761
   0.66849234  0.66898808  0.16543761
   0.66666600  0.33333300  0.15746266
   0.33333300  0.66666600  0.18089278
   0.33343254  0.16671627  0.40410957
   0.50011808  0.00023615  0.40441888
   0.33333267  0.66666633  0.40451321
   0.50011808  0.49988092  0.40441888
   0.83328273  0.16671627  0.40410957