Lattice                                 
           1
     4.307610    2.487000    0.000000
    -4.307610    2.487000    0.000000
     0.000000    0.000000   15.000000
   B    C 
     8     8
Direct configuration=     1
   0.66888689  0.00000000  0.10000000
   0.33111211  0.00000000  0.10000000
   0.00000000  0.33111211  0.10000000
   0.00000000  0.66888689  0.10000000
   0.33111211  0.33111211  0.10000000
   0.66888689  0.66888689  0.10000000
   0.66666600  0.33333300  0.09922189
   0.33333300  0.66666600  0.10077811
   0.33333267  0.16666633  0.47060000
   0.49999967  0.99999933  0.47060000
   0.33333267  0.66666633  0.47060000
   0.49999967  0.49999933  0.47060000
   0.83333267  0.16666633  0.47060000
   0.99999967  0.99999933  0.47060000
   0.83333267  0.66666633  0.47060000
   0.99999967  0.49999933  0.47060000
Direct configuration=     2
   0.67071117  0.00000001  0.10002573
   0.32928784  0.00000001  0.10002573
  -0.00000001  0.32928783  0.10002573
  -0.00000001  0.67071116  0.10002573
   0.32928784  0.32928783  0.10002573
   0.67071117  0.67071116  0.10002573
   0.66666600  0.33333300  0.09924229
   0.33333300  0.66666600  0.10081487
   0.33332659  0.16666329  0.47057383
   0.50000087  0.00000173  0.47057330
   0.33333267  0.66666633  0.47057265
   0.50000087  0.49999813  0.47057330
   0.83333571  0.16666329  0.47057383
   0.99999967  0.99999933  0.47057443
   0.83333571  0.66667241  0.47057383
   0.99999727  0.49999813  0.47057330
Direct configuration=     3
   0.66981482  0.00000000  0.10001309
   0.33018419  0.00000000  0.10001309
  -0.00000000  0.33018418  0.10001309
  -0.00000000  0.66981481  0.10001309
   0.33018419  0.33018418  0.10001309
   0.66981482  0.66981481  0.10001309
   0.66666600  0.33333300  0.09923227
   0.33333300  0.66666600  0.10079681
   0.33332957  0.16666479  0.47058669
   0.50000028  0.00000055  0.47058642
   0.33333267  0.66666633  0.47058609
   0.50000028  0.49999872  0.47058642
   0.83333421  0.16666479  0.47058669
   0.99999967  0.99999933  0.47058699
   0.83333421  0.66666943  0.47058669
   0.99999845  0.49999872  0.47058642
Direct configuration=     4
   0.66982034  0.00000000  0.10001317
   0.33017867  0.00000000  0.10001317
  -0.00000000  0.33017866  0.10001317
  -0.00000000  0.66982033  0.10001317
   0.33017867  0.33017866  0.10001317
   0.66982034  0.66982033  0.10001317
   0.66666600  0.33333300  0.09923233
   0.33333300  0.66666600  0.10079692
   0.33332955  0.16666478  0.47058661
   0.50000028  0.00000056  0.47058634
   0.33333267  0.66666633  0.47058600
   0.50000028  0.49999872  0.47058634
   0.83333422  0.16666478  0.47058661
   0.99999967  0.99999933  0.47058692
   0.83333422  0.66666945  0.47058661
   0.99999844  0.49999872  0.47058634
Direct configuration=     5
   0.66981810  0.00000000  0.10001313
   0.33018091  0.00000000  0.10001313
  -0.00000000  0.33018090  0.10001313
  -0.00000000  0.66981809  0.10001313
   0.33018091  0.33018090  0.10001313
   0.66981810  0.66981809  0.10001313
   0.66666600  0.33333300  0.09923230
   0.33333300  0.66666600  0.10079688
   0.33332956  0.16666478  0.47058664
   0.50000028  0.00000056  0.47058637
   0.33333267  0.66666633  0.47058604
   0.50000028  0.49999872  0.47058637
   0.83333422  0.16666478  0.47058664
   0.99999967  0.99999933  0.47058695
   0.83333422  0.66666944  0.47058664
   0.99999844  0.49999872  0.47058637
Direct configuration=     6
   0.66981646  0.00000000  0.10001311
   0.33018255  0.00000000  0.10001311
  -0.00000000  0.33018254  0.10001311
  -0.00000000  0.66981645  0.10001311
   0.33018255  0.33018254  0.10001311
   0.66981646  0.66981645  0.10001311
   0.66666600  0.33333300  0.09923228
   0.33333300  0.66666600  0.10079684
   0.33332957  0.16666478  0.47058666
   0.50000028  0.00000056  0.47058639
   0.33333267  0.66666633  0.47058606
   0.50000028  0.49999872  0.47058639
   0.83333422  0.16666478  0.47058666
   0.99999967  0.99999933  0.47058697
   0.83333422  0.66666943  0.47058666
   0.99999844  0.49999872  0.47058639
Direct configuration=     7
   0.66981564  0.00000000  0.10001310
   0.33018337  0.00000000  0.10001310
  -0.00000000  0.33018336  0.10001310
  -0.00000000  0.66981563  0.10001310
   0.33018337  0.33018336  0.10001310
   0.66981564  0.66981563  0.10001310
   0.66666600  0.33333300  0.09923228
   0.33333300  0.66666600  0.10079683
   0.33332957  0.16666479  0.47058667
   0.50000028  0.00000056  0.47058641
   0.33333267  0.66666633  0.47058607
   0.50000028  0.49999872  0.47058641
   0.83333421  0.16666479  0.47058667
   0.99999967  0.99999933  0.47058698
   0.83333421  0.66666943  0.47058667
   0.99999844  0.49999872  0.47058641
Direct configuration=     8
   0.66981561 -0.00000001  0.10003653
   0.33018338 -0.00000001  0.10003653
   0.00000001  0.33018339  0.10003653
   0.00000001  0.66981562  0.10003653
   0.33018338  0.33018339  0.10003653
   0.66981561  0.66981562  0.10003653
   0.66666600  0.33333300  0.09925379
   0.33333300  0.66666600  0.10082642
   0.33333411  0.16666705  0.47056291
   0.49999936 -0.00000127  0.47056226
   0.33333267  0.66666633  0.47056150
   0.49999936  0.49999964  0.47056226
   0.83333195  0.16666705  0.47056291
   0.99999967  0.99999933  0.47056360
   0.83333195  0.66666489  0.47056291
   0.00000027  0.49999964  0.47056226
Direct configuration=     9
   0.66981553 -0.00000007  0.10010683
   0.33018340 -0.00000007  0.10010683
   0.00000007  0.33018347  0.10010683
   0.00000007  0.66981560  0.10010683
   0.33018340  0.33018347  0.10010683
   0.66981553  0.66981560  0.10010683
   0.66666600  0.33333300  0.09931834
   0.33333300  0.66666600  0.10091521
   0.33334772  0.16667386  0.47049161
   0.49999662 -0.00000676  0.47048980
   0.33333267  0.66666633  0.47048778
   0.49999662  0.50000238  0.47048980
   0.83332514  0.16667386  0.47049161
   0.99999967  0.99999933  0.47049347
   0.83332514  0.66665128  0.47049161
   0.00000576  0.50000238  0.47048980
Direct configuration=    10
   0.66981537 -0.00000019  0.10024742
   0.33018344 -0.00000019  0.10024742
   0.00000019  0.33018363  0.10024742
   0.00000019  0.66981556  0.10024742
   0.33018344  0.33018363  0.10024742
   0.66981537  0.66981556  0.10024742
   0.66666600  0.33333300  0.09944744
   0.33333300  0.66666600  0.10109277
   0.33337495  0.16668747  0.47034901
   0.49999113 -0.00001774  0.47034489
   0.33333267  0.66666633  0.47034033
   0.49999113  0.50000787  0.47034489
   0.83331153  0.16668747  0.47034901
   0.99999967  0.99999933  0.47035321
   0.83331153  0.66662405  0.47034901
   0.00001674  0.50000787  0.47034489
Direct configuration=    11
   0.66981506 -0.00000042  0.10052861
   0.33018352 -0.00000042  0.10052861
   0.00000042  0.33018394  0.10052861
   0.00000042  0.66981548  0.10052861
   0.33018352  0.33018394  0.10052861
   0.66981506  0.66981548  0.10052861
   0.66666600  0.33333300  0.09970565
   0.33333300  0.66666600  0.10144791
   0.33342940  0.16671470  0.47006381
   0.49998015 -0.00003969  0.47005508
   0.33333267  0.66666633  0.47004543
   0.49998015  0.50001885  0.47005508
   0.83328430  0.16671470  0.47006381
   0.99999967  0.99999933  0.47007268
   0.83328430  0.66656960  0.47006381
   0.00003869  0.50001885  0.47005508
Direct configuration=    12
   0.66981443 -0.00000088  0.10109098
   0.33018369 -0.00000088  0.10109098
   0.00000088  0.33018457  0.10109098
   0.00000088  0.66981531  0.10109098
   0.33018369  0.33018457  0.10109098
   0.66981443  0.66981531  0.10109098
   0.66666600  0.33333300  0.10022205
   0.33333300  0.66666600  0.10215819
   0.33353830  0.16676915  0.46949342
   0.49995820 -0.00008359  0.46947544
   0.33333267  0.66666633  0.46945564
   0.49995820  0.50004080  0.46947544
   0.83322985  0.16676915  0.46949342
   0.99999967  0.99999933  0.46951163
   0.83322985  0.66646070  0.46949342
   0.00008259  0.50004080  0.46947544
Direct configuration=    13
   0.66981316 -0.00000181  0.10221573
   0.33018403 -0.00000181  0.10221573
   0.00000181  0.33018584  0.10221573
   0.00000181  0.66981497  0.10221573
   0.33018403  0.33018584  0.10221573
   0.66981316  0.66981497  0.10221573
   0.66666600  0.33333300  0.10125487
   0.33333300  0.66666600  0.10357874
   0.33375610  0.16687805  0.46835263
   0.49991430 -0.00017140  0.46831618
   0.33333267  0.66666633  0.46827606
   0.49991430  0.50008470  0.46831618
   0.83312095  0.16687805  0.46835263
   0.99999967  0.99999933  0.46838953
   0.83312095  0.66624290  0.46835263
   0.00017040  0.50008470  0.46831618
Direct configuration=    14
   0.66981064 -0.00000366  0.10446523
   0.33018470 -0.00000366  0.10446523
   0.00000366  0.33018836  0.10446523
   0.00000366  0.66981430  0.10446523
   0.33018470  0.33018836  0.10446523
   0.66981064  0.66981430  0.10446523
   0.66666600  0.33333300  0.10332049
   0.33333300  0.66666600  0.10641984
   0.33419170  0.16709585  0.46607105
   0.49982649 -0.00034702  0.46599765
   0.33333267  0.66666633  0.46591690
   0.49982649  0.50017251  0.46599765
   0.83290315  0.16709585  0.46607105
   0.99999967  0.99999933  0.46614533
   0.83290315  0.66580730  0.46607105
   0.00034602  0.50017251  0.46599765
Direct configuration=    15
   0.66980558 -0.00000736  0.10896422
   0.33018606 -0.00000736  0.10896422
   0.00000736  0.33019342  0.10896422
   0.00000736  0.66981294  0.10896422
   0.33018606  0.33019342  0.10896422
   0.66980558  0.66981294  0.10896422
   0.66666600  0.33333300  0.10745174
   0.33333300  0.66666600  0.11210205
   0.33506290  0.16753145  0.46150788
   0.49965087 -0.00069825  0.46136059
   0.33333267  0.66666633  0.46119858
   0.49965087  0.50034813  0.46136059
   0.83246755  0.16753145  0.46150788
   0.99999967  0.99999933  0.46165692
   0.83246755  0.66493610  0.46150788
   0.00069725  0.50034813  0.46136059
Direct configuration=    16
   0.66979548 -0.00001476  0.11796220
   0.33018876 -0.00001476  0.11796220
   0.00001476  0.33020352  0.11796220
   0.00001476  0.66981024  0.11796220
   0.33018876  0.33020352  0.11796220
   0.66979548  0.66981024  0.11796220
   0.66666600  0.33333300  0.11571423
   0.33333300  0.66666600  0.12346646
   0.33680530  0.16840265  0.45238156
   0.49929964 -0.00140071  0.45208647
   0.33333267  0.66666633  0.45176193
   0.49929964  0.50069936  0.45208647
   0.83159635  0.16840265  0.45238156
   0.99999967  0.99999933  0.45268011
   0.83159635  0.66319370  0.45238156
   0.00139971  0.50069936  0.45208647
Direct configuration=    17
   0.66979548 -0.00001477  0.11796311
   0.33018876 -0.00001477  0.11796311
   0.00001477  0.33020352  0.11796311
   0.00001477  0.66981024  0.11796311
   0.33018876  0.33020352  0.11796311
   0.66979548  0.66981024  0.11796311
   0.66666600  0.33333300  0.11571507
   0.33333300  0.66666600  0.12346761
   0.33680537  0.16840268  0.45238063
   0.49929963 -0.00140074  0.45208553
   0.33333267  0.66666633  0.45176098
   0.49929963  0.50069937  0.45208553
   0.83159632  0.16840268  0.45238063
   0.99999967  0.99999933  0.45267919
   0.83159632  0.66319363  0.45238063
   0.00139974  0.50069937  0.45208553
Direct configuration=    18
   0.66979547 -0.00001477  0.11796584
   0.33018876 -0.00001477  0.11796584
   0.00001477  0.33020353  0.11796584
   0.00001477  0.66981024  0.11796584
   0.33018876  0.33020353  0.11796584
   0.66979547  0.66981024  0.11796584
   0.66666600  0.33333300  0.11571758
   0.33333300  0.66666600  0.12347107
   0.33680557  0.16840278  0.45237786
   0.49929959 -0.00140082  0.45208272
   0.33333267  0.66666633  0.45175811
   0.49929959  0.50069941  0.45208272
   0.83159622  0.16840278  0.45237786
   0.99999967  0.99999933  0.45267646
   0.83159622  0.66319343  0.45237786
   0.00139982  0.50069941  0.45208272
Direct configuration=    19
   0.66979545 -0.00001479  0.11797131
   0.33018876 -0.00001479  0.11797131
   0.00001479  0.33020355  0.11797131
   0.00001479  0.66981024  0.11797131
   0.33018876  0.33020355  0.11797131
   0.66979545  0.66981024  0.11797131
   0.66666600  0.33333300  0.11572259
   0.33333300  0.66666600  0.12347797
   0.33680597  0.16840298  0.45237231
   0.49929951 -0.00140097  0.45207708
   0.33333267  0.66666633  0.45175239
   0.49929951  0.50069949  0.45207708
   0.83159602  0.16840298  0.45237231
   0.99999967  0.99999933  0.45267099
   0.83159602  0.66319303  0.45237231
   0.00139997  0.50069949  0.45207708
Direct configuration=    20
   0.66979542 -0.00001481  0.11798226
   0.33018877 -0.00001481  0.11798226
   0.00001481  0.33020358  0.11798226
   0.00001481  0.66981023  0.11798226
   0.33018877  0.33020358  0.11798226
   0.66979542  0.66981023  0.11798226
   0.66666600  0.33333300  0.11573262
   0.33333300  0.66666600  0.12349177
   0.33680677  0.16840338  0.45236121
   0.49929936 -0.00140128  0.45206582
   0.33333267  0.66666633  0.45174094
   0.49929936  0.50069964  0.45206582
   0.83159562  0.16840338  0.45236121
   0.99999967  0.99999933  0.45266006
   0.83159562  0.66319223  0.45236121
   0.00140028  0.50069964  0.45206582
Direct configuration=    21
   0.66979535 -0.00001486  0.11800414
   0.33018879 -0.00001486  0.11800414
   0.00001486  0.33020365  0.11800414
   0.00001486  0.66981021  0.11800414
   0.33018879  0.33020365  0.11800414
   0.66979535  0.66981021  0.11800414
   0.66666600  0.33333300  0.11575269
   0.33333300  0.66666600  0.12351937
   0.33680837  0.16840418  0.45233901
   0.49929905 -0.00140189  0.45204328
   0.33333267  0.66666633  0.45171805
   0.49929905  0.50069995  0.45204328
   0.83159482  0.16840418  0.45233901
   0.99999967  0.99999933  0.45263819
   0.83159482  0.66319063  0.45233901
   0.00140089  0.50069995  0.45204328
Direct configuration=    22
   0.66979521 -0.00001497  0.11804791
   0.33018882 -0.00001497  0.11804791
   0.00001497  0.33020379  0.11804791
   0.00001497  0.66981018  0.11804791
   0.33018882  0.33020379  0.11804791
   0.66979521  0.66981018  0.11804791
   0.66666600  0.33333300  0.11579281
   0.33333300  0.66666600  0.12357459
   0.33681157  0.16840578  0.45229460
   0.49929844 -0.00140312  0.45199822
   0.33333267  0.66666633  0.45167226
   0.49929844  0.50070056  0.45199822
   0.83159322  0.16840578  0.45229460
   0.99999967  0.99999933  0.45259444
   0.83159322  0.66318743  0.45229460
   0.00140212  0.50070056  0.45199822
Direct configuration=    23
   0.66979494 -0.00001518  0.11813544
   0.33018888 -0.00001518  0.11813544
   0.00001518  0.33020406  0.11813544
   0.00001518  0.66981012  0.11813544
   0.33018888  0.33020406  0.11813544
   0.66979494  0.66981012  0.11813544
   0.66666600  0.33333300  0.11587306
   0.33333300  0.66666600  0.12368501
   0.33681797  0.16840899  0.45220580
   0.49929721 -0.00140558  0.45190808
   0.33333267  0.66666633  0.45158069
   0.49929721  0.50070179  0.45190808
   0.83159001  0.16840899  0.45220580
   0.99999967  0.99999933  0.45250696
   0.83159001  0.66318103  0.45220580
   0.00140458  0.50070179  0.45190808
Direct configuration=    24
   0.66979439 -0.00001559  0.11831051
   0.33018901 -0.00001559  0.11831051
   0.00001559  0.33020461  0.11831051
   0.00001559  0.66980999  0.11831051
   0.33018901  0.33020461  0.11831051
   0.66979439  0.66980999  0.11831051
   0.66666600  0.33333300  0.11603357
   0.33333300  0.66666600  0.12390585
   0.33683078  0.16841539  0.45202819
   0.49929475 -0.00141049  0.45172782
   0.33333267  0.66666633  0.45139754
   0.49929475  0.50070425  0.45172782
   0.83158361  0.16841539  0.45202819
   0.99999967  0.99999933  0.45233199
   0.83158361  0.66316822  0.45202819
   0.00140949  0.50070425  0.45172782
Direct configuration=    25
   0.66979330 -0.00001643  0.11866065
   0.33018927 -0.00001643  0.11866065
   0.00001643  0.33020570  0.11866065
   0.00001643  0.66980973  0.11866065
   0.33018927  0.33020570  0.11866065
   0.66979330  0.66980973  0.11866065
   0.66666600  0.33333300  0.11635457
   0.33333300  0.66666600  0.12434753
   0.33685640  0.16842820  0.45167296
   0.49928984 -0.00142033  0.45136728
   0.33333267  0.66666633  0.45103125
   0.49928984  0.50070916  0.45136728
   0.83157080  0.16842820  0.45167296
   0.99999967  0.99999933  0.45198205
   0.83157080  0.66314260  0.45167296
   0.00141933  0.50070916  0.45136728
Direct configuration=    26
   0.66979111 -0.00001810  0.11936092
   0.33018979 -0.00001810  0.11936092
   0.00001810  0.33020789  0.11936092
   0.00001810  0.66980921  0.11936092
   0.33018979  0.33020789  0.11936092
   0.66979111  0.66980921  0.11936092
   0.66666600  0.33333300  0.11699658
   0.33333300  0.66666600  0.12523090
   0.33690763  0.16845382  0.45096251
   0.49928000 -0.00143999  0.45064621
   0.33333267  0.66666633  0.45029866
   0.49928000  0.50071900  0.45064621
   0.83154518  0.16845382  0.45096251
   0.99999967  0.99999933  0.45128216
   0.83154518  0.66309137  0.45096251
   0.00143899  0.50071900  0.45064621
Direct configuration=    27
   0.66978673 -0.00002143  0.12076147
   0.33019083 -0.00002143  0.12076147
   0.00002143  0.33021227  0.12076147
   0.00002143  0.66980817  0.12076147
   0.33019083  0.33021227  0.12076147
   0.66978673  0.66980817  0.12076147
   0.66666600  0.33333300  0.11828060
   0.33333300  0.66666600  0.12699764
   0.33701010  0.16850505  0.44954162
   0.49926034 -0.00147932  0.44920407
   0.33333267  0.66666633  0.44883347
   0.49926034  0.50073866  0.44920407
   0.83149395  0.16850505  0.44954162
   0.99999967  0.99999933  0.44988240
   0.83149395  0.66298890  0.44954162
   0.00147832  0.50073866  0.44920407
Direct configuration=    28
   0.66977798 -0.00002810  0.12356256
   0.33019291 -0.00002810  0.12356256
   0.00002810  0.33022102  0.12356256
   0.00002810  0.66980609  0.12356256
   0.33019291  0.33022102  0.12356256
   0.66977798  0.66980609  0.12356256
   0.66666600  0.33333300  0.12084865
   0.33333300  0.66666600  0.13053112
   0.33721503  0.16860751  0.44669983
   0.49922101 -0.00155798  0.44631979
   0.33333267  0.66666633  0.44590311
   0.49922101  0.50077799  0.44631979
   0.83139149  0.16860751  0.44669983
   0.99999967  0.99999933  0.44708287
   0.83139149  0.66278397  0.44669983
   0.00155698  0.50077799  0.44631979
Direct configuration=    29
   0.66976048 -0.00004144  0.12916475
   0.33019707 -0.00004144  0.12916475
   0.00004144  0.33023852  0.12916475
   0.00004144  0.66980193  0.12916475
   0.33019707  0.33023852  0.12916475
   0.66976048  0.66980193  0.12916475
   0.66666600  0.33333300  0.12598474
   0.33333300  0.66666600  0.13759807
   0.33762489  0.16881245  0.44101625
   0.49914235 -0.00171529  0.44055124
   0.33333267  0.66666633  0.44004238
   0.49914235  0.50085665  0.44055124
   0.83118655  0.16881245  0.44101625
   0.99999967  0.99999933  0.44148382
   0.83118655  0.66237411  0.44101625
   0.00171429  0.50085665  0.44055124
Direct configuration=    30
   0.66972548 -0.00006813  0.14036913
   0.33020539 -0.00006813  0.14036913
   0.00006813  0.33027352  0.14036913
   0.00006813  0.66979361  0.14036913
   0.33020539  0.33027352  0.14036913
   0.66972548  0.66979361  0.14036913
   0.66666600  0.33333300  0.13625691
   0.33333300  0.66666600  0.15173199
   0.33844462  0.16922231  0.42964910
   0.49898504 -0.00202992  0.42901413
   0.33333267  0.66666633  0.42832093
   0.49898504  0.50101396  0.42901413
   0.83077669  0.16922231  0.42964910
   0.99999967  0.99999933  0.43028570
   0.83077669  0.66155438  0.42964910
   0.00202892  0.50101396  0.42901413
Direct configuration=    31
   0.66965547 -0.00012150  0.16277789
   0.33022203 -0.00012150  0.16277789
   0.00012150  0.33034353  0.16277789
   0.00012150  0.66977697  0.16277789
   0.33022203  0.33034353  0.16277789
   0.66965547  0.66977697  0.16277789
   0.66666600  0.33333300  0.15680126
   0.33333300  0.66666600  0.17999981
   0.34008407  0.17004203  0.40691478
   0.49867041 -0.00265918  0.40593991
   0.33333267  0.66666633  0.40487803
   0.49867041  0.50132859  0.40593991
   0.82995697  0.17004203  0.40691478
   0.99999967  0.99999933  0.40788948
   0.82995697  0.65991493  0.40691478
   0.00265818  0.50132859  0.40593991
