Lattice                                 
           1
     4.476485    2.584500    0.000000
    -4.476485    2.584500    0.000000
     0.000000    0.000000   15.000000
   B    C 
     2     6
Direct configuration=     1
   0.33835568  0.66919338  0.25000000
   0.67168550  0.33578412  0.25000000
   0.16393418  0.32096121  0.25000000
   0.32344383  0.16194918  0.25000000
   0.16445142  0.84350783  0.25000000
   0.84555675  0.16147694  0.25000000
   0.68650730  0.84304996  0.25000000
   0.84606136  0.68407339  0.25000000
Direct configuration=     2
   0.33826096  0.66913789  0.25000000
   0.67167031  0.33589161  0.25000000
   0.16281401  0.31804958  0.25000000
   0.32052415  0.16045111  0.25000000
   0.16295924  0.84489275  0.25000000
   0.84701509  0.16013920  0.25000000
   0.68957100  0.84455666  0.25000000
   0.84718124  0.68687720  0.25000000
Direct configuration=     3
   0.33832471  0.66917523  0.25000000
   0.67168053  0.33581927  0.25000000
   0.16356789  0.32000912  0.25000000
   0.32248911  0.16145932  0.25000000
   0.16396348  0.84396069  0.25000000
   0.84603362  0.16103951  0.25000000
   0.68750912  0.84354264  0.25000000
   0.84642755  0.68499022  0.25000000
Direct configuration=     4
   0.33832472  0.66917525  0.25000000
   0.67168053  0.33581925  0.25000000
   0.16356812  0.32000972  0.25000000
   0.32248971  0.16145963  0.25000000
   0.16396379  0.84396040  0.25000000
   0.84603332  0.16103978  0.25000000
   0.68750849  0.84354233  0.25000000
   0.84642732  0.68498965  0.25000000
Direct configuration=     5
   0.33835319  0.66917134  0.25000000
   0.67163668  0.33583227  0.25000000
   0.16358212  0.31999688  0.25000000
   0.32253777  0.16135880  0.25000000
   0.16380860  0.84385578  0.25000000
   0.84619375  0.16114554  0.25000000
   0.68746199  0.84363687  0.25000000
   0.84642191  0.68499852  0.25000000
Direct configuration=     6
   0.33834034  0.66917310  0.25000000
   0.67165647  0.33582639  0.25000000
   0.16357580  0.32000267  0.25000000
   0.32251608  0.16140429  0.25000000
   0.16387862  0.84390299  0.25000000
   0.84612136  0.16109782  0.25000000
   0.68748297  0.84359421  0.25000000
   0.84642435  0.68499451  0.25000000
Direct configuration=     7
   0.33833493  0.66916867  0.25000000
   0.67165612  0.33583402  0.25000000
   0.16365877  0.32000113  0.25000000
   0.32250890  0.16133292  0.25000000
   0.16382055  0.84383225  0.25000000
   0.84618099  0.16116849  0.25000000
   0.68749103  0.84366328  0.25000000
   0.84634472  0.68499524  0.25000000
Direct configuration=     8
   0.33832880  0.66916367  0.25000000
   0.67165573  0.33584263  0.25000000
   0.16375256  0.31999939  0.25000000
   0.32250077  0.16125223  0.25000000
   0.16375490  0.84375230  0.25000000
   0.84624839  0.16124837  0.25000000
   0.68750014  0.84374135  0.25000000
   0.84625470  0.68499607  0.25000000
Direct configuration=     9
   0.33833421  0.66916508  0.25000000
   0.67166631  0.33583189  0.25000000
   0.16374615  0.31999989  0.25000000
   0.32249990  0.16125030  0.25000000
   0.16375428  0.84374885  0.25000000
   0.84624418  0.16125091  0.25000000
   0.68749960  0.84375008  0.25000000
   0.84625136  0.68499899  0.25000000
