  15  15   0   4
  0.1999482E+02  0.4805000E-09  0.4805000E-09  0.1500000E-08  0.5000000E-15
  1.000000000000000E-004
  CAR 
 Lattice                                 
     10.47248099    -21.77388485  301     -0.17954897      1.00000000
    -21.774  0.0000E+00  0.0000E+00  0.0000E+00  0.0000E+00
    -21.666  0.0000E+00  0.0000E+00  0.0000E+00  0.0000E+00
    -21.559  0.0000E+00  0.0000E+00  0.0000E+00  0.0000E+00
    -21.451  0.0000E+00  0.0000E+00  0.0000E+00  0.0000E+00
    -21.344  0.0000E+00  0.0000E+00  0.0000E+00  0.0000E+00
    -21.236  0.0000E+00  0.0000E+00  0.0000E+00  0.0000E+00
    -21.129  0.0000E+00  0.0000E+00  0.0000E+00  0.0000E+00
    -21.021  0.0000E+00  0.0000E+00  0.0000E+00  0.0000E+00
    -20.914  0.0000E+00  0.0000E+00  0.0000E+00  0.0000E+00
    -20.806  0.4879E-15  0.4879E-15  0.5244E-16  0.5244E-16
    -20.699  0.9475E-11  0.9475E-11  0.1018E-11  0.1019E-11
    -20.592  0.2142E-07  0.2142E-07  0.2304E-08  0.2304E-08
    -20.484  0.6229E-05  0.6229E-05  0.6719E-06  0.6719E-06
    -20.377  0.2614E-03  0.2614E-03  0.2877E-04  0.2877E-04
    -20.269  0.1940E-02  0.1940E-02  0.2373E-03  0.2373E-03
    -20.162  0.4096E-02  0.4096E-02  0.6776E-03  0.6776E-03
    -20.054  0.4440E-02  0.4440E-02  0.1155E-02  0.1155E-02
    -19.947  0.4884E-02  0.4884E-02  0.1680E-02  0.1680E-02
    -19.839  0.4066E-02  0.4066E-02  0.2117E-02  0.2117E-02
    -19.732  0.5293E-02  0.5293E-02  0.2686E-02  0.2686E-02
    -19.624  0.4230E-02  0.4230E-02  0.3140E-02  0.3140E-02
    -19.517  0.4055E-02  0.4055E-02  0.3576E-02  0.3576E-02
    -19.409  0.5954E-02  0.5954E-02  0.4216E-02  0.4216E-02
    -19.302  0.3925E-02  0.3925E-02  0.4638E-02  0.4638E-02
    -19.194  0.3604E-02  0.3604E-02  0.5025E-02  0.5025E-02
    -19.087  0.5974E-02  0.5974E-02  0.5668E-02  0.5668E-02
    -18.979  0.5307E-02  0.5307E-02  0.6238E-02  0.6238E-02
    -18.872  0.3094E-02  0.3094E-02  0.6571E-02  0.6571E-02
    -18.764  0.3826E-02  0.3826E-02  0.6982E-02  0.6982E-02
    -18.657  0.6875E-02  0.6875E-02  0.7721E-02  0.7721E-02
    -18.549  0.4781E-02  0.4781E-02  0.8235E-02  0.8235E-02
    -18.442  0.3827E-02  0.3827E-02  0.8646E-02  0.8646E-02
    -18.334  0.2803E-02  0.2803E-02  0.8947E-02  0.8947E-02
    -18.227  0.5917E-02  0.5917E-02  0.9583E-02  0.9583E-02
    -18.119  0.6948E-02  0.6948E-02  0.1033E-01  0.1033E-01
    -18.012  0.3940E-02  0.3940E-02  0.1075E-01  0.1075E-01
    -17.904  0.2966E-02  0.2966E-02  0.1107E-01  0.1107E-01
    -17.797  0.3952E-02  0.3952E-02  0.1150E-01  0.1150E-01
    -17.689  0.5529E-02  0.5529E-02  0.1209E-01  0.1209E-01
    -17.582  0.7016E-02  0.7016E-02  0.1285E-01  0.1285E-01
    -17.474  0.6115E-02  0.6115E-02  0.1350E-01  0.1350E-01
    -17.367  0.7460E-02  0.7459E-02  0.1430E-01  0.1430E-01
    -17.259  0.9455E-02  0.9455E-02  0.1532E-01  0.1532E-01
    -17.152  0.1387E-01  0.1387E-01  0.1681E-01  0.1681E-01
    -17.044  0.1585E-01  0.1585E-01  0.1851E-01  0.1851E-01
    -16.937  0.1741E-01  0.1741E-01  0.2039E-01  0.2039E-01
    -16.829  0.2086E-01  0.2086E-01  0.2263E-01  0.2263E-01
    -16.722  0.1598E-01  0.1598E-01  0.2435E-01  0.2435E-01
    -16.614  0.4434E-02  0.4434E-02  0.2482E-01  0.2482E-01
    -16.507  0.5062E-02  0.5062E-02  0.2537E-01  0.2537E-01
    -16.399  0.8979E-02  0.8979E-02  0.2633E-01  0.2633E-01
    -16.292  0.5122E-02  0.5122E-02  0.2688E-01  0.2688E-01
    -16.185  0.4241E-02  0.4241E-02  0.2734E-01  0.2734E-01
    -16.077  0.3661E-02  0.3661E-02  0.2773E-01  0.2773E-01
    -15.970  0.4084E-02  0.4084E-02  0.2817E-01  0.2817E-01
    -15.862  0.3057E-02  0.3057E-02  0.2850E-01  0.2850E-01
    -15.755  0.6143E-02  0.6143E-02  0.2916E-01  0.2916E-01
    -15.647  0.8925E-02  0.8925E-02  0.3012E-01  0.3012E-01
    -15.540  0.5157E-02  0.5157E-02  0.3067E-01  0.3067E-01
    -15.432  0.3649E-02  0.3649E-02  0.3107E-01  0.3107E-01
    -15.325  0.3331E-02  0.3331E-02  0.3142E-01  0.3142E-01
    -15.217  0.3767E-02  0.3767E-02  0.3183E-01  0.3183E-01
    -15.110  0.5464E-02  0.5464E-02  0.3242E-01  0.3242E-01
    -15.002  0.9100E-02  0.9100E-02  0.3339E-01  0.3339E-01
    -14.895  0.1571E-01  0.1571E-01  0.3508E-01  0.3508E-01
    -14.787  0.1911E-01  0.1911E-01  0.3714E-01  0.3714E-01
    -14.680  0.1683E-01  0.1683E-01  0.3895E-01  0.3895E-01
    -14.572  0.1367E-01  0.1367E-01  0.4042E-01  0.4042E-01
    -14.465  0.8032E-02  0.8032E-02  0.4128E-01  0.4128E-01
    -14.357  0.1045E-01  0.1045E-01  0.4240E-01  0.4240E-01
    -14.250  0.1530E-01  0.1530E-01  0.4405E-01  0.4405E-01
    -14.142  0.1421E-01  0.1421E-01  0.4557E-01  0.4557E-01
    -14.035  0.1147E-01  0.1147E-01  0.4681E-01  0.4681E-01
    -13.927  0.1082E-01  0.1082E-01  0.4797E-01  0.4797E-01
    -13.820  0.1729E-01  0.1729E-01  0.4983E-01  0.4983E-01
    -13.712  0.1952E-01  0.1952E-01  0.5193E-01  0.5193E-01
    -13.605  0.1822E-01  0.1822E-01  0.5388E-01  0.5388E-01
    -13.497  0.1458E-01  0.1458E-01  0.5545E-01  0.5545E-01
    -13.390  0.8467E-02  0.8467E-02  0.5636E-01  0.5636E-01
    -13.282  0.3553E-02  0.3553E-02  0.5674E-01  0.5674E-01
    -13.175  0.3160E-02  0.3160E-02  0.5708E-01  0.5708E-01
    -13.067  0.5542E-02  0.5542E-02  0.5768E-01  0.5768E-01
    -12.960  0.7234E-02  0.7234E-02  0.5846E-01  0.5846E-01
    -12.852  0.5276E-02  0.5276E-02  0.5902E-01  0.5902E-01
    -12.745  0.5489E-02  0.5489E-02  0.5961E-01  0.5961E-01
    -12.637  0.6479E-02  0.6479E-02  0.6031E-01  0.6031E-01
    -12.530  0.6332E-02  0.6332E-02  0.6099E-01  0.6099E-01
    -12.422  0.5565E-02  0.5565E-02  0.6159E-01  0.6159E-01
    -12.315  0.4272E-02  0.4272E-02  0.6205E-01  0.6205E-01
    -12.207  0.4137E-02  0.4137E-02  0.6249E-01  0.6249E-01
    -12.100  0.7977E-02  0.7977E-02  0.6335E-01  0.6335E-01
    -11.992  0.5412E-02  0.5412E-02  0.6393E-01  0.6393E-01
    -11.885  0.3095E-02  0.3095E-02  0.6426E-01  0.6426E-01
    -11.778  0.3639E-02  0.3639E-02  0.6466E-01  0.6466E-01
    -11.670  0.3734E-02  0.3734E-02  0.6506E-01  0.6506E-01
    -11.563  0.6524E-02  0.6524E-02  0.6576E-01  0.6576E-01
    -11.455  0.6179E-02  0.6179E-02  0.6642E-01  0.6642E-01
    -11.348  0.2558E-02  0.2558E-02  0.6670E-01  0.6670E-01
    -11.240  0.2815E-02  0.2816E-02  0.6700E-01  0.6700E-01
    -11.133  0.5541E-02  0.5541E-02  0.6760E-01  0.6760E-01
    -11.025  0.6337E-02  0.6337E-02  0.6828E-01  0.6828E-01
    -10.918  0.6813E-02  0.6813E-02  0.6901E-01  0.6901E-01
    -10.810  0.6648E-02  0.6648E-02  0.6972E-01  0.6972E-01
    -10.703  0.3996E-02  0.3996E-02  0.7015E-01  0.7015E-01
    -10.595  0.6382E-02  0.6382E-02  0.7084E-01  0.7084E-01
    -10.488  0.1149E-01  0.1149E-01  0.7207E-01  0.7207E-01
    -10.380  0.1464E-01  0.1464E-01  0.7365E-01  0.7365E-01
    -10.273  0.1653E-01  0.1653E-01  0.7543E-01  0.7543E-01
    -10.165  0.1575E-01  0.1575E-01  0.7712E-01  0.7712E-01
    -10.058  0.1557E-01  0.1557E-01  0.7879E-01  0.7879E-01
     -9.950  0.1714E-01  0.1714E-01  0.8063E-01  0.8063E-01
     -9.843  0.1096E-01  0.1096E-01  0.8181E-01  0.8181E-01
     -9.735  0.8234E-02  0.8234E-02  0.8270E-01  0.8270E-01
     -9.628  0.1307E-01  0.1307E-01  0.8410E-01  0.8410E-01
     -9.520  0.1264E-01  0.1264E-01  0.8546E-01  0.8546E-01
     -9.413  0.1472E-01  0.1472E-01  0.8704E-01  0.8704E-01
     -9.305  0.1788E-01  0.1788E-01  0.8896E-01  0.8896E-01
     -9.198  0.1585E-01  0.1585E-01  0.9067E-01  0.9067E-01
     -9.090  0.1074E-01  0.1074E-01  0.9182E-01  0.9182E-01
     -8.983  0.5920E-02  0.5920E-02  0.9246E-01  0.9246E-01
     -8.875  0.1081E-01  0.1081E-01  0.9362E-01  0.9362E-01
     -8.768  0.2272E-01  0.2272E-01  0.9606E-01  0.9606E-01
     -8.660  0.1830E-01  0.1830E-01  0.9803E-01  0.9803E-01
     -8.553  0.8754E-02  0.8754E-02  0.9897E-01  0.9897E-01
     -8.445  0.8758E-02  0.8758E-02  0.9991E-01  0.9991E-01
     -8.338  0.1713E-01  0.1713E-01  0.1018E+00  0.1018E+00
     -8.230  0.2260E-01  0.2260E-01  0.1042E+00  0.1042E+00
     -8.123  0.1349E-01  0.1349E-01  0.1056E+00  0.1056E+00
     -8.015  0.1247E-01  0.1247E-01  0.1070E+00  0.1070E+00
     -7.908  0.2200E-01  0.2200E-01  0.1093E+00  0.1093E+00
     -7.800  0.2363E-01  0.2363E-01  0.1119E+00  0.1119E+00
     -7.693  0.2331E-01  0.2331E-01  0.1144E+00  0.1144E+00
     -7.585  0.1455E-01  0.1455E-01  0.1159E+00  0.1159E+00
     -7.478  0.7694E-02  0.7694E-02  0.1168E+00  0.1168E+00
     -7.371  0.1528E-01  0.1528E-01  0.1184E+00  0.1184E+00
     -7.263  0.1751E-01  0.1751E-01  0.1203E+00  0.1203E+00
     -7.156  0.1227E-01  0.1227E-01  0.1216E+00  0.1216E+00
     -7.048  0.1340E-01  0.1340E-01  0.1231E+00  0.1231E+00
     -6.941  0.1609E-01  0.1609E-01  0.1248E+00  0.1248E+00
     -6.833  0.1710E-01  0.1710E-01  0.1266E+00  0.1266E+00
     -6.726  0.1638E-01  0.1638E-01  0.1284E+00  0.1284E+00
     -6.618  0.2169E-01  0.2169E-01  0.1307E+00  0.1307E+00
     -6.511  0.2370E-01  0.2370E-01  0.1333E+00  0.1333E+00
     -6.403  0.2055E-01  0.2055E-01  0.1355E+00  0.1355E+00
     -6.296  0.1725E-01  0.1725E-01  0.1373E+00  0.1373E+00
     -6.188  0.1599E-01  0.1599E-01  0.1390E+00  0.1390E+00
     -6.081  0.2103E-01  0.2103E-01  0.1413E+00  0.1413E+00
     -5.973  0.2841E-01  0.2841E-01  0.1444E+00  0.1444E+00
     -5.866  0.2886E-01  0.2886E-01  0.1475E+00  0.1475E+00
     -5.758  0.2492E-01  0.2492E-01  0.1501E+00  0.1501E+00
     -5.651  0.1919E-01  0.1919E-01  0.1522E+00  0.1522E+00
     -5.543  0.2226E-01  0.2226E-01  0.1546E+00  0.1546E+00
     -5.436  0.2879E-01  0.2879E-01  0.1577E+00  0.1577E+00
     -5.328  0.3029E-01  0.3029E-01  0.1609E+00  0.1609E+00
     -5.221  0.2779E-01  0.2779E-01  0.1639E+00  0.1639E+00
     -5.113  0.1842E-01  0.1842E-01  0.1659E+00  0.1659E+00
     -5.006  0.1117E-01  0.1117E-01  0.1671E+00  0.1671E+00
     -4.898  0.7016E-02  0.7016E-02  0.1679E+00  0.1679E+00
     -4.791  0.1222E-01  0.1222E-01  0.1692E+00  0.1692E+00
     -4.683  0.1508E-01  0.1508E-01  0.1708E+00  0.1708E+00
     -4.576  0.1045E-01  0.1045E-01  0.1719E+00  0.1719E+00
     -4.468  0.8515E-02  0.8515E-02  0.1728E+00  0.1728E+00
     -4.361  0.9853E-02  0.9853E-02  0.1739E+00  0.1739E+00
     -4.253  0.2039E-01  0.2039E-01  0.1761E+00  0.1761E+00
     -4.146  0.2266E-01  0.2266E-01  0.1785E+00  0.1785E+00
     -4.038  0.1911E-01  0.1910E-01  0.1806E+00  0.1806E+00
     -3.931  0.2037E-01  0.2037E-01  0.1828E+00  0.1828E+00
     -3.823  0.2498E-01  0.2498E-01  0.1855E+00  0.1855E+00
     -3.716  0.2052E-01  0.2052E-01  0.1877E+00  0.1877E+00
     -3.608  0.1843E-01  0.1843E-01  0.1896E+00  0.1896E+00
     -3.501  0.1827E-01  0.1827E-01  0.1916E+00  0.1916E+00
     -3.393  0.1731E-01  0.1731E-01  0.1935E+00  0.1935E+00
     -3.286  0.1262E-01  0.1262E-01  0.1948E+00  0.1948E+00
     -3.178  0.1415E-01  0.1415E-01  0.1963E+00  0.1963E+00
     -3.071  0.1870E-01  0.1870E-01  0.1984E+00  0.1984E+00
     -2.964  0.1723E-01  0.1723E-01  0.2002E+00  0.2002E+00
     -2.856  0.1245E-01  0.1245E-01  0.2015E+00  0.2015E+00
     -2.749  0.1273E-01  0.1273E-01  0.2029E+00  0.2029E+00
     -2.641  0.8430E-02  0.8430E-02  0.2038E+00  0.2038E+00
     -2.534  0.9796E-02  0.9796E-02  0.2049E+00  0.2049E+00
     -2.426  0.1717E-01  0.1717E-01  0.2067E+00  0.2067E+00
     -2.319  0.1657E-01  0.1657E-01  0.2085E+00  0.2085E+00
     -2.211  0.4560E-02  0.4560E-02  0.2090E+00  0.2090E+00
     -2.104  0.5001E-02  0.5001E-02  0.2095E+00  0.2095E+00
     -1.996  0.9790E-02  0.9790E-02  0.2106E+00  0.2106E+00
     -1.889  0.9301E-02  0.9302E-02  0.2116E+00  0.2116E+00
     -1.781  0.1043E-01  0.1043E-01  0.2127E+00  0.2127E+00
     -1.674  0.1089E-01  0.1089E-01  0.2139E+00  0.2139E+00
     -1.566  0.1026E-01  0.1026E-01  0.2150E+00  0.2150E+00
     -1.459  0.8666E-02  0.8666E-02  0.2159E+00  0.2159E+00
     -1.351  0.3605E-02  0.3605E-02  0.2163E+00  0.2163E+00
     -1.244  0.4011E-02  0.4011E-02  0.2167E+00  0.2167E+00
     -1.136  0.4683E-02  0.4683E-02  0.2172E+00  0.2172E+00
     -1.029  0.3056E-02  0.3056E-02  0.2176E+00  0.2176E+00
     -0.921  0.4546E-02  0.4546E-02  0.2180E+00  0.2180E+00
     -0.814  0.4416E-02  0.4416E-02  0.2185E+00  0.2185E+00
     -0.706  0.1092E-02  0.1092E-02  0.2186E+00  0.2186E+00
     -0.599  0.8068E-04  0.8069E-04  0.2186E+00  0.2186E+00
     -0.491  0.1609E-05  0.1609E-05  0.2186E+00  0.2186E+00
     -0.384  0.3930E-05  0.3930E-05  0.2186E+00  0.2186E+00
     -0.276  0.1692E-03  0.1692E-03  0.2187E+00  0.2187E+00
     -0.169  0.9580E-03  0.9580E-03  0.2188E+00  0.2188E+00
     -0.061  0.7921E-03  0.7921E-03  0.2188E+00  0.2188E+00
      0.046  0.9427E-04  0.9427E-04  0.2189E+00  0.2189E+00
      0.154  0.1437E-05  0.1437E-05  0.2189E+00  0.2189E+00
      0.261  0.7445E-06  0.7445E-06  0.2189E+00  0.2189E+00
      0.369  0.9536E-04  0.9536E-04  0.2189E+00  0.2189E+00
      0.476  0.1508E-02  0.1508E-02  0.2190E+00  0.2190E+00
      0.584  0.3328E-02  0.3328E-02  0.2194E+00  0.2194E+00
      0.691  0.1411E-02  0.1411E-02  0.2195E+00  0.2195E+00
      0.799  0.3299E-02  0.3299E-02  0.2199E+00  0.2199E+00
      0.906  0.6871E-02  0.6870E-02  0.2206E+00  0.2206E+00
      1.014  0.9784E-02  0.9784E-02  0.2217E+00  0.2217E+00
      1.121  0.1953E-01  0.1953E-01  0.2238E+00  0.2238E+00
      1.229  0.2137E-01  0.2137E-01  0.2261E+00  0.2261E+00
      1.336  0.7755E-02  0.7755E-02  0.2269E+00  0.2269E+00
      1.443  0.2261E-02  0.2261E-02  0.2272E+00  0.2272E+00
      1.551  0.4815E-02  0.4815E-02  0.2277E+00  0.2277E+00
      1.658  0.1163E-01  0.1163E-01  0.2289E+00  0.2289E+00
      1.766  0.1872E-01  0.1872E-01  0.2309E+00  0.2309E+00
      1.873  0.1466E-01  0.1466E-01  0.2325E+00  0.2325E+00
      1.981  0.9701E-02  0.9701E-02  0.2336E+00  0.2336E+00
      2.088  0.8234E-02  0.8234E-02  0.2344E+00  0.2344E+00
      2.196  0.1019E-01  0.1019E-01  0.2355E+00  0.2355E+00
      2.303  0.7954E-02  0.7954E-02  0.2364E+00  0.2364E+00
      2.411  0.8795E-02  0.8795E-02  0.2373E+00  0.2373E+00
      2.518  0.8777E-02  0.8777E-02  0.2383E+00  0.2383E+00
      2.626  0.4225E-02  0.4225E-02  0.2387E+00  0.2387E+00
      2.733  0.9819E-02  0.9819E-02  0.2398E+00  0.2398E+00
      2.841  0.1264E-01  0.1264E-01  0.2411E+00  0.2411E+00
      2.948  0.8252E-02  0.8251E-02  0.2420E+00  0.2420E+00
      3.056  0.7734E-02  0.7733E-02  0.2429E+00  0.2429E+00
      3.163  0.8086E-02  0.8086E-02  0.2437E+00  0.2437E+00
      3.271  0.1099E-01  0.1099E-01  0.2449E+00  0.2449E+00
      3.378  0.1061E-01  0.1061E-01  0.2461E+00  0.2461E+00
      3.486  0.9682E-02  0.9683E-02  0.2471E+00  0.2471E+00
      3.593  0.9516E-02  0.9516E-02  0.2481E+00  0.2481E+00
      3.701  0.1324E-01  0.1324E-01  0.2495E+00  0.2495E+00
      3.808  0.2200E-01  0.2200E-01  0.2519E+00  0.2519E+00
      3.916  0.2134E-01  0.2134E-01  0.2542E+00  0.2542E+00
      4.023  0.1734E-01  0.1734E-01  0.2561E+00  0.2561E+00
      4.131  0.1940E-01  0.1940E-01  0.2582E+00  0.2582E+00
      4.238  0.2303E-01  0.2303E-01  0.2606E+00  0.2606E+00
      4.346  0.2384E-01  0.2384E-01  0.2632E+00  0.2632E+00
      4.453  0.2458E-01  0.2457E-01  0.2658E+00  0.2658E+00
      4.561  0.2575E-01  0.2575E-01  0.2686E+00  0.2686E+00
      4.668  0.2779E-01  0.2779E-01  0.2716E+00  0.2716E+00
      4.776  0.2236E-01  0.2236E-01  0.2740E+00  0.2740E+00
      4.883  0.2008E-01  0.2008E-01  0.2762E+00  0.2761E+00
      4.991  0.2394E-01  0.2394E-01  0.2787E+00  0.2787E+00
      5.098  0.2834E-01  0.2834E-01  0.2818E+00  0.2818E+00
      5.206  0.2578E-01  0.2577E-01  0.2845E+00  0.2845E+00
      5.313  0.2420E-01  0.2420E-01  0.2871E+00  0.2871E+00
      5.421  0.2042E-01  0.2042E-01  0.2893E+00  0.2893E+00
      5.528  0.1952E-01  0.1952E-01  0.2914E+00  0.2914E+00
      5.636  0.2188E-01  0.2188E-01  0.2938E+00  0.2938E+00
      5.743  0.3022E-01  0.3022E-01  0.2970E+00  0.2970E+00
      5.851  0.2673E-01  0.2673E-01  0.2999E+00  0.2999E+00
      5.958  0.1657E-01  0.1657E-01  0.3017E+00  0.3017E+00
      6.065  0.1859E-01  0.1859E-01  0.3037E+00  0.3037E+00
      6.173  0.1961E-01  0.1961E-01  0.3058E+00  0.3058E+00
      6.280  0.2058E-01  0.2057E-01  0.3080E+00  0.3080E+00
      6.388  0.2081E-01  0.2081E-01  0.3102E+00  0.3102E+00
      6.495  0.1463E-01  0.1463E-01  0.3118E+00  0.3118E+00
      6.603  0.2129E-01  0.2128E-01  0.3141E+00  0.3141E+00
      6.710  0.2795E-01  0.2795E-01  0.3171E+00  0.3171E+00
      6.818  0.2255E-01  0.2254E-01  0.3195E+00  0.3195E+00
      6.925  0.2042E-01  0.2043E-01  0.3217E+00  0.3217E+00
      7.033  0.2805E-01  0.2805E-01  0.3247E+00  0.3247E+00
      7.140  0.3134E-01  0.3134E-01  0.3281E+00  0.3281E+00
      7.248  0.2679E-01  0.2679E-01  0.3310E+00  0.3310E+00
      7.355  0.2547E-01  0.2547E-01  0.3337E+00  0.3337E+00
      7.463  0.2114E-01  0.2114E-01  0.3360E+00  0.3360E+00
      7.570  0.1936E-01  0.1936E-01  0.3381E+00  0.3381E+00
      7.678  0.2665E-01  0.2664E-01  0.3409E+00  0.3409E+00
      7.785  0.2230E-01  0.2230E-01  0.3433E+00  0.3433E+00
      7.893  0.2138E-01  0.2139E-01  0.3456E+00  0.3456E+00
      8.000  0.2391E-01  0.2391E-01  0.3482E+00  0.3482E+00
      8.108  0.2443E-01  0.2443E-01  0.3508E+00  0.3508E+00
      8.215  0.3416E-01  0.3415E-01  0.3545E+00  0.3545E+00
      8.323  0.3654E-01  0.3654E-01  0.3584E+00  0.3584E+00
      8.430  0.2931E-01  0.2932E-01  0.3616E+00  0.3616E+00
      8.538  0.3261E-01  0.3260E-01  0.3651E+00  0.3651E+00
      8.645  0.2915E-01  0.2915E-01  0.3682E+00  0.3682E+00
      8.753  0.2554E-01  0.2555E-01  0.3710E+00  0.3710E+00
      8.860  0.2126E-01  0.2126E-01  0.3733E+00  0.3733E+00
      8.968  0.1081E-01  0.1081E-01  0.3744E+00  0.3744E+00
      9.075  0.4482E-02  0.4482E-02  0.3749E+00  0.3749E+00
      9.183  0.9013E-03  0.9020E-03  0.3750E+00  0.3750E+00
      9.290  0.3185E-04  0.3190E-04  0.3750E+00  0.3750E+00
      9.398  0.1398E-06  0.1401E-06  0.3750E+00  0.3750E+00
      9.505  0.6850E-10  0.6870E-10  0.3750E+00  0.3750E+00
      9.613  0.3585E-14  0.3597E-14  0.3750E+00  0.3750E+00
      9.720  0.0000E+00  0.0000E+00  0.3750E+00  0.3750E+00
      9.828  0.0000E+00  0.0000E+00  0.3750E+00  0.3750E+00
      9.935  0.0000E+00  0.0000E+00  0.3750E+00  0.3750E+00
     10.043  0.0000E+00  0.0000E+00  0.3750E+00  0.3750E+00
     10.150  0.0000E+00  0.0000E+00  0.3750E+00  0.3750E+00
     10.258  0.0000E+00  0.0000E+00  0.3750E+00  0.3750E+00
     10.365  0.0000E+00  0.0000E+00  0.3750E+00  0.3750E+00
     10.472  0.0000E+00  0.0000E+00  0.3750E+00  0.3750E+00
