  15  15   1  16
  0.2033749E+02  0.4846000E-09  0.4846000E-09  0.1500000E-08  0.5000000E-15
  1.000000000000000E-004
  CAR 
 PDOS                                    
     10.35177990    -21.69773284  301     -0.32805252      1.00000000
    -21.698  0.0000E+00  0.0000E+00
    -21.591  0.0000E+00  0.0000E+00
    -21.484  0.0000E+00  0.0000E+00
    -21.377  0.0000E+00  0.0000E+00
    -21.270  0.0000E+00  0.0000E+00
    -21.164  0.0000E+00  0.0000E+00
    -21.057  0.0000E+00  0.0000E+00
    -20.950  0.0000E+00  0.0000E+00
    -20.843  0.0000E+00  0.0000E+00
    -20.736  0.1969E-12  0.2104E-13
    -20.629  0.3292E-08  0.3518E-09
    -20.523  0.6493E-05  0.6940E-06
    -20.416  0.1706E-02  0.1830E-03
    -20.309  0.6897E-01  0.7551E-02
    -20.202  0.5051E+00  0.6152E-01
    -20.095  0.1061E+01  0.1748E+00
    -19.988  0.1162E+01  0.2990E+00
    -19.882  0.1218E+01  0.4291E+00
    -19.775  0.1247E+01  0.5623E+00
    -19.668  0.9691E+00  0.6659E+00
    -19.561  0.1530E+01  0.8294E+00
    -19.454  0.1083E+01  0.9451E+00
    -19.347  0.8917E+00  0.1040E+01
    -19.241  0.1513E+01  0.1202E+01
    -19.134  0.1482E+01  0.1360E+01
    -19.027  0.7033E+00  0.1435E+01
    -18.920  0.1041E+01  0.1547E+01
    -18.813  0.1677E+01  0.1726E+01
    -18.706  0.1422E+01  0.1878E+01
    -18.600  0.9792E+00  0.1982E+01
    -18.493  0.5483E+00  0.2041E+01
    -18.386  0.1569E+01  0.2209E+01
    -18.279  0.1847E+01  0.2406E+01
    -18.172  0.1047E+01  0.2518E+01
    -18.065  0.1065E+01  0.2632E+01
    -17.959  0.6526E+00  0.2701E+01
    -17.852  0.1139E+01  0.2823E+01
    -17.745  0.2119E+01  0.3049E+01
    -17.638  0.1511E+01  0.3211E+01
    -17.531  0.7725E+00  0.3293E+01
    -17.424  0.1025E+01  0.3403E+01
    -17.318  0.2100E+01  0.3627E+01
    -17.211  0.3066E+01  0.3955E+01
    -17.104  0.4023E+01  0.4384E+01
    -16.997  0.3846E+01  0.4795E+01
    -16.890  0.4202E+01  0.5244E+01
    -16.783  0.4764E+01  0.5753E+01
    -16.677  0.3861E+01  0.6166E+01
    -16.570  0.2391E+01  0.6421E+01
    -16.463  0.1910E+01  0.6625E+01
    -16.356  0.1522E+01  0.6788E+01
    -16.249  0.1332E+01  0.6930E+01
    -16.142  0.1121E+01  0.7050E+01
    -16.036  0.9651E+00  0.7153E+01
    -15.929  0.3155E+00  0.7186E+01
    -15.822  0.1366E+01  0.7332E+01
    -15.715  0.2643E+01  0.7615E+01
    -15.608  0.1495E+01  0.7774E+01
    -15.501  0.1166E+01  0.7899E+01
    -15.395  0.1093E+01  0.8016E+01
    -15.288  0.1057E+01  0.8129E+01
    -15.181  0.1045E+01  0.8240E+01
    -15.074  0.7544E+00  0.8321E+01
    -14.967  0.2929E+01  0.8634E+01
    -14.861  0.4879E+01  0.9155E+01
    -14.754  0.4858E+01  0.9674E+01
    -14.647  0.4647E+01  0.1017E+02
    -14.540  0.2966E+01  0.1049E+02
    -14.433  0.2127E+01  0.1071E+02
    -14.326  0.2050E+01  0.1093E+02
    -14.220  0.3360E+01  0.1129E+02
    -14.113  0.4904E+01  0.1182E+02
    -14.006  0.2831E+01  0.1212E+02
    -13.899  0.3460E+01  0.1249E+02
    -13.792  0.4743E+01  0.1300E+02
    -13.685  0.4336E+01  0.1346E+02
    -13.579  0.4329E+01  0.1392E+02
    -13.472  0.2972E+01  0.1424E+02
    -13.365  0.1935E+01  0.1444E+02
    -13.258  0.1600E+01  0.1462E+02
    -13.151  0.7905E+00  0.1470E+02
    -13.044  0.1135E+01  0.1482E+02
    -12.938  0.1590E+01  0.1499E+02
    -12.831  0.1802E+01  0.1518E+02
    -12.724  0.1505E+01  0.1534E+02
    -12.617  0.2054E+01  0.1556E+02
    -12.510  0.1387E+01  0.1571E+02
    -12.403  0.8916E+00  0.1581E+02
    -12.297  0.1867E+01  0.1601E+02
    -12.190  0.1094E+01  0.1612E+02
    -12.083  0.6610E+00  0.1619E+02
    -11.976  0.2002E+01  0.1641E+02
    -11.869  0.1750E+01  0.1660E+02
    -11.762  0.4447E+00  0.1664E+02
    -11.656  0.1019E+01  0.1675E+02
    -11.549  0.1440E+01  0.1691E+02
    -11.442  0.1241E+01  0.1704E+02
    -11.335  0.1022E+01  0.1715E+02
    -11.228  0.1160E+01  0.1727E+02
    -11.121  0.1243E+01  0.1740E+02
    -11.015  0.1473E+01  0.1756E+02
    -10.908  0.9700E+00  0.1767E+02
    -10.801  0.1367E+01  0.1781E+02
    -10.694  0.1776E+01  0.1800E+02
    -10.587  0.2888E+01  0.1831E+02
    -10.480  0.3237E+01  0.1866E+02
    -10.374  0.2835E+01  0.1896E+02
    -10.267  0.3715E+01  0.1935E+02
    -10.160  0.4331E+01  0.1982E+02
    -10.053  0.4485E+01  0.2030E+02
     -9.946  0.3466E+01  0.2067E+02
     -9.839  0.2542E+01  0.2094E+02
     -9.733  0.2504E+01  0.2121E+02
     -9.626  0.5028E+01  0.2174E+02
     -9.519  0.5329E+01  0.2231E+02
     -9.412  0.2579E+01  0.2259E+02
     -9.305  0.1871E+01  0.2279E+02
     -9.198  0.2207E+01  0.2302E+02
     -9.092  0.4243E+01  0.2348E+02
     -8.985  0.4905E+01  0.2400E+02
     -8.878  0.3564E+01  0.2438E+02
     -8.771  0.2810E+01  0.2468E+02
     -8.664  0.4427E+01  0.2515E+02
     -8.557  0.3557E+01  0.2553E+02
     -8.451  0.2641E+01  0.2582E+02
     -8.344  0.3422E+01  0.2618E+02
     -8.237  0.4358E+01  0.2665E+02
     -8.130  0.4576E+01  0.2714E+02
     -8.023  0.4155E+01  0.2758E+02
     -7.916  0.6288E+01  0.2825E+02
     -7.810  0.7308E+01  0.2903E+02
     -7.703  0.3928E+01  0.2945E+02
     -7.596  0.2424E+01  0.2971E+02
     -7.489  0.3033E+01  0.3004E+02
     -7.382  0.3483E+01  0.3041E+02
     -7.275  0.3878E+01  0.3082E+02
     -7.169  0.4194E+01  0.3127E+02
     -7.062  0.3990E+01  0.3170E+02
     -6.955  0.4392E+01  0.3217E+02
     -6.848  0.3792E+01  0.3257E+02
     -6.741  0.4216E+01  0.3302E+02
     -6.634  0.6180E+01  0.3368E+02
     -6.528  0.5244E+01  0.3424E+02
     -6.421  0.3810E+01  0.3465E+02
     -6.314  0.4325E+01  0.3511E+02
     -6.207  0.6007E+01  0.3575E+02
     -6.100  0.6671E+01  0.3647E+02
     -5.993  0.7607E+01  0.3728E+02
     -5.887  0.6067E+01  0.3793E+02
     -5.780  0.4950E+01  0.3845E+02
     -5.673  0.5791E+01  0.3907E+02
     -5.566  0.6898E+01  0.3981E+02
     -5.459  0.7611E+01  0.4062E+02
     -5.352  0.7642E+01  0.4144E+02
     -5.246  0.5959E+01  0.4208E+02
     -5.139  0.4884E+01  0.4260E+02
     -5.032  0.4175E+01  0.4304E+02
     -4.925  0.2382E+01  0.4330E+02
     -4.818  0.1020E+01  0.4341E+02
     -4.711  0.2243E+01  0.4365E+02
     -4.605  0.4036E+01  0.4408E+02
     -4.498  0.4343E+01  0.4454E+02
     -4.391  0.3093E+01  0.4487E+02
     -4.284  0.4005E+01  0.4530E+02
     -4.177  0.4813E+01  0.4581E+02
     -4.071  0.5972E+01  0.4645E+02
     -3.964  0.5964E+01  0.4709E+02
     -3.857  0.5422E+01  0.4767E+02
     -3.750  0.4675E+01  0.4817E+02
     -3.643  0.5606E+01  0.4877E+02
     -3.536  0.4377E+01  0.4924E+02
     -3.430  0.3281E+01  0.4959E+02
     -3.323  0.3887E+01  0.5000E+02
     -3.216  0.3892E+01  0.5042E+02
     -3.109  0.4406E+01  0.5089E+02
     -3.002  0.4559E+01  0.5137E+02
     -2.895  0.3184E+01  0.5171E+02
     -2.789  0.2437E+01  0.5198E+02
     -2.682  0.2544E+01  0.5225E+02
     -2.575  0.2728E+01  0.5254E+02
     -2.468  0.3665E+01  0.5293E+02
     -2.361  0.3726E+01  0.5333E+02
     -2.254  0.2100E+01  0.5355E+02
     -2.148  0.1716E+01  0.5374E+02
     -2.041  0.2168E+01  0.5397E+02
     -1.934  0.2429E+01  0.5423E+02
     -1.827  0.2415E+01  0.5448E+02
     -1.720  0.2564E+01  0.5476E+02
     -1.613  0.3021E+01  0.5508E+02
     -1.507  0.2233E+01  0.5532E+02
     -1.400  0.8073E+00  0.5541E+02
     -1.293  0.1074E+01  0.5552E+02
     -1.186  0.1027E+01  0.5563E+02
     -1.079  0.1214E+01  0.5576E+02
     -0.972  0.8387E+00  0.5585E+02
     -0.866  0.4566E+00  0.5590E+02
     -0.759  0.6170E+00  0.5596E+02
     -0.652  0.3061E+00  0.5600E+02
     -0.545  0.2535E-01  0.5600E+02
     -0.438  0.2780E-03  0.5600E+02
     -0.331  0.3571E-06  0.5600E+02
     -0.225  0.1606E-06  0.5600E+02
     -0.118  0.1559E-03  0.5600E+02
     -0.011  0.1748E-01  0.5600E+02
      0.096  0.2482E+00  0.5603E+02
      0.203  0.5034E+00  0.5608E+02
      0.310  0.1879E+00  0.5610E+02
      0.416  0.3389E+00  0.5614E+02
      0.523  0.4628E+00  0.5619E+02
      0.630  0.1490E+00  0.5620E+02
      0.737  0.6141E+00  0.5627E+02
      0.844  0.1983E+01  0.5648E+02
      0.951  0.3880E+01  0.5690E+02
      1.057  0.5372E+01  0.5747E+02
      1.164  0.4725E+01  0.5797E+02
      1.271  0.1545E+01  0.5814E+02
      1.378  0.1260E+01  0.5827E+02
      1.485  0.2257E+01  0.5852E+02
      1.592  0.3047E+01  0.5884E+02
      1.698  0.4173E+01  0.5929E+02
      1.805  0.4893E+01  0.5981E+02
      1.912  0.2159E+01  0.6004E+02
      2.019  0.9505E+00  0.6014E+02
      2.126  0.2015E+01  0.6036E+02
      2.233  0.2580E+01  0.6063E+02
      2.339  0.2048E+01  0.6085E+02
      2.446  0.2079E+01  0.6107E+02
      2.553  0.2225E+01  0.6131E+02
      2.660  0.2656E+01  0.6159E+02
      2.767  0.2222E+01  0.6183E+02
      2.874  0.1419E+01  0.6198E+02
      2.980  0.1842E+01  0.6218E+02
      3.087  0.2083E+01  0.6240E+02
      3.194  0.3132E+01  0.6274E+02
      3.301  0.3410E+01  0.6310E+02
      3.408  0.3219E+01  0.6345E+02
      3.515  0.3191E+01  0.6379E+02
      3.621  0.3067E+01  0.6411E+02
      3.728  0.4289E+01  0.6457E+02
      3.835  0.5718E+01  0.6518E+02
      3.942  0.8080E+01  0.6605E+02
      4.049  0.7215E+01  0.6682E+02
      4.156  0.4869E+01  0.6734E+02
      4.262  0.5896E+01  0.6797E+02
      4.369  0.6776E+01  0.6869E+02
      4.476  0.5925E+01  0.6932E+02
      4.583  0.6176E+01  0.6998E+02
      4.690  0.5644E+01  0.7059E+02
      4.797  0.4710E+01  0.7109E+02
      4.903  0.6528E+01  0.7179E+02
      5.010  0.7297E+01  0.7257E+02
      5.117  0.7144E+01  0.7333E+02
      5.224  0.6103E+01  0.7398E+02
      5.331  0.5531E+01  0.7457E+02
      5.438  0.4682E+01  0.7507E+02
      5.544  0.5438E+01  0.7565E+02
      5.651  0.7439E+01  0.7645E+02
      5.758  0.7149E+01  0.7721E+02
      5.865  0.5010E+01  0.7775E+02
      5.972  0.5104E+01  0.7829E+02
      6.079  0.4656E+01  0.7879E+02
      6.185  0.4377E+01  0.7926E+02
      6.292  0.5014E+01  0.7979E+02
      6.399  0.5083E+01  0.8034E+02
      6.506  0.6131E+01  0.8099E+02
      6.613  0.8022E+01  0.8185E+02
      6.720  0.6591E+01  0.8255E+02
      6.826  0.5987E+01  0.8319E+02
      6.933  0.7839E+01  0.8403E+02
      7.040  0.8604E+01  0.8495E+02
      7.147  0.6131E+01  0.8560E+02
      7.254  0.4801E+01  0.8612E+02
      7.360  0.5428E+01  0.8670E+02
      7.467  0.4771E+01  0.8721E+02
      7.574  0.4909E+01  0.8773E+02
      7.681  0.6280E+01  0.8840E+02
      7.788  0.6761E+01  0.8912E+02
      7.895  0.1012E+02  0.9021E+02
      8.001  0.9510E+01  0.9122E+02
      8.108  0.8405E+01  0.9212E+02
      8.215  0.7208E+01  0.9289E+02
      8.322  0.6521E+01  0.9359E+02
      8.429  0.7507E+01  0.9439E+02
      8.536  0.8048E+01  0.9525E+02
      8.642  0.4142E+01  0.9569E+02
      8.749  0.1521E+01  0.9585E+02
      8.856  0.6757E+00  0.9593E+02
      8.963  0.5451E+00  0.9598E+02
      9.070  0.1493E+00  0.9600E+02
      9.177  0.6068E-02  0.9600E+02
      9.283  0.3051E-04  0.9600E+02
      9.390  0.1744E-07  0.9600E+02
      9.497  0.1085E-11  0.9600E+02
      9.604  0.0000E+00  0.9600E+02
      9.711  0.0000E+00  0.9600E+02
      9.818  0.0000E+00  0.9600E+02
      9.924  0.0000E+00  0.9600E+02
     10.031  0.0000E+00  0.9600E+02
     10.138  0.0000E+00  0.9600E+02
     10.245  0.0000E+00  0.9600E+02
     10.352  0.0000E+00  0.9600E+02
     10.35177990    -21.69773284  301     -0.32805252      1.00000000
    -21.698  0.0000E+00  0.0000E+00  0.0000E+00  0.0000E+00  0.0000E+00  0.0000E+00  0.0000E+00  0.0000E+00  0.0000E+00
    -21.591  0.0000E+00  0.0000E+00  0.0000E+00  0.0000E+00  0.0000E+00  0.0000E+00  0.0000E+00  0.0000E+00  0.0000E+00
    -21.484  0.0000E+00  0.0000E+00  0.0000E+00  0.0000E+00  0.0000E+00  0.0000E+00  0.0000E+00  0.0000E+00  0.0000E+00
    -21.377  0.0000E+00  0.0000E+00  0.0000E+00  0.0000E+00  0.0000E+00  0.0000E+00  0.0000E+00  0.0000E+00  0.0000E+00
    -21.270  0.0000E+00  0.0000E+00  0.0000E+00  0.0000E+00  0.0000E+00  0.0000E+00  0.0000E+00  0.0000E+00  0.0000E+00
    -21.164  0.0000E+00  0.0000E+00  0.0000E+00  0.0000E+00  0.0000E+00  0.0000E+00  0.0000E+00  0.0000E+00  0.0000E+00
    -21.057  0.0000E+00  0.0000E+00  0.0000E+00  0.0000E+00  0.0000E+00  0.0000E+00  0.0000E+00  0.0000E+00  0.0000E+00
    -20.950  0.0000E+00  0.0000E+00  0.0000E+00  0.0000E+00  0.0000E+00  0.0000E+00  0.0000E+00  0.0000E+00  0.0000E+00
    -20.843  0.0000E+00  0.0000E+00  0.0000E+00  0.0000E+00  0.0000E+00  0.0000E+00  0.0000E+00  0.0000E+00  0.0000E+00
    -20.736  0.1035E-16  0.4637E-21  0.5096E-18  0.4639E-21  0.0000E+00  0.0000E+00  0.0000E+00  0.0000E+00  0.0000E+00
    -20.629  0.1731E-12  0.2116E-16  0.8517E-14  0.2117E-16  0.0000E+00  0.0000E+00  0.0000E+00  0.0000E+00  0.0000E+00
    -20.523  0.3414E-09  0.1038E-12  0.1678E-10  0.1039E-12  0.0000E+00  0.0000E+00  0.0000E+00  0.0000E+00  0.0000E+00
    -20.416  0.8974E-07  0.5693E-10  0.4401E-08  0.5695E-10  0.0000E+00  0.0000E+00  0.0000E+00  0.0000E+00  0.0000E+00
    -20.309  0.3628E-05  0.3864E-08  0.1775E-06  0.3865E-08  0.0000E+00  0.0000E+00  0.0000E+00  0.0000E+00  0.0000E+00
    -20.202  0.2659E-04  0.4635E-07  0.1295E-05  0.4636E-07  0.0000E+00  0.0000E+00  0.0000E+00  0.0000E+00  0.0000E+00
    -20.095  0.5594E-04  0.1973E-06  0.2692E-05  0.1973E-06  0.0000E+00  0.0000E+00  0.0000E+00  0.0000E+00  0.0000E+00
    -19.988  0.6149E-04  0.3647E-06  0.2909E-05  0.3648E-06  0.0000E+00  0.0000E+00  0.0000E+00  0.0000E+00  0.0000E+00
    -19.882  0.6490E-04  0.6386E-06  0.2977E-05  0.6386E-06  0.0000E+00  0.0000E+00  0.0000E+00  0.0000E+00  0.0000E+00
    -19.775  0.6679E-04  0.7959E-06  0.3014E-05  0.7959E-06  0.0000E+00  0.0000E+00  0.0000E+00  0.0000E+00  0.0000E+00
    -19.668  0.5253E-04  0.8333E-06  0.2288E-05  0.8333E-06  0.0000E+00  0.0000E+00  0.0000E+00  0.0000E+00  0.0000E+00
    -19.561  0.8374E-04  0.1554E-05  0.3555E-05  0.1554E-05  0.0000E+00  0.0000E+00  0.0000E+00  0.0000E+00  0.0000E+00
    -19.454  0.5976E-04  0.1204E-05  0.2494E-05  0.1204E-05  0.0000E+00  0.0000E+00  0.0000E+00  0.0000E+00  0.0000E+00
    -19.347  0.5031E-04  0.1205E-05  0.2004E-05  0.1205E-05  0.0000E+00  0.0000E+00  0.0000E+00  0.0000E+00  0.0000E+00
    -19.241  0.8693E-04  0.2295E-05  0.3343E-05  0.2295E-05  0.0000E+00  0.0000E+00  0.0000E+00  0.0000E+00  0.0000E+00
    -19.134  0.8609E-04  0.2357E-05  0.3248E-05  0.2358E-05  0.0000E+00  0.0000E+00  0.0000E+00  0.0000E+00  0.0000E+00
    -19.027  0.4198E-04  0.1223E-05  0.1517E-05  0.1223E-05  0.0000E+00  0.0000E+00  0.0000E+00  0.0000E+00  0.0000E+00
    -18.920  0.6482E-04  0.2070E-05  0.2181E-05  0.2071E-05  0.0000E+00  0.0000E+00  0.0000E+00  0.0000E+00  0.0000E+00
    -18.813  0.1066E-03  0.3509E-05  0.3472E-05  0.3509E-05  0.0000E+00  0.0000E+00  0.0000E+00  0.0000E+00  0.0000E+00
    -18.706  0.9384E-04  0.3106E-05  0.2922E-05  0.3107E-05  0.0000E+00  0.0000E+00  0.0000E+00  0.0000E+00  0.0000E+00
    -18.600  0.6509E-04  0.2269E-05  0.1948E-05  0.2270E-05  0.0000E+00  0.0000E+00  0.0000E+00  0.0000E+00  0.0000E+00
    -18.493  0.4002E-04  0.1399E-05  0.1059E-05  0.1400E-05  0.0000E+00  0.0000E+00  0.0000E+00  0.0000E+00  0.0000E+00
    -18.386  0.1204E-03  0.4236E-05  0.2995E-05  0.4237E-05  0.0000E+00  0.0000E+00  0.0000E+00  0.0000E+00  0.0000E+00
    -18.279  0.1438E-03  0.5164E-05  0.3446E-05  0.5166E-05  0.0000E+00  0.0000E+00  0.0000E+00  0.0000E+00  0.0000E+00
    -18.172  0.8818E-04  0.2989E-05  0.1925E-05  0.2990E-05  0.0000E+00  0.0000E+00  0.0000E+00  0.0000E+00  0.0000E+00
    -18.065  0.1023E-03  0.3093E-05  0.1919E-05  0.3094E-05  0.0000E+00  0.0000E+00  0.0000E+00  0.0000E+00  0.0000E+00
    -17.959  0.6582E-04  0.1952E-05  0.1163E-05  0.1953E-05  0.0000E+00  0.0000E+00  0.0000E+00  0.0000E+00  0.0000E+00
    -17.852  0.1397E-03  0.3803E-05  0.1941E-05  0.3805E-05  0.0000E+00  0.0000E+00  0.0000E+00  0.0000E+00  0.0000E+00
    -17.745  0.2739E-03  0.7022E-05  0.3551E-05  0.7027E-05  0.0000E+00  0.0000E+00  0.0000E+00  0.0000E+00  0.0000E+00
    -17.638  0.2409E-03  0.4923E-05  0.2477E-05  0.4926E-05  0.0000E+00  0.0000E+00  0.0000E+00  0.0000E+00  0.0000E+00
    -17.531  0.1890E-02  0.3147E-05  0.1294E-05  0.3149E-05  0.0000E+00  0.0000E+00  0.0000E+00  0.0000E+00  0.0000E+00
    -17.424  0.4201E-01  0.3059E-04  0.2684E-05  0.3059E-04  0.0000E+00  0.0000E+00  0.0000E+00  0.0000E+00  0.0000E+00
    -17.318  0.2065E+00  0.2485E-03  0.8869E-05  0.2485E-03  0.0000E+00  0.0000E+00  0.0000E+00  0.0000E+00  0.0000E+00
    -17.211  0.3544E+00  0.7427E-03  0.1429E-04  0.7426E-03  0.0000E+00  0.0000E+00  0.0000E+00  0.0000E+00  0.0000E+00
    -17.104  0.4209E+00  0.1274E-02  0.1722E-04  0.1274E-02  0.0000E+00  0.0000E+00  0.0000E+00  0.0000E+00  0.0000E+00
    -16.997  0.4965E+00  0.1677E-02  0.2039E-04  0.1677E-02  0.0000E+00  0.0000E+00  0.0000E+00  0.0000E+00  0.0000E+00
    -16.890  0.6723E+00  0.1846E-02  0.2854E-04  0.1846E-02  0.0000E+00  0.0000E+00  0.0000E+00  0.0000E+00  0.0000E+00
    -16.783  0.9860E+00  0.1525E-02  0.3993E-04  0.1525E-02  0.0000E+00  0.0000E+00  0.0000E+00  0.0000E+00  0.0000E+00
    -16.677  0.7739E+00  0.6372E-03  0.3167E-04  0.6372E-03  0.0000E+00  0.0000E+00  0.0000E+00  0.0000E+00  0.0000E+00
    -16.570  0.1847E+00  0.1106E-03  0.1030E-04  0.1106E-03  0.0000E+00  0.0000E+00  0.0000E+00  0.0000E+00  0.0000E+00
    -16.463  0.1011E-01  0.2230E-04  0.3820E-05  0.2232E-04  0.0000E+00  0.0000E+00  0.0000E+00  0.0000E+00  0.0000E+00
    -16.356  0.3482E-03  0.1597E-04  0.2598E-05  0.1598E-04  0.0000E+00  0.0000E+00  0.0000E+00  0.0000E+00  0.0000E+00
    -16.249  0.5139E-04  0.1416E-04  0.2134E-05  0.1417E-04  0.0000E+00  0.0000E+00  0.0000E+00  0.0000E+00  0.0000E+00
    -16.142  0.1117E-04  0.1204E-04  0.1730E-05  0.1205E-04  0.0000E+00  0.0000E+00  0.0000E+00  0.0000E+00  0.0000E+00
    -16.036  0.5859E-05  0.1046E-04  0.1468E-05  0.1047E-04  0.0000E+00  0.0000E+00  0.0000E+00  0.0000E+00  0.0000E+00
    -15.929  0.2168E-05  0.3473E-05  0.4744E-06  0.3477E-05  0.0000E+00  0.0000E+00  0.0000E+00  0.0000E+00  0.0000E+00
    -15.822  0.1087E-04  0.1547E-04  0.1994E-05  0.1550E-04  0.0000E+00  0.0000E+00  0.0000E+00  0.0000E+00  0.0000E+00
    -15.715  0.1876E-04  0.3068E-04  0.3792E-05  0.3073E-04  0.0000E+00  0.0000E+00  0.0000E+00  0.0000E+00  0.0000E+00
    -15.608  0.7346E-05  0.1851E-04  0.2105E-05  0.1853E-04  0.0000E+00  0.0000E+00  0.0000E+00  0.0000E+00  0.0000E+00
    -15.501  0.1127E-05  0.1583E-04  0.1611E-05  0.1585E-04  0.0000E+00  0.0000E+00  0.0000E+00  0.0000E+00  0.0000E+00
    -15.395  0.2838E-06  0.1494E-04  0.1520E-05  0.1496E-04  0.0000E+00  0.0000E+00  0.0000E+00  0.0000E+00  0.0000E+00
    -15.288  0.1067E-06  0.1498E-04  0.1475E-05  0.1500E-04  0.0000E+00  0.0000E+00  0.0000E+00  0.0000E+00  0.0000E+00
    -15.181  0.8956E-06  0.5253E-04  0.1430E-05  0.5249E-04  0.0000E+00  0.0000E+00  0.0000E+00  0.0000E+00  0.0000E+00
    -15.074  0.6985E-04  0.3039E-02  0.9097E-06  0.3036E-02  0.0000E+00  0.0000E+00  0.0000E+00  0.0000E+00  0.0000E+00
    -14.967  0.1185E-02  0.3642E-01  0.2921E-05  0.3640E-01  0.0000E+00  0.0000E+00  0.0000E+00  0.0000E+00  0.0000E+00
    -14.861  0.7257E-02  0.1114E+00  0.3859E-05  0.1114E+00  0.0000E+00  0.0000E+00  0.0000E+00  0.0000E+00  0.0000E+00
    -14.754  0.1810E-01  0.1640E+00  0.3117E-05  0.1640E+00  0.0000E+00  0.0000E+00  0.0000E+00  0.0000E+00  0.0000E+00
    -14.647  0.2745E-01  0.1554E+00  0.3722E-05  0.1554E+00  0.0000E+00  0.0000E+00  0.0000E+00  0.0000E+00  0.0000E+00
    -14.540  0.2714E-01  0.1053E+00  0.2848E-05  0.1053E+00  0.0000E+00  0.0000E+00  0.0000E+00  0.0000E+00  0.0000E+00
    -14.433  0.2762E-01  0.1106E+00  0.1692E-05  0.1106E+00  0.0000E+00  0.0000E+00  0.0000E+00  0.0000E+00  0.0000E+00
    -14.326  0.2272E-01  0.1055E+00  0.1520E-05  0.1055E+00  0.0000E+00  0.0000E+00  0.0000E+00  0.0000E+00  0.0000E+00
    -14.220  0.1921E-01  0.1068E+00  0.3040E-05  0.1068E+00  0.0000E+00  0.0000E+00  0.0000E+00  0.0000E+00  0.0000E+00
    -14.113  0.2575E-01  0.1699E+00  0.4018E-05  0.1699E+00  0.0000E+00  0.0000E+00  0.0000E+00  0.0000E+00  0.0000E+00
    -14.006  0.1332E-01  0.1463E+00  0.1384E-05  0.1463E+00  0.0000E+00  0.0000E+00  0.0000E+00  0.0000E+00  0.0000E+00
    -13.899  0.1525E-01  0.2288E+00  0.1014E-05  0.2287E+00  0.0000E+00  0.0000E+00  0.0000E+00  0.0000E+00  0.0000E+00
    -13.792  0.1519E-01  0.3100E+00  0.1178E-05  0.3100E+00  0.0000E+00  0.0000E+00  0.0000E+00  0.0000E+00  0.0000E+00
    -13.685  0.6701E-02  0.2636E+00  0.1026E-05  0.2636E+00  0.0000E+00  0.0000E+00  0.0000E+00  0.0000E+00  0.0000E+00
    -13.579  0.4088E-02  0.2190E+00  0.1566E-05  0.2190E+00  0.0000E+00  0.0000E+00  0.0000E+00  0.0000E+00  0.0000E+00
    -13.472  0.1496E-02  0.1274E+00  0.1237E-05  0.1275E+00  0.0000E+00  0.0000E+00  0.0000E+00  0.0000E+00  0.0000E+00
    -13.365  0.1029E-03  0.2992E-01  0.1186E-05  0.2997E-01  0.0000E+00  0.0000E+00  0.0000E+00  0.0000E+00  0.0000E+00
    -13.258  0.4456E-05  0.1831E-02  0.1043E-05  0.1836E-02  0.0000E+00  0.0000E+00  0.0000E+00  0.0000E+00  0.0000E+00
    -13.151  0.7099E-05  0.8761E-04  0.5266E-06  0.8780E-04  0.0000E+00  0.0000E+00  0.0000E+00  0.0000E+00  0.0000E+00
    -13.044  0.1008E-04  0.6337E-04  0.7834E-06  0.6363E-04  0.0000E+00  0.0000E+00  0.0000E+00  0.0000E+00  0.0000E+00
    -12.938  0.6481E-05  0.4128E-04  0.1097E-05  0.4139E-04  0.0000E+00  0.0000E+00  0.0000E+00  0.0000E+00  0.0000E+00
    -12.831  0.2372E-05  0.1156E-04  0.1251E-05  0.1160E-04  0.0000E+00  0.0000E+00  0.0000E+00  0.0000E+00  0.0000E+00
    -12.724  0.1868E-05  0.4420E-05  0.1108E-05  0.4441E-05  0.0000E+00  0.0000E+00  0.0000E+00  0.0000E+00  0.0000E+00
    -12.617  0.5862E-05  0.8743E-05  0.1485E-05  0.8794E-05  0.0000E+00  0.0000E+00  0.0000E+00  0.0000E+00  0.0000E+00
    -12.510  0.7075E-05  0.8248E-05  0.9602E-06  0.8304E-05  0.0000E+00  0.0000E+00  0.0000E+00  0.0000E+00  0.0000E+00
    -12.403  0.3231E-05  0.2922E-05  0.6082E-06  0.2946E-05  0.0000E+00  0.0000E+00  0.0000E+00  0.0000E+00  0.0000E+00
    -12.297  0.3868E-05  0.2670E-05  0.1311E-05  0.2697E-05  0.0000E+00  0.0000E+00  0.0000E+00  0.0000E+00  0.0000E+00
    -12.190  0.1705E-05  0.9862E-06  0.7901E-06  0.9980E-06  0.0000E+00  0.0000E+00  0.0000E+00  0.0000E+00  0.0000E+00
    -12.083  0.2273E-05  0.8924E-06  0.4454E-06  0.9010E-06  0.0000E+00  0.0000E+00  0.0000E+00  0.0000E+00  0.0000E+00
    -11.976  0.6434E-05  0.2056E-05  0.1312E-05  0.2079E-05  0.0000E+00  0.0000E+00  0.0000E+00  0.0000E+00  0.0000E+00
    -11.869  0.5774E-05  0.1494E-05  0.1141E-05  0.1514E-05  0.0000E+00  0.0000E+00  0.0000E+00  0.0000E+00  0.0000E+00
    -11.762  0.1489E-05  0.3261E-06  0.2836E-06  0.3306E-06  0.0000E+00  0.0000E+00  0.0000E+00  0.0000E+00  0.0000E+00
    -11.656  0.2413E-05  0.3912E-06  0.6281E-06  0.3969E-06  0.0000E+00  0.0000E+00  0.0000E+00  0.0000E+00  0.0000E+00
    -11.549  0.3219E-05  0.7050E-06  0.9106E-06  0.7117E-06  0.0000E+00  0.0000E+00  0.0000E+00  0.0000E+00  0.0000E+00
    -11.442  0.4209E-05  0.1807E-05  0.7937E-06  0.1813E-05  0.0000E+00  0.0000E+00  0.0000E+00  0.0000E+00  0.0000E+00
    -11.335  0.4247E-05  0.1741E-05  0.6336E-06  0.1746E-05  0.0000E+00  0.0000E+00  0.0000E+00  0.0000E+00  0.0000E+00
    -11.228  0.4938E-05  0.1544E-05  0.6471E-06  0.1547E-05  0.0000E+00  0.0000E+00  0.0000E+00  0.0000E+00  0.0000E+00
    -11.121  0.3749E-05  0.1812E-05  0.4914E-06  0.1797E-05  0.0000E+00  0.0000E+00  0.0000E+00  0.0000E+00  0.0000E+00
    -11.015  0.4720E-05  0.2054E-05  0.6251E-06  0.2036E-05  0.0000E+00  0.0000E+00  0.0000E+00  0.0000E+00  0.0000E+00
    -10.908  0.4381E-05  0.2878E-05  0.5439E-06  0.2875E-05  0.0000E+00  0.0000E+00  0.0000E+00  0.0000E+00  0.0000E+00
    -10.801  0.2577E-03  0.9775E-04  0.8069E-06  0.9787E-04  0.0000E+00  0.0000E+00  0.0000E+00  0.0000E+00  0.0000E+00
    -10.694  0.6185E-02  0.2259E-02  0.1157E-05  0.2261E-02  0.0000E+00  0.0000E+00  0.0000E+00  0.0000E+00  0.0000E+00
    -10.587  0.2797E-01  0.1045E-01  0.2781E-05  0.1045E-01  0.0000E+00  0.0000E+00  0.0000E+00  0.0000E+00  0.0000E+00
    -10.480  0.5940E-01  0.2449E-01  0.5187E-05  0.2450E-01  0.0000E+00  0.0000E+00  0.0000E+00  0.0000E+00  0.0000E+00
    -10.374  0.1116E+00  0.3883E-01  0.9670E-05  0.3883E-01  0.0000E+00  0.0000E+00  0.0000E+00  0.0000E+00  0.0000E+00
    -10.267  0.1566E+00  0.3561E-01  0.1481E-04  0.3561E-01  0.0000E+00  0.0000E+00  0.0000E+00  0.0000E+00  0.0000E+00
    -10.160  0.1468E+00  0.2712E-01  0.1472E-04  0.2712E-01  0.0000E+00  0.0000E+00  0.0000E+00  0.0000E+00  0.0000E+00
    -10.053  0.1608E+00  0.5257E-01  0.1579E-04  0.5259E-01  0.0000E+00  0.0000E+00  0.0000E+00  0.0000E+00  0.0000E+00
     -9.946  0.8122E-01  0.8288E-01  0.7546E-05  0.8288E-01  0.0000E+00  0.0000E+00  0.0000E+00  0.0000E+00  0.0000E+00
     -9.839  0.1747E-01  0.4812E-01  0.1675E-05  0.4812E-01  0.0000E+00  0.0000E+00  0.0000E+00  0.0000E+00  0.0000E+00
     -9.733  0.1549E-01  0.2495E-01  0.1949E-05  0.2495E-01  0.0000E+00  0.0000E+00  0.0000E+00  0.0000E+00  0.0000E+00
     -9.626  0.9135E-01  0.6841E-01  0.1088E-04  0.6841E-01  0.0000E+00  0.0000E+00  0.0000E+00  0.0000E+00  0.0000E+00
     -9.519  0.9067E-01  0.8858E-01  0.1090E-04  0.8858E-01  0.0000E+00  0.0000E+00  0.0000E+00  0.0000E+00  0.0000E+00
     -9.412  0.1712E-01  0.4701E-01  0.2155E-05  0.4701E-01  0.0000E+00  0.0000E+00  0.0000E+00  0.0000E+00  0.0000E+00
     -9.305  0.9497E-02  0.2719E-01  0.1318E-05  0.2718E-01  0.0000E+00  0.0000E+00  0.0000E+00  0.0000E+00  0.0000E+00
     -9.198  0.7137E-01  0.7145E-01  0.8505E-05  0.7144E-01  0.0000E+00  0.0000E+00  0.0000E+00  0.0000E+00  0.0000E+00
     -9.092  0.1233E+00  0.1327E+00  0.1499E-04  0.1327E+00  0.0000E+00  0.0000E+00  0.0000E+00  0.0000E+00  0.0000E+00
     -8.985  0.4332E-01  0.7629E-01  0.6701E-05  0.7629E-01  0.0000E+00  0.0000E+00  0.0000E+00  0.0000E+00  0.0000E+00
     -8.878  0.3038E-02  0.4319E-01  0.1299E-05  0.4318E-01  0.0000E+00  0.0000E+00  0.0000E+00  0.0000E+00  0.0000E+00
     -8.771  0.6715E-02  0.4929E-01  0.2189E-05  0.4930E-01  0.0000E+00  0.0000E+00  0.0000E+00  0.0000E+00  0.0000E+00
     -8.664  0.3425E-01  0.1531E+00  0.7548E-05  0.1531E+00  0.0000E+00  0.0000E+00  0.0000E+00  0.0000E+00  0.0000E+00
     -8.557  0.4552E-01  0.1611E+00  0.1572E-04  0.1611E+00  0.0000E+00  0.0000E+00  0.0000E+00  0.0000E+00  0.0000E+00
     -8.451  0.1579E-01  0.5088E-01  0.3276E-03  0.5088E-01  0.0000E+00  0.0000E+00  0.0000E+00  0.0000E+00  0.0000E+00
     -8.344  0.4442E-02  0.5234E-01  0.2514E-02  0.5235E-01  0.0000E+00  0.0000E+00  0.0000E+00  0.0000E+00  0.0000E+00
     -8.237  0.1561E-01  0.1632E+00  0.5157E-02  0.1632E+00  0.0000E+00  0.0000E+00  0.0000E+00  0.0000E+00  0.0000E+00
     -8.130  0.3080E-01  0.1031E+00  0.6521E-02  0.1031E+00  0.0000E+00  0.0000E+00  0.0000E+00  0.0000E+00  0.0000E+00
     -8.023  0.3203E-01  0.2642E-01  0.5237E-02  0.2643E-01  0.0000E+00  0.0000E+00  0.0000E+00  0.0000E+00  0.0000E+00
     -7.916  0.4816E-01  0.9744E-01  0.7484E-02  0.9746E-01  0.0000E+00  0.0000E+00  0.0000E+00  0.0000E+00  0.0000E+00
     -7.810  0.7466E-01  0.1418E+00  0.6462E-02  0.1418E+00  0.0000E+00  0.0000E+00  0.0000E+00  0.0000E+00  0.0000E+00
     -7.703  0.4268E-01  0.5839E-01  0.4489E-02  0.5837E-01  0.0000E+00  0.0000E+00  0.0000E+00  0.0000E+00  0.0000E+00
     -7.596  0.1276E-01  0.1401E-01  0.9174E-02  0.1401E-01  0.0000E+00  0.0000E+00  0.0000E+00  0.0000E+00  0.0000E+00
     -7.489  0.8512E-03  0.9840E-03  0.7865E-02  0.9843E-03  0.0000E+00  0.0000E+00  0.0000E+00  0.0000E+00  0.0000E+00
     -7.382  0.1149E-04  0.4958E-03  0.4826E-02  0.4957E-03  0.0000E+00  0.0000E+00  0.0000E+00  0.0000E+00  0.0000E+00
     -7.275  0.1360E-04  0.6140E-03  0.6197E-02  0.6139E-03  0.0000E+00  0.0000E+00  0.0000E+00  0.0000E+00  0.0000E+00
     -7.169  0.2936E-04  0.1768E-03  0.1151E-01  0.1768E-03  0.0000E+00  0.0000E+00  0.0000E+00  0.0000E+00  0.0000E+00
     -7.062  0.1960E-04  0.1376E-03  0.1079E-01  0.1376E-03  0.0000E+00  0.0000E+00  0.0000E+00  0.0000E+00  0.0000E+00
     -6.955  0.7516E-05  0.8742E-03  0.4712E-02  0.8741E-03  0.0000E+00  0.0000E+00  0.0000E+00  0.0000E+00  0.0000E+00
     -6.848  0.1641E-04  0.1561E-02  0.8110E-02  0.1561E-02  0.0000E+00  0.0000E+00  0.0000E+00  0.0000E+00  0.0000E+00
     -6.741  0.5785E-04  0.1790E-02  0.3432E-01  0.1790E-02  0.0000E+00  0.0000E+00  0.0000E+00  0.0000E+00  0.0000E+00
     -6.634  0.9563E-04  0.1353E-02  0.9623E-01  0.1353E-02  0.0000E+00  0.0000E+00  0.0000E+00  0.0000E+00  0.0000E+00
     -6.528  0.8872E-04  0.2503E-03  0.1337E+00  0.2505E-03  0.0000E+00  0.0000E+00  0.0000E+00  0.0000E+00  0.0000E+00
     -6.421  0.4389E-04  0.4186E-03  0.1208E+00  0.4188E-03  0.0000E+00  0.0000E+00  0.0000E+00  0.0000E+00  0.0000E+00
     -6.314  0.1613E-03  0.3653E-02  0.1534E+00  0.3653E-02  0.0000E+00  0.0000E+00  0.0000E+00  0.0000E+00  0.0000E+00
     -6.207  0.6847E-03  0.9002E-02  0.1590E+00  0.9003E-02  0.0000E+00  0.0000E+00  0.0000E+00  0.0000E+00  0.0000E+00
     -6.100  0.2869E-02  0.1345E-01  0.1663E+00  0.1345E-01  0.0000E+00  0.0000E+00  0.0000E+00  0.0000E+00  0.0000E+00
     -5.993  0.7441E-02  0.2156E-01  0.2447E+00  0.2157E-01  0.0000E+00  0.0000E+00  0.0000E+00  0.0000E+00  0.0000E+00
     -5.887  0.1063E-01  0.2547E-01  0.2150E+00  0.2547E-01  0.0000E+00  0.0000E+00  0.0000E+00  0.0000E+00  0.0000E+00
     -5.780  0.1156E-01  0.2187E-01  0.1980E+00  0.2186E-01  0.0000E+00  0.0000E+00  0.0000E+00  0.0000E+00  0.0000E+00
     -5.673  0.1633E-01  0.2317E-01  0.1516E+00  0.2316E-01  0.0000E+00  0.0000E+00  0.0000E+00  0.0000E+00  0.0000E+00
     -5.566  0.8569E-02  0.2751E-01  0.2256E+00  0.2750E-01  0.0000E+00  0.0000E+00  0.0000E+00  0.0000E+00  0.0000E+00
     -5.459  0.1282E-01  0.4089E-01  0.2983E+00  0.4089E-01  0.0000E+00  0.0000E+00  0.0000E+00  0.0000E+00  0.0000E+00
     -5.352  0.4376E-01  0.7573E-01  0.1599E+00  0.7574E-01  0.0000E+00  0.0000E+00  0.0000E+00  0.0000E+00  0.0000E+00
     -5.246  0.3632E-01  0.4441E-01  0.8392E-01  0.4441E-01  0.0000E+00  0.0000E+00  0.0000E+00  0.0000E+00  0.0000E+00
     -5.139  0.1469E-01  0.1489E-01  0.7600E-01  0.1490E-01  0.0000E+00  0.0000E+00  0.0000E+00  0.0000E+00  0.0000E+00
     -5.032  0.1217E-01  0.1119E-01  0.1454E-01  0.1119E-01  0.0000E+00  0.0000E+00  0.0000E+00  0.0000E+00  0.0000E+00