Lattice                                 
           1
     4.165582    2.405000    0.000000
    -4.165582    2.405000    0.000000
     0.000000    0.000000   15.000000
   B    C 
     4    11
Direct configuration=     1
   0.00415361  0.00267210  0.12034134
   0.35695335  0.00285503  0.09748893
   0.00423858  0.35550699  0.09749256
   0.65142295  0.65006557  0.09747688
   0.32808646  0.32671938  0.10030508
   0.68027775  0.00278085  0.10027562
   0.00416530  0.67883808  0.10026559
   0.08333267  0.41666633  0.33646667
   0.24999967  0.24999933  0.33646667
   0.08333267  0.91666633  0.33646667
   0.24999967  0.74999933  0.33646667
   0.58333267  0.41666633  0.33646667
   0.74999967  0.24999933  0.33646667
   0.58333267  0.91666633  0.33646667
   0.74999967  0.74999933  0.33646667
Direct configuration=     2
   0.00414618  0.00267951  0.11936945
   0.35594438  0.00282487  0.09774815
   0.00413695  0.35469997  0.09780804
   0.65235083  0.65083414  0.09777916
   0.32550297  0.32390443  0.10029486
   0.68323127  0.00285552  0.10031809
   0.00417532  0.68146707  0.10026984
   0.08331843  0.41678127  0.33646118
   0.25018656  0.25027379  0.33655493
   0.08349975  0.91678768  0.33644694
   0.25029553  0.74995433  0.33643398
   0.58328094  0.41664371  0.33641975
   0.74993155  0.24999817  0.33645973
   0.58309394  0.91662112  0.33653383
   0.74953275  0.74977507  0.33648139
Direct configuration=     3
   0.00415017  0.00267553  0.11989128
   0.35648612  0.00284106  0.09760897
   0.00419151  0.35513328  0.09763865
   0.65185263  0.65042147  0.09761686
   0.32689012  0.32541585  0.10030035
   0.68164545  0.00281543  0.10029529
   0.00416994  0.68005549  0.10026756
   0.08332607  0.41671956  0.33646413
   0.25008621  0.25012643  0.33650754
   0.08341004  0.91672253  0.33645753
   0.25013667  0.74997849  0.33645153
   0.58330871  0.41665586  0.33644494
   0.74996812  0.24999880  0.33646346
   0.58322212  0.91664540  0.33649777
   0.74978345  0.74989548  0.33647349
Direct configuration=     4
   0.00415320  0.00270302  0.11901811
   0.35690792  0.00280008  0.09785810
   0.00415767  0.35552730  0.09794550
   0.65152852  0.64992626  0.09790935
   0.32698165  0.32533747  0.10026446
   0.68168812  0.00284976  0.10031090
   0.00418444  0.68001620  0.10024591
   0.08327964  0.41665610  0.33646403
   0.24988947  0.24998958  0.33658091
   0.08321739  0.91664378  0.33644849
   0.24984310  0.75005670  0.33642271
   0.58332319  0.41667628  0.33641095
   0.74997091  0.25002929  0.33645591
   0.58340028  0.91675626  0.33655861
   0.75010183  0.75013259  0.33648539
Direct configuration=     5
   0.00415941  0.00275934  0.11722939
   0.35777199  0.00271613  0.09836844
   0.00408833  0.35633444  0.09857407
   0.65086459  0.64891179  0.09850853
   0.32716916  0.32517692  0.10019095
   0.68177554  0.00292008  0.10034290
   0.00421413  0.67993570  0.10020158
   0.08318453  0.41652610  0.33646383
   0.24948646  0.24970925  0.33673120
   0.08282273  0.91648246  0.33642998
   0.24924171  0.75021690  0.33636368
   0.58335286  0.41671812  0.33634132
   0.74997662  0.25009176  0.33644044
   0.58376525  0.91698337  0.33668324
   0.75075403  0.75061831  0.33650978
Direct configuration=     6
   0.00416316  0.00276389  0.11699688
   0.35786867  0.00270504  0.09842640
   0.00408992  0.35641645  0.09864489
   0.65079416  0.64880528  0.09857611
   0.32722815  0.32520530  0.10019178
   0.68173687  0.00291783  0.10035583
   0.00422064  0.67988687  0.10020584
   0.08318599  0.41656519  0.33646474
   0.24952876  0.24974996  0.33674460
   0.08286725  0.91653379  0.33643012
   0.24931681  0.75021047  0.33635893
   0.58332869  0.41673457  0.33633671
   0.74996564  0.25009623  0.33643918
   0.58368814  0.91695636  0.33669510
   0.75064449  0.75055344  0.33651221
Direct configuration=     7
   0.00417440  0.00277752  0.11629935
   0.35815871  0.00267180  0.09860029
   0.00409471  0.35666246  0.09885737
   0.65058287  0.64848575  0.09877886
   0.32740510  0.32529044  0.10019426
   0.68162085  0.00291110  0.10039462
   0.00424018  0.67974035  0.10021863
   0.08319037  0.41668247  0.33646749
   0.24965566  0.24987211  0.33678481
   0.08300078  0.91668780  0.33643053
   0.24954212  0.75019117  0.33634469
   0.58325619  0.41678391  0.33632286
   0.74993272  0.25010964  0.33643540
   0.58345682  0.91687533  0.33673067
   0.75031585  0.75035883  0.33651950
Direct configuration=     8
   0.00419690  0.00280478  0.11490430
   0.35873879  0.00260530  0.09894807
   0.00410428  0.35715450  0.09928231
   0.65016028  0.64784669  0.09918434
   0.32775900  0.32546072  0.10019922
   0.68138882  0.00289762  0.10047221
   0.00427925  0.67944731  0.10024422
   0.08319913  0.41691702  0.33647299
   0.24990947  0.25011640  0.33686522
   0.08326786  0.91699580  0.33643136
   0.24999275  0.75015258  0.33631620
   0.58311120  0.41688261  0.33629517
   0.74986687  0.25013646  0.33642784
   0.58299417  0.91671327  0.33680182
   0.74965857  0.74996960  0.33653407
Direct configuration=     9
   0.00420108  0.00280985  0.11464501
   0.35884660  0.00259294  0.09901271
   0.00410606  0.35724595  0.09936129
   0.65008174  0.64772791  0.09925971
   0.32782477  0.32549236  0.10020014
   0.68134570  0.00289512  0.10048663
   0.00428651  0.67939285  0.10024897
   0.08320076  0.41696061  0.33647401
   0.24995664  0.25016180  0.33688017
   0.08331750  0.91705305  0.33643151
   0.25007650  0.75014541  0.33631090
   0.58308425  0.41690096  0.33629002
   0.74985463  0.25014144  0.33642643
   0.58290818  0.91668315  0.33681504
   0.74953641  0.74989726  0.33653678
Direct configuration=    10
   0.00421976  0.00279709  0.11425956
   0.35884066  0.00257545  0.09907219
   0.00414622  0.35721077  0.09942875
   0.65011284  0.64774459  0.09932496
   0.32789405  0.32556752  0.10024966
   0.68126976  0.00284818  0.10054728
   0.00430897  0.67932059  0.10030161
   0.08319090  0.41694142  0.33647897
   0.24995362  0.25026257  0.33687471
   0.08329670  0.91699415  0.33644165
   0.25005256  0.75016254  0.33631759
   0.58309010  0.41684993  0.33630179
   0.74980894  0.25015479  0.33642883
   0.58293570  0.91671941  0.33681345
   0.74950654  0.74995166  0.33653833
Direct configuration=    11
   0.00427581  0.00275880  0.11310321
   0.35882285  0.00252298  0.09925062
   0.00426673  0.35710522  0.09963114
   0.65020615  0.64779463  0.09952073
   0.32810188  0.32579300  0.10039819
   0.68104196  0.00270735  0.10072925
   0.00437636  0.67910379  0.10045953
   0.08316133  0.41688386  0.33649382
   0.24994454  0.25056490  0.33685832
   0.08323430  0.91681748  0.33647206
   0.24998071  0.75021395  0.33633767
   0.58310765  0.41669684  0.33633710
   0.74967187  0.25019483  0.33643603
   0.58301826  0.91682816  0.33680867
   0.74941695  0.75011488  0.33654299
Direct configuration=    12
   0.00438791  0.00268223  0.11079051
   0.35878722  0.00241803  0.09960748
   0.00450773  0.35689413  0.10003592
   0.65039275  0.64789471  0.09991227
   0.32851755  0.32624394  0.10069527
   0.68058635  0.00242569  0.10109319
   0.00451113  0.67867021  0.10077536
   0.08310218  0.41676873  0.33652352
   0.24992637  0.25116954  0.33682556
   0.08310950  0.91646412  0.33653288
   0.24983702  0.75031676  0.33637782
   0.58314276  0.41639066  0.33640772
   0.74939772  0.25027492  0.33645043
   0.58318337  0.91704568  0.33679912
   0.74923775  0.75044132  0.33655230
Direct configuration=    13
   0.00435552  0.00270435  0.11145872
   0.35879751  0.00244835  0.09950437
   0.00443810  0.35695512  0.09991897
   0.65033884  0.64786580  0.09979915
   0.32839745  0.32611365  0.10060943
   0.68071799  0.00250707  0.10098804
   0.00447219  0.67879549  0.10068411
   0.08311927  0.41680199  0.33651494
   0.24993162  0.25099484  0.33683503
   0.08314556  0.91656622  0.33651531
   0.24987854  0.75028705  0.33636622
   0.58313262  0.41647912  0.33638731
   0.74947693  0.25025178  0.33644627
   0.58313567  0.91698283  0.33680188
   0.74928953  0.75034700  0.33654961
Direct configuration=    14
   0.00438294  0.00267554  0.11098981
   0.35878053  0.00243008  0.09957101
   0.00448892  0.35691264  0.09998667
   0.65037405  0.64790059  0.09986658
   0.32845116  0.32617874  0.10068249
   0.68066564  0.00245054  0.10106840
   0.00450138  0.67872316  0.10075940
   0.08306503  0.41684681  0.33652048
   0.24986749  0.25083720  0.33681936
   0.08309349  0.91666332  0.33652978
   0.24982739  0.75027827  0.33638249
   0.58310662  0.41659438  0.33640746
   0.74952351  0.25024565  0.33645318
   0.58311686  0.91702419  0.33678978
   0.74938231  0.75033955  0.33655245
Direct configuration=    15
   0.00446519  0.00258910  0.10958310
   0.35872960  0.00237526  0.09977093
   0.00464138  0.35678521  0.10018976
   0.65047969  0.64800499  0.10006890
   0.32861229  0.32637400  0.10090167
   0.68050860  0.00228096  0.10130950
   0.00458896  0.67850620  0.10098527
   0.08290230  0.41698127  0.33653709
   0.24967510  0.25036429  0.33677235
   0.08293726  0.91695461  0.33657318
   0.24967396  0.75025192  0.33643132
   0.58302861  0.41694015  0.33646789
   0.74966327  0.25022725  0.33647392
   0.58306046  0.91714825  0.33675349
   0.74966065  0.75031721  0.33656096
Direct configuration=    16
   0.00447566  0.00257811  0.10940414
   0.35872312  0.00236828  0.09979636
   0.00466078  0.35676899  0.10021559
   0.65049313  0.64801827  0.10009463
   0.32863279  0.32639884  0.10092955
   0.68048863  0.00225938  0.10134017
   0.00460010  0.67847860  0.10101401
   0.08288160  0.41699838  0.33653921
   0.24965063  0.25030413  0.33676637
   0.08291739  0.91699167  0.33657870
   0.24965444  0.75024856  0.33643753
   0.58301869  0.41698413  0.33647558
   0.74968105  0.25022491  0.33647656
   0.58305328  0.91716403  0.33674888
   0.74969606  0.75031437  0.33656205
Direct configuration=    17
   0.00448884  0.00255017  0.10923250
   0.35879424  0.00236772  0.09982985
   0.00466329  0.35683125  0.10023516
   0.65042261  0.64795951  0.10011829
   0.32861107  0.32636002  0.10095869
   0.68054643  0.00226619  0.10136056
   0.00460704  0.67848021  0.10104159
   0.08292904  0.41700489  0.33653924
   0.24963651  0.25028162  0.33675493
   0.08296377  0.91703748  0.33658305
   0.24966807  0.75030582  0.33645383
   0.58298651  0.41701141  0.33648595
   0.74967080  0.25028528  0.33648562
   0.58298446  0.91705468  0.33673328
   0.74965465  0.75030441  0.33656680
Direct configuration=    18
   0.00451971  0.00248475  0.10883053
   0.35896081  0.00236640  0.09990827
   0.00466917  0.35697706  0.10028100
   0.65025746  0.64782190  0.10017368
   0.32856019  0.32626909  0.10102693
   0.68068179  0.00228214  0.10140831
   0.00462330  0.67848398  0.10110617
   0.08304013  0.41702012  0.33653931
   0.24960346  0.25022891  0.33672813
   0.08307239  0.91714474  0.33659323
   0.24969999  0.75043992  0.33649201
   0.58291115  0.41707527  0.33651024
   0.74964681  0.25042667  0.33650684
   0.58282328  0.91679860  0.33669674
   0.74955768  0.75028110  0.33657794
Direct configuration=    19
   0.00453524  0.00244337  0.10865091
   0.35912604  0.00237032  0.09996104
   0.00465445  0.35709303  0.10030253
   0.65010773  0.64768526  0.10020421
   0.32852457  0.32619059  0.10105338
   0.68078073  0.00231979  0.10141070
   0.00462476  0.67850721  0.10112819
   0.08303099  0.41702997  0.33653877
   0.24962738  0.25032881  0.33671286
   0.08303516  0.91709179  0.33659696
   0.24968348  0.75042024  0.33651616
   0.58290202  0.41703563  0.33652305
   0.74960133  0.25039833  0.33652102
   0.58285254  0.91687501  0.33667405
   0.74954090  0.75031134  0.33658552
Direct configuration=    20
   0.00456093  0.00237493  0.10835383
   0.35939934  0.00237679  0.10004831
   0.00463011  0.35728484  0.10033813
   0.64986009  0.64745925  0.10025469
   0.32846564  0.32606075  0.10109712
   0.68094437  0.00238207  0.10141465
   0.00462717  0.67854562  0.10116461
   0.08301587  0.41704624  0.33653786
   0.24966694  0.25049402  0.33668761
   0.08297358  0.91700421  0.33660312
   0.24965617  0.75038768  0.33655610
   0.58288691  0.41697006  0.33654425
   0.74952610  0.25035146  0.33654447
   0.58290094  0.91700139  0.33663652
   0.74951316  0.75036135  0.33659805
Direct configuration=    21
   0.00457326  0.00235064  0.10823629
   0.35950704  0.00237916  0.10010299
   0.00461744  0.35730201  0.10035934
   0.64979343  0.64738366  0.10028534
   0.32847813  0.32603418  0.10110536
   0.68097039  0.00241236  0.10139246
   0.00462521  0.67855023  0.10116763
   0.08290504  0.41705344  0.33654112
   0.24961836  0.25041120  0.33667944
   0.08293891  0.91706292  0.33660686
   0.24964571  0.75035818  0.33656816
   0.58292127  0.41702643  0.33655295
   0.74957994  0.25034121  0.33655151
   0.58291397  0.91708571  0.33662895
   0.74953924  0.75034935  0.33660095
Direct configuration=    22
   0.00457586  0.00234552  0.10821150
   0.35952975  0.00237966  0.10011451
   0.00461476  0.35730563  0.10036381
   0.64977937  0.64736772  0.10029181
   0.32848076  0.32602857  0.10110710
   0.68097588  0.00241874  0.10138779
   0.00462479  0.67855121  0.10116827
   0.08288168  0.41705495  0.33654180
   0.24960812  0.25039374  0.33667771
   0.08293160  0.91707530  0.33660764
   0.24964351  0.75035196  0.33657070
   0.58292852  0.41703831  0.33655478
   0.74959129  0.25033905  0.33655299
   0.58291671  0.91710349  0.33662736
   0.74954473  0.75034682  0.33660156
Direct configuration=    23
   0.00458668  0.00233460  0.10813832
   0.35954959  0.00237980  0.10016180
   0.00461057  0.35725484  0.10038229
   0.64980002  0.64736569  0.10031835
   0.32851819  0.32603801  0.10110594
   0.68096188  0.00242878  0.10135664
   0.00462443  0.67853026  0.10116221
   0.08287492  0.41704751  0.33654739
   0.24957288  0.25036293  0.33667663
   0.08294142  0.91710440  0.33661104
   0.24963242  0.75039129  0.33657225
   0.58292620  0.41705997  0.33655917
   0.74959856  0.25038243  0.33655406
   0.58289240  0.91706126  0.33663229
   0.74953720  0.75035892  0.33660097
Direct configuration=    24
   0.00460519  0.00231591  0.10801310
   0.35958353  0.00238005  0.10024271
   0.00460339  0.35716793  0.10041391
   0.64983534  0.64736221  0.10036375
   0.32858223  0.32605415  0.10110394
   0.68093792  0.00244595  0.10130334
   0.00462381  0.67849442  0.10115184
   0.08286336  0.41703479  0.33655694
   0.24951259  0.25031022  0.33667477
   0.08295823  0.91715419  0.33661686
   0.24961344  0.75045858  0.33657490
   0.58292222  0.41709703  0.33656669
   0.74961098  0.25045663  0.33655588
   0.58285079  0.91698900  0.33664073
   0.74952431  0.75037961  0.33659997
Direct configuration=    25
   0.00461673  0.00230604  0.10794677
   0.35956660  0.00237730  0.10028247
   0.00460650  0.35712813  0.10042894
   0.64987723  0.64738020  0.10038565
   0.32860918  0.32605892  0.10110505
   0.68093917  0.00243975  0.10127613
   0.00462899  0.67846274  0.10114839
   0.08289224  0.41706228  0.33656189
   0.24953739  0.25037186  0.33667754
   0.08293795  0.91713292  0.33661911
   0.24960180  0.75045516  0.33657442
   0.58288803  0.41708421  0.33656854
   0.74956826  0.25043891  0.33655641
   0.58284517  0.91701179  0.33664829
   0.74951209  0.75039046  0.33659972
Direct configuration=    26
   0.00463390  0.00229136  0.10784812
   0.35954142  0.00237321  0.10034160
   0.00461112  0.35706895  0.10045131
   0.64993952  0.64740695  0.10041823
   0.32864927  0.32606601  0.10110670
   0.68094104  0.00243051  0.10123566
   0.00463670  0.67841562  0.10114325
   0.08293520  0.41710316  0.33656924
   0.24957429  0.25046354  0.33668166
   0.08290778  0.91710128  0.33662246
   0.24958449  0.75045008  0.33657371
   0.58283718  0.41706515  0.33657129
   0.74950471  0.25041255  0.33655720
   0.58283682  0.91704569  0.33665954
   0.74949390  0.75040660  0.33659934
Direct configuration=    27
   0.00464343  0.00228480  0.10780154
   0.35952019  0.00236482  0.10035699
   0.00462384  0.35707252  0.10045618
   0.64996570  0.64741472  0.10042591
   0.32865336  0.32605976  0.10111443
   0.68095745  0.00240705  0.10122640
   0.00464916  0.67839268  0.10114836
   0.08289361  0.41711306  0.33657089
   0.24956773  0.25046664  0.33668835
   0.08289272  0.91711675  0.33662231
   0.24958484  0.75043387  0.33657319
   0.58284355  0.41707600  0.33656957
   0.74951031  0.25040400  0.33655865
   0.58283911  0.91709187  0.33666557
   0.74948234  0.75040212  0.33660100
Direct configuration=    28
   0.00465339  0.00227796  0.10775293
   0.35949803  0.00235606  0.10037304
   0.00463712  0.35707624  0.10046127
   0.64999302  0.64742283  0.10043393
   0.32865762  0.32605324  0.10112249
   0.68097457  0.00238256  0.10121674
   0.00466216  0.67836874  0.10115370
   0.08285020  0.41712339  0.33657261
   0.24956089  0.25046987  0.33669533
   0.08287699  0.91713289  0.33662215
   0.24958522  0.75041696  0.33657265
   0.58285019  0.41708733  0.33656778
   0.74951615  0.25039508  0.33656015
   0.58284151  0.91714007  0.33667185
   0.74947027  0.75039744  0.33660272
Direct configuration=    29
   0.00466517  0.00227299  0.10769601
   0.35949773  0.00233915  0.10038084
   0.00465943  0.35709153  0.10046325
   0.65000608  0.64740963  0.10043728
   0.32866183  0.32604629  0.10113682
   0.68098476  0.00234753  0.10121416
   0.00468217  0.67835436  0.10116566
   0.08282414  0.41711567  0.33657358
   0.24953263  0.25046384  0.33670550
   0.08287647  0.91714933  0.33662144
   0.24957625  0.75044052  0.33657258
   0.58285558  0.41709842  0.33656471
   0.74951947  0.25042605  0.33656272
   0.58283044  0.91713321  0.33667872
   0.74945519  0.75041215  0.33660604
Direct configuration=    30
   0.00469677  0.00225966  0.10754339
   0.35949693  0.00229379  0.10040177
   0.00471929  0.35713251  0.10046858
   0.65004109  0.64737422  0.10044628
   0.32867311  0.32602766  0.10117525
   0.68101208  0.00225360  0.10120725
   0.00473581  0.67831581  0.10119774
   0.08275427  0.41709495  0.33657618
   0.24945683  0.25044767  0.33673279
   0.08287505  0.91719341  0.33661953
   0.24955222  0.75050371  0.33657241
   0.58287002  0.41712815  0.33655647
   0.74952835  0.25050910  0.33656963
   0.58280076  0.91711482  0.33669714
   0.74941475  0.75045161  0.33661493
Direct configuration=    31
   0.00470502  0.00225718  0.10750144
   0.35951373  0.00228002  0.10040556
   0.00473478  0.35713533  0.10047049
   0.65004280  0.64735471  0.10044849
   0.32868170  0.32602489  0.10118535
   0.68101056  0.00223355  0.10120695
   0.00474939  0.67831267  0.10120648
   0.08276298  0.41710905  0.33657731
   0.24945553  0.25046035  0.33673911
   0.08286477  0.91719625  0.33661983
   0.24954101  0.75051185  0.33657270
   0.58285134  0.41713523  0.33655538
   0.74951151  0.25051163  0.33657144
   0.58279031  0.91711771  0.33670159
   0.74941190  0.75046025  0.33661721
Direct configuration=    32
   0.00472979  0.00224976  0.10737560
   0.35956414  0.00223871  0.10041694
   0.00478125  0.35714381  0.10047624
   0.65004793  0.64729618  0.10045513
   0.32870746  0.32601656  0.10121563
   0.68100600  0.00217339  0.10120605
   0.00479012  0.67830323  0.10123269
   0.08278910  0.41715133  0.33658068
   0.24945163  0.25049837  0.33675804
   0.08283392  0.91720479  0.33662073
   0.24950737  0.75053629  0.33657357
   0.58279527  0.41715650  0.33655213
   0.74946100  0.25051921  0.33657685
   0.58275897  0.91712639  0.33671496
   0.74940336  0.75048617  0.33662408
Direct configuration=    33
   0.00477933  0.00223490  0.10712393
   0.35966496  0.00215608  0.10043969
   0.00487421  0.35716078  0.10048772
   0.65005820  0.64717912  0.10046842
   0.32875900  0.32599990  0.10127621
   0.68099688  0.00205307  0.10120426
   0.00487158  0.67828435  0.10128511
   0.08284135  0.41723590  0.33658744
   0.24944383  0.25057442  0.33679592
   0.08277223  0.91722186  0.33662254
   0.24944009  0.75058515  0.33657531
   0.58268314  0.41719902  0.33654562
   0.74935996  0.25053438  0.33658768
   0.58269628  0.91714374  0.33674170
   0.74938629  0.75053801  0.33663780
Direct configuration=    34
   0.00476479  0.00223926  0.10719782
   0.35963536  0.00218034  0.10043301
   0.00484692  0.35715580  0.10048435
   0.65005518  0.64721349  0.10046452
   0.32874387  0.32600479  0.10125842
   0.68099956  0.00208839  0.10120479
   0.00484767  0.67828989  0.10126972
   0.08282601  0.41721107  0.33658545
   0.24944612  0.25055209  0.33678480
   0.08279034  0.91721685  0.33662201
   0.24945984  0.75057080  0.33657480
   0.58271606  0.41718653  0.33654753
   0.74938962  0.25052993  0.33658450
   0.58271469  0.91713864  0.33673385
   0.74939130  0.75052279  0.33663377
Direct configuration=    35
   0.00478000  0.00222939  0.10711982
   0.35968399  0.00215686  0.10044093
   0.00486471  0.35713539  0.10049498
   0.65005426  0.64717264  0.10047393
   0.32877195  0.32599233  0.10126906
   0.68100121  0.00207877  0.10120385
   0.00486508  0.67828644  0.10127906
   0.08278843  0.41723411  0.33659034
   0.24943695  0.25056691  0.33678879
   0.08276828  0.91723944  0.33662707
   0.24945127  0.75056305  0.33657697
   0.58270502  0.41720551  0.33655228
   0.74938058  0.25052784  0.33658684
   0.58270431  0.91718707  0.33673912
   0.74937129  0.75052491  0.33663629
Direct configuration=    36
   0.00480620  0.00221239  0.10698550
   0.35976775  0.00211642  0.10045456
   0.00489536  0.35710025  0.10051329
   0.65005266  0.64710230  0.10049013
   0.32882032  0.32597087  0.10128738
   0.68100405  0.00206220  0.10120223
   0.00489507  0.67828051  0.10129515
   0.08272370  0.41727379  0.33659876
   0.24942117  0.25059242  0.33679566
   0.08273029  0.91727834  0.33663579
   0.24943651  0.75054970  0.33658070
   0.58268599  0.41723820  0.33656046
   0.74936501  0.25052425  0.33659087
   0.58268644  0.91727046  0.33674819
   0.74933683  0.75052856  0.33664063
Direct configuration=    37
   0.00482390  0.00219250  0.10690422
   0.35980642  0.00209684  0.10046514
   0.00490528  0.35707482  0.10053083
   0.65006015  0.64707097  0.10050533
   0.32885079  0.32594495  0.10129046
   0.68102952  0.00206886  0.10120053
   0.00490751  0.67826189  0.10129790
   0.08268350  0.41727223  0.33660532
   0.24939118  0.25060941  0.33679426
   0.08271945  0.91729432  0.33664382
   0.24942263  0.75057294  0.33658508
   0.58268711  0.41724773  0.33657003
   0.74935794  0.25055668  0.33659322
   0.58267414  0.91728587  0.33675051
   0.74930782  0.75055063  0.33664269
Direct configuration=    38
   0.00487700  0.00213284  0.10666040
   0.35992241  0.00203810  0.10049686
   0.00493503  0.35699852  0.10058345
   0.65008261  0.64697698  0.10055090
   0.32894220  0.32586719  0.10129969
   0.68110593  0.00208884  0.10119542
   0.00494484  0.67820605  0.10130612
   0.08256290  0.41726757  0.33662498
   0.24930123  0.25066038  0.33679007
   0.08268694  0.91734224  0.33666791
   0.24938101  0.75064267  0.33659821
   0.58269048  0.41727632  0.33659874
   0.74933670  0.25065399  0.33660027
   0.58263726  0.91733210  0.33675745
   0.74922078  0.75061687  0.33664886
Direct configuration=    39
   0.00490733  0.00209005  0.10654888
   0.35994070  0.00201871  0.10051480
   0.00494696  0.35697995  0.10061374
   0.65011188  0.64695767  0.10057745
   0.32897800  0.32582101  0.10129457
   0.68117032  0.00209504  0.10119346
   0.00496142  0.67815074  0.10130181
   0.08258332  0.41730644  0.33663291
   0.24928324  0.25068419  0.33678600
   0.08265740  0.91735978  0.33667880
   0.24934389  0.75067956  0.33660819
   0.58263778  0.41730609  0.33661319
   0.74929106  0.25067421  0.33660583
   0.58260068  0.91732981  0.33675611
   0.74921336  0.75064741  0.33665360
Direct configuration=    40
   0.00498858  0.00197543  0.10625012
   0.35998971  0.00196676  0.10056289
   0.00497891  0.35693018  0.10069490
   0.65019027  0.64690593  0.10064856
   0.32907392  0.32569727  0.10128084
   0.68134280  0.00211164  0.10118821
   0.00500583  0.67800257  0.10129026
   0.08263802  0.41741059  0.33665414
   0.24923505  0.25074797  0.33677511
   0.08257829  0.91740676  0.33670798
   0.24924444  0.75077840  0.33663491
   0.58249659  0.41738586  0.33665190
   0.74916880  0.25072840  0.33662071
   0.58250266  0.91732368  0.33675253
   0.74919347  0.75072923  0.33666628
Direct configuration=    41
   0.00502943  0.00192306  0.10611658
   0.36001940  0.00194418  0.10058551
   0.00500528  0.35690134  0.10073183
   0.65022736  0.64688159  0.10068135
   0.32911863  0.32566082  0.10127052
   0.68139406  0.00209439  0.10118961
   0.00503293  0.67794112  0.10128208
   0.08259166  0.41745203  0.33666048
   0.24920667  0.25076519  0.33677412
   0.08254170  0.91745145  0.33671754
   0.24921661  0.75079185  0.33664956
   0.58246402  0.41742770  0.33666548
   0.74914574  0.25074557  0.33663044
   0.58247044  0.91737467  0.33674901
   0.74916340  0.75074571  0.33667520
Direct configuration=    42
   0.00511548  0.00181274  0.10583528
   0.36008194  0.00189661  0.10063318
   0.00506085  0.35684058  0.10080962
   0.65030551  0.64683031  0.10075044
   0.32921281  0.32558402  0.10124878
   0.68150206  0.00205805  0.10119257
   0.00509003  0.67781167  0.10126486
   0.08249398  0.41753935  0.33667384
   0.24914688  0.25080147  0.33677204
   0.08246463  0.91754559  0.33673768
   0.24915796  0.75082019  0.33668041
   0.58239540  0.41751585  0.33669407
   0.74909715  0.25078173  0.33665095
   0.58240258  0.91748208  0.33674161
   0.74910007  0.75078043  0.33669400
Direct configuration=    43
   0.00516238  0.00176485  0.10568589
   0.36014482  0.00186709  0.10065721
   0.00510558  0.35679080  0.10084665
   0.65033761  0.64678655  0.10078390
   0.32926320  0.32556608  0.10123823
   0.68151928  0.00201158  0.10120018
   0.00513031  0.67776834  0.10125752
   0.08241747  0.41754827  0.33667874
   0.24909839  0.25084994  0.33677669
   0.08243515  0.91757483  0.33674497
   0.24912906  0.75085564  0.33669615
   0.58238883  0.41753291  0.33670432
   0.74907448  0.25083207  0.33666311
   0.58237955  0.91753083  0.33674000
   0.74904121  0.75082089  0.33670577
Direct configuration=    44
   0.00525237  0.00167298  0.10539924
   0.36026547  0.00181046  0.10070333
   0.00519141  0.35669528  0.10091770
   0.65039920  0.64670259  0.10084811
   0.32935988  0.32553165  0.10121800
   0.68155233  0.00192242  0.10121478
   0.00520759  0.67768518  0.10124345
   0.08227067  0.41756537  0.33668813
   0.24900534  0.25094295  0.33678561
   0.08237859  0.91763093  0.33675895
   0.24907362  0.75092367  0.33672634
   0.58237624  0.41756564  0.33672397
   0.74903097  0.25092868  0.33668646
   0.58233536  0.91762436  0.33673690
   0.74892827  0.75089851  0.33672836
Direct configuration=    45
   0.00529422  0.00164690  0.10526235
   0.36034581  0.00177507  0.10072164
   0.00524843  0.35664668  0.10094069
   0.65041779  0.64664297  0.10087028
   0.32939344  0.32552423  0.10121507
   0.68154733  0.00184969  0.10123209
   0.00525878  0.67767265  0.10124392
   0.08227771  0.41760540  0.33669239
   0.24897802  0.25098860  0.33679741
   0.08234189  0.91764951  0.33676286
   0.24903155  0.75097111  0.33673493
   0.58232224  0.41759434  0.33672734
   0.74897397  0.25095995  0.33669573
   0.58229278  0.91763241  0.33674431
   0.74890337  0.75094117  0.33673832
Direct configuration=    46
   0.00537772  0.00159484  0.10498918
   0.36050614  0.00170445  0.10075819
   0.00536221  0.35654970  0.10098657
   0.65045487  0.64652399  0.10091451
   0.32946041  0.32550942  0.10120921
   0.68153734  0.00170453  0.10126662
   0.00536094  0.67764764  0.10124487
   0.08229177  0.41768529  0.33670088
   0.24892350  0.25107969  0.33682095
   0.08226864  0.91768659  0.33677066
   0.24894760  0.75106578  0.33675208
   0.58221449  0.41765162  0.33673405
   0.74886023  0.25102234  0.33671424
   0.58220781  0.91764849  0.33675911
   0.74885366  0.75102629  0.33675821
Direct configuration=    47
   0.00542164  0.00156708  0.10484353
   0.36056625  0.00166126  0.10077597
   0.00542328  0.35652983  0.10100288
   0.65048222  0.64646485  0.10093210
   0.32948510  0.32548304  0.10121171
   0.68156191  0.00162178  0.10129067
   0.00542131  0.67762126  0.10125081
   0.08225692  0.41774007  0.33670733
   0.24888895  0.25108665  0.33683641
   0.08222647  0.91774309  0.33677505
   0.24890891  0.75109095  0.33675533
   0.58216414  0.41771031  0.33673567
   0.74882944  0.25104530  0.33672086
   0.58216124  0.91768764  0.33677490
   0.74882955  0.75104754  0.33676613
Direct configuration=    48
   0.00550801  0.00151250  0.10455715
   0.36068444  0.00157636  0.10081091
   0.00554333  0.35649076  0.10103495
   0.65053601  0.64634858  0.10096667
   0.32953364  0.32543118  0.10121662
   0.68161022  0.00145907  0.10133796
   0.00554000  0.67756940  0.10126250
   0.08218840  0.41784779  0.33672001
   0.24882102  0.25110034  0.33686680
   0.08214355  0.91785418  0.33678369
   0.24883284  0.75114045  0.33676174
   0.58206515  0.41782568  0.33673885
   0.74876890  0.25109044  0.33673387
   0.58206968  0.91776460  0.33680594
   0.74878215  0.75108932  0.33678168
Direct configuration=    49
   0.00556083  0.00146844  0.10438069
   0.36072049  0.00151777  0.10083362
   0.00560747  0.35649527  0.10104966
   0.65058621  0.64628913  0.10098493
   0.32956878  0.32537499  0.10122333
   0.68167718  0.00137593  0.10136782
   0.00561073  0.67751112  0.10127275
   0.08210246  0.41786895  0.33673055
   0.24876048  0.25114726  0.33688511
   0.08210241  0.91789793  0.33679063
   0.24878856  0.75118418  0.33676122
   0.58204483  0.41785890  0.33674145
   0.74873926  0.25114995  0.33673880
   0.58203660  0.91782206  0.33683064
   0.74872105  0.75113879  0.33678814
Direct configuration=    50
   0.00565504  0.00138983  0.10406592
   0.36078481  0.00141325  0.10087413
   0.00572187  0.35650332  0.10107588
   0.65067577  0.64618310  0.10101750
   0.32963145  0.32527474  0.10123529
   0.68179663  0.00122761  0.10142110
   0.00573689  0.67740717  0.10129104
   0.08194916  0.41790668  0.33674934
   0.24865250  0.25123095  0.33691776
   0.08202901  0.91797595  0.33680301
   0.24870958  0.75126219  0.33676029
   0.58200860  0.41791815  0.33674608