 ----------------------------------------------------
    OOO  PPPP  EEEEE N   N M   M PPPP
   O   O P   P E     NN  N MM MM P   P
   O   O PPPP  EEEEE N N N M M M PPPP   -- VERSION
   O   O P     E     N  NN M   M P
    OOO  P     EEEEE N   N M   M P
 ----------------------------------------------------
 running   48 mpi-ranks, with    1 threads/rank
 distrk:  each k-point on   48 cores,    1 groups
 distr:  one band on    1 cores,   48 groups
 vasp.6.3.2 27Jun22 (build Dec 22 2022 13:13:19) complex                        
  
 POSCAR found type information on POSCAR B C 
 POSCAR found :  2 types and      16 ions
 Reading from existing POTCAR
 -----------------------------------------------------------------------------
|                                                                             |
|           W    W    AA    RRRRR   N    N  II  N    N   GGGG   !!!           |
|           W    W   A  A   R    R  NN   N  II  NN   N  G    G  !!!           |
|           W    W  A    A  R    R  N N  N  II  N N  N  G       !!!           |
|           W WW W  AAAAAA  RRRRR   N  N N  II  N  N N  G  GGG   !            |
|           WW  WW  A    A  R   R   N   NN  II  N   NN  G    G                |
|           W    W  A    A  R    R  N    N  II  N    N   GGGG   !!!           |
|                                                                             |
|     You use a magnetic or noncollinear calculation, but did not specify     |
|     the initial magnetic moment with the MAGMOM tag. Note that a            |
|     default of 1 will be used for all atoms. This ferromagnetic setup       |
|     may break the symmetry of the crystal, in particular it may rule        |
|     out finding an antiferromagnetic solution. Thence, we recommend         |
|     setting the initial magnetic moment manually or verifying carefully     |
|     that this magnetic setup is desired.                                    |
|                                                                             |
 -----------------------------------------------------------------------------

 scaLAPACK will be used
 Reading from existing POTCAR
 LDA part: xc-table for Pade appr. of Perdew
 POSCAR found type information on POSCAR B C 
 POSCAR found :  2 types and      16 ions
 POSCAR, INCAR and KPOINTS ok, starting setup
 FFT: planning ... GRIDC
 FFT: planning ... GRID_SOFT
 FFT: planning ... GRID
 WAVECAR not read
 entering main loop
       N       E                     dE             d eps       ncg     rms          rms(c)
DAV:   1     0.263027370934E+03    0.26303E+03   -0.29019E+04 14208   0.969E+02
DAV:   2    -0.131747104204E+03   -0.39477E+03   -0.39422E+03 21888   0.183E+02
DAV:   3    -0.146986510760E+03   -0.15239E+02   -0.15219E+02 25776   0.497E+01
DAV:   4    -0.147026127629E+03   -0.39617E-01   -0.39602E-01 21552   0.234E+00
DAV:   5    -0.147026200889E+03   -0.73260E-04   -0.73260E-04 24432   0.104E-01    0.259E+01
DAV:   6    -0.107403655907E+03    0.39623E+02   -0.65522E+01 24192   0.265E+01    0.152E+01
DAV:   7    -0.114142642485E+03   -0.67390E+01   -0.11236E+01 23520   0.116E+01    0.875E+00
DAV:   8    -0.123262401415E+03   -0.91198E+01   -0.80812E+00 25392   0.909E+00    0.465E+00
DAV:   9    -0.131716544004E+03   -0.84541E+01   -0.50214E+00 18864   0.778E+00    0.301E+00
DAV:  10    -0.138191975683E+03   -0.64754E+01   -0.86850E+00 22464   0.741E+00    0.178E+00
DAV:  11    -0.139621841804E+03   -0.14299E+01   -0.16669E+00 20016   0.338E+00    0.123E+00
DAV:  12    -0.139934954950E+03   -0.31311E+00   -0.42259E-01 19728   0.185E+00    0.490E-01
DAV:  13    -0.139989721445E+03   -0.54766E-01   -0.45948E-02 17184   0.889E-01    0.215E-01
DAV:  14    -0.140014437123E+03   -0.24716E-01   -0.86207E-03 20016   0.334E-01    0.112E-01
DAV:  15    -0.140025275134E+03   -0.10838E-01   -0.64018E-03 16992   0.211E-01    0.538E-02
DAV:  16    -0.140027067171E+03   -0.17920E-02   -0.84797E-04 16416   0.103E-01    0.309E-02
DAV:  17    -0.140029057301E+03   -0.19901E-02   -0.29698E-04 14592   0.677E-02    0.201E-02
DAV:  18    -0.140030182002E+03   -0.11247E-02   -0.10876E-04 15120   0.462E-02    0.147E-02
DAV:  19    -0.140030732886E+03   -0.55088E-03   -0.56410E-05 17280   0.363E-02    0.932E-03
DAV:  20    -0.140030935789E+03   -0.20290E-03   -0.34212E-05 17664   0.258E-02    0.506E-03
DAV:  21    -0.140030942802E+03   -0.70127E-05   -0.10847E-05 20304   0.166E-02    0.310E-03
DAV:  22    -0.140030991629E+03   -0.48827E-04   -0.56679E-06 20400   0.994E-03    0.236E-03
DAV:  23    -0.140031008902E+03   -0.17273E-04   -0.22672E-06 21024   0.556E-03    0.106E-03
DAV:  24    -0.140031012845E+03   -0.39427E-05   -0.52981E-07 23040   0.265E-03    0.528E-04
DAV:  25    -0.140031015058E+03   -0.22131E-05   -0.14301E-07 18768   0.133E-03    0.319E-04
DAV:  26    -0.140031016150E+03   -0.10926E-05   -0.88258E-08 18624   0.979E-04    0.118E-04
DAV:  27    -0.140031016539E+03   -0.38851E-06   -0.22584E-08 17520   0.495E-04
   1 F= -.14194711E+03 E0= -.14194577E+03  d E =-.141947E+03  mag=     0.0000
 curvature:   0.00 expect dE= 0.000E+00 dE for cont linesearch  0.000E+00
 trial: gam= 0.00000 g(F)=  0.312E+00 g(S)=  0.000E+00 ort = 0.000E+00 (trialstep = 0.100E+01)
 search vector abs. value=  0.312E+00
 bond charge predicted
       N       E                     dE             d eps       ncg     rms          rms(c)
DAV:   1    -0.139842731186E+03    0.18828E+00   -0.51502E+01 14208   0.238E+01    0.216E+00
DAV:   2    -0.139697370581E+03    0.14536E+00   -0.94454E-01 21312   0.331E+00    0.101E+00
DAV:   3    -0.139686336028E+03    0.11035E-01   -0.11694E-01 24672   0.107E+00    0.463E-01
DAV:   4    -0.139685929321E+03    0.40671E-03   -0.10227E-02 20976   0.319E-01    0.168E-01
DAV:   5    -0.139685899742E+03    0.29579E-04   -0.81691E-04 20496   0.108E-01    0.330E-02
DAV:   6    -0.139685885741E+03    0.14001E-04   -0.13129E-04 20832   0.428E-02    0.172E-02
DAV:   7    -0.139685896208E+03   -0.10466E-04   -0.30514E-05 21600   0.198E-02    0.548E-03
DAV:   8    -0.139685909908E+03   -0.13701E-04   -0.52364E-06 17232   0.806E-03    0.420E-03
DAV:   9    -0.139685941510E+03   -0.31602E-04   -0.83930E-06 19008   0.830E-03    0.217E-03
DAV:  10    -0.139685952981E+03   -0.11471E-04   -0.12045E-06 20448   0.310E-03    0.140E-03
DAV:  11    -0.139685967136E+03   -0.14155E-04   -0.14595E-06 17280   0.225E-03    0.755E-04
DAV:  12    -0.139685973107E+03   -0.59719E-05   -0.53386E-07 17328   0.128E-03    0.638E-04
DAV:  13    -0.139685975070E+03   -0.19626E-05   -0.13143E-07 17232   0.639E-04    0.341E-04
DAV:  14    -0.139685975831E+03   -0.76129E-06   -0.77933E-08 15120   0.445E-04
   2 F= -.14161318E+03 E0= -.14161111E+03  d E =0.333927E+00  mag=    -0.0000
 trial-energy change:    0.333927  1 .order    0.326357   -0.312076    0.964790
 step:   0.2380(harm=  0.2444)  dis= 0.01174  next Energy=  -141.984139 (dE=-0.370E-01)
 bond charge predicted
       N       E                     dE             d eps       ncg     rms          rms(c)
DAV:   1    -0.140152389649E+03   -0.46641E+00   -0.29635E+01 14208   0.177E+01    0.162E+00
DAV:   2    -0.140072513676E+03    0.79876E-01   -0.51267E-01 22848   0.255E+00    0.773E-01
DAV:   3    -0.140064135042E+03    0.83786E-02   -0.88148E-02 23616   0.896E-01    0.316E-01
DAV:   4    -0.140063880924E+03    0.25412E-03   -0.88107E-03 18816   0.286E-01    0.145E-01
DAV:   5    -0.140063877625E+03    0.32995E-05   -0.65979E-04 20112   0.953E-02    0.245E-02
DAV:   6    -0.140063866996E+03    0.10629E-04   -0.13630E-04 18912   0.388E-02    0.125E-02
DAV:   7    -0.140063881743E+03   -0.14748E-04   -0.14818E-05 20496   0.129E-02    0.254E-03
DAV:   8    -0.140063889865E+03   -0.81220E-05   -0.96941E-07 23040   0.319E-03    0.221E-03
DAV:   9    -0.140063907023E+03   -0.17158E-04   -0.13436E-06 17760   0.291E-03    0.842E-04
DAV:  10    -0.140063916787E+03   -0.97633E-05   -0.60561E-07 21216   0.173E-03    0.852E-04
DAV:  11    -0.140063925378E+03   -0.85914E-05   -0.76976E-07 15936   0.152E-03    0.374E-04
DAV:  12    -0.140063926251E+03   -0.87273E-06   -0.23595E-08 23712   0.383E-04
   3 F= -.14198405E+03 E0= -.14198259E+03  d E =-.369437E-01  mag=    -0.0000
 curvature:  -0.12 expect dE=-0.270E-04 dE for cont linesearch -0.749E-07
 ZBRENT: interpolating
 opt :   0.2376  next Energy=  -141.984055 (dE=-0.369E-01)
 bond charge predicted
       N       E                     dE             d eps       ncg     rms          rms(c)
DAV:   1    -0.140063931881E+03   -0.65034E-05   -0.58262E-06 16704   0.796E-03    0.732E-04
DAV:   2    -0.140063932039E+03   -0.15722E-06   -0.10586E-07 25248   0.115E-03
   4 F= -.14198406E+03 E0= -.14198259E+03  d E =-.369445E-01  mag=    -0.0000
 curvature:  -0.12 expect dE=-0.261E-04 dE for cont linesearch -0.146E-08
 ZBRENT: interpolating
 opt :   0.2376  next Energy=  -141.984055 (dE=-0.369E-01)
 bond charge predicted
       N       E                     dE             d eps       ncg     rms          rms(c)
DAV:   1    -0.140063933024E+03   -0.11421E-05   -0.11945E-07 17520   0.123E-03    0.214E-04
DAV:   2    -0.140063933108E+03   -0.84743E-07   -0.16893E-09 22896   0.148E-04
   5 F= -.14198406E+03 E0= -.14198259E+03  d E =-.369448E-01  mag=    -0.0000
 curvature:  -0.14 expect dE=-0.304E-04 dE for cont linesearch -0.637E-09
 trial: gam= 0.00058 g(F)=  0.219E-03 g(S)=  0.000E+00 ort = 0.379E-04 (trialstep = 0.848E+00)
 search vector abs. value=  0.220E-03
 bond charge predicted
       N       E                     dE             d eps       ncg     rms          rms(c)
DAV:   1    -0.140064025132E+03   -0.92108E-04   -0.13574E-02 14208   0.501E-01    0.235E-02
DAV:   2    -0.140064025624E+03   -0.49209E-06   -0.93054E-05 24672   0.428E-02    0.150E-02
DAV:   3    -0.140064028179E+03   -0.25552E-05   -0.13037E-05 14208   0.146E-02    0.298E-03
DAV:   4    -0.140064028148E+03    0.30566E-07   -0.21323E-06 25296   0.596E-03
   6 F= -.14198418E+03 E0= -.14198272E+03  d E =-.119899E-03  mag=     0.0000
 trial-energy change:   -0.000120  1 .order   -0.000119   -0.000186   -0.000053
 step:   1.1841(harm=  1.1841)  dis= 0.00177  next Energy=  -141.984186 (dE=-0.130E-03)
 bond charge predicted
       N       E                     dE             d eps       ncg     rms          rms(c)
DAV:   1    -0.140064028515E+03   -0.33580E-06   -0.21470E-03 14208   0.199E-01    0.953E-03
DAV:   2    -0.140064028322E+03    0.19228E-06   -0.15155E-05 22608   0.174E-02    0.614E-03
DAV:   3    -0.140064029195E+03   -0.87265E-06   -0.21546E-06 14688   0.600E-03
   7 F= -.14198419E+03 E0= -.14198273E+03  d E =-.130865E-03  mag=    -0.0000
 curvature:  -0.59 expect dE=-0.105E-03 dE for cont linesearch -0.278E-08
 trial: gam= 0.81282 g(F)=  0.177E-03 g(S)=  0.000E+00 ort =-0.102E-05 (trialstep = 0.626E+00)
 search vector abs. value=  0.321E-03
 bond charge predicted
       N       E                     dE             d eps       ncg     rms          rms(c)
DAV:   1    -0.140063982603E+03    0.45719E-04   -0.12128E-02 14304   0.493E-01    0.261E-02
DAV:   2    -0.140063981903E+03    0.69970E-06   -0.14825E-04 15168   0.560E-02    0.162E-02
DAV:   3    -0.140063981432E+03    0.47169E-06   -0.24291E-05 16848   0.209E-02    0.532E-03
DAV:   4    -0.140063981482E+03   -0.49936E-07   -0.45627E-06 24384   0.833E-03
   8 F= -.14198418E+03 E0= -.14198272E+03  d E =0.801935E-05  mag=     0.0000
 trial-energy change:    0.000008  1 .order    0.000007   -0.000111    0.000125
 step:   0.2934(harm=  0.2934)  dis= 0.00051  next Energy=  -141.984212 (dE=-0.259E-04)
 bond charge predicted
       N       E                     dE             d eps       ncg     rms          rms(c)
DAV:   1    -0.140064036948E+03   -0.55516E-04   -0.34489E-03 15552   0.263E-01    0.140E-02
DAV:   2    -0.140064036179E+03    0.76911E-06   -0.42508E-05 14688   0.300E-02    0.863E-03
DAV:   3    -0.140064036054E+03    0.12518E-06   -0.71720E-06 15360   0.114E-02
   9 F= -.14198421E+03 E0= -.14198276E+03  d E =-.255176E-04  mag=     0.0000
 curvature:  -0.27 expect dE=-0.960E-05 dE for cont linesearch -0.276E-07
 trial: gam= 0.17567 g(F)=  0.360E-04 g(S)=  0.000E+00 ort = 0.576E-05 (trialstep = 0.560E+00)
 search vector abs. value=  0.479E-04
 bond charge predicted
       N       E                     dE             d eps       ncg     rms          rms(c)
DAV:   1    -0.140064019206E+03    0.16973E-04   -0.13214E-03 14784   0.161E-01    0.887E-03
DAV:   2    -0.140064018980E+03    0.22617E-06   -0.18107E-05 14208   0.191E-02    0.541E-03
DAV:   3    -0.140064019026E+03   -0.45868E-07   -0.25673E-06 14208   0.665E-03
  10 F= -.14198422E+03 E0= -.14198276E+03  d E =-.727466E-05  mag=     0.0000
 trial-energy change:   -0.000007  1 .order   -0.000007   -0.000021    0.000006
 step:   0.4291(harm=  0.4291)  dis= 0.00026  next Energy=  -141.984220 (dE=-0.794E-05)
 bond charge predicted
       N       E                     dE             d eps       ncg     rms          rms(c)
DAV:   1    -0.140064025389E+03   -0.64086E-05   -0.70696E-05 17376   0.374E-02    0.167E-03
DAV:   2    -0.140064025452E+03   -0.63716E-07   -0.96877E-07 15264   0.433E-03
  11 F= -.14198422E+03 E0= -.14198276E+03  d E =-.803185E-05  mag=     0.0000
 curvature:  -0.28 expect dE=-0.928E-05 dE for cont linesearch -0.213E-09
 trial: gam= 0.92227 g(F)=  0.334E-04 g(S)=  0.000E+00 ort = 0.192E-06 (trialstep = 0.343E+00)
 search vector abs. value=  0.745E-04
 bond charge predicted
       N       E                     dE             d eps       ncg     rms          rms(c)
DAV:   1    -0.140064010331E+03    0.15057E-04   -0.74941E-04 14688   0.121E-01    0.626E-03
DAV:   2    -0.140064010122E+03    0.20896E-06   -0.64457E-06 14208   0.112E-02
  12 F= -.14198423E+03 E0= -.14198277E+03  d E =-.879463E-05  mag=     0.0000
 trial-energy change:   -0.000009  1 .order   -0.000009   -0.000012   -0.000007
 step:   0.7938(harm=  0.7938)  dis= 0.00061  next Energy=  -141.984233 (dE=-0.133E-04)
 bond charge predicted
       N       E                     dE             d eps       ncg     rms          rms(c)
DAV:   1    -0.140063982828E+03    0.27503E-04   -0.12668E-03 14208   0.158E-01    0.890E-03
DAV:   2    -0.140063982517E+03    0.31127E-06   -0.10953E-05 14208   0.146E-02    0.555E-03
DAV:   3    -0.140063983014E+03   -0.49710E-06   -0.14005E-06 14208   0.464E-03
  13 F= -.14198423E+03 E0= -.14198278E+03  d E =-.133922E-04  mag=     0.0000
 curvature:  -0.88 expect dE=-0.322E-04 dE for cont linesearch -0.450E-08
 trial: gam= 1.08436 g(F)=  0.365E-04 g(S)=  0.000E+00 ort =-0.617E-06 (trialstep = 0.263E+00)
 search vector abs. value=  0.123E-03
 bond charge predicted
       N       E                     dE             d eps       ncg     rms          rms(c)
DAV:   1    -0.140063963403E+03    0.19114E-04   -0.88676E-04 14400   0.131E-01    0.693E-03
DAV:   2    -0.140063963177E+03    0.22575E-06   -0.82764E-06 14208   0.130E-02
  14 F= -.14198424E+03 E0= -.14198278E+03  d E =-.694243E-05  mag=     0.0000
 trial-energy change:   -0.000007  1 .order   -0.000007   -0.000009   -0.000005
 step:   0.5129(harm=  0.5129)  dis= 0.00043  next Energy=  -141.984243 (dE=-0.920E-05)
 bond charge predicted
       N       E                     dE             d eps       ncg     rms          rms(c)
DAV:   1    -0.140063939904E+03    0.23499E-04   -0.77600E-04 14544   0.123E-01    0.697E-03
DAV:   2    -0.140063939677E+03    0.22713E-06   -0.68278E-06 14400   0.118E-02
  15 F= -.14198424E+03 E0= -.14198279E+03  d E =-.890645E-05  mag=     0.0000
 curvature:  -0.88 expect dE=-0.265E-04 dE for cont linesearch -0.911E-08
 trial: gam= 0.85753 g(F)=  0.302E-04 g(S)=  0.000E+00 ort =-0.113E-05 (trialstep = 0.313E+00)
 search vector abs. value=  0.119E-03
 bond charge predicted
       N       E                     dE             d eps       ncg     rms          rms(c)
DAV:   1    -0.140063911956E+03    0.27949E-04   -0.11756E-03 15168   0.152E-01    0.818E-03
DAV:   2    -0.140063911621E+03    0.33427E-06   -0.10128E-05 14544   0.139E-02    0.515E-03
DAV:   3    -0.140063911878E+03   -0.25659E-06   -0.13570E-06 14592   0.452E-03
  16 F= -.14198425E+03 E0= -.14198280E+03  d E =-.874419E-05  mag=    -0.0000
 ZBRENT: can't locate minimum, use default step
 trial-energy change:   -0.000009  1 .order   -0.000008   -0.000009   -0.000008
 step:   1.2516(harm=  1.8299)  dis= 0.00087  next Energy=  -141.984269 (dE=-0.267E-04)
 bond charge predicted
       N       E                     dE             d eps       ncg     rms          rms(c)
DAV:   1    -0.140063820908E+03    0.90714E-04   -0.10769E-02 14208   0.457E-01    0.236E-02
DAV:   2    -0.140063819412E+03    0.14955E-05   -0.96516E-05 14544   0.431E-02    0.148E-02
DAV:   3    -0.140063820229E+03   -0.81706E-06   -0.12160E-05 14496   0.128E-02    0.304E-03
DAV:   4    -0.140063820375E+03   -0.14589E-06   -0.15170E-06 14784   0.499E-03
  17 F= -.14198427E+03 E0= -.14198281E+03  d E =-.271098E-04  mag=    -0.0000
 curvature:  -3.18 expect dE=-0.138E-03 dE for cont linesearch -0.433E-05
 ZBRENT: increasing intervall
 opt :   3.1290  next Energy=  -141.984272 (dE=-0.294E-04)
 bond charge predicted
       N       E                     dE             d eps       ncg     rms          rms(c)
DAV:   1    -0.140063605198E+03    0.21503E-03   -0.43027E-02 14208   0.913E-01    0.472E-02
DAV:   2    -0.140063602400E+03    0.27985E-05   -0.38419E-04 15072   0.857E-02    0.295E-02
DAV:   3    -0.140063601672E+03    0.72811E-06   -0.48569E-05 15072   0.253E-02    0.599E-03
DAV:   4    -0.140063602073E+03   -0.40171E-06   -0.58414E-06 17280   0.932E-03
  18 F= -.14198427E+03 E0= -.14198282E+03  d E =-.288730E-04  mag=     0.0000
 curvature:  -1.68 expect dE=-0.369E-03 dE for cont linesearch -0.217E-05
 ZBRENT: bracketing found
 ZBRENT: interpolating
 opt :   2.2032  next Energy=  -141.984277 (dE=-0.346E-04)
 bond charge predicted
       N       E                     dE             d eps       ncg     rms          rms(c)
DAV:   1    -0.140063716355E+03   -0.11468E-03   -0.10420E-02 14496   0.450E-01    0.228E-02
DAV:   2    -0.140063715240E+03    0.11146E-05   -0.93898E-05 14592   0.425E-02    0.142E-02
DAV:   3    -0.140063715334E+03   -0.93259E-07   -0.11999E-05 14592   0.131E-02    0.309E-03
DAV:   4    -0.140063715522E+03   -0.18844E-06   -0.18241E-06 14208   0.649E-03
  19 F= -.14198428E+03 E0= -.14198282E+03  d E =-.337150E-04  mag=     0.0000
 curvature:  -4.44 expect dE=-0.487E-03 dE for cont linesearch -0.109E-06
 trial: gam= 3.45470 g(F)=  0.110E-03 g(S)=  0.000E+00 ort = 0.171E-05 (trialstep = 0.533E-01)
 search vector abs. value=  0.154E-02
 bond charge predicted
       N       E                     dE             d eps       ncg     rms          rms(c)
DAV:   1    -0.140063698810E+03    0.16524E-04   -0.45101E-04 14784   0.925E-02    0.464E-03
DAV:   2    -0.140063698776E+03    0.33840E-07   -0.43402E-06 15552   0.914E-03
  20 F= -.14198428E+03 E0= -.14198283E+03  d E =-.650424E-05  mag=    -0.0000
 ZBRENT: can't locate minimum, use default step
 trial-energy change:   -0.000007  1 .order   -0.000006   -0.000006   -0.000006
 step:   0.2133(harm=  1.2906)  dis= 0.00067  next Energy=  -141.984351 (dE=-0.746E-04)
 bond charge predicted
       N       E                     dE             d eps       ncg     rms          rms(c)
DAV:   1    -0.140063646713E+03    0.52097E-04   -0.40545E-03 14208   0.278E-01    0.152E-02
DAV:   2    -0.140063645780E+03    0.93240E-06   -0.37407E-05 14352   0.267E-02    0.948E-03
DAV:   3    -0.140063646027E+03   -0.24662E-06   -0.50280E-06 14400   0.855E-03
  21 F= -.14198430E+03 E0= -.14198285E+03  d E =-.235371E-04  mag=     0.0000
 curvature:  -2.07 expect dE=-0.206E-03 dE for cont linesearch -0.125E-04
 ZBRENT: increasing intervall
 opt :   0.5332  next Energy=  -141.984326 (dE=-0.497E-04)
 bond charge predicted
       N       E                     dE             d eps       ncg     rms          rms(c)
DAV:   1    -0.140063540312E+03    0.10547E-03   -0.16399E-02 14208   0.557E-01    0.299E-02
DAV:   2    -0.140063537852E+03    0.24605E-05   -0.15041E-04 15312   0.535E-02    0.187E-02
DAV:   3    -0.140063538179E+03   -0.32739E-06   -0.19552E-05 15168   0.163E-02    0.382E-03
DAV:   4    -0.140063538418E+03   -0.23919E-06   -0.27912E-06 14208   0.762E-03
  22 F= -.14198433E+03 E0= -.14198288E+03  d E =-.556530E-04  mag=     0.0000
 curvature:  -4.34 expect dE=-0.530E-03 dE for cont linesearch -0.242E-04
 ZBRENT: increasing intervall
 opt :   1.1730  next Energy=  -141.984389 (dE=-0.113E-03)
 bond charge predicted
       N       E                     dE             d eps       ncg     rms          rms(c)
DAV:   1    -0.140063322489E+03    0.21569E-03   -0.65473E-02 14208   0.111E+00    0.596E-02
DAV:   2    -0.140063315821E+03    0.66673E-05   -0.59695E-04 15696   0.106E-01    0.370E-02
DAV:   3    -0.140063311844E+03    0.39778E-05   -0.77350E-05 15552   0.315E-02    0.749E-03
DAV:   4    -0.140063312601E+03   -0.75715E-06   -0.93727E-06 15264   0.125E-02
  23 F= -.14198439E+03 E0= -.14198293E+03  d E =-.109924E-03  mag=     0.0000
 curvature: -10.20 expect dE=-0.291E-02 dE for cont linesearch -0.323E-04
 ZBRENT: increasing intervall
 opt :   2.4526  next Energy=  -141.984446 (dE=-0.170E-03)
 bond charge predicted
       N       E                     dE             d eps       ncg     rms          rms(c)
DAV:   1    -0.140062857410E+03    0.45443E-03   -0.26190E-01 14208   0.223E+00    0.119E-01
DAV:   2    -0.140062839350E+03    0.18060E-04   -0.23906E-03 15648   0.212E-01    0.738E-02
DAV:   3    -0.140062815591E+03    0.23759E-04   -0.30778E-04 15360   0.627E-02    0.149E-02
DAV:   4    -0.140062817938E+03   -0.23472E-05   -0.36996E-05 17040   0.244E-02    0.723E-03
DAV:   5    -0.140062818294E+03   -0.35616E-06   -0.62269E-06 18240   0.136E-02
  24 F= -.14198445E+03 E0= -.14198300E+03  d E =-.178063E-03  mag=    -0.0000
 curvature: -18.95 expect dE=-0.208E-01 dE for cont linesearch -0.150E-04
 ZBRENT: increasing intervall
 opt :   5.0118  next Energy=  -141.984454 (dE=-0.178E-03)
 bond charge predicted
       N       E                     dE             d eps       ncg     rms          rms(c)
DAV:   1    -0.140061834617E+03    0.98332E-03   -0.10469E+00 14208   0.445E+00    0.237E-01
DAV:   2    -0.140061771692E+03    0.62925E-04   -0.94742E-03 18384   0.420E-01    0.147E-01
DAV:   3    -0.140061651271E+03    0.12042E-03   -0.11825E-03 15744   0.120E-01    0.291E-02
DAV:   4    -0.140061658275E+03   -0.70046E-05   -0.13250E-04 21408   0.411E-02    0.137E-02
DAV:   5    -0.140061659593E+03   -0.13172E-05   -0.90276E-06 19056   0.135E-02    0.316E-03
DAV:   6    -0.140061660362E+03   -0.76974E-06   -0.31257E-06 15456   0.102E-02
  25 F= -.14198443E+03 E0= -.14198298E+03  d E =-.155490E-03  mag=    -0.0000
 curvature:  -0.04 expect dE=-0.169E-03 dE for cont linesearch -0.647E-07
 ZBRENT: bracketing found
 ZBRENT: interpolating
 opt :   3.4755  next Energy=  -141.984472 (dE=-0.196E-03)
 bond charge predicted
       N       E                     dE             d eps       ncg     rms          rms(c)
DAV:   1    -0.140062444047E+03   -0.78445E-03   -0.37724E-01 14208   0.267E+00    0.142E-01
DAV:   2    -0.140062419084E+03    0.24963E-04   -0.34460E-03 18816   0.252E-01    0.886E-02
DAV:   3    -0.140062381151E+03    0.37933E-04   -0.43080E-04 15168   0.718E-02    0.172E-02
DAV:   4    -0.140062384367E+03   -0.32165E-05   -0.47621E-05 21312   0.243E-02    0.821E-03
DAV:   5    -0.140062385952E+03   -0.15848E-05   -0.24289E-06 14880   0.596E-03    0.177E-03
DAV:   6    -0.140062386190E+03   -0.23830E-06   -0.29982E-07 18672   0.269E-03
  26 F= -.14198447E+03 E0= -.14198302E+03  d E =-.198165E-03  mag=    -0.0000
 curvature:  -9.98 expect dE=-0.221E-01 dE for cont linesearch -0.562E-08
 trial: gam=20.42290 g(F)=  0.221E-02 g(S)=  0.000E+00 ort = 0.930E-06 (trialstep = 0.176E-02)
 search vector abs. value=  0.643E+00
 bond charge predicted
       N       E                     dE             d eps       ncg     rms          rms(c)
DAV:   1    -0.140062374558E+03    0.11394E-04   -0.21136E-04 18288   0.631E-02    0.350E-03
DAV:   2    -0.140062374425E+03    0.13322E-06   -0.15973E-06 16224   0.534E-03
  27 F= -.14198448E+03 E0= -.14198303E+03  d E =-.414558E-05  mag=    -0.0000
 ZBRENT: can't locate minimum, use default step
 trial-energy change:   -0.000004  1 .order   -0.000004   -0.000004   -0.000004
 step:   0.0071(harm=  0.0071)  dis= 0.00047  next Energy=  -141.984490 (dE=-0.162E-04)
 bond charge predicted
       N       E                     dE             d eps       ncg     rms          rms(c)
DAV:   1    -0.140062339376E+03    0.35182E-04   -0.18842E-03 19872   0.189E-01    0.104E-02
DAV:   2    -0.140062338290E+03    0.10862E-05   -0.12045E-05 14304   0.146E-02    0.624E-03
DAV:   3    -0.140062338655E+03   -0.36505E-06   -0.23653E-06 18816   0.533E-03
  28 F= -.14198449E+03 E0= -.14198304E+03  d E =-.161263E-04  mag=     0.0000
 curvature:  -1.53 expect dE=-0.350E-02 dE for cont linesearch -0.106E-04
 ZBRENT: increasing intervall
 opt :   0.0176  next Energy=  -141.984511 (dE=-0.368E-04)
 bond charge predicted
       N       E                     dE             d eps       ncg     rms          rms(c)
DAV:   1    -0.140062268073E+03    0.70217E-04   -0.76287E-03 14208   0.379E-01    0.204E-02
DAV:   2    -0.140062266016E+03    0.20570E-05   -0.68223E-05 14208   0.358E-02    0.127E-02
DAV:   3    -0.140062266849E+03   -0.83284E-06   -0.89742E-06 14256   0.107E-02
  29 F= -.14198451E+03 E0= -.14198306E+03  d E =-.399036E-04  mag=    -0.0000
 curvature:  -2.99 expect dE=-0.714E-02 dE for cont linesearch -0.189E-04
 ZBRENT: increasing intervall
 opt :   0.0388  next Energy=  -141.984555 (dE=-0.807E-04)
 bond charge predicted
       N       E                     dE             d eps       ncg     rms          rms(c)
DAV:   1    -0.140062128950E+03    0.13707E-03   -0.30489E-02 14208   0.758E-01    0.408E-02
DAV:   2    -0.140062124255E+03    0.46954E-05   -0.26999E-04 14208   0.713E-02    0.253E-02
DAV:   3    -0.140062124298E+03   -0.42823E-07   -0.35710E-05 15504   0.214E-02    0.506E-03
DAV:   4    -0.140062124682E+03   -0.38448E-06   -0.39180E-06 15648   0.697E-03
  30 F= -.14198456E+03 E0= -.14198311E+03  d E =-.892136E-04  mag=    -0.0000
 curvature:  -6.44 expect dE=-0.169E-01 dE for cont linesearch -0.530E-04
 ZBRENT: increasing intervall
 opt :   0.0811  next Energy=  -141.984673 (dE=-0.198E-03)
 bond charge predicted
       N       E                     dE             d eps       ncg     rms          rms(c)
DAV:   1    -0.140061864949E+03    0.25935E-03   -0.12171E-01 14208   0.152E+00    0.809E-02
DAV:   2    -0.140061852901E+03    0.12047E-04   -0.10866E-03 15168   0.143E-01    0.500E-02
DAV:   3    -0.140061842859E+03    0.10042E-04   -0.14243E-04 15312   0.421E-02    0.998E-03
DAV:   4    -0.140061844212E+03   -0.13532E-05   -0.15698E-05 17808   0.140E-02    0.483E-03
DAV:   5    -0.140061844452E+03   -0.23973E-06   -0.10539E-06 17040   0.441E-03
  31 F= -.14198467E+03 E0= -.14198322E+03  d E =-.192988E-03  mag=     0.0000
 curvature: -13.28 expect dE=-0.417E-01 dE for cont linesearch -0.137E-03
 ZBRENT: increasing intervall
 opt :   0.1657  next Energy=  -141.984908 (dE=-0.434E-03)
 bond charge predicted
       N       E                     dE             d eps       ncg     rms          rms(c)
DAV:   1    -0.140061386771E+03    0.45744E-03   -0.48645E-01 14208   0.303E+00    0.162E-01
DAV:   2    -0.140061342374E+03    0.44397E-04   -0.43230E-03 17088   0.283E-01    0.997E-02
DAV:   3    -0.140061294021E+03    0.48353E-04   -0.55494E-04 15216   0.820E-02    0.196E-02
DAV:   4    -0.140061297894E+03   -0.38733E-05   -0.61358E-05 23472   0.271E-02    0.927E-03
DAV:   5    -0.140061299315E+03   -0.14206E-05   -0.32348E-06 17184   0.676E-03    0.216E-03
DAV:   6    -0.140061299682E+03   -0.36740E-06   -0.39318E-07 17472   0.333E-03
  32 F= -.14198490E+03 E0= -.14198345E+03  d E =-.421064E-03  mag=    -0.0000
 curvature: -23.39 expect dE=-0.102E+00 dE for cont linesearch -0.297E-03
 ZBRENT: increasing intervall
 opt :   0.3349  next Energy=  -141.985427 (dE=-0.953E-03)
 bond charge predicted
       N       E                     dE             d eps       ncg     rms          rms(c)
DAV:   1    -0.140060632994E+03    0.66632E-03   -0.19461E+00 14208   0.606E+00    0.323E-01
DAV:   2    -0.140060495699E+03    0.13729E-03   -0.17158E-02 19296   0.561E-01    0.199E-01
DAV:   3    -0.140060242919E+03    0.25278E-03   -0.21613E-03 16320   0.160E-01    0.387E-02
DAV:   4    -0.140060255385E+03   -0.12466E-04   -0.23608E-04 26064   0.533E-02    0.180E-02
DAV:   5    -0.140060259174E+03   -0.37889E-05   -0.11128E-05 18000   0.119E-02    0.413E-03
DAV:   6    -0.140060259615E+03   -0.44154E-06   -0.93170E-07 20160   0.404E-03
  33 F= -.14198542E+03 E0= -.14198398E+03  d E =-.948119E-03  mag=     0.0000
 curvature: -41.88 expect dE=-0.315E+00 dE for cont linesearch -0.718E-03
 ZBRENT: increasing intervall
 opt :   0.6733  next Energy=  -141.986703 (dE=-0.223E-02)
 bond charge predicted
       N       E                     dE             d eps       ncg     rms          rms(c)
DAV:   1    -0.140059737560E+03    0.52161E-03   -0.77824E+00 14208   0.121E+01    0.646E-01
DAV:   2    -0.140059323901E+03    0.41366E-03   -0.69135E-02 22272   0.112E+00    0.399E-01
DAV:   3    -0.140058179957E+03    0.11439E-02   -0.84388E-03 20544   0.309E-01    0.770E-02
DAV:   4    -0.140058215447E+03   -0.35490E-04   -0.82003E-04 26304   0.102E-01    0.354E-02
DAV:   5    -0.140058225673E+03   -0.10226E-04   -0.42875E-05 20832   0.239E-02    0.661E-03
DAV:   6    -0.140058227026E+03   -0.13535E-05   -0.34276E-06 18240   0.773E-03    0.235E-03
DAV:   7    -0.140058228620E+03   -0.15934E-05   -0.34705E-07 22416   0.220E-03    0.939E-04
DAV:   8    -0.140058230118E+03   -0.14978E-05   -0.93326E-08 19584   0.910E-04    0.522E-04
DAV:   9    -0.140058231830E+03   -0.17123E-05   -0.91264E-08 21648   0.656E-04    0.305E-04
DAV:  10    -0.140058234155E+03   -0.23256E-05   -0.20635E-07 21456   0.830E-04    0.254E-04
DAV:  11    -0.140058235288E+03   -0.11321E-05   -0.81875E-08 22752   0.512E-04    0.153E-04
DAV:  12    -0.140058235656E+03   -0.36807E-06   -0.12236E-08 22176   0.221E-04
  34 F= -.14198661E+03 E0= -.14198519E+03  d E =-.213759E-02  mag=     0.0000
 curvature: -74.68 expect dE=-0.125E+01 dE for cont linesearch -0.141E-02
 ZBRENT: increasing intervall
 opt :   1.3501  next Energy=  -141.989088 (dE=-0.461E-02)
 bond charge predicted
       N       E                     dE             d eps       ncg     rms          rms(c)
DAV:   1    -0.140058490244E+03   -0.25496E-03   -0.31076E+01 14208   0.242E+01    0.128E+00
DAV:   2    -0.140057372213E+03    0.11180E-02   -0.28182E-01 23232   0.227E+00    0.795E-01
DAV:   3    -0.140052646138E+03    0.47261E-02   -0.32728E-02 21792   0.611E-01    0.161E-01
DAV:   4    -0.140052777977E+03   -0.13184E-03   -0.30225E-03 26016   0.199E-01    0.708E-02
DAV:   5    -0.140052807147E+03   -0.29169E-04   -0.17312E-04 22848   0.471E-02    0.146E-02
DAV:   6    -0.140052813815E+03   -0.66683E-05   -0.13588E-05 17184   0.159E-02    0.472E-03
DAV:   7    -0.140052818254E+03   -0.44391E-05   -0.17144E-06 24048   0.484E-03    0.140E-03
DAV:   8    -0.140052822420E+03   -0.41659E-05   -0.43877E-07 17952   0.184E-03    0.797E-04
DAV:   9    -0.140052827321E+03   -0.49017E-05   -0.44827E-07 19872   0.142E-03    0.732E-04
DAV:  10    -0.140052831448E+03   -0.41269E-05   -0.35747E-07 20736   0.117E-03    0.490E-04
DAV:  11    -0.140052834625E+03   -0.31771E-05   -0.31886E-07 21648   0.103E-03    0.251E-04
DAV:  12    -0.140052835413E+03   -0.78708E-06   -0.37549E-08 23712   0.403E-04
  35 F= -.14198794E+03 E0= -.14198661E+03  d E =-.346948E-02  mag=     0.0000
 curvature: ****** expect dE=-0.613E+01 dE for cont linesearch -0.728E-04
 ZBRENT: bracketing found
 ZBRENT: interpolating
 opt :   1.2511  next Energy=  -141.987973 (dE=-0.350E-02)
 bond charge predicted
       N       E                     dE             d eps       ncg     rms          rms(c)
DAV:   1    -0.140053976297E+03   -0.11417E-02   -0.66708E-01 14208   0.356E+00    0.187E-01
DAV:   2    -0.140053927720E+03    0.48577E-04   -0.58952E-03 19056   0.329E-01    0.116E-01
DAV:   3    -0.140053847405E+03    0.80315E-04   -0.75690E-04 16800   0.953E-02    0.226E-02
DAV:   4    -0.140053852061E+03   -0.46562E-05   -0.79798E-05 24288   0.317E-02    0.108E-02
DAV:   5    -0.140053854548E+03   -0.24862E-05   -0.41889E-06 22608   0.754E-03    0.177E-03
DAV:   6    -0.140053854583E+03   -0.35856E-07   -0.30905E-07 17040   0.229E-03
  36 F= -.14198795E+03 E0= -.14198660E+03  d E =-.347894E-02  mag=     0.0000
 curvature: -53.23 expect dE=-0.221E+01 dE for cont linesearch -0.154E-04
 trial: gam=14.82660 g(F)=  0.415E-01 g(S)=  0.000E+00 ort = 0.432E-03 (trialstep = 0.114E-02)
 search vector abs. value=  0.141E+03
 bond charge predicted
       N       E                     dE             d eps       ncg     rms          rms(c)
DAV:   1    -0.140053739533E+03    0.11501E-03   -0.19662E-02 14208   0.610E-01    0.320E-02
DAV:   2    -0.140053735369E+03    0.41644E-05   -0.17377E-04 20928   0.566E-02    0.199E-02
DAV:   3    -0.140053735577E+03   -0.20782E-06   -0.21787E-05 14208   0.161E-02    0.383E-03
DAV:   4    -0.140053735878E+03   -0.30125E-06   -0.24872E-06 22752   0.558E-03
  37 F= -.14198801E+03 E0= -.14198666E+03  d E =-.536751E-04  mag=     0.0000
 ZBRENT: can't locate minimum, use default step
 trial-energy change:   -0.000054  1 .order   -0.000053   -0.000055   -0.000052
 step:   0.0046(harm=  0.0213)  dis= 0.00455  next Energy=  -141.988464 (dE=-0.511E-03)
 bond charge predicted
       N       E                     dE             d eps       ncg     rms          rms(c)
DAV:   1    -0.140053400633E+03    0.33494E-03   -0.17716E-01 14208   0.183E+00    0.964E-02
DAV:   2    -0.140053379848E+03    0.20785E-04   -0.15477E-03 19680   0.170E-01    0.597E-02
DAV:   3    -0.140053363222E+03    0.16626E-04   -0.20208E-04 19200   0.494E-02    0.117E-02
DAV:   4    -0.140053364798E+03   -0.15761E-05   -0.20077E-05 20256   0.160E-02    0.555E-03
DAV:   5    -0.140053365781E+03   -0.98318E-06   -0.12383E-06 18480   0.430E-03
  38 F= -.14198816E+03 E0= -.14198681E+03  d E =-.202176E-03  mag=    -0.0000
 curvature:  -9.79 expect dE=-0.431E+00 dE for cont linesearch -0.117E-03
 ZBRENT: increasing intervall
 opt :   0.0114  next Energy=  -141.988408 (dE=-0.455E-03)
 bond charge predicted
       N       E                     dE             d eps       ncg     rms          rms(c)
DAV:   1    -0.140052698722E+03    0.66608E-03   -0.70824E-01 14208   0.366E+00    0.192E-01
DAV:   2    -0.140052624536E+03    0.74186E-04   -0.61429E-03 16320   0.339E-01    0.119E-01
DAV:   3    -0.140052548849E+03    0.75687E-04   -0.81443E-04 18624   0.100E-01    0.239E-02
DAV:   4    -0.140052553453E+03   -0.46034E-05   -0.82637E-05 22752   0.320E-02    0.112E-02
DAV:   5    -0.140052555529E+03   -0.20757E-05   -0.47636E-06 19488   0.823E-03    0.212E-03
DAV:   6    -0.140052555911E+03   -0.38200E-06   -0.47908E-07 15936   0.362E-03
  39 F= -.14198839E+03 E0= -.14198706E+03  d E =-.436047E-03  mag=     0.0000
 curvature: -21.17 expect dE=-0.101E+01 dE for cont linesearch -0.116E-03
 ZBRENT: increasing intervall
 opt :   0.0252  next Energy=  -141.988590 (dE=-0.637E-03)
 bond charge predicted
       N       E                     dE             d eps       ncg     rms          rms(c)
DAV:   1    -0.140051198092E+03    0.13574E-02   -0.28330E+00 14208   0.733E+00    0.384E-01
DAV:   2    -0.140050981901E+03    0.21619E-03   -0.24564E-02 20640   0.674E-01    0.237E-01
DAV:   3    -0.140050586143E+03    0.39576E-03   -0.31094E-03 19488   0.191E-01    0.463E-02
DAV:   4    -0.140050599298E+03   -0.13155E-04   -0.31474E-04 25296   0.629E-02    0.216E-02
DAV:   5    -0.140050604119E+03   -0.48216E-05   -0.15896E-05 19392   0.148E-02    0.451E-03
DAV:   6    -0.140050605002E+03   -0.88260E-06   -0.13135E-06 19968   0.485E-03
  40 F= -.14198855E+03 E0= -.14198726E+03  d E =-.597905E-03  mag=    -0.0000
 curvature: -36.60 expect dE=-0.205E+01 dE for cont linesearch -0.727E-05
 trial: gam= 0.18821 g(F)=  0.560E-01 g(S)=  0.000E+00 ort =-0.530E-02 (trialstep = 0.595E-02)
 search vector abs. value=  0.506E+01
 bond charge predicted
       N       E                     dE             d eps       ncg     rms          rms(c)
DAV:   1    -0.140050760284E+03   -0.15616E-03   -0.19571E-02 14496   0.609E-01    0.314E-02
DAV:   2    -0.140050758518E+03    0.17662E-05   -0.16937E-04 17712   0.561E-02    0.194E-02
DAV:   3    -0.140050758255E+03    0.26232E-06   -0.22671E-05 15504   0.167E-02    0.388E-03
DAV:   4    -0.140050759003E+03   -0.74721E-06   -0.26097E-06 22512   0.563E-03
  41 F= -.14198888E+03 E0= -.14198759E+03  d E =-.327813E-03  mag=     0.0000
 ZBRENT: can't locate minimum, use default step
 trial-energy change:   -0.000328  1 .order   -0.000324   -0.000327   -0.000322
 step:   0.0238(harm=  0.3526)  dis= 0.00469  next Energy=  -141.998243 (dE=-0.969E-02)
 bond charge predicted
       N       E                     dE             d eps       ncg     rms          rms(c)
DAV:   1    -0.140051215053E+03   -0.45680E-03   -0.17620E-01 14208   0.183E+00    0.952E-02
DAV:   2    -0.140051196270E+03    0.18783E-04   -0.15163E-03 18240   0.168E-01    0.589E-02
DAV:   3    -0.140051177313E+03    0.18957E-04   -0.20347E-04 16704   0.498E-02    0.116E-02
DAV:   4    -0.140051178772E+03   -0.14590E-05   -0.22524E-05 23904   0.167E-02    0.567E-03
DAV:   5    -0.140051179682E+03   -0.90956E-06   -0.11908E-06 15648   0.403E-03
  42 F= -.14198982E+03 E0= -.14198855E+03  d E =-.127133E-02  mag=     0.0000
 curvature:  -1.63 expect dE=-0.834E-01 dE for cont linesearch -0.857E-03
 ZBRENT: increasing intervall
 opt :   0.0595  next Energy=  -141.991578 (dE=-0.303E-02)
 bond charge predicted
       N       E                     dE             d eps       ncg     rms          rms(c)
DAV:   1    -0.140052013916E+03   -0.83514E-03   -0.70436E-01 14208   0.365E+00    0.190E-01
DAV:   2    -0.140051940079E+03    0.73837E-04   -0.59971E-03 19392   0.335E-01    0.117E-01
DAV:   3    -0.140051855275E+03    0.84804E-04   -0.79702E-04 17568   0.979E-02    0.228E-02
DAV:   4    -0.140051859094E+03   -0.38193E-05   -0.87112E-05 24288   0.330E-02    0.110E-02
DAV:   5    -0.140051861351E+03   -0.22567E-05   -0.44220E-06 16992   0.779E-03    0.266E-03
DAV:   6    -0.140051861766E+03   -0.41517E-06   -0.46471E-07 21264   0.300E-03
  43 F= -.14199156E+03 E0= -.14199030E+03  d E =-.300503E-02  mag=     0.0000
 curvature:  -3.34 expect dE=-0.149E+00 dE for cont linesearch -0.138E-02
 ZBRENT: increasing intervall
 opt :   0.1309  next Energy=  -141.994398 (dE=-0.585E-02)
 bond charge predicted
       N       E                     dE             d eps       ncg     rms          rms(c)
DAV:   1    -0.140053150902E+03   -0.12896E-02   -0.28172E+00 14208   0.731E+00    0.379E-01
DAV:   2    -0.140052933645E+03    0.21726E-03   -0.24021E-02 21264   0.669E-01    0.235E-01
DAV:   3    -0.140052523948E+03    0.40970E-03   -0.31245E-03 20112   0.191E-01    0.451E-02
DAV:   4    -0.140052533841E+03   -0.98930E-05   -0.31956E-04 25584   0.643E-02    0.217E-02
DAV:   5    -0.140052538668E+03   -0.48271E-05   -0.16654E-05 19488   0.152E-02    0.506E-03
DAV:   6    -0.140052539914E+03   -0.12460E-05   -0.15959E-06 20928   0.525E-03    0.154E-03
DAV:   7    -0.140052541173E+03   -0.12589E-05   -0.15871E-07 21984   0.153E-03    0.760E-04
DAV:   8    -0.140052542444E+03   -0.12715E-05   -0.67161E-08 21360   0.820E-04    0.382E-04
DAV:   9    -0.140052543760E+03   -0.13154E-05   -0.65771E-08 21168   0.569E-04    0.237E-04
DAV:  10    -0.140052545258E+03   -0.14985E-05   -0.11964E-07 22176   0.653E-04    0.216E-04
DAV:  11    -0.140052546054E+03   -0.79599E-06   -0.52238E-08 22080   0.480E-04
  44 F= -.14199437E+03 E0= -.14199314E+03  d E =-.581472E-02  mag=    -0.0000
 curvature:  -6.89 expect dE=-0.232E+00 dE for cont linesearch -0.146E-02
 ZBRENT: increasing intervall
 opt :   0.2737  next Energy=  -141.997183 (dE=-0.863E-02)
 bond charge predicted
       N       E                     dE             d eps       ncg     rms          rms(c)
DAV:   1    -0.140052979147E+03   -0.43389E-03   -0.11258E+01 14208   0.146E+01    0.753E-01
DAV:   2    -0.140052341798E+03    0.63735E-03   -0.96768E-02 21312   0.134E+00    0.467E-01
DAV:   3    -0.140050609287E+03    0.17325E-02   -0.12276E-02 21888   0.379E-01    0.922E-02
DAV:   4    -0.140050647996E+03   -0.38709E-04   -0.11706E-03 26640   0.125E-01    0.432E-02
DAV:   5    -0.140050661304E+03   -0.13308E-04   -0.63209E-05 22272   0.292E-02    0.102E-02
DAV:   6    -0.140050664940E+03   -0.36366E-05   -0.54911E-06 19008   0.100E-02    0.303E-03
DAV:   7    -0.140050667224E+03   -0.22842E-05   -0.49215E-07 24768   0.265E-03    0.160E-03
DAV:   8    -0.140050669691E+03   -0.24667E-05   -0.19064E-07 19536   0.134E-03    0.682E-04
DAV:   9    -0.140050672716E+03   -0.30254E-05   -0.21135E-07 21456   0.997E-04    0.406E-04
DAV:  10    -0.140050676353E+03   -0.36365E-05   -0.35665E-07 20880   0.113E-03    0.373E-04
DAV:  11    -0.140050678081E+03   -0.17281E-05   -0.13689E-07 22368   0.706E-04    0.222E-04
DAV:  12    -0.140050678821E+03   -0.73985E-06   -0.42532E-08 22176   0.403E-04
  45 F= -.14199683E+03 E0= -.14199565E+03  d E =-.828232E-02  mag=     0.0000
 curvature: -13.32 expect dE=-0.272E+00 dE for cont linesearch -0.895E-06
 trial: gam=-0.13326 g(F)=  0.204E-01 g(S)=  0.000E+00 ort = 0.583E-03 (trialstep = 0.595E-01)
 search vector abs. value=  0.110E+00
 bond charge predicted
       N       E                     dE             d eps       ncg     rms          rms(c)
DAV:   1    -0.140052099387E+03   -0.14213E-02   -0.37418E-02 14592   0.845E-01    0.449E-02
DAV:   2    -0.140052093175E+03    0.62119E-05   -0.36940E-04 18144   0.824E-02    0.278E-02
DAV:   3    -0.140052091488E+03    0.16865E-05   -0.50095E-05 16848   0.254E-02    0.665E-03
DAV:   4    -0.140052092078E+03   -0.58957E-06   -0.68921E-06 25008   0.932E-03
  46 F= -.14199798E+03 E0= -.14199679E+03  d E =-.114186E-02  mag=     0.0000
 ZBRENT: can't locate minimum, use default step
 trial-energy change:   -0.001142  1 .order   -0.001140   -0.001209   -0.001071
 step:   0.2380(harm=  0.5194)  dis= 0.00512  next Energy=  -142.002112 (dE=-0.528E-02)
 bond charge predicted
       N       E                     dE             d eps       ncg     rms          rms(c)
DAV:   1    -0.140055577497E+03   -0.34860E-02   -0.33674E-01 14208   0.254E+00    0.135E-01
DAV:   2    -0.140055531465E+03    0.46033E-04   -0.32985E-03 19488   0.247E-01    0.835E-02
DAV:   3    -0.140055501612E+03    0.29852E-04   -0.43301E-04 18048   0.741E-02    0.198E-02
DAV:   4    -0.140055504776E+03   -0.31639E-05   -0.57817E-05 24816   0.272E-02    0.980E-03
DAV:   5    -0.140055507063E+03   -0.22867E-05   -0.20658E-06 22800   0.621E-03    0.262E-03
DAV:   6    -0.140055507187E+03   -0.12437E-06   -0.37194E-07 18432   0.219E-03
  47 F= -.14200058E+03 E0= -.14199937E+03  d E =-.374363E-02  mag=    -0.0000
 curvature:  -0.88 expect dE=-0.733E-02 dE for cont linesearch -0.990E-03
 ZBRENT: increasing intervall
 opt :   0.5950  next Energy=  -142.002098 (dE=-0.526E-02)
 bond charge predicted
       N       E                     dE             d eps       ncg     rms          rms(c)
DAV:   1    -0.140058970974E+03   -0.34639E-02   -0.13462E+00 14208   0.507E+00    0.271E-01
DAV:   2    -0.140058806952E+03    0.16402E-03   -0.12972E-02 21792   0.489E-01    0.167E-01
DAV:   3    -0.140058637148E+03    0.16980E-03   -0.16989E-03 18144   0.146E-01    0.390E-02
DAV:   4    -0.140058648941E+03   -0.11794E-04   -0.21890E-04 25440   0.533E-02    0.191E-02
DAV:   5    -0.140058654569E+03   -0.56277E-05   -0.77905E-06 23136   0.120E-02    0.520E-03
DAV:   6    -0.140058655151E+03   -0.58209E-06   -0.13665E-06 16464   0.429E-03
  48 F= -.14200210E+03 E0= -.14200086E+03  d E =-.526733E-02  mag=    -0.0000
 curvature:  -1.35 expect dE=-0.168E-01 dE for cont linesearch -0.798E-04
 ZBRENT: bracketing found
 ZBRENT: interpolating
 opt :   0.5285  next Energy=  -142.002186 (dE=-0.535E-02)
 bond charge predicted
       N       E                     dE             d eps       ncg     rms          rms(c)
DAV:   1    -0.140058449028E+03    0.20554E-03   -0.46691E-02 14208   0.944E-01    0.505E-02
DAV:   2    -0.140058441030E+03    0.79983E-05   -0.45742E-04 23424   0.915E-02    0.313E-02
DAV:   3    -0.140058440243E+03    0.78717E-06   -0.55396E-05 14592   0.263E-02    0.716E-03
DAV:   4    -0.140058441359E+03   -0.11159E-05   -0.77601E-06 25056   0.101E-02    0.347E-03
DAV:   5    -0.140058442266E+03   -0.90709E-06   -0.27775E-07 17280   0.249E-03
  49 F= -.14200219E+03 E0= -.14200096E+03  d E =-.535684E-02  mag=     0.0000
 curvature:  -1.44 expect dE=-0.138E-01 dE for cont linesearch -0.184E-09
 trial: gam= 0.45011 g(F)=  0.962E-02 g(S)=  0.000E+00 ort =-0.376E-05 (trialstep = 0.153E+00)
 search vector abs. value=  0.319E-01
 bond charge predicted
       N       E                     dE             d eps       ncg     rms          rms(c)
DAV:   1    -0.140059918759E+03   -0.14774E-02   -0.71681E-02 14208   0.118E+00    0.607E-02
DAV:   2    -0.140059922141E+03   -0.33819E-05   -0.71708E-04 25200   0.116E-01    0.382E-02
DAV:   3    -0.140059916289E+03    0.58517E-05   -0.73598E-05 14784   0.326E-02    0.836E-03
DAV:   4    -0.140059917786E+03   -0.14973E-05   -0.11007E-05 21072   0.120E-02    0.378E-03
DAV:   5    -0.140059918403E+03   -0.61658E-06   -0.48003E-07 14592   0.328E-03
  50 F= -.14200330E+03 E0= -.14200209E+03  d E =-.110591E-02  mag=    -0.0000
 trial-energy change:   -0.001106  1 .order   -0.001104   -0.001475   -0.000733
 step:   0.3047(harm=  0.3047)  dis= 0.00359  next Energy=  -142.003656 (dE=-0.147E-02)
 bond charge predicted
       N       E                     dE             d eps       ncg     rms          rms(c)
DAV:   1    -0.140060647063E+03   -0.72928E-03   -0.70020E-02 14208   0.117E+00    0.599E-02
DAV:   2    -0.140060650187E+03   -0.31232E-05   -0.69019E-04 18960   0.115E-01    0.373E-02
DAV:   3    -0.140060645227E+03    0.49594E-05   -0.79484E-05 15552   0.343E-02    0.876E-03
DAV:   4    -0.140060646486E+03   -0.12582E-05   -0.11679E-05 20688   0.124E-02    0.404E-03
DAV:   5    -0.140060647092E+03   -0.60620E-06   -0.60364E-07 15408   0.399E-03
  51 F= -.14200366E+03 E0= -.14200246E+03  d E =-.146930E-02  mag=    -0.0000
 curvature:  -0.51 expect dE=-0.157E-02 dE for cont linesearch -0.169E-08
 trial: gam= 0.32638 g(F)=  0.310E-02 g(S)=  0.000E+00 ort =-0.103E-04 (trialstep = 0.184E+00)
 search vector abs. value=  0.650E-02
 bond charge predicted
       N       E                     dE             d eps       ncg     rms          rms(c)
DAV:   1    -0.140061320248E+03   -0.67376E-03   -0.17248E-02 14208   0.574E-01    0.313E-02
DAV:   2    -0.140061320806E+03   -0.55785E-06   -0.16125E-04 18960   0.574E-02    0.191E-02
DAV:   3    -0.140061321525E+03   -0.71825E-06   -0.27435E-05 16032   0.202E-02    0.496E-03
DAV:   4    -0.140061321694E+03   -0.16930E-06   -0.44019E-06 16224   0.869E-03
  52 F= -.14200414E+03 E0= -.14200294E+03  d E =-.477653E-03  mag=     0.0000
 trial-energy change:   -0.000478  1 .order   -0.000477   -0.000569   -0.000385
 step:   0.5680(harm=  0.5680)  dis= 0.00315  next Energy=  -142.004540 (dE=-0.881E-03)
 bond charge predicted
       N       E                     dE             d eps       ncg     rms          rms(c)
DAV:   1    -0.140062135112E+03   -0.81359E-03   -0.75613E-02 14208   0.120E+00    0.659E-02
DAV:   2    -0.140062139625E+03   -0.45135E-05   -0.69918E-04 18864   0.119E-01    0.401E-02
DAV:   3    -0.140062141080E+03   -0.14546E-05   -0.12043E-04 16992   0.421E-02    0.103E-02
DAV:   4    -0.140062141090E+03   -0.10146E-07   -0.19139E-05 21504   0.173E-02    0.618E-03
DAV:   5    -0.140062141830E+03   -0.73983E-06   -0.17344E-06 17472   0.543E-03
  53 F= -.14200454E+03 E0= -.14200334E+03  d E =-.884509E-03  mag=    -0.0000
 curvature:  -0.60 expect dE=-0.783E-03 dE for cont linesearch -0.665E-08
 trial: gam= 0.42098 g(F)=  0.132E-02 g(S)=  0.000E+00 ort = 0.852E-05 (trialstep = 0.260E+00)
 search vector abs. value=  0.247E-02
 bond charge predicted
       N       E                     dE             d eps       ncg     rms          rms(c)
DAV:   1    -0.140062642347E+03   -0.50126E-03   -0.12982E-02 14208   0.481E-01    0.289E-02
DAV:   2    -0.140062637837E+03    0.45104E-05   -0.11433E-04 16128   0.473E-02    0.169E-02
DAV:   3    -0.140062639143E+03   -0.13068E-05   -0.21108E-05 14496   0.177E-02    0.441E-03
DAV:   4    -0.140062639413E+03   -0.27003E-06   -0.38966E-06 14208   0.883E-03
  54 F= -.14200483E+03 E0= -.14200362E+03  d E =-.282587E-03  mag=    -0.0000
 trial-energy change:   -0.000283  1 .order   -0.000282   -0.000343   -0.000221
 step:   0.7292(harm=  0.7292)  dis= 0.00244  next Energy=  -142.005025 (dE=-0.481E-03)
 bond charge predicted
       N       E                     dE             d eps       ncg     rms          rms(c)
DAV:   1    -0.140063235307E+03   -0.59616E-03   -0.41973E-02 14208   0.866E-01    0.522E-02
DAV:   2    -0.140063222632E+03    0.12675E-04   -0.37400E-04 23088   0.846E-02    0.305E-02
DAV:   3    -0.140063224512E+03   -0.18799E-05   -0.63937E-05 17808   0.296E-02    0.742E-03
DAV:   4    -0.140063224938E+03   -0.42529E-06   -0.11018E-05 16032   0.132E-02    0.382E-03
DAV:   5    -0.140063225545E+03   -0.60733E-06   -0.86508E-07 15648   0.505E-03
  55 F= -.14200503E+03 E0= -.14200382E+03  d E =-.482194E-03  mag=     0.0000
 curvature:  -0.68 expect dE=-0.472E-03 dE for cont linesearch -0.474E-09
 trial: gam= 0.53184 g(F)=  0.690E-03 g(S)=  0.000E+00 ort =-0.131E-05 (trialstep = 0.354E+00)
 search vector abs. value=  0.139E-02
 bond charge predicted
       N       E                     dE             d eps       ncg     rms          rms(c)
DAV:   1    -0.140063603395E+03   -0.37846E-03   -0.17170E-02 17088   0.563E-01    0.336E-02
DAV:   2    -0.140063593879E+03    0.95157E-05   -0.17960E-04 17184   0.591E-02    0.192E-02
DAV:   3    -0.140063592503E+03    0.13759E-05   -0.31107E-05 15552   0.222E-02    0.475E-03
DAV:   4    -0.140063593103E+03   -0.60029E-06   -0.51472E-06 14688   0.961E-03
  56 F= -.14200515E+03 E0= -.14200395E+03  d E =-.126540E-03  mag=     0.0000
 trial-energy change:   -0.000127  1 .order   -0.000126   -0.000244   -0.000008
 step:   0.3658(harm=  0.3658)  dis= 0.00081  next Energy=  -142.005152 (dE=-0.126E-03)
 bond charge predicted
       N       E                     dE             d eps       ncg     rms          rms(c)
DAV:   1    -0.140063601531E+03   -0.90283E-05   -0.18999E-05 14208   0.192E-02    0.167E-03
DAV:   2    -0.140063601619E+03   -0.87658E-07   -0.51758E-07 14208   0.432E-03
  57 F= -.14200515E+03 E0= -.14200395E+03  d E =-.127154E-03  mag=     0.0000
 curvature:  -0.37 expect dE=-0.107E-03 dE for cont linesearch -0.142E-08
 trial: gam= 0.41811 g(F)=  0.291E-03 g(S)=  0.000E+00 ort = 0.231E-05 (trialstep = 0.357E+00)
 search vector abs. value=  0.535E-03
 bond charge predicted
       N       E                     dE             d eps       ncg     rms          rms(c)
DAV:   1    -0.140063897634E+03   -0.29610E-03   -0.75092E-03 14208   0.356E-01    0.214E-02
DAV:   2    -0.140063892024E+03    0.56102E-05   -0.70849E-05 18624   0.364E-02    0.123E-02
DAV:   3    -0.140063892650E+03   -0.62598E-06   -0.13869E-05 14976   0.138E-02    0.273E-03
DAV:   4    -0.140063893012E+03   -0.36183E-06   -0.24295E-06 15936   0.674E-03
  58 F= -.14200524E+03 E0= -.14200404E+03  d E =-.870072E-04  mag=     0.0000
 trial-energy change:   -0.000087  1 .order   -0.000087   -0.000104   -0.000070
 step:   1.0929(harm=  1.0929)  dis= 0.00172  next Energy=  -142.005313 (dE=-0.159E-03)
 bond charge predicted
       N       E                     dE             d eps       ncg     rms          rms(c)
DAV:   1    -0.140064408799E+03   -0.51615E-03   -0.32058E-02 14208   0.736E-01    0.440E-02
DAV:   2    -0.140064388284E+03    0.20515E-04   -0.30034E-04 15264   0.747E-02    0.252E-02
DAV:   3    -0.140064387599E+03    0.68558E-06   -0.60135E-05 15168   0.284E-02    0.566E-03
DAV:   4    -0.140064388416E+03   -0.81777E-06   -0.99344E-06 17424   0.124E-02
  59 F= -.14200531E+03 E0= -.14200411E+03  d E =-.160528E-03  mag=     0.0000
 curvature:  -1.00 expect dE=-0.721E-03 dE for cont linesearch -0.840E-08
 trial: gam= 2.46385 g(F)=  0.719E-03 g(S)=  0.000E+00 ort = 0.212E-05 (trialstep = 0.678E-01)
 search vector abs. value=  0.398E-02
 bond charge predicted
       N       E                     dE             d eps       ncg     rms          rms(c)
DAV:   1    -0.140064559903E+03   -0.17230E-03   -0.21812E-03 14400   0.190E-01    0.117E-02
DAV:   2    -0.140064557932E+03    0.19705E-05   -0.21826E-05 14304   0.205E-02    0.684E-03
DAV:   3    -0.140064558512E+03   -0.58020E-06   -0.44790E-06 15264   0.882E-03
  60 F= -.14200536E+03 E0= -.14200416E+03  d E =-.476008E-04  mag=    -0.0000
 ZBRENT: can't locate minimum, use default step
 trial-energy change:   -0.000048  1 .order   -0.000046   -0.000049   -0.000044
 step:   0.2711(harm=  0.6093)  dis= 0.00115  next Energy=  -142.005535 (dE=-0.221E-03)
 bond charge predicted
       N       E                     dE             d eps       ncg     rms          rms(c)
DAV:   1    -0.140065053624E+03   -0.49569E-03   -0.19617E-02 14208   0.570E-01    0.348E-02
DAV:   2    -0.140065039122E+03    0.14502E-04   -0.18459E-04 14256   0.584E-02    0.199E-02
DAV:   3    -0.140065038406E+03    0.71602E-06   -0.38411E-05 14736   0.229E-02    0.407E-03
DAV:   4    -0.140065038967E+03   -0.56116E-06   -0.66550E-06 16704   0.111E-02
  61 F= -.14200548E+03 E0= -.14200428E+03  d E =-.161119E-03  mag=    -0.0000
 curvature:  -1.02 expect dE=-0.406E-03 dE for cont linesearch -0.531E-04
 ZBRENT: increasing intervall
 opt :   0.6777  next Energy=  -142.005583 (dE=-0.269E-03)
 bond charge predicted
       N       E                     dE             d eps       ncg     rms          rms(c)
DAV:   1    -0.140065935666E+03   -0.89726E-03   -0.78248E-02 14208   0.114E+00    0.695E-02
DAV:   2    -0.140065878787E+03    0.56879E-04   -0.73812E-04 14976   0.116E-01    0.396E-02
DAV:   3    -0.140065872959E+03    0.58281E-05   -0.15241E-04 15984   0.446E-02    0.794E-03
DAV:   4    -0.140065874425E+03   -0.14664E-05   -0.23542E-05 16464   0.188E-02    0.405E-03
DAV:   5    -0.140065875738E+03   -0.13134E-05   -0.15582E-06 14688   0.730E-03    0.193E-03
DAV:   6    -0.140065876113E+03   -0.37411E-06   -0.41912E-07 15600   0.398E-03
  62 F= -.14200558E+03 E0= -.14200438E+03  d E =-.265704E-03  mag=     0.0000
 curvature:  -2.08 expect dE=-0.162E-02 dE for cont linesearch -0.126E-05
 trial: gam= 1.04319 g(F)=  0.779E-03 g(S)=  0.000E+00 ort = 0.492E-04 (trialstep = 0.145E+00)
 search vector abs. value=  0.521E-02
 bond charge predicted
       N       E                     dE             d eps       ncg     rms          rms(c)
DAV:   1    -0.140066304774E+03   -0.42904E-03   -0.13621E-02 14208   0.476E-01    0.278E-02
DAV:   2    -0.140066294168E+03    0.10606E-04   -0.13555E-04 14976   0.496E-02    0.160E-02
DAV:   3    -0.140066293829E+03    0.33915E-06   -0.27278E-05 18528   0.188E-02    0.360E-03
DAV:   4    -0.140066294261E+03   -0.43142E-06   -0.44646E-06 16848   0.766E-03
  63 F= -.14200569E+03 E0= -.14200449E+03  d E =-.107625E-03  mag=    -0.0000
 ZBRENT: can't locate minimum, use default step
 trial-energy change:   -0.000108  1 .order   -0.000108   -0.000120   -0.000095
 step:   0.5795(harm=  0.6918)  dis= 0.00218  next Energy=  -142.005867 (dE=-0.287E-03)
 bond charge predicted
       N       E                     dE             d eps       ncg     rms          rms(c)
DAV:   1    -0.140067486047E+03   -0.11922E-02   -0.12246E-01 14208   0.143E+00    0.839E-02
DAV:   2    -0.140067402567E+03    0.83481E-04   -0.12056E-03 14304   0.147E-01    0.480E-02
DAV:   3    -0.140067392030E+03    0.10536E-04   -0.24332E-04 16800   0.563E-02    0.109E-02
DAV:   4    -0.140067393790E+03   -0.17592E-05   -0.40454E-05 18336   0.230E-02    0.558E-03
DAV:   5    -0.140067395933E+03   -0.21431E-05   -0.11314E-06 14784   0.486E-03    0.183E-03
DAV:   6    -0.140067396200E+03   -0.26759E-06   -0.27078E-07 18480   0.227E-03
  64 F= -.14200586E+03 E0= -.14200467E+03  d E =-.279273E-03  mag=     0.0000
 curvature:  -2.08 expect dE=-0.147E-02 dE for cont linesearch -0.688E-05
 trial: gam= 0.84918 g(F)=  0.706E-03 g(S)=  0.000E+00 ort = 0.131E-03 (trialstep = 0.232E+00)
 search vector abs. value=  0.469E-02
 bond charge predicted
       N       E                     dE             d eps       ncg     rms          rms(c)
DAV:   1    -0.140068065905E+03   -0.66997E-03   -0.32296E-02 14208   0.731E-01    0.427E-02
DAV:   2    -0.140068039340E+03    0.26565E-04   -0.30556E-04 14496   0.739E-02    0.240E-02
DAV:   3    -0.140068038057E+03    0.12831E-05   -0.60341E-05 14832   0.279E-02    0.570E-03
DAV:   4    -0.140068039164E+03   -0.11067E-05   -0.10637E-05 16656   0.115E-02    0.276E-03
DAV:   5    -0.140068039900E+03   -0.73596E-06   -0.28493E-07 15168   0.244E-03
  65 F= -.14200603E+03 E0= -.14200485E+03  d E =-.173482E-03  mag=     0.0000
 ZBRENT: can't locate minimum, use default step
 trial-energy change:   -0.000173  1 .order   -0.000173   -0.000189   -0.000157
 step:   0.9272(harm=  1.3507)  dis= 0.00316  next Energy=  -142.006411 (dE=-0.552E-03)
 bond charge predicted
       N       E                     dE             d eps       ncg     rms          rms(c)
DAV:   1    -0.140070013328E+03   -0.19742E-02   -0.29069E-01 14208   0.219E+00    0.128E-01
DAV:   2    -0.140069800742E+03    0.21259E-03   -0.27329E-03 14592   0.219E-01    0.720E-02
DAV:   3    -0.140069771022E+03    0.29720E-04   -0.54551E-04 20112   0.829E-02    0.170E-02
DAV:   4    -0.140069776121E+03   -0.50985E-05   -0.85303E-05 18624   0.330E-02    0.830E-03
DAV:   5    -0.140069779677E+03   -0.35565E-05   -0.23805E-06 17328   0.702E-03    0.259E-03
DAV:   6    -0.140069780177E+03   -0.49996E-06   -0.50266E-07 17952   0.278E-03
  66 F= -.14200636E+03 E0= -.14200519E+03  d E =-.505325E-03  mag=     0.0000
 curvature:  -3.32 expect dE=-0.182E-02 dE for cont linesearch -0.529E-04
 ZBRENT: increasing intervall
 opt :   2.3181  next Energy=  -142.006183 (dE=-0.324E-03)
 bond charge predicted
       N       E                     dE             d eps       ncg     rms          rms(c)
DAV:   1    -0.140073332718E+03   -0.35530E-02   -0.11619E+00 14208   0.438E+00    0.256E-01
DAV:   2    -0.140072513062E+03    0.81966E-03   -0.10908E-02 15936   0.438E-01    0.143E-01
DAV:   3    -0.140072373867E+03    0.13919E-03   -0.21640E-03 24000   0.164E-01    0.336E-02
DAV:   4    -0.140072384148E+03   -0.10280E-04   -0.31011E-04 17376   0.638E-02    0.165E-02
DAV:   5    -0.140072395047E+03   -0.10899E-04   -0.10257E-05 18768   0.144E-02    0.497E-03
DAV:   6    -0.140072396589E+03   -0.15419E-05   -0.20955E-06 20112   0.509E-03    0.166E-03
DAV:   7    -0.140072396732E+03   -0.14344E-06   -0.14265E-07 21216   0.154E-03
  67 F= -.14200617E+03 E0= -.14200500E+03  d E =-.315378E-03  mag=    -0.0000
 curvature:  11.35 expect dE= 0.496E-01 dE for cont linesearch  0.726E-03
 ZBRENT: bracketing found
 ZBRENT: interpolating
 opt :   1.3905  next Energy=  -142.006428 (dE=-0.569E-03)
 bond charge predicted
       N       E                     dE             d eps       ncg     rms          rms(c)
DAV:   1    -0.140071191353E+03    0.12052E-02   -0.51688E-01 14208   0.292E+00    0.171E-01
DAV:   2    -0.140070831756E+03    0.35960E-03   -0.48573E-03 16800   0.292E-01    0.957E-02
DAV:   3    -0.140070769750E+03    0.62005E-04   -0.94743E-04 19296   0.109E-01    0.224E-02
DAV:   4    -0.140070774889E+03   -0.51383E-05   -0.14797E-04 15648   0.435E-02    0.107E-02
DAV:   5    -0.140070779946E+03   -0.50578E-05   -0.44814E-06 16128   0.955E-03    0.319E-03
DAV:   6    -0.140070780495E+03   -0.54848E-06   -0.89795E-07 19728   0.339E-03
  68 F= -.14200643E+03 E0= -.14200525E+03  d E =-.569206E-03  mag=     0.0000
 curvature:  -0.99 expect dE=-0.126E-02 dE for cont linesearch -0.506E-08
 trial: gam= 2.13410 g(F)=  0.128E-02 g(S)=  0.000E+00 ort = 0.490E-05 (trialstep = 0.960E-01)
 search vector abs. value=  0.226E-01
 bond charge predicted
       N       E                     dE             d eps       ncg     rms          rms(c)
DAV:   1    -0.140071369786E+03   -0.58984E-03   -0.26623E-02 14208   0.663E-01    0.389E-02
DAV:   2    -0.140071348155E+03    0.21631E-04   -0.24718E-04 14304   0.664E-02    0.219E-02
DAV:   3    -0.140071347227E+03    0.92822E-06   -0.49086E-05 16848   0.251E-02    0.458E-03
DAV:   4    -0.140071348197E+03   -0.96999E-06   -0.74187E-06 17088   0.980E-03
  69 F= -.14200654E+03 E0= -.14200537E+03  d E =-.113370E-03  mag=    -0.0000
 ZBRENT: can't locate minimum, use default step
 trial-energy change:   -0.000113  1 .order   -0.000114   -0.000123   -0.000105
 step:   0.3838(harm=  0.6349)  dis= 0.00307  next Energy=  -142.006836 (dE=-0.408E-03)
 bond charge predicted
       N       E                     dE             d eps       ncg     rms          rms(c)
DAV:   1    -0.140073121623E+03   -0.17744E-02   -0.23962E-01 14208   0.199E+00    0.116E-01
DAV:   2    -0.140072961647E+03    0.15998E-03   -0.22574E-03 15024   0.200E-01    0.655E-02
DAV:   3    -0.140072934990E+03    0.26657E-04   -0.43605E-04 17088   0.748E-02    0.136E-02
DAV:   4    -0.140072939514E+03   -0.45238E-05   -0.66086E-05 17184   0.292E-02    0.623E-03
DAV:   5    -0.140072942697E+03   -0.31829E-05   -0.17595E-06 16752   0.581E-03    0.163E-03
DAV:   6    -0.140072942854E+03   -0.15685E-06   -0.20596E-07 19920   0.201E-03
  70 F= -.14200678E+03 E0= -.14200561E+03  d E =-.348229E-03  mag=     0.0000
 curvature:  -4.38 expect dE=-0.222E-02 dE for cont linesearch -0.543E-04
 ZBRENT: increasing intervall
 opt :   0.9596  next Energy=  -142.006758 (dE=-0.330E-03)
 bond charge predicted
       N       E                     dE             d eps       ncg     rms          rms(c)
DAV:   1    -0.140076368980E+03   -0.34263E-02   -0.95820E-01 14208   0.398E+00    0.232E-01
DAV:   2    -0.140075724738E+03    0.64424E-03   -0.88631E-03 16032   0.396E-01    0.130E-01
DAV:   3    -0.140075603602E+03    0.12114E-03   -0.17380E-03 21744   0.148E-01    0.268E-02
DAV:   4    -0.140075615449E+03   -0.11847E-04   -0.22737E-04 17376   0.551E-02    0.123E-02
DAV:   5    -0.140075624635E+03   -0.91865E-05   -0.69560E-06 19008   0.115E-02    0.277E-03
DAV:   6    -0.140075624974E+03   -0.33885E-06   -0.68890E-07 21696   0.290E-03
  71 F= -.14200675E+03 E0= -.14200560E+03  d E =-.323620E-03  mag=    -0.0000
 curvature:   1.48 expect dE= 0.139E-02 dE for cont linesearch  0.250E-04
 ZBRENT: bracketing found
 ZBRENT: interpolating
 opt :   0.6497  next Energy=  -142.006847 (dE=-0.419E-03)
 bond charge predicted
       N       E                     dE             d eps       ncg     rms          rms(c)
DAV:   1    -0.140074478138E+03    0.11465E-02   -0.27748E-01 14208   0.214E+00    0.125E-01
DAV:   2    -0.140074289329E+03    0.18881E-03   -0.25705E-03 17856   0.213E-01    0.701E-02
DAV:   3    -0.140074259555E+03    0.29775E-04   -0.49487E-04 18720   0.788E-02    0.145E-02
DAV:   4    -0.140074262568E+03   -0.30132E-05   -0.70515E-05 15168   0.306E-02    0.653E-03
DAV:   5    -0.140074265968E+03   -0.33998E-05   -0.22151E-06 18480   0.656E-03    0.163E-03
DAV:   6    -0.140074266141E+03   -0.17361E-06   -0.22003E-07 16464   0.225E-03
  72 F= -.14200685E+03 E0= -.14200569E+03  d E =-.419345E-03  mag=    -0.0000
 curvature:  -4.19 expect dE=-0.196E-02 dE for cont linesearch -0.309E-07
 trial: gam= 0.15604 g(F)=  0.469E-03 g(S)=  0.000E+00 ort = 0.129E-04 (trialstep = 0.207E+00)
 search vector abs. value=  0.102E-02
 bond charge predicted
       N       E                     dE             d eps       ncg     rms          rms(c)
DAV:   1    -0.140074552485E+03   -0.28652E-03   -0.43802E-03 14208   0.278E-01    0.153E-02
DAV:   2    -0.140074549930E+03    0.25544E-05   -0.52253E-05 16800   0.309E-02    0.905E-03
DAV:   3    -0.140074550730E+03   -0.79922E-06   -0.76272E-06 15120   0.103E-02
  73 F= -.14200693E+03 E0= -.14200577E+03  d E =-.828958E-04  mag=     0.0000
 trial-energy change:   -0.000083  1 .order   -0.000082   -0.000097   -0.000067
 step:   0.6633(harm=  0.6633)  dis= 0.00121  next Energy=  -142.007004 (dE=-0.156E-03)
 bond charge predicted
       N       E                     dE             d eps       ncg     rms          rms(c)
DAV:   1    -0.140075087893E+03   -0.53796E-03   -0.21529E-02 14208   0.615E-01    0.346E-02
DAV:   2    -0.140075079895E+03    0.79980E-05   -0.25525E-04 14544   0.680E-02    0.205E-02
DAV:   3    -0.140075080774E+03   -0.87882E-06   -0.38792E-05 16704   0.234E-02    0.603E-03
DAV:   4    -0.140075081580E+03   -0.80602E-06   -0.75958E-06 14736   0.986E-03
  74 F= -.14200702E+03 E0= -.14200585E+03  d E =-.168190E-03  mag=    -0.0000
 curvature:  -0.72 expect dE=-0.284E-03 dE for cont linesearch -0.110E-05
 trial: gam= 0.75786 g(F)=  0.394E-03 g(S)=  0.000E+00 ort = 0.395E-04 (trialstep = 0.293E+00)
 search vector abs. value=  0.104E-02
 bond charge predicted
       N       E                     dE             d eps       ncg     rms          rms(c)
DAV:   1    -0.140075454660E+03   -0.37389E-03   -0.84132E-03 14208   0.388E-01    0.221E-02
DAV:   2    -0.140075451875E+03    0.27853E-05   -0.10889E-04 15264   0.444E-02    0.132E-02
DAV:   3    -0.140075452514E+03   -0.63969E-06   -0.15138E-05 23808   0.148E-02    0.389E-03
DAV:   4    -0.140075452771E+03   -0.25608E-06   -0.26488E-06 15024   0.595E-03
  75 F= -.14200710E+03 E0= -.14200594E+03  d E =-.821773E-04  mag=     0.0000
 trial-energy change:   -0.000082  1 .order   -0.000082   -0.000124   -0.000040
 step:   0.4323(harm=  0.4323)  dis= 0.00093  next Energy=  -142.007107 (dE=-0.916E-04)
 bond charge predicted
       N       E                     dE             d eps       ncg     rms          rms(c)
DAV:   1    -0.140075599953E+03   -0.14744E-03   -0.18970E-03 14208   0.184E-01    0.106E-02
DAV:   2    -0.140075599184E+03    0.76837E-06   -0.24561E-05 14400   0.211E-02    0.633E-03
DAV:   3    -0.140075599548E+03   -0.36362E-06   -0.33420E-06 17664   0.713E-03
  76 F= -.14200711E+03 E0= -.14200595E+03  d E =-.915265E-04  mag=     0.0000
 curvature:  -0.53 expect dE=-0.132E-03 dE for cont linesearch -0.383E-07
 trial: gam= 0.75952 g(F)=  0.249E-03 g(S)=  0.000E+00 ort =-0.867E-05 (trialstep = 0.321E+00)
 search vector abs. value=  0.837E-03
 bond charge predicted
       N       E                     dE             d eps       ncg     rms          rms(c)
DAV:   1    -0.140075976218E+03   -0.37703E-03   -0.82335E-03 14208   0.372E-01    0.228E-02
DAV:   2    -0.140075971907E+03    0.43108E-05   -0.94515E-05 14208   0.414E-02    0.132E-02
DAV:   3    -0.140075972745E+03   -0.83817E-06   -0.14057E-05 18144   0.140E-02    0.346E-03
DAV:   4    -0.140075973123E+03   -0.37808E-06   -0.23291E-06 15360   0.591E-03
  77 F= -.14200717E+03 E0= -.14200601E+03  d E =-.646362E-04  mag=     0.0000
 trial-energy change:   -0.000065  1 .order   -0.000064   -0.000078   -0.000050
 step:   0.8936(harm=  0.8936)  dis= 0.00181  next Energy=  -142.007215 (dE=-0.108E-03)
 bond charge predicted
       N       E                     dE             d eps       ncg     rms          rms(c)
DAV:   1    -0.140076577121E+03   -0.60438E-03   -0.26134E-02 14208   0.664E-01    0.401E-02
DAV:   2    -0.140076565804E+03    0.11316E-04   -0.30336E-04 15168   0.738E-02    0.232E-02
DAV:   3    -0.140076565567E+03    0.23745E-06   -0.44119E-05 21168   0.246E-02    0.613E-03
DAV:   4    -0.140076566542E+03   -0.97507E-06   -0.66227E-06 15984   0.980E-03
  78 F= -.14200721E+03 E0= -.14200605E+03  d E =-.106670E-03  mag=     0.0000
 curvature:  -1.54 expect dE=-0.622E-03 dE for cont linesearch -0.109E-06
 trial: gam= 1.48731 g(F)=  0.403E-03 g(S)=  0.000E+00 ort =-0.769E-05 (trialstep = 0.163E+00)
 search vector abs. value=  0.223E-02
 bond charge predicted
       N       E                     dE             d eps       ncg     rms          rms(c)
DAV:   1    -0.140076900604E+03   -0.33504E-03   -0.62915E-03 14208   0.327E-01    0.194E-02
DAV:   2    -0.140076897111E+03    0.34928E-05   -0.74238E-05 14592   0.365E-02    0.113E-02
DAV:   3    -0.140076897882E+03   -0.77108E-06   -0.10392E-05 18384   0.121E-02    0.319E-03
DAV:   4    -0.140076898268E+03   -0.38622E-06   -0.16796E-06 15888   0.557E-03
  79 F= -.14200727E+03 E0= -.14200611E+03  d E =-.582129E-04  mag=     0.0000
 ZBRENT: can't locate minimum, use default step
 trial-energy change:   -0.000058  1 .order   -0.000058   -0.000064   -0.000051
 step:   0.6530(harm=  0.8205)  dis= 0.00187  next Energy=  -142.007375 (dE=-0.161E-03)
 bond charge predicted
       N       E                     dE             d eps       ncg     rms          rms(c)
DAV:   1    -0.140077842728E+03   -0.94485E-03   -0.56524E-02 14208   0.981E-01    0.579E-02
DAV:   2    -0.140077814322E+03    0.28406E-04   -0.64117E-04 14496   0.107E-01    0.331E-02
DAV:   3    -0.140077812678E+03    0.16434E-05   -0.94637E-05 20448   0.357E-02    0.854E-03
DAV:   4    -0.140077814209E+03   -0.15300E-05   -0.14755E-05 15792   0.140E-02    0.383E-03
DAV:   5    -0.140077815112E+03   -0.90367E-06   -0.59879E-07 19584   0.353E-03
  80 F= -.14200737E+03 E0= -.14200621E+03  d E =-.154831E-03  mag=     0.0000
 curvature:  -2.18 expect dE=-0.388E-03 dE for cont linesearch -0.608E-05
 ZBRENT: extrapolating
 opt :   0.8173  next Energy=  -142.007375 (dE=-0.161E-03)
 bond charge predicted
       N       E                     dE             d eps       ncg     rms          rms(c)
DAV:   1    -0.140078099788E+03   -0.28558E-03   -0.63647E-03 14208   0.329E-01    0.192E-02
DAV:   2    -0.140078095989E+03    0.37989E-05   -0.72086E-05 16128   0.359E-02    0.110E-02
DAV:   3    -0.140078096659E+03   -0.66987E-06   -0.10193E-05 16368   0.118E-02    0.291E-03
DAV:   4    -0.140078097071E+03   -0.41215E-06   -0.17275E-06 15360   0.486E-03
  81 F= -.14200738E+03 E0= -.14200621E+03  d E =-.161834E-03  mag=     0.0000
 curvature:  -2.32 expect dE=-0.563E-03 dE for cont linesearch -0.236E-08
 trial: gam= 0.54770 g(F)=  0.242E-03 g(S)=  0.000E+00 ort = 0.151E-05 (trialstep = 0.294E+00)
 search vector abs. value=  0.913E-03
 bond charge predicted
       N       E                     dE             d eps       ncg     rms          rms(c)
DAV:   1    -0.140078482886E+03   -0.38623E-03   -0.96423E-03 14208   0.410E-01    0.225E-02
DAV:   2    -0.140078477322E+03    0.55646E-05   -0.11057E-04 15744   0.447E-02    0.132E-02
DAV:   3    -0.140078477746E+03   -0.42441E-06   -0.15561E-05 14832   0.147E-02    0.362E-03
DAV:   4    -0.140078478452E+03   -0.70629E-06   -0.29514E-06 15312   0.617E-03
  82 F= -.14200744E+03 E0= -.14200628E+03  d E =-.620170E-04  mag=    -0.0000
 trial-energy change:   -0.000062  1 .order   -0.000062   -0.000071   -0.000052
 step:   1.0836(harm=  1.0836)  dis= 0.00182  next Energy=  -142.007507 (dE=-0.132E-03)
 bond charge predicted
       N       E                     dE             d eps       ncg     rms          rms(c)
DAV:   1    -0.140079439494E+03   -0.96175E-03   -0.69454E-02 14208   0.110E+00    0.603E-02
DAV:   2    -0.140079403061E+03    0.36433E-04   -0.79435E-04 14544   0.119E-01    0.351E-02
DAV:   3    -0.140079402697E+03    0.36412E-06   -0.11493E-04 19008   0.397E-02    0.962E-03
DAV:   4    -0.140079404343E+03   -0.16461E-05   -0.19773E-05 15504   0.159E-02    0.450E-03
DAV:   5    -0.140079405635E+03   -0.12924E-05   -0.71644E-07 16032   0.382E-03    0.153E-03
DAV:   6    -0.140079405812E+03   -0.17634E-06   -0.16434E-07 19440   0.174E-03
  83 F= -.14200751E+03 E0= -.14200635E+03  d E =-.132126E-03  mag=     0.0000
 curvature:  -2.04 expect dE=-0.109E-02 dE for cont linesearch -0.435E-08
 trial: gam= 2.23728 g(F)=  0.534E-03 g(S)=  0.000E+00 ort =-0.140E-05 (trialstep = 0.809E-01)
 search vector abs. value=  0.510E-02
 bond charge predicted
       N       E                     dE             d eps       ncg     rms          rms(c)
DAV:   1    -0.140079657071E+03   -0.25144E-03   -0.41797E-03 14208   0.269E-01    0.146E-02
DAV:   2    -0.140079654208E+03    0.28634E-05   -0.45545E-05 16080   0.285E-02    0.850E-03
DAV:   3    -0.140079654755E+03   -0.54692E-06   -0.63158E-06 14976   0.931E-03
  84 F= -.14200755E+03 E0= -.14200639E+03  d E =-.402970E-04  mag=     0.0000
 ZBRENT: can't locate minimum, use default step
 trial-energy change:   -0.000040  1 .order   -0.000039   -0.000043   -0.000036
 step:   0.3238(harm=  0.4748)  dis= 0.00131  next Energy=  -142.007634 (dE=-0.126E-03)
 bond charge predicted
       N       E                     dE             d eps       ncg     rms          rms(c)
DAV:   1    -0.140080388367E+03   -0.73416E-03   -0.37716E-02 14208   0.809E-01    0.446E-02
DAV:   2    -0.140080368642E+03    0.19725E-04   -0.40794E-04 14976   0.850E-02    0.260E-02
DAV:   3    -0.140080367330E+03    0.13115E-05   -0.58308E-05 16176   0.283E-02    0.648E-03
DAV:   4    -0.140080368691E+03   -0.13611E-05   -0.99579E-06 15888   0.111E-02    0.278E-03
DAV:   5    -0.140080369564E+03   -0.87264E-06   -0.32836E-07 15360   0.238E-03
  85 F= -.14200764E+03 E0= -.14200647E+03  d E =-.129399E-03  mag=    -0.0000
 curvature:  -1.94 expect dE=-0.573E-03 dE for cont linesearch -0.256E-04
 ZBRENT: increasing intervall
 opt :   0.8094  next Energy=  -142.007675 (dE=-0.167E-03)
 bond charge predicted
       N       E                     dE             d eps       ncg     rms          rms(c)
DAV:   1    -0.140081729420E+03   -0.13607E-02   -0.15033E-01 14208   0.162E+00    0.881E-02
DAV:   2    -0.140081652338E+03    0.77083E-04   -0.16173E-03 15888   0.169E-01    0.510E-02
DAV:   3    -0.140081643954E+03    0.83835E-05   -0.22710E-04 18288   0.554E-02    0.126E-02
DAV:   4    -0.140081646872E+03   -0.29174E-05   -0.36036E-05 15648   0.214E-02    0.532E-03
DAV:   5    -0.140081648761E+03   -0.18895E-05   -0.12473E-06 18288   0.467E-03    0.147E-03
DAV:   6    -0.140081648907E+03   -0.14595E-06   -0.14476E-07 21552   0.161E-03
  86 F= -.14200767E+03 E0= -.14200650E+03  d E =-.159215E-03  mag=     0.0000
 curvature:  -2.86 expect dE=-0.299E-02 dE for cont linesearch -0.110E-04
 ZBRENT: bracketing found
 ZBRENT: interpolating
 opt :   0.6391  next Energy=  -142.007679 (dE=-0.171E-03)
 bond charge predicted
       N       E                     dE             d eps       ncg     rms          rms(c)
DAV:   1    -0.140081232558E+03    0.41620E-03   -0.18470E-02 14208   0.567E-01    0.309E-02
DAV:   2    -0.140081222316E+03    0.10242E-04   -0.20444E-04 22752   0.597E-02    0.180E-02
DAV:   3    -0.140081222982E+03   -0.66581E-06   -0.26002E-05 14208   0.185E-02    0.438E-03
DAV:   4    -0.140081223372E+03   -0.39060E-06   -0.44472E-06 18528   0.765E-03
  87 F= -.14200768E+03 E0= -.14200651E+03  d E =-.171742E-03  mag=     0.0000
 curvature:  -3.10 expect dE=-0.195E-02 dE for cont linesearch -0.317E-08
 trial: gam= 1.16215 g(F)=  0.630E-03 g(S)=  0.000E+00 ort = 0.228E-05 (trialstep = 0.131E+00)
 search vector abs. value=  0.752E-02
 bond charge predicted
       N       E                     dE             d eps       ncg     rms          rms(c)
DAV:   1    -0.140081715765E+03   -0.49278E-03   -0.15918E-02 14208   0.526E-01    0.279E-02
DAV:   2    -0.140081707393E+03    0.83721E-05   -0.17634E-04 16800   0.558E-02    0.164E-02
DAV:   3    -0.140081707548E+03   -0.15466E-06   -0.23553E-05 14208   0.180E-02    0.421E-03
DAV:   4    -0.140081708460E+03   -0.91293E-06   -0.41723E-06 18336   0.727E-03
  88 F= -.14200775E+03 E0= -.14200659E+03  d E =-.732383E-04  mag=     0.0000
 ZBRENT: can't locate minimum, use default step
 trial-energy change:   -0.000073  1 .order   -0.000073   -0.000083   -0.000064
 step:   0.5222(harm=  0.5785)  dis= 0.00245  next Energy=  -142.007862 (dE=-0.183E-03)
 bond charge predicted
       N       E                     dE             d eps       ncg     rms          rms(c)
DAV:   1    -0.140083116892E+03   -0.14093E-02   -0.14346E-01 14208   0.158E+00    0.844E-02
DAV:   2    -0.140083054137E+03    0.62754E-04   -0.15672E-03 16128   0.166E-01    0.494E-02
DAV:   3    -0.140083047791E+03    0.63467E-05   -0.21040E-04 15936   0.539E-02    0.126E-02
DAV:   4    -0.140083051029E+03   -0.32385E-05   -0.35851E-05 15360   0.213E-02    0.519E-03
DAV:   5    -0.140083053004E+03   -0.19753E-05   -0.11881E-06 19920   0.481E-03    0.145E-03
DAV:   6    -0.140083053074E+03   -0.69998E-07   -0.15296E-07 19776   0.201E-03
  89 F= -.14200786E+03 E0= -.14200670E+03  d E =-.183553E-03  mag=    -0.0000
 curvature:  -3.39 expect dE=-0.996E-03 dE for cont linesearch -0.213E-05
 ZBRENT: extrapolating
 opt :   0.5863  next Energy=  -142.007865 (dE=-0.186E-03)
 bond charge predicted
       N       E                     dE             d eps       ncg     rms          rms(c)
DAV:   1    -0.140083258915E+03   -0.20591E-03   -0.38441E-03 14208   0.258E-01    0.138E-02
DAV:   2    -0.140083256392E+03    0.25232E-05   -0.41705E-05 15552   0.273E-02    0.806E-03
DAV:   3    -0.140083257011E+03   -0.61890E-06   -0.57142E-06 15936   0.891E-03
  90 F= -.14200787E+03 E0= -.14200670E+03  d E =-.185866E-03  mag=     0.0000
 curvature:  -3.50 expect dE=-0.127E-02 dE for cont linesearch -0.337E-06
 trial: gam= 0.59234 g(F)=  0.363E-03 g(S)=  0.000E+00 ort =-0.269E-04 (trialstep = 0.222E+00)
 search vector abs. value=  0.297E-02
 bond charge predicted
       N       E                     dE             d eps       ncg     rms          rms(c)
DAV:   1    -0.140083753662E+03   -0.49727E-03   -0.18116E-02 14208   0.563E-01    0.305E-02
DAV:   2    -0.140083744491E+03    0.91706E-05   -0.20212E-04 17184   0.598E-02    0.181E-02
DAV:   3    -0.140083744966E+03   -0.47554E-06   -0.27170E-05 15072   0.193E-02    0.452E-03
DAV:   4    -0.140083745856E+03   -0.88987E-06   -0.49195E-06 16464   0.787E-03
  91 F= -.14200793E+03 E0= -.14200677E+03  d E =-.667948E-04  mag=    -0.0000
 trial-energy change:   -0.000067  1 .order   -0.000065   -0.000077   -0.000052
 step:   0.6930(harm=  0.6930)  dis= 0.00192  next Energy=  -142.007986 (dE=-0.120E-03)
 bond charge predicted
       N       E                     dE             d eps       ncg     rms          rms(c)
DAV:   1    -0.140084726527E+03   -0.98156E-03   -0.81469E-02 14208   0.119E+00    0.639E-02
DAV:   2    -0.140084691182E+03    0.35345E-04   -0.91028E-04 14496   0.127E-01    0.377E-02
DAV:   3    -0.140084687539E+03    0.36430E-05   -0.12318E-04 17856   0.412E-02    0.959E-03
DAV:   4    -0.140084689944E+03   -0.24051E-05   -0.20108E-05 15552   0.161E-02    0.422E-03
DAV:   5    -0.140084691280E+03   -0.13365E-05   -0.70515E-07 18144   0.374E-03    0.132E-03
DAV:   6    -0.140084691407E+03   -0.12683E-06   -0.11266E-07 17568   0.173E-03
  92 F= -.14200798E+03 E0= -.14200681E+03  d E =-.115744E-03  mag=    -0.0000
 curvature:  -2.97 expect dE=-0.607E-03 dE for cont linesearch -0.105E-05
 trial: gam= 0.66050 g(F)=  0.205E-03 g(S)=  0.000E+00 ort =-0.324E-04 (trialstep = 0.316E+00)
 search vector abs. value=  0.146E-02
 bond charge predicted
       N       E                     dE             d eps       ncg     rms          rms(c)
DAV:   1    -0.140085149504E+03   -0.45822E-03   -0.17916E-02 14208   0.565E-01    0.293E-02
DAV:   2    -0.140085142496E+03    0.70078E-05   -0.20068E-04 16512   0.600E-02    0.174E-02
DAV:   3    -0.140085142126E+03    0.36937E-06   -0.24633E-05 15744   0.188E-02    0.445E-03
DAV:   4    -0.140085142984E+03   -0.85738E-06   -0.41747E-06 15216   0.720E-03
[...]
DAV:   1    -0.140086470229E+03   -0.86833E-04   -0.10176E-03 14400   0.136E-01    0.797E-03
DAV:   2    -0.140086469830E+03    0.39953E-06   -0.11303E-05 14880   0.147E-02    0.491E-03
DAV:   3    -0.140086470084E+03   -0.25452E-06   -0.14312E-06 14592   0.517E-03
 101 F= -.14200813E+03 E0= -.14200697E+03  d E =-.125171E-04  mag=     0.0000
 ZBRENT: can't locate minimum, use default step
 trial-energy change:   -0.000013  1 .order   -0.000012   -0.000012   -0.000012
 step:   0.4115(harm=  1.8993)  dis= 0.00048  next Energy=  -142.008232 (dE=-0.113E-03)
 bond charge predicted
       N       E                     dE             d eps       ncg     rms          rms(c)
DAV:   1    -0.140086725551E+03   -0.25572E-03   -0.90707E-03 14208   0.407E-01    0.222E-02
DAV:   2    -0.140086723430E+03    0.21208E-05   -0.10106E-04 14880   0.430E-02    0.135E-02
DAV:   3    -0.140086723631E+03   -0.20097E-06   -0.12063E-05 14208   0.132E-02    0.343E-03
DAV:   4    -0.140086723935E+03   -0.30350E-06   -0.19077E-06 14544   0.593E-03
 102 F= -.14200816E+03 E0= -.14200700E+03  d E =-.446051E-04  mag=     0.0000
 curvature:  -2.29 expect dE=-0.148E-03 dE for cont linesearch -0.208E-04
 ZBRENT: increasing intervall
 opt :   1.0287  next Energy=  -142.008207 (dE=-0.875E-04)
 bond charge predicted
       N       E                     dE             d eps       ncg     rms          rms(c)
DAV:   1    -0.140087216976E+03   -0.49334E-03   -0.36258E-02 14208   0.814E-01    0.444E-02
DAV:   2    -0.140087209032E+03    0.79440E-05   -0.40165E-04 14208   0.853E-02    0.268E-02
DAV:   3    -0.140087208115E+03    0.91673E-06   -0.48945E-05 16320   0.260E-02    0.670E-03
DAV:   4    -0.140087209013E+03   -0.89844E-06   -0.68234E-06 14640   0.100E-02
 103 F= -.14200821E+03 E0= -.14200705E+03  d E =-.864588E-04  mag=    -0.0000
 curvature:  -4.74 expect dE=-0.376E-03 dE for cont linesearch -0.936E-05
 ZBRENT: increasing intervall
 opt :   2.2632  next Energy=  -142.008198 (dE=-0.790E-04)
 bond charge predicted
       N       E                     dE             d eps       ncg     rms          rms(c)
DAV:   1    -0.140088122858E+03   -0.91474E-03   -0.14502E-01 14208   0.163E+00    0.887E-02
DAV:   2    -0.140088098830E+03    0.24029E-04   -0.15895E-03 15792   0.170E-01    0.533E-02
DAV:   3    -0.140088086690E+03    0.12140E-04   -0.19107E-04 16704   0.509E-02    0.132E-02
DAV:   4    -0.140088089173E+03   -0.24826E-05   -0.26415E-05 15936   0.195E-02    0.568E-03
DAV:   5    -0.140088090228E+03   -0.10549E-05   -0.17688E-06 14976   0.645E-03    0.208E-03
DAV:   6    -0.140088090225E+03    0.25348E-08   -0.41761E-07 17424   0.389E-03
 104 F= -.14200820E+03 E0= -.14200705E+03  d E =-.827055E-04  mag=    -0.0000
 curvature:   3.76 expect dE= 0.156E-02 dE for cont linesearch  0.105E-04
 ZBRENT: bracketing found
 ZBRENT: interpolating
 opt :   1.5935  next Energy=  -142.008217 (dE=-0.985E-04)
 bond charge predicted
       N       E                     dE             d eps       ncg     rms          rms(c)
DAV:   1    -0.140087636657E+03    0.45357E-03   -0.42636E-02 14208   0.882E-01    0.480E-02
DAV:   2    -0.140087628940E+03    0.77168E-05   -0.46995E-04 20640   0.914E-02    0.290E-02
DAV:   3    -0.140087626186E+03    0.27539E-05   -0.54605E-05 15744   0.264E-02    0.691E-03
DAV:   4    -0.140087626971E+03   -0.78499E-06   -0.78334E-06 15360   0.103E-02
 105 F= -.14200822E+03 E0= -.14200706E+03  d E =-.993472E-04  mag=     0.0000
 curvature:  -4.33 expect dE=-0.792E-03 dE for cont linesearch -0.558E-07
 trial: gam= 1.81058 g(F)=  0.183E-03 g(S)=  0.000E+00 ort = 0.344E-05 (trialstep = 0.115E+00)
 search vector abs. value=  0.320E-02
 bond charge predicted
       N       E                     dE             d eps       ncg     rms          rms(c)
DAV:   1    -0.140087801120E+03   -0.17493E-03   -0.45655E-03 14544   0.290E-01    0.152E-02
DAV:   2    -0.140087799475E+03    0.16447E-05   -0.50532E-05 15168   0.303E-02    0.916E-03
DAV:   3    -0.140087799567E+03   -0.91793E-07   -0.60766E-06 15456   0.919E-03
 106 F= -.14200824E+03 E0= -.14200709E+03  d E =-.193383E-04  mag=     0.0000
 trial-energy change:   -0.000019  1 .order   -0.000018   -0.000022   -0.000015
 step:   0.3825(harm=  0.3825)  dis= 0.00081  next Energy=  -142.008255 (dE=-0.362E-04)
 bond charge predicted
       N       E                     dE             d eps       ncg     rms          rms(c)
DAV:   1    -0.140088189571E+03   -0.39010E-03   -0.24976E-02 14208   0.677E-01    0.364E-02
DAV:   2    -0.140088183606E+03    0.59651E-05   -0.26638E-04 14208   0.696E-02    0.220E-02
DAV:   3    -0.140088183044E+03    0.56220E-06   -0.32277E-05 14304   0.213E-02    0.560E-03
DAV:   4    -0.140088183786E+03   -0.74201E-06   -0.45515E-06 15888   0.788E-03
 107 F= -.14200826E+03 E0= -.14200711E+03  d E =-.462995E-04  mag=    -0.0000
 curvature:  -3.24 expect dE=-0.253E-03 dE for cont linesearch -0.285E-05
 ZBRENT: increasing intervall
 opt :   0.9179  next Energy=  -142.008251 (dE=-0.323E-04)
 bond charge predicted
       N       E                     dE             d eps       ncg     rms          rms(c)
DAV:   1    -0.140088902827E+03   -0.71978E-03   -0.99676E-02 14208   0.135E+00    0.718E-02
DAV:   2    -0.140088883361E+03    0.19467E-04   -0.10693E-03 15264   0.139E-01    0.432E-02
DAV:   3    -0.140088876454E+03    0.69073E-05   -0.12645E-04 15504   0.420E-02    0.110E-02
DAV:   4    -0.140088878650E+03   -0.21968E-05   -0.17288E-05 15456   0.155E-02    0.460E-03
DAV:   5    -0.140088879459E+03   -0.80907E-06   -0.11541E-06 15024   0.509E-03
 108 F= -.14200825E+03 E0= -.14200710E+03  d E =-.285791E-04  mag=     0.0000
 curvature:  15.93 expect dE= 0.629E-02 dE for cont linesearch  0.767E-04
 ZBRENT: bracketing found
 ZBRENT: interpolating
 opt :   0.5429  next Energy=  -142.008269 (dE=-0.506E-04)
 bond charge predicted
       N       E                     dE             d eps       ncg     rms          rms(c)
DAV:   1    -0.140088413479E+03    0.46517E-03   -0.48836E-02 14208   0.947E-01    0.504E-02
DAV:   2    -0.140088404454E+03    0.90247E-05   -0.53008E-04 20400   0.980E-02    0.305E-02
DAV:   3    -0.140088400797E+03    0.36572E-05   -0.59957E-05 18144   0.282E-02    0.749E-03
DAV:   4    -0.140088401879E+03   -0.10825E-05   -0.78961E-06 15168   0.108E-02    0.312E-03
DAV:   5    -0.140088402314E+03   -0.43459E-06   -0.59420E-07 16992   0.398E-03
 109 F= -.14200827E+03 E0= -.14200712E+03  d E =-.509777E-04  mag=     0.0000
 curvature:  -0.88 expect dE=-0.103E-03 dE for cont linesearch -0.556E-08
 trial: gam= 0.57093 g(F)=  0.116E-03 g(S)=  0.000E+00 ort = 0.448E-05 (trialstep = 0.200E+00)
 search vector abs. value=  0.117E-02
 bond charge predicted
       N       E                     dE             d eps       ncg     rms          rms(c)
DAV:   1    -0.140088576375E+03   -0.17450E-03   -0.53023E-03 14592   0.315E-01    0.161E-02
DAV:   2    -0.140088574614E+03    0.17605E-05   -0.58321E-05 14208   0.328E-02    0.990E-03
DAV:   3    -0.140088574881E+03   -0.26632E-06   -0.67082E-06 15360   0.988E-03
 110 F= -.14200829E+03 E0= -.14200714E+03  d E =-.209657E-04  mag=     0.0000
 trial-energy change:   -0.000021  1 .order   -0.000020   -0.000024   -0.000017
 step:   0.6546(harm=  0.6546)  dis= 0.00089  next Energy=  -142.008308 (dE=-0.389E-04)
 bond charge predicted
       N       E                     dE             d eps       ncg     rms          rms(c)
DAV:   1    -0.140088951880E+03   -0.37727E-03   -0.27325E-02 14208   0.714E-01    0.370E-02
DAV:   2    -0.140088946379E+03    0.55017E-05   -0.29273E-04 14256   0.733E-02    0.227E-02
DAV:   3    -0.140088945289E+03    0.10892E-05   -0.33413E-05 14832   0.219E-02    0.598E-03
DAV:   4    -0.140088946100E+03   -0.81102E-06   -0.49652E-06 16368   0.856E-03
 111 F= -.14200832E+03 E0= -.14200717E+03  d E =-.491103E-04  mag=     0.0000
 curvature:  -3.21 expect dE=-0.331E-03 dE for cont linesearch -0.256E-05
 ZBRENT: increasing intervall
 opt :   1.5630  next Energy=  -142.008299 (dE=-0.296E-04)
 bond charge predicted
       N       E                     dE             d eps       ncg     rms          rms(c)
DAV:   1    -0.140089628847E+03   -0.68356E-03   -0.10901E-01 14208   0.143E+00    0.731E-02
DAV:   2    -0.140089610699E+03    0.18148E-04   -0.11697E-03 15216   0.146E-01    0.446E-02
DAV:   3    -0.140089602412E+03    0.82872E-05   -0.13036E-04 16080   0.430E-02    0.117E-02
DAV:   4    -0.140089604663E+03   -0.22514E-05   -0.18717E-05 16368   0.166E-02    0.482E-03
DAV:   5    -0.140089605534E+03   -0.87070E-06   -0.13671E-06 16368   0.655E-03
 112 F= -.14200829E+03 E0= -.14200715E+03  d E =-.229936E-04  mag=    -0.0000
 curvature:  24.49 expect dE= 0.151E-01 dE for cont linesearch  0.165E-03
 ZBRENT: bracketing found
 ZBRENT: interpolating
 opt :   0.8869  next Energy=  -142.008322 (dE=-0.526E-04)
 bond charge predicted
       N       E                     dE             d eps       ncg     rms          rms(c)
DAV:   1    -0.140089138650E+03    0.46601E-03   -0.60340E-02 14208   0.106E+00    0.545E-02
DAV:   2    -0.140089128939E+03    0.97107E-05   -0.64355E-04 15168   0.109E-01    0.331E-02
DAV:   3    -0.140089123675E+03    0.52639E-05   -0.73843E-05 18288   0.324E-02    0.875E-03
DAV:   4    -0.140089124922E+03   -0.12463E-05   -0.10153E-05 14400   0.132E-02    0.369E-03
DAV:   5    -0.140089125329E+03   -0.40718E-06   -0.12836E-06 16608   0.679E-03
 113 F= -.14200832E+03 E0= -.14200718E+03  d E =-.529603E-04  mag=    -0.0000
 curvature:  -0.52 expect dE=-0.923E-04 dE for cont linesearch -0.307E-08
 trial: gam= 1.51997 g(F)=  0.176E-03 g(S)=  0.000E+00 ort = 0.261E-05 (trialstep = 0.137E+00)
 search vector abs. value=  0.288E-02
 bond charge predicted
       N       E                     dE             d eps       ncg     rms          rms(c)
DAV:   1    -0.140089310488E+03   -0.18557E-03   -0.62582E-03 17808   0.343E-01    0.170E-02
DAV:   2    -0.140089308265E+03    0.22230E-05   -0.58646E-05 16080   0.325E-02    0.104E-02
DAV:   3    -0.140089308480E+03   -0.21469E-06   -0.73826E-06 14640   0.106E-02
 114 F= -.14200834E+03 E0= -.14200720E+03  d E =-.218517E-04  mag=    -0.0000
 trial-energy change:   -0.000022  1 .order   -0.000021   -0.000025   -0.000018
 step:   0.4844(harm=  0.4844)  dis= 0.00100  next Energy=  -142.008366 (dE=-0.436E-04)
 bond charge predicted
       N       E                     dE             d eps       ncg     rms          rms(c)
DAV:   1    -0.140089757507E+03   -0.44924E-03   -0.40463E-02 14208   0.873E-01    0.430E-02
DAV:   2    -0.140089754082E+03    0.34249E-05   -0.42288E-04 15168   0.891E-02    0.270E-02
DAV:   3    -0.140089752475E+03    0.16071E-05   -0.45230E-05 15216   0.259E-02    0.686E-03
DAV:   4    -0.140089753444E+03   -0.96924E-06   -0.74253E-06 17328   0.117E-02
 115 F= -.14200838E+03 E0= -.14200724E+03  d E =-.575170E-04  mag=    -0.0000
 curvature:  -3.87 expect dE=-0.278E-03 dE for cont linesearch -0.475E-05
 ZBRENT: increasing intervall
 opt :   1.1794  next Energy=  -142.008373 (dE=-0.503E-04)
 bond charge predicted
       N       E                     dE             d eps       ncg     rms          rms(c)
DAV:   1    -0.140090575189E+03   -0.82271E-03   -0.16146E-01 14208   0.174E+00    0.852E-02
DAV:   2    -0.140090566786E+03    0.84027E-05   -0.16835E-03 16032   0.177E-01    0.532E-02
DAV:   3    -0.140090554325E+03    0.12461E-04   -0.17851E-04 15792   0.508E-02    0.135E-02
DAV:   4    -0.140090556804E+03   -0.24788E-05   -0.27597E-05 18048   0.213E-02    0.563E-03
DAV:   5    -0.140090557862E+03   -0.10585E-05   -0.29371E-06 15744   0.100E-02    0.213E-03
DAV:   6    -0.140090558260E+03   -0.39793E-06   -0.13432E-06 15696   0.718E-03
 116 F= -.14200837E+03 E0= -.14200723E+03  d E =-.448479E-04  mag=    -0.0000
 curvature:   5.88 expect dE= 0.207E-02 dE for cont linesearch  0.209E-04
 ZBRENT: bracketing found
 ZBRENT: interpolating
 opt :   0.7417  next Energy=  -142.008387 (dE=-0.652E-04)
 bond charge predicted
       N       E                     dE             d eps       ncg     rms          rms(c)
DAV:   1    -0.140090071428E+03    0.48643E-03   -0.63989E-02 14208   0.110E+00    0.535E-02
DAV:   2    -0.140090068287E+03    0.31410E-05   -0.66865E-04 15168   0.111E-01    0.334E-02
DAV:   3    -0.140090063396E+03    0.48907E-05   -0.71516E-05 17904   0.319E-02    0.858E-03
DAV:   4    -0.140090064746E+03   -0.13500E-05   -0.96076E-06 15168   0.113E-02    0.352E-03
DAV:   5    -0.140090065263E+03   -0.51689E-06   -0.47641E-07 18960   0.284E-03
 117 F= -.14200839E+03 E0= -.14200725E+03  d E =-.665088E-04  mag=    -0.0000
 curvature:  -2.15 expect dE=-0.252E-03 dE for cont linesearch -0.145E-07
 trial: gam= 0.65229 g(F)=  0.117E-03 g(S)=  0.000E+00 ort = 0.441E-05 (trialstep = 0.258E+00)
 search vector abs. value=  0.135E-02
 bond charge predicted
       N       E                     dE             d eps       ncg     rms          rms(c)
DAV:   1    -0.140090295048E+03   -0.23030E-03   -0.10213E-02 14208   0.442E-01    0.215E-02
DAV:   2    -0.140090293502E+03    0.15470E-05   -0.10958E-04 14496   0.457E-02    0.135E-02
DAV:   3    -0.140090293523E+03   -0.21554E-07   -0.11385E-05 15936   0.131E-02    0.365E-03
DAV:   4    -0.140090293867E+03   -0.34350E-06   -0.16600E-06 14688   0.498E-03
 118 F= -.14200841E+03 E0= -.14200727E+03  d E =-.202867E-04  mag=     0.0000
 trial-energy change:   -0.000020  1 .order   -0.000020   -0.000031   -0.000010
 step:   0.3823(harm=  0.3823)  dis= 0.00058  next Energy=  -142.008412 (dE=-0.229E-04)
 bond charge predicted
       N       E                     dE             d eps       ncg     rms          rms(c)
DAV:   1    -0.140090397205E+03   -0.10368E-03   -0.23873E-03 14304   0.214E-01    0.104E-02
DAV:   2    -0.140090396864E+03    0.34141E-06   -0.26838E-05 14208   0.226E-02    0.664E-03
DAV:   3    -0.140090397011E+03   -0.14787E-06   -0.26836E-06 14208   0.663E-03
 119 F= -.14200841E+03 E0= -.14200728E+03  d E =-.228440E-04  mag=     0.0000
 curvature:  -2.15 expect dE=-0.140E-03 dE for cont linesearch -0.261E-07
 trial: gam= 0.55702 g(F)=  0.650E-04 g(S)=  0.000E+00 ort =-0.404E-05 (trialstep = 0.283E+00)
 search vector abs. value=  0.478E-03
 bond charge predicted
       N       E                     dE             d eps       ncg     rms          rms(c)
DAV:   1    -0.140090534642E+03   -0.13778E-03   -0.39204E-03 14496   0.277E-01    0.130E-02
DAV:   2    -0.140090534808E+03   -0.16625E-06   -0.42100E-05 14256   0.285E-02    0.856E-03
DAV:   3    -0.140090535236E+03   -0.42808E-06   -0.35140E-06 14208   0.796E-03
 120 F= -.14200843E+03 E0= -.14200729E+03  d E =-.140559E-04  mag=     0.0000
 trial-energy change:   -0.000014  1 .order   -0.000013   -0.000018   -0.000008
 step:   0.5340(harm=  0.5340)  dis= 0.00052  next Energy=  -142.008428 (dE=-0.167E-04)
 bond charge predicted
       N       E                     dE             d eps       ncg     rms          rms(c)
DAV:   1    -0.140090649731E+03   -0.11492E-03   -0.31009E-03 15312   0.247E-01    0.117E-02
DAV:   2    -0.140090649829E+03   -0.98479E-07   -0.32455E-05 14400   0.250E-02    0.767E-03
DAV:   3    -0.140090650189E+03   -0.35990E-06   -0.29149E-06 14304   0.764E-03
 121 F= -.14200843E+03 E0= -.14200729E+03  d E =-.187623E-04  mag=    -0.0000
 curvature:  -2.04 expect dE=-0.485E-04 dE for cont linesearch -0.439E-08
 trial: gam= 0.31494 g(F)=  0.238E-04 g(S)=  0.000E+00 ort = 0.102E-05 (trialstep = 0.333E+00)
 search vector abs. value=  0.719E-04
 bond charge predicted
       N       E                     dE             d eps       ncg     rms          rms(c)
DAV:   1    -0.140090702646E+03   -0.52817E-04   -0.79044E-04 14208   0.125E-01    0.619E-03
DAV:   2    -0.140090702863E+03   -0.21778E-06   -0.84776E-06 14208   0.136E-02
 122 F= -.14200844E+03 E0= -.14200730E+03  d E =-.762428E-05  mag=    -0.0000
 ZBRENT: can't locate minimum, use default step
 trial-energy change:   -0.000008  1 .order   -0.000007   -0.000008   -0.000006
 step:   1.3319(harm=  1.5848)  dis= 0.00060  next Energy=  -142.008450 (dE=-0.191E-04)
 bond charge predicted
       N       E                     dE             d eps       ncg     rms          rms(c)
DAV:   1    -0.140090849881E+03   -0.14724E-03   -0.70511E-03 14208   0.375E-01    0.184E-02
DAV:   2    -0.140090850946E+03   -0.10650E-05   -0.71700E-05 14352   0.380E-02    0.121E-02
DAV:   3    -0.140090851148E+03   -0.20154E-06   -0.63952E-06 14256   0.113E-02
 123 F= -.14200845E+03 E0= -.14200732E+03  d E =-.207400E-04  mag=     0.0000
 curvature:  -2.26 expect dE=-0.158E-03 dE for cont linesearch -0.635E-06
 trial: gam= 2.80887 g(F)=  0.699E-04 g(S)=  0.000E+00 ort = 0.449E-05 (trialstep = 0.578E-01)
 search vector abs. value=  0.662E-03
 bond charge predicted
       N       E                     dE             d eps       ncg     rms          rms(c)
DAV:   1    -0.140090880820E+03   -0.29874E-04   -0.21826E-04 14208   0.661E-02    0.384E-03
DAV:   2    -0.140090880964E+03   -0.14353E-06   -0.27002E-06 14208   0.893E-03
 124 F= -.14200846E+03 E0= -.14200732E+03  d E =-.507302E-05  mag=     0.0000
 ZBRENT: can't locate minimum, use default step
 trial-energy change:   -0.000005  1 .order   -0.000005   -0.000005   -0.000005
 step:   0.2313(harm=  2.4573)  dis= 0.00032  next Energy=  -142.008553 (dE=-0.101E-03)
 bond charge predicted
       N       E                     dE             d eps       ncg     rms          rms(c)
DAV:   1    -0.140090968207E+03   -0.87386E-04   -0.19356E-03 14208   0.196E-01    0.995E-03
DAV:   2    -0.140090968520E+03   -0.31396E-06   -0.19192E-05 14208   0.204E-02    0.660E-03
DAV:   3    -0.140090968575E+03   -0.54215E-07   -0.26504E-06 14256   0.879E-03
 125 F= -.14200847E+03 E0= -.14200733E+03  d E =-.184596E-04  mag=    -0.0000
 curvature:  -1.37 expect dE=-0.504E-04 dE for cont linesearch -0.101E-04
 ZBRENT: increasing intervall
 opt :   0.5782  next Energy=  -142.008490 (dE=-0.388E-04)
 bond charge predicted
       N       E                     dE             d eps       ncg     rms          rms(c)
DAV:   1    -0.140091136525E+03   -0.16800E-03   -0.77627E-03 14208   0.392E-01    0.185E-02
DAV:   2    -0.140091138269E+03   -0.17448E-05   -0.74926E-05 16320   0.389E-02    0.124E-02
DAV:   3    -0.140091138395E+03   -0.12523E-06   -0.69290E-06 14592   0.121E-02
 126 F= -.14200849E+03 E0= -.14200736E+03  d E =-.398687E-04  mag=     0.0000
 curvature:  -2.78 expect dE=-0.806E-04 dE for cont linesearch -0.893E-05
 ZBRENT: increasing intervall
 opt :   1.2721  next Energy=  -142.008507 (dE=-0.556E-04)
 bond charge predicted
       N       E                     dE             d eps       ncg     rms          rms(c)
DAV:   1    -0.140091449524E+03   -0.31125E-03   -0.31074E-02 14208   0.785E-01    0.373E-02
DAV:   2    -0.140091456689E+03   -0.71646E-05   -0.29181E-04 16608   0.763E-02    0.247E-02
DAV:   3    -0.140091455858E+03    0.83102E-06   -0.25752E-05 14400   0.216E-02    0.585E-03
DAV:   4    -0.140091456191E+03   -0.33271E-06   -0.59441E-06 14208   0.136E-02
 127 F= -.14200851E+03 E0= -.14200738E+03  d E =-.609011E-04  mag=     0.0000
 curvature:  -4.89 expect dE=-0.733E-03 dE for cont linesearch -0.262E-06
 trial: gam= 2.78894 g(F)=  0.150E-03 g(S)=  0.000E+00 ort = 0.596E-05 (trialstep = 0.373E-01)
 search vector abs. value=  0.534E-02
 bond charge predicted
       N       E                     dE             d eps       ncg     rms          rms(c)
DAV:   1    -0.140091503514E+03   -0.47656E-04   -0.74103E-04 14208   0.122E-01    0.600E-03
DAV:   2    -0.140091503676E+03   -0.16120E-06   -0.82062E-06 17376   0.144E-02
 128 F= -.14200852E+03 E0= -.14200738E+03  d E =-.604742E-05  mag=     0.0000
 ZBRENT: can't locate minimum, use default step
 trial-energy change:   -0.000006  1 .order   -0.000006   -0.000006   -0.000006
 step:   0.1493(harm=  0.5356)  dis= 0.00054  next Energy=  -142.008557 (dE=-0.446E-04)
