<?xml version="1.0" encoding="ISO-8859-1"?>
<modeling>
 <generator>
  <i name="program" type="string">vasp </i>
  <i name="version" type="string">6.3.2  </i>
  <i name="subversion" type="string">27Jun22 (build Dec 22 2022 13:13:19) complex                          parallel </i>
  <i name="platform" type="string">LinuxIFC </i>
  <i name="date" type="string">2023 08 21 </i>
  <i name="time" type="string">20:13:57 </i>
 </generator>
 <incar>
  <i type="string" name="SYSTEM">Lattice</i>
  <i type="int" name="ISTART">     0</i>
  <i type="string" name="PREC">Accurate</i>
  <i type="string" name="ALGO">Normal</i>
  <i type="int" name="ISPIN">     2</i>
  <i type="int" name="ICHARG">     2</i>
  <i type="int" name="NELM">    64</i>
  <i type="int" name="IBRION">     2</i>
  <i name="EDIFF">      0.00000100</i>
  <i name="EDIFFG">     -0.00100000</i>
  <i type="int" name="NSW">   128</i>
  <i type="int" name="ISIF">     2</i>
  <i name="ENCUT">    450.00000000</i>
  <i name="POTIM">      0.50000000</i>
  <i type="int" name="ISMEAR">     0</i>
  <i name="SIGMA">      0.10000000</i>
  <i type="logical" name="LWAVE"> F  </i>
  <i type="logical" name="LCHARG"> F  </i>
  <i type="string" name="GGA">PE</i>
  <i type="int" name="IVDW">    12</i>
 </incar>
 <primitive_cell>
  <structure name="primitive_cell" >
   <crystal>
    <varray name="basis" >
     <v>       4.29548600       2.48000000       0.00000000 </v>
     <v>      -4.29548600       2.48000000       0.00000000 </v>
     <v>       0.00000000       0.00000000      15.00000000 </v>
    </varray>
    <i name="volume">    319.58415861 </i>
    <varray name="rec_basis" >
     <v>       0.11640126       0.20161290       0.00000000 </v>
     <v>      -0.11640126       0.20161290       0.00000000 </v>
     <v>       0.00000000       0.00000000       0.06666667 </v>
    </varray>
   </crystal>
   <varray name="positions" >
    <v>       0.33833034       0.66916432       0.10000000 </v>
    <v>       0.67165522       0.33584146       0.10000000 </v>
    <v>       0.16373946       0.31999962       0.10000000 </v>
    <v>       0.32250218       0.16126397       0.10000000 </v>
    <v>       0.16376430       0.84376384       0.10000000 </v>
    <v>       0.84623863       0.16123684       0.10000000 </v>
    <v>       0.68749850       0.84373000       0.10000000 </v>
    <v>       0.84626736       0.68499594       0.10000000 </v>
    <v>       0.24999933       0.24999967       0.32633333 </v>
    <v>       0.41666633       0.08333267       0.32633333 </v>
    <v>       0.24999933       0.74999967       0.32633333 </v>
    <v>       0.41666633       0.58333267       0.32633333 </v>
    <v>       0.74999933       0.24999967       0.32633333 </v>
    <v>       0.91666633       0.08333267       0.32633333 </v>
    <v>       0.74999933       0.74999967       0.32633333 </v>
    <v>       0.91666633       0.58333267       0.32633333 </v>
   </varray>
  </structure>
  <varray name="primitive_index" >
   <v type="int" >        1 </v>
   <v type="int" >        2 </v>
   <v type="int" >        3 </v>
   <v type="int" >        4 </v>
   <v type="int" >        5 </v>
   <v type="int" >        6 </v>
   <v type="int" >        7 </v>
   <v type="int" >        8 </v>
   <v type="int" >        9 </v>
   <v type="int" >       10 </v>
   <v type="int" >       11 </v>
   <v type="int" >       12 </v>
   <v type="int" >       13 </v>
   <v type="int" >       14 </v>
   <v type="int" >       15 </v>
   <v type="int" >       16 </v>
  </varray>
 </primitive_cell>
 <kpoints>
  <generation param="Gamma">
   <v type="int" name="divisions">      12       12        1 </v>
   <v name="usershift">      0.00000000       0.00000000       0.00000000 </v>
   <v name="genvec1">      0.08333333      -0.00000000       0.00000000 </v>
   <v name="genvec2">     -0.00000000       0.08333333       0.00000000 </v>
   <v name="genvec3">      0.00000000       0.00000000       1.00000000 </v>
   <v name="shift">      0.00000000       0.00000000       0.00000000 </v>
  </generation>
  <varray name="kpointlist" >
   <v>       0.00000000       0.00000000       0.00000000 </v>
   <v>       0.08333333       0.00000000       0.00000000 </v>
   <v>      -0.00000000       0.08333333       0.00000000 </v>
   <v>      -0.08333333       0.08333333       0.00000000 </v>
   <v>       0.16666667      -0.00000000       0.00000000 </v>
   <v>      -0.00000000       0.16666667       0.00000000 </v>
   <v>      -0.16666667       0.16666667       0.00000000 </v>
   <v>       0.25000000      -0.00000000       0.00000000 </v>
   <v>      -0.00000000       0.25000000       0.00000000 </v>
   <v>      -0.25000000       0.25000000       0.00000000 </v>
   <v>       0.33333333      -0.00000000       0.00000000 </v>
   <v>      -0.00000000       0.33333333       0.00000000 </v>
   <v>      -0.33333333       0.33333333       0.00000000 </v>
   <v>       0.41666667       0.00000000       0.00000000 </v>
   <v>      -0.00000000       0.41666667       0.00000000 </v>
   <v>      -0.41666667       0.41666667       0.00000000 </v>
   <v>       0.50000000      -0.00000000       0.00000000 </v>
   <v>      -0.00000000       0.50000000       0.00000000 </v>
   <v>       0.50000000       0.50000000       0.00000000 </v>
   <v>       0.08333333       0.08333333       0.00000000 </v>
   <v>      -0.08333333       0.16666667       0.00000000 </v>
   <v>      -0.16666667       0.08333333       0.00000000 </v>
   <v>       0.16666667       0.08333333       0.00000000 </v>
   <v>      -0.08333333       0.25000000       0.00000000 </v>
   <v>      -0.25000000       0.16666667       0.00000000 </v>
   <v>      -0.16666667       0.25000000       0.00000000 </v>
   <v>       0.08333333       0.16666667       0.00000000 </v>
   <v>       0.25000000      -0.08333333       0.00000000 </v>
   <v>       0.25000000       0.08333333       0.00000000 </v>
   <v>      -0.08333333       0.33333333       0.00000000 </v>
   <v>      -0.33333333       0.25000000       0.00000000 </v>
   <v>      -0.25000000       0.33333333       0.00000000 </v>
   <v>       0.08333333       0.25000000       0.00000000 </v>
   <v>       0.33333333      -0.08333333       0.00000000 </v>
   <v>       0.33333333       0.08333333       0.00000000 </v>
   <v>      -0.08333333       0.41666667       0.00000000 </v>
   <v>      -0.41666667       0.33333333       0.00000000 </v>
   <v>      -0.33333333       0.41666667       0.00000000 </v>
   <v>       0.08333333       0.33333333       0.00000000 </v>
   <v>       0.41666667      -0.08333333       0.00000000 </v>
   <v>       0.41666667       0.08333333       0.00000000 </v>
   <v>      -0.08333333       0.50000000       0.00000000 </v>
   <v>       0.50000000       0.41666667       0.00000000 </v>
   <v>      -0.41666667       0.50000000       0.00000000 </v>
   <v>       0.08333333       0.41666667       0.00000000 </v>
   <v>       0.50000000      -0.08333333       0.00000000 </v>
   <v>       0.16666667       0.16666667       0.00000000 </v>
   <v>      -0.16666667       0.33333333       0.00000000 </v>
   <v>      -0.33333333       0.16666667       0.00000000 </v>
   <v>       0.25000000       0.16666667       0.00000000 </v>
   <v>      -0.16666667       0.41666667       0.00000000 </v>
   <v>      -0.41666667       0.25000000       0.00000000 </v>
   <v>      -0.25000000       0.41666667       0.00000000 </v>
   <v>       0.16666667       0.25000000       0.00000000 </v>
   <v>       0.41666667      -0.16666667       0.00000000 </v>
   <v>       0.33333333       0.16666667       0.00000000 </v>
   <v>      -0.16666667       0.50000000       0.00000000 </v>
   <v>       0.50000000       0.33333333       0.00000000 </v>
   <v>      -0.33333333       0.50000000       0.00000000 </v>
   <v>       0.16666667       0.33333333       0.00000000 </v>
   <v>       0.50000000      -0.16666667       0.00000000 </v>
   <v>       0.41666667       0.16666667       0.00000000 </v>
   <v>      -0.16666667      -0.41666667       0.00000000 </v>
   <v>       0.41666667       0.41666667       0.00000000 </v>
   <v>       0.25000000       0.25000000       0.00000000 </v>
   <v>      -0.25000000       0.50000000       0.00000000 </v>
   <v>       0.50000000       0.25000000       0.00000000 </v>
   <v>       0.33333333       0.25000000       0.00000000 </v>
   <v>      -0.25000000      -0.41666667       0.00000000 </v>
   <v>       0.41666667       0.33333333       0.00000000 </v>
   <v>      -0.33333333      -0.41666667       0.00000000 </v>
   <v>       0.25000000       0.33333333       0.00000000 </v>
   <v>      -0.41666667      -0.25000000       0.00000000 </v>
   <v>       0.33333333       0.33333333       0.00000000 </v>
  </varray>
  <varray name="weights" >
   <v>       0.00694444 </v>
   <v>       0.01388889 </v>
   <v>       0.01388889 </v>
   <v>       0.01388889 </v>
   <v>       0.01388889 </v>
   <v>       0.01388889 </v>
   <v>       0.01388889 </v>
   <v>       0.01388889 </v>
   <v>       0.01388889 </v>
   <v>       0.01388889 </v>
   <v>       0.01388889 </v>
   <v>       0.01388889 </v>
   <v>       0.01388889 </v>
   <v>       0.01388889 </v>
   <v>       0.01388889 </v>
   <v>       0.01388889 </v>
   <v>       0.00694444 </v>
   <v>       0.00694444 </v>
   <v>       0.00694444 </v>
   <v>       0.01388889 </v>
   <v>       0.01388889 </v>
   <v>       0.01388889 </v>
   <v>       0.01388889 </v>
   <v>       0.01388889 </v>
   <v>       0.01388889 </v>
   <v>       0.01388889 </v>
   <v>       0.01388889 </v>
   <v>       0.01388889 </v>
   <v>       0.01388889 </v>
   <v>       0.01388889 </v>
   <v>       0.01388889 </v>
   <v>       0.01388889 </v>
   <v>       0.01388889 </v>
   <v>       0.01388889 </v>
   <v>       0.01388889 </v>
   <v>       0.01388889 </v>
   <v>       0.01388889 </v>
   <v>       0.01388889 </v>
   <v>       0.01388889 </v>
   <v>       0.01388889 </v>
   <v>       0.01388889 </v>
   <v>       0.01388889 </v>
   <v>       0.01388889 </v>
   <v>       0.01388889 </v>
   <v>       0.01388889 </v>
   <v>       0.01388889 </v>
   <v>       0.01388889 </v>
   <v>       0.01388889 </v>
   <v>       0.01388889 </v>
   <v>       0.01388889 </v>
   <v>       0.01388889 </v>
   <v>       0.01388889 </v>
   <v>       0.01388889 </v>
   <v>       0.01388889 </v>
   <v>       0.01388889 </v>
   <v>       0.01388889 </v>
   <v>       0.01388889 </v>
   <v>       0.01388889 </v>
   <v>       0.01388889 </v>
   <v>       0.01388889 </v>
   <v>       0.01388889 </v>
   <v>       0.01388889 </v>
   <v>       0.01388889 </v>
   <v>       0.01388889 </v>
   <v>       0.01388889 </v>
   <v>       0.01388889 </v>
   <v>       0.01388889 </v>
   <v>       0.01388889 </v>
   <v>       0.01388889 </v>
   <v>       0.01388889 </v>
   <v>       0.01388889 </v>
   <v>       0.01388889 </v>
   <v>       0.01388889 </v>
   <v>       0.01388889 </v>
  </varray>
 </kpoints>
 <parameters>
  <separator name="general" >
   <i type="string" name="SYSTEM">Lattice</i>
   <i type="logical" name="LCOMPAT"> F  </i>
  </separator>
  <separator name="electronic" >
   <i type="string" name="PREC">accura</i>
   <i name="ENMAX">    450.00000000</i>
   <i name="ENAUG">    644.87300000</i>
   <i name="EDIFF">      0.00000100</i>
   <i type="int" name="IALGO">    38</i>
   <i type="int" name="IWAVPR">    11</i>
   <i type="int" name="NBANDS">    48</i>
   <i type="int" name="NBANDSLOW">    -1</i>
   <i type="int" name="NBANDSHIGH">    -1</i>
   <i name="NELECT">     62.00000000</i>
   <i type="int" name="TURBO">     0</i>
   <i type="int" name="IRESTART">     0</i>
   <i type="int" name="NREBOOT">     0</i>
   <i type="int" name="NMIN">     0</i>
   <i name="EREF">      0.00000000</i>
   <separator name="electronic smearing" >
    <i type="int" name="ISMEAR">     0</i>
    <i name="SIGMA">      0.10000000</i>
    <i name="KSPACING">      0.50000000</i>
    <i type="logical" name="KGAMMA"> T  </i>
    <i type="logical" name="KBLOWUP"> T  </i>
   </separator>
   <separator name="electronic projectors" >
    <i type="logical" name="LREAL"> F  </i>
    <v name="ROPT">      0.00000000      0.00000000</v>
    <i type="int" name="LMAXPAW">  -100</i>
    <i type="int" name="LMAXMIX">     2</i>
    <i type="logical" name="NLSPLINE"> F  </i>
   </separator>
   <separator name="electronic startup" >
    <i type="int" name="ISTART">     0</i>
    <i type="int" name="ICHARG">     2</i>
    <i type="int" name="INIWAV">     1</i>
   </separator>
   <separator name="electronic spin" >
    <i type="int" name="ISPIN">     2</i>
    <i type="logical" name="LNONCOLLINEAR"> F  </i>
    <v name="MAGMOM">      1.00000000      1.00000000      1.00000000      1.00000000      1.00000000      1.00000000      1.00000000      1.00000000      1.00000000      1.00000000      1.00000000      1.00000000      1.00000000      1.00000000      1.00000000      1.00000000</v>
    <i name="NUPDOWN">     -1.00000000</i>
    <i type="logical" name="LSORBIT"> F  </i>
    <v name="SAXIS">      0.00000000      0.00000000      1.00000000</v>
    <i type="logical" name="LSPIRAL"> F  </i>
    <v name="QSPIRAL">      0.00000000      0.00000000      0.00000000</v>
    <i type="logical" name="LZEROZ"> F  </i>
   </separator>
   <separator name="electronic exchange-correlation" >
    <i type="logical" name="LASPH"> F  </i>
    <i type="logical" name="LMETAGGA"> F  </i>
   </separator>
   <separator name="electronic convergence" >
    <i type="int" name="NELM">    64</i>
    <i type="int" name="NELMDL">    -5</i>
    <i type="int" name="NELMIN">     2</i>
    <i name="ENINI">    450.00000000</i>
    <separator name="electronic convergence detail" >
     <i type="logical" name="LDIAG"> T  </i>
     <i type="logical" name="LSUBROT"> F  </i>
     <i name="WEIMIN">      0.00100000</i>
     <i name="EBREAK">      0.00000001</i>
     <i name="DEPER">      0.30000000</i>
     <i type="int" name="NRMM">     4</i>
     <i name="TIME">      0.40000000</i>
    </separator>
   </separator>
   <separator name="electronic mixer" >
    <i name="AMIX">      0.40000000</i>
    <i name="BMIX">      1.00000000</i>
    <i name="AMIN">      0.10000000</i>
    <i name="AMIX_MAG">      1.60000000</i>
    <i name="BMIX_MAG">      1.00000000</i>
    <separator name="electronic mixer details" >
     <i type="int" name="IMIX">     4</i>
     <i type="logical" name="MIXFIRST"> F  </i>
     <i type="int" name="MAXMIX">   -45</i>
     <i name="WC">    100.00000000</i>
     <i type="int" name="INIMIX">     1</i>
     <i type="int" name="MIXPRE">     1</i>
     <i type="int" name="MREMOVE">     5</i>
    </separator>
   </separator>
   <separator name="electronic dipolcorrection" >
    <i type="logical" name="LDIPOL"> F  </i>
    <i type="logical" name="LMONO"> F  </i>
    <i type="int" name="IDIPOL">     0</i>
    <i name="EPSILON">      1.00000000</i>
    <v name="DIPOL">   -100.00000000   -100.00000000   -100.00000000</v>
    <i name="EFIELD">      0.00000000</i>
   </separator>
  </separator>
  <separator name="grids" >
   <i type="int" name="NGX">    36</i>
   <i type="int" name="NGY">    36</i>
   <i type="int" name="NGZ">   108</i>
   <i type="int" name="NGXF">    72</i>
   <i type="int" name="NGYF">    72</i>
   <i type="int" name="NGZF">   216</i>
   <i type="logical" name="ADDGRID"> F  </i>
  </separator>
  <separator name="ionic" >
   <i type="int" name="NSW">   128</i>
   <i type="int" name="IBRION">     2</i>
   <i type="int" name="MDALGO">     0</i>
   <i type="int" name="ISIF">     2</i>
   <i name="PSTRESS">      0.00000000</i>
   <i name="EDIFFG">     -0.00100000</i>
   <i type="int" name="NFREE">     1</i>
   <i name="POTIM">      0.50000000</i>
   <i name="SMASS">     -3.00000000</i>
   <i name="SCALEE">      1.00000000</i>
  </separator>
  <separator name="ionic md" >
   <i name="TEBEG">      0.00010000</i>
   <i name="TEEND">      0.00010000</i>
   <i type="int" name="NBLOCK">     1</i>
   <i type="int" name="KBLOCK">   128</i>
   <i type="int" name="NPACO">   256</i>
   <i name="APACO">     10.00000000</i>
  </separator>
  <separator name="symmetry" >
   <i type="int" name="ISYM">     2</i>
   <i name="SYMPREC">      0.00001000</i>
  </separator>
  <separator name="dos" >
   <i type="int" name="LORBIT">     0</i>
   <v name="RWIGS">     -1.00000000     -1.00000000</v>
   <i type="int" name="NEDOS">   301</i>
   <i name="EMIN">     10.00000000</i>
   <i name="EMAX">    -10.00000000</i>
   <i name="EFERMI">      0.00000000</i>
  </separator>
  <separator name="writing" >
   <i type="int" name="NWRITE">     2</i>
   <i type="logical" name="LWAVE"> F  </i>
   <i type="logical" name="LDOWNSAMPLE"> F  </i>
   <i type="logical" name="LCHARG"> F  </i>
   <i type="logical" name="LPARD"> F  </i>
   <i type="logical" name="LVTOT"> F  </i>
   <i type="logical" name="LVHAR"> F  </i>
   <i type="logical" name="LELF"> F  </i>
   <i type="logical" name="LOPTICS"> F  </i>
   <v name="STM">      0.00000000      0.00000000      0.00000000      0.00000000      0.00000000      0.00000000      0.00000000</v>
  </separator>
  <separator name="performance" >
   <i type="int" name="NPAR">    48</i>
   <i type="int" name="NSIM">     4</i>
   <i type="int" name="NBLK">    -1</i>
   <i type="logical" name="LPLANE"> T  </i>
   <i type="logical" name="LSCALAPACK"> T  </i>
   <i type="logical" name="LSCAAWARE"> F  </i>
   <i type="logical" name="LSCALU"> F  </i>
   <i type="logical" name="LASYNC"> F  </i>
   <i type="logical" name="LORBITALREAL"> F  </i>
  </separator>
  <separator name="miscellaneous" >
   <i type="int" name="IDIOT">     3</i>
   <i type="int" name="PHON_NSTRUCT">    -1</i>
   <i type="logical" name="LMUSIC"> F  </i>
   <v name="POMASS">     10.81100000     12.01100000</v>
   <v name="DARWINR">      0.00000000      0.00000000</v>
   <v name="DARWINV">      1.00000000      1.00000000</v>
   <i type="logical" name="LCORR"> T  </i>
  </separator>
  <i type="logical" name="GGA_COMPAT"> T  </i>
  <i type="logical" name="LBERRY"> F  </i>
  <i type="int" name="ICORELEVEL">     0</i>
  <i type="logical" name="LDAU"> F  </i>
  <i type="int" name="I_CONSTRAINED_M">     0</i>
  <separator name="electronic exchange-correlation" >
   <i type="string" name="GGA">PE</i>
   <i type="int" name="VOSKOWN">     0</i>
   <i type="logical" name="LHFCALC"> F  </i>
   <i type="string" name="PRECFOCK"></i>
   <i type="logical" name="LSYMGRAD"> F  </i>
   <i type="logical" name="LHFONE"> F  </i>
   <i type="logical" name="LRHFCALC"> F  </i>
   <i type="logical" name="LTHOMAS"> F  </i>
   <i type="logical" name="LMODELHF"> F  </i>
   <i type="logical" name="LFOCKACE"> F  </i>
   <i name="ENCUT4O">     -1.00000000</i>
   <i type="int" name="EXXOEP">     0</i>
   <i type="int" name="FOURORBIT">     0</i>
   <i name="AEXX">      0.00000000</i>
   <i name="HFALPHA">      0.00000000</i>
   <i name="MCALPHA">      0.00000000</i>
   <i name="ALDAX">      1.00000000</i>
   <i name="AGGAX">      1.00000000</i>
   <i name="ALDAC">      1.00000000</i>
   <i name="AGGAC">      1.00000000</i>
   <i type="int" name="NKREDX">     1</i>
   <i type="int" name="NKREDY">     1</i>
   <i type="int" name="NKREDZ">     1</i>
   <i type="logical" name="SHIFTRED"> F  </i>
   <i type="logical" name="ODDONLY"> F  </i>
   <i type="logical" name="EVENONLY"> F  </i>
   <i type="int" name="LMAXFOCK">     0</i>
   <i type="int" name="NMAXFOCKAE">     0</i>
   <i type="logical" name="LFOCKAEDFT"> F  </i>
   <i name="HFSCREEN">      0.00000000</i>
   <i name="HFSCREENC">      0.00000000</i>
   <i type="int" name="NBANDSGWLOW">     0</i>
  </separator>
  <separator name="vdW DFT" >
   <i type="logical" name="LUSE_VDW"> F  </i>
   <i name="Zab_VDW">     -0.84910000</i>
   <i name="PARAM1">      0.12340000</i>
   <i name="PARAM2">      1.00000000</i>
   <i name="PARAM3">      0.00000000</i>
  </separator>
  <separator name="model GW" >
   <i type="int" name="MODEL_GW">     0</i>
   <i name="MODEL_EPS0">     11.98440595</i>
   <i name="MODEL_ALPHA">      1.00000000</i>
  </separator>
  <separator name="linear response parameters" >
   <i type="logical" name="LEPSILON"> F  </i>
   <i type="logical" name="LRPA"> F  </i>
   <i type="logical" name="LNABLA"> F  </i>
   <i type="logical" name="LVEL"> F  </i>
   <i name="CSHIFT">      0.10000000</i>
   <i name="OMEGAMAX">     -1.00000000</i>
   <i name="DEG_THRESHOLD">      0.00200000</i>
   <i name="RTIME">     -0.10000000</i>
   <i name="WPLASMAI">      0.00000000</i>
   <v name="DFIELD">      0.00000000      0.00000000      0.00000000</v>
   <v name="WPLASMA">      0.00000000      0.00000000      0.00000000      0.00000000      0.00000000      0.00000000      0.00000000      0.00000000      0.00000000</v>
  </separator>
  <separator name="orbital magnetization" >
   <i type="logical" name="NUCIND"> F  </i>
   <v name="MAGPOS">      0.00000000      0.00000000      0.00000000</v>
   <i type="logical" name="LNICSALL"> T  </i>
   <i type="logical" name="ORBITALMAG"> F  </i>
   <i type="logical" name="LMAGBLOCH"> F  </i>
   <i type="logical" name="LCHIMAG"> F  </i>
   <i type="logical" name="LGAUGE"> T  </i>
   <i type="int" name="MAGATOM">     0</i>
   <v name="MAGDIPOL">      0.00000000      0.00000000      0.00000000</v>
   <v name="AVECCONST">      0.00000000      0.00000000      0.00000000</v>
  </separator>
  <separator name="response functions" >
   <i type="logical" name="LFINITE_TEMPERATURE"> F  </i>
   <i type="logical" name="LADDER"> F  </i>
   <i type="logical" name="LRPAFORCE"> F  </i>
   <i type="logical" name="LFXC"> F  </i>
   <i type="logical" name="LHARTREE"> T  </i>
   <i type="int" name="IBSE">     0</i>
   <v type="int" name="KPOINT">    -1     0     0     0</v>
   <i type="logical" name="LTCTC"> F  </i>
   <i type="logical" name="LTCTE"> F  </i>
   <i type="logical" name="LTETE"> F  </i>
   <i type="logical" name="LTRIPLET"> F  </i>
   <i type="logical" name="LFXCEPS"> F  </i>
   <i type="logical" name="LFXHEG"> F  </i>
   <i type="int" name="NATURALO">     2</i>
   <i type="logical" name="LHOLEGF"> F  </i>
   <i type="logical" name="L2ORDER"> F  </i>
   <i type="logical" name="LDMP1"> F  </i>
   <i type="logical" name="LMP2LT"> F  </i>
   <i type="logical" name="LSMP2LT"> F  </i>
   <i type="logical" name="LGWLF"> F  </i>
   <i name="ENCUTGW">     -2.00000000</i>
   <i name="ENCUTGWSOFT">     -2.00000000</i>
   <i name="ENCUTLF">     -1.00000000</i>
   <i type="logical" name="LESF_SPLINES"> F  </i>
   <i type="int" name="LMAXMP2">    -1</i>
   <i name="SCISSOR">      0.00000000</i>
   <i type="int" name="NOMEGA">     0</i>
   <i type="int" name="NOMEGAR">     0</i>
   <i type="int" name="NBANDSGW">    -1</i>
   <i type="int" name="NBANDSO">    -1</i>
   <i type="int" name="NBANDSV">    -1</i>
   <i type="int" name="NELMGW">     1</i>
   <i type="int" name="NELMHF">     1</i>
   <i type="int" name="DIM">     3</i>
   <i type="int" name="IESPILON">     4</i>
   <i type="int" name="ANTIRES">     0</i>
   <i name="OMEGAMAX">    -30.00000000</i>
   <i name="OMEGAMIN">    -30.00000000</i>
   <i name="OMEGATL">   -200.00000000</i>
   <i type="int" name="OMEGAGRID">     0</i>
   <i name="CSHIFT">     -0.10000000</i>
   <i type="logical" name="LSELFENERGY"> F  </i>
   <i type="logical" name="LSPECTRAL"> F  </i>
   <i type="logical" name="LSPECTRALGW"> F  </i>
   <i type="logical" name="LSINGLES"> F  </i>
   <i type="logical" name="LFERMIGW"> F  </i>
   <i type="logical" name="ODDONLYGW"> F  </i>
   <i type="logical" name="EVENONLYGW"> F  </i>
   <i type="int" name="NKREDLFX">     1</i>
   <i type="int" name="NKREDLFY">     1</i>
   <i type="int" name="NKREDLFZ">     1</i>
   <i type="int" name="MAXMEM">  2800</i>
   <i type="int" name="TELESCOPE">     0</i>
   <i type="int" name="NTAUPAR">    -1</i>
   <i type="int" name="NOMEGAPAR">    -1</i>
   <i name="DAMP_NEWTON">      0.80000001</i>
   <i name="LAMBDA">      1.00000000</i>
  </separator>
  <separator name="External order field" >
   <i name="OFIELD_KAPPA">      0.00000000</i>
   <v name="OFIELD_K">      0.00000000      0.00000000      0.00000000</v>
   <i name="OFIELD_Q6_NEAR">      0.00000000</i>
   <i name="OFIELD_Q6_FAR">      0.00000000</i>
   <i name="OFIELD_A">      0.00000000</i>
  </separator>
  <separator name="optional k-points parameters" >
   <i type="int" name="KPOINTS_OPT_MODE">     1</i>
   <i type="logical" name="LKPOINTS_OPT"> F  </i>
  </separator>
  <separator name="solvation model" >
   <i type="logical" name="LSOL"> F  </i>
  </separator>
 </parameters>
 <atominfo>
  <atoms>      16 </atoms>
  <types>       2 </types>
  <array name="atoms" >
   <dimension dim="1">ion</dimension>
   <field type="string">element</field>
   <field type="int">atomtype</field>
   <set>
    <rc><c>B </c><c>   1</c></rc>
    <rc><c>B </c><c>   1</c></rc>
    <rc><c>C </c><c>   2</c></rc>
    <rc><c>C </c><c>   2</c></rc>
    <rc><c>C </c><c>   2</c></rc>
    <rc><c>C </c><c>   2</c></rc>
    <rc><c>C </c><c>   2</c></rc>
    <rc><c>C </c><c>   2</c></rc>
    <rc><c>C </c><c>   2</c></rc>
    <rc><c>C </c><c>   2</c></rc>
    <rc><c>C </c><c>   2</c></rc>
    <rc><c>C </c><c>   2</c></rc>
    <rc><c>C </c><c>   2</c></rc>
    <rc><c>C </c><c>   2</c></rc>
    <rc><c>C </c><c>   2</c></rc>
    <rc><c>C </c><c>   2</c></rc>
   </set>
  </array>
  <array name="atomtypes" >
   <dimension dim="1">type</dimension>
   <field type="int">atomspertype</field>
   <field type="string">element</field>
   <field>mass</field>
   <field>valence</field>
   <field type="string">pseudopotential</field>
   <set>
    <rc><c>   2</c><c>B </c><c>     10.81100000</c><c>      3.00000000</c><c>  PAW_PBE B 06Sep2000                   </c></rc>
    <rc><c>  14</c><c>C </c><c>     12.01100000</c><c>      4.00000000</c><c>  PAW_PBE C 08Apr2002                   </c></rc>
   </set>
  </array>
 </atominfo>
 <structure name="initialpos" >
  <crystal>
   <varray name="basis" >
    <v>       4.29548600       2.48000000       0.00000000 </v>
    <v>      -4.29548600       2.48000000       0.00000000 </v>
    <v>       0.00000000       0.00000000      15.00000000 </v>
   </varray>
   <i name="volume">    319.58415861 </i>
   <varray name="rec_basis" >
    <v>       0.11640126       0.20161290       0.00000000 </v>
    <v>      -0.11640126       0.20161290       0.00000000 </v>
    <v>       0.00000000       0.00000000       0.06666667 </v>
   </varray>
  </crystal>
  <varray name="positions" >
   <v>       0.33833034       0.66916432       0.10000000 </v>
   <v>       0.67165522       0.33584146       0.10000000 </v>
   <v>       0.16373946       0.31999962       0.10000000 </v>
   <v>       0.32250218       0.16126397       0.10000000 </v>
   <v>       0.16376430       0.84376384       0.10000000 </v>
   <v>       0.84623863       0.16123684       0.10000000 </v>
   <v>       0.68749850       0.84373000       0.10000000 </v>
   <v>       0.84626736       0.68499594       0.10000000 </v>
   <v>       0.24999933       0.24999967       0.32633333 </v>
   <v>       0.41666633       0.08333267       0.32633333 </v>
   <v>       0.24999933       0.74999967       0.32633333 </v>
   <v>       0.41666633       0.58333267       0.32633333 </v>
   <v>       0.74999933       0.24999967       0.32633333 </v>
   <v>       0.91666633       0.08333267       0.32633333 </v>
   <v>       0.74999933       0.74999967       0.32633333 </v>
   <v>       0.91666633       0.58333267       0.32633333 </v>
  </varray>
 </structure>
 <calculation>
  <scstep>
   <time name="dav">    5.75    5.82</time>
   <time name="total">    5.79    5.87</time>
   <energy>
    <i name="alphaZ">     64.67582166 </i>
    <i name="ewald">   5687.07141446 </i>
    <i name="hartreedc">  -7491.54486947 </i>
    <i name="XCdc">    201.52807591 </i>
    <i name="pawpsdc">   1604.28699987 </i>
    <i name="pawaedc">  -1610.37247880 </i>
    <i name="eentropy">     -0.02163953 </i>
    <i name="bandstr">   -394.95488059 </i>
    <i name="atom">   2202.35892741 </i>
    <i name="e_fr_energy">    263.02737093 </i>
    <i name="e_wo_entrp">    263.04901047 </i>
    <i name="e_0_energy">    263.03819070 </i>
   </energy>
  </scstep>
  <scstep>
   <time name="dav">    8.96    9.04</time>
   <time name="total">    8.96    9.04</time>
   <energy>
    <i name="e_fr_energy">   -131.74710420 </i>
    <i name="e_wo_entrp">   -131.73620627 </i>
    <i name="e_0_energy">   -131.74165524 </i>
   </energy>
  </scstep>
  <scstep>
   <time name="dav">   11.25   11.34</time>
   <time name="total">   11.25   11.34</time>
   <energy>
    <i name="e_fr_energy">   -146.98651076 </i>
    <i name="e_wo_entrp">   -146.97999108 </i>
    <i name="e_0_energy">   -146.98325092 </i>
   </energy>
  </scstep>
  <scstep>
   <time name="dav">    9.22    9.30</time>
   <time name="total">    9.23    9.30</time>
   <energy>
    <i name="e_fr_energy">   -147.02612763 </i>
    <i name="e_wo_entrp">   -147.01955014 </i>
    <i name="e_0_energy">   -147.02283888 </i>
   </energy>
  </scstep>
  <scstep>
   <time name="dav">   10.64   10.73</time>
   <time name="total">   10.99   11.08</time>
   <energy>
    <i name="e_fr_energy">   -147.02620089 </i>
    <i name="e_wo_entrp">   -147.01962346 </i>
    <i name="e_0_energy">   -147.02291217 </i>
   </energy>
  </scstep>
  <scstep>
   <time name="dav">   10.40   10.48</time>
   <time name="total">   10.78   10.87</time>
   <energy>
    <i name="e_fr_energy">   -107.40365591 </i>
    <i name="e_wo_entrp">   -107.38342732 </i>
    <i name="e_0_energy">   -107.39354161 </i>
   </energy>
  </scstep>
  <scstep>
   <time name="dav">   10.21   10.28</time>
   <time name="total">   10.59   10.68</time>
   <energy>
    <i name="e_fr_energy">   -114.14264248 </i>
    <i name="e_wo_entrp">   -114.12746003 </i>
    <i name="e_0_energy">   -114.13505126 </i>
   </energy>
  </scstep>
  <scstep>
   <time name="dav">   11.05   11.13</time>
   <time name="total">   11.43   11.52</time>
   <energy>
    <i name="e_fr_energy">   -123.26240141 </i>
    <i name="e_wo_entrp">   -123.25110467 </i>
    <i name="e_0_energy">   -123.25675304 </i>
   </energy>
  </scstep>
  <scstep>
   <time name="dav">    7.96    8.01</time>
   <time name="total">    8.33    8.39</time>
   <energy>
    <i name="e_fr_energy">   -131.71654400 </i>
    <i name="e_wo_entrp">   -131.71081944 </i>
    <i name="e_0_energy">   -131.71368172 </i>
   </energy>
  </scstep>
  <scstep>
   <time name="dav">    9.60    9.67</time>
   <time name="total">    9.98   10.05</time>
   <energy>
    <i name="e_fr_energy">   -138.19197568 </i>
    <i name="e_wo_entrp">   -138.18869380 </i>
    <i name="e_0_energy">   -138.19033474 </i>
   </energy>
  </scstep>
  <scstep>
   <time name="dav">    8.55    8.62</time>
   <time name="total">    8.93    9.01</time>
   <energy>
    <i name="e_fr_energy">   -139.62184180 </i>
    <i name="e_wo_entrp">   -139.61934789 </i>
    <i name="e_0_energy">   -139.62059485 </i>
   </energy>
  </scstep>
  <scstep>
   <time name="dav">    8.30    8.35</time>
   <time name="total">    8.67    8.74</time>
   <energy>
    <i name="e_fr_energy">   -139.93495495 </i>
    <i name="e_wo_entrp">   -139.93298665 </i>
    <i name="e_0_energy">   -139.93397080 </i>
   </energy>
  </scstep>
  <scstep>
   <time name="dav">    7.10    7.15</time>
   <time name="total">    7.48    7.55</time>
   <energy>
    <i name="e_fr_energy">   -139.98972144 </i>
    <i name="e_wo_entrp">   -139.98742853 </i>
    <i name="e_0_energy">   -139.98857499 </i>
   </energy>
  </scstep>
  <scstep>
   <time name="dav">    8.44    8.50</time>
   <time name="total">    8.81    8.89</time>
   <energy>
    <i name="e_fr_energy">   -140.01443712 </i>
    <i name="e_wo_entrp">   -140.01188469 </i>
    <i name="e_0_energy">   -140.01316091 </i>
   </energy>
  </scstep>
  <scstep>
   <time name="dav">    7.06    7.11</time>
   <time name="total">    7.43    7.49</time>
   <energy>
    <i name="e_fr_energy">   -140.02527513 </i>
    <i name="e_wo_entrp">   -140.02260438 </i>
    <i name="e_0_energy">   -140.02393976 </i>
   </energy>
  </scstep>
  <scstep>
   <time name="dav">    6.78    6.83</time>
   <time name="total">    7.16    7.22</time>
   <energy>
    <i name="e_fr_energy">   -140.02706717 </i>
    <i name="e_wo_entrp">   -140.02437134 </i>
    <i name="e_0_energy">   -140.02571926 </i>
   </energy>
  </scstep>
  <scstep>
   <time name="dav">    5.93    5.97</time>
   <time name="total">    6.31    6.36</time>
   <energy>
    <i name="e_fr_energy">   -140.02905730 </i>
    <i name="e_wo_entrp">   -140.02637195 </i>
    <i name="e_0_energy">   -140.02771463 </i>
   </energy>
  </scstep>
  <scstep>
   <time name="dav">    6.16    6.21</time>
   <time name="total">    6.53    6.59</time>
   <energy>
    <i name="e_fr_energy">   -140.03018200 </i>
    <i name="e_wo_entrp">   -140.02751404 </i>
    <i name="e_0_energy">   -140.02884802 </i>
   </energy>
  </scstep>
  <scstep>
   <time name="dav">    7.20    7.25</time>
   <time name="total">    7.57    7.63</time>
   <energy>
    <i name="e_fr_energy">   -140.03073289 </i>
    <i name="e_wo_entrp">   -140.02806483 </i>
    <i name="e_0_energy">   -140.02939886 </i>
   </energy>
  </scstep>
  <scstep>
   <time name="dav">    7.33    7.38</time>
   <time name="total">    7.70    7.77</time>
   <energy>
    <i name="e_fr_energy">   -140.03093579 </i>
    <i name="e_wo_entrp">   -140.02825756 </i>
    <i name="e_0_energy">   -140.02959668 </i>
   </energy>
  </scstep>
  <scstep>
   <time name="dav">    8.50    8.56</time>
   <time name="total">    8.88    8.95</time>
   <energy>
    <i name="e_fr_energy">   -140.03094280 </i>
    <i name="e_wo_entrp">   -140.02826242 </i>
    <i name="e_0_energy">   -140.02960261 </i>
   </energy>
  </scstep>
  <scstep>
   <time name="dav">    8.66    8.71</time>
   <time name="total">    9.03    9.10</time>
   <energy>
    <i name="e_fr_energy">   -140.03099163 </i>
    <i name="e_wo_entrp">   -140.02831211 </i>
    <i name="e_0_energy">   -140.02965187 </i>
   </energy>
  </scstep>
  <scstep>
   <time name="dav">    8.94    9.00</time>
   <time name="total">    9.32    9.39</time>
   <energy>
    <i name="e_fr_energy">   -140.03100890 </i>
    <i name="e_wo_entrp">   -140.02832860 </i>
    <i name="e_0_energy">   -140.02966875 </i>
   </energy>
  </scstep>
  <scstep>
   <time name="dav">    9.86   10.87</time>
   <time name="total">   10.23   11.24</time>
   <energy>
    <i name="e_fr_energy">   -140.03101284 </i>
    <i name="e_wo_entrp">   -140.02833236 </i>
    <i name="e_0_energy">   -140.02967260 </i>
   </energy>
  </scstep>
  <scstep>
   <time name="dav">    7.90    7.95</time>
   <time name="total">    8.26    8.33</time>
   <energy>
    <i name="e_fr_energy">   -140.03101506 </i>
    <i name="e_wo_entrp">   -140.02833498 </i>
    <i name="e_0_energy">   -140.02967502 </i>
   </energy>
  </scstep>
  <scstep>
   <time name="dav">    7.76    7.81</time>
   <time name="total">    8.13    8.19</time>
   <energy>
    <i name="e_fr_energy">   -140.03101615 </i>
    <i name="e_wo_entrp">   -140.02833626 </i>
    <i name="e_0_energy">   -140.02967621 </i>
   </energy>
  </scstep>
  <scstep>
   <time name="dav">    7.31    7.36</time>
   <time name="total">    7.34    7.40</time>
   <energy>
    <i name="alphaZ">     64.67582166 </i>
    <i name="ewald">   5687.07141446 </i>
    <i name="hartreedc">  -7742.47327264 </i>
    <i name="XCdc">    208.70255122 </i>
    <i name="pawpsdc">   6820.43907091 </i>
    <i name="pawaedc">  -6828.65936231 </i>
    <i name="eentropy">     -0.00267989 </i>
    <i name="bandstr">   -552.14348736 </i>
    <i name="atom">   2202.35892741 </i>
    <i name="e_fr_energy">   -140.03101654 </i>
    <i name="e_wo_entrp">   -140.02833665 </i>
    <i name="e_0_energy">   -140.02967659 </i>
   </energy>
  </scstep>
  <structure>
   <crystal>
    <varray name="basis" >
     <v>       4.29548600       2.48000000       0.00000000 </v>
     <v>      -4.29548600       2.48000000       0.00000000 </v>
     <v>       0.00000000       0.00000000      15.00000000 </v>
    </varray>
    <i name="volume">    319.58415861 </i>
    <varray name="rec_basis" >
     <v>       0.11640126       0.20161290       0.00000000 </v>
     <v>      -0.11640126       0.20161290       0.00000000 </v>
     <v>       0.00000000       0.00000000       0.06666667 </v>
    </varray>
   </crystal>
   <varray name="positions" >
    <v>       0.33833034       0.66916432       0.10000000 </v>
    <v>       0.67165522       0.33584146       0.10000000 </v>
    <v>       0.16373946       0.31999962       0.10000000 </v>
    <v>       0.32250218       0.16126397       0.10000000 </v>
    <v>       0.16376430       0.84376384       0.10000000 </v>
    <v>       0.84623863       0.16123684       0.10000000 </v>
    <v>       0.68749850       0.84373000       0.10000000 </v>
    <v>       0.84626736       0.68499594       0.10000000 </v>
    <v>       0.24999933       0.24999967       0.32633333 </v>
    <v>       0.41666633       0.08333267       0.32633333 </v>
    <v>       0.24999933       0.74999967       0.32633333 </v>
    <v>       0.41666633       0.58333267       0.32633333 </v>
    <v>       0.74999933       0.24999967       0.32633333 </v>
    <v>       0.91666633       0.08333267       0.32633333 </v>
    <v>       0.74999933       0.74999967       0.32633333 </v>
    <v>       0.91666633       0.58333267       0.32633333 </v>
   </varray>
  </structure>
  <varray name="forces" >
   <v>       0.01830826       0.00025008       0.04112340 </v>
   <v>       0.02379263      -0.00000933       0.02406406 </v>
   <v>      -0.52328668       0.91077354      -0.01438790 </v>
   <v>       0.50964086       0.88839159      -0.00465000 </v>
   <v>       1.02224172      -0.00037433      -0.01031826 </v>
   <v>      -1.05315910      -0.00110774      -0.01073374 </v>
   <v>      -0.52397878      -0.90879543      -0.01417254 </v>
   <v>       0.50606475      -0.88893159      -0.00458984 </v>
   <v>       0.02275760      -0.02612995       0.01991684 </v>
   <v>      -0.02671854      -0.02094615       0.01670228 </v>
   <v>      -0.03275876       0.00055593      -0.02019039 </v>
   <v>       0.01977957      -0.00015338      -0.03246081 </v>
   <v>       0.00706813      -0.00046808      -0.03832106 </v>
   <v>       0.03493494      -0.00036270       0.01250736 </v>
   <v>       0.02221137       0.02653556       0.02034663 </v>
   <v>      -0.02689798       0.02077198       0.01516396 </v>
  </varray>
  <varray name="stress" >
   <v>      93.60918002      -0.00486488       0.34311956 </v>
   <v>      -0.00486490      93.40000442      -0.00858651 </v>
   <v>       0.34311954      -0.00858654      -2.48987051 </v>
  </varray>
  <energy>
   <i name="e_fr_energy">   -141.94711090 </i>
   <i name="e_wo_entrp">   -141.94443101 </i>
   <i name="e_0_energy">   -141.94577096 </i>
  </energy>
  <time name="totalsc">  240.32  243.24</time>
 </calculation>
 <calculation>
  <scstep>
   <time name="dav">    5.72    5.76</time>
   <time name="total">    6.05    6.10</time>
   <energy>
    <i name="alphaZ">     64.67582166 </i>
    <i name="ewald">   5673.02220889 </i>
    <i name="hartreedc">  -7732.15861463 </i>
    <i name="XCdc">    208.46059242 </i>
    <i name="pawpsdc">   6820.43912562 </i>
    <i name="pawaedc">  -6828.65942086 </i>
    <i name="eentropy">     -0.00748520 </i>
    <i name="bandstr">   -547.97388649 </i>
    <i name="atom">   2202.35892741 </i>
    <i name="e_fr_energy">   -139.84273119 </i>
    <i name="e_wo_entrp">   -139.83524599 </i>
    <i name="e_0_energy">   -139.83898859 </i>
   </energy>
  </scstep>
  <scstep>
   <time name="dav">    8.90    8.97</time>
   <time name="total">    9.24    9.32</time>
   <energy>
    <i name="e_fr_energy">   -139.69737058 </i>
    <i name="e_wo_entrp">   -139.69310179 </i>
    <i name="e_0_energy">   -139.69523619 </i>
   </energy>
  </scstep>
  <scstep>
   <time name="dav">   10.58   10.65</time>
   <time name="total">   10.92   11.00</time>
   <energy>
    <i name="e_fr_energy">   -139.68633603 </i>
    <i name="e_wo_entrp">   -139.68260395 </i>
    <i name="e_0_energy">   -139.68446999 </i>
   </energy>
  </scstep>
  <scstep>
   <time name="dav">    8.82    8.88</time>
   <time name="total">    9.15    9.23</time>
   <energy>
    <i name="e_fr_energy">   -139.68592932 </i>
    <i name="e_wo_entrp">   -139.68189316 </i>
    <i name="e_0_energy">   -139.68391124 </i>
   </energy>
  </scstep>
  <scstep>
   <time name="dav">    8.61    8.67</time>
   <time name="total">    8.95    9.02</time>
   <energy>
    <i name="e_fr_energy">   -139.68589974 </i>
    <i name="e_wo_entrp">   -139.68179737 </i>
    <i name="e_0_energy">   -139.68384856 </i>
   </energy>
  </scstep>
  <scstep>
   <time name="dav">    8.87    8.93</time>
   <time name="total">    9.21    9.28</time>
   <energy>
    <i name="e_fr_energy">   -139.68588574 </i>
    <i name="e_wo_entrp">   -139.68177481 </i>
    <i name="e_0_energy">   -139.68383027 </i>
   </energy>
  </scstep>
  <scstep>
   <time name="dav">    9.17    9.23</time>
   <time name="total">    9.51    9.58</time>
   <energy>
    <i name="e_fr_energy">   -139.68589621 </i>
    <i name="e_wo_entrp">   -139.68177042 </i>
    <i name="e_0_energy">   -139.68383331 </i>
   </energy>
  </scstep>
  <scstep>
   <time name="dav">    7.03    7.08</time>
   <time name="total">    7.37    7.43</time>
   <energy>
    <i name="e_fr_energy">   -139.68590991 </i>
    <i name="e_wo_entrp">   -139.68177334 </i>
    <i name="e_0_energy">   -139.68384162 </i>
   </energy>
  </scstep>
  <scstep>
   <time name="dav">    7.78    7.83</time>
   <time name="total">    8.12    8.18</time>
   <energy>
    <i name="e_fr_energy">   -139.68594151 </i>
    <i name="e_wo_entrp">   -139.68179108 </i>
    <i name="e_0_energy">   -139.68386629 </i>
   </energy>
  </scstep>
  <scstep>
   <time name="dav">    8.62    8.67</time>
   <time name="total">    8.96    9.02</time>
   <energy>
    <i name="e_fr_energy">   -139.68595298 </i>
    <i name="e_wo_entrp">   -139.68180404 </i>
    <i name="e_0_energy">   -139.68387851 </i>
   </energy>
  </scstep>
  <scstep>
   <time name="dav">    7.02    7.07</time>
   <time name="total">    7.36    7.42</time>
   <energy>
    <i name="e_fr_energy">   -139.68596714 </i>
    <i name="e_wo_entrp">   -139.68182074 </i>
    <i name="e_0_energy">   -139.68389394 </i>
   </energy>
  </scstep>
  <scstep>
   <time name="dav">    6.97    7.01</time>
   <time name="total">    7.30    7.36</time>
   <energy>
    <i name="e_fr_energy">   -139.68597311 </i>
    <i name="e_wo_entrp">   -139.68182708 </i>
    <i name="e_0_energy">   -139.68390010 </i>
   </energy>
  </scstep>
  <scstep>
   <time name="dav">    6.99    7.03</time>
   <time name="total">    7.32    7.38</time>
   <energy>
    <i name="e_fr_energy">   -139.68597507 </i>
    <i name="e_wo_entrp">   -139.68182877 </i>
    <i name="e_0_energy">   -139.68390192 </i>
   </energy>
  </scstep>
  <scstep>
   <time name="dav">    6.09    6.13</time>
   <time name="total">    6.12    6.16</time>
   <energy>
    <i name="alphaZ">     64.67582166 </i>
    <i name="ewald">   5673.02220889 </i>
    <i name="hartreedc">  -7727.59286751 </i>
    <i name="XCdc">    208.27622831 </i>
    <i name="pawpsdc">   6760.09148588 </i>
    <i name="pawaedc">  -6768.29296386 </i>
    <i name="eentropy">     -0.00414628 </i>
    <i name="bandstr">   -552.22067033 </i>
    <i name="atom">   2202.35892741 </i>
    <i name="e_fr_energy">   -139.68597583 </i>
    <i name="e_wo_entrp">   -139.68182955 </i>
    <i name="e_0_energy">   -139.68390269 </i>
   </energy>
  </scstep>
  <structure>
   <crystal>
    <varray name="basis" >
     <v>       4.29548600       2.48000000       0.00000000 </v>
     <v>      -4.29548600       2.48000000       0.00000000 </v>
     <v>       0.00000000       0.00000000      15.00000000 </v>
    </varray>
    <i name="volume">    319.58415861 </i>
    <varray name="rec_basis" >
     <v>       0.11640126       0.20161290       0.00000000 </v>
     <v>      -0.11640126       0.20161290       0.00000000 </v>
     <v>       0.00000000       0.00000000       0.06666667 </v>
    </varray>
   </crystal>
   <varray name="positions" >
    <v>       0.33843559       0.66906394       0.10013226 </v>
    <v>       0.67178873       0.33570776       0.10007739 </v>
    <v>       0.16965944       0.33179664       0.09995373 </v>
    <v>       0.33400488       0.16704287       0.09998504 </v>
    <v>       0.16950106       0.83801980       0.09996681 </v>
    <v>       0.84031384       0.16714009       0.09996548 </v>
    <v>       0.67571684       0.83783315       0.09995442 </v>
    <v>       0.84046311       0.67350808       0.09998524 </v>
    <v>       0.24987298       0.24961772       0.32639739 </v>
    <v>       0.41631257       0.08327898       0.32638705 </v>
    <v>       0.24982078       0.75018903       0.32626840 </v>
    <v>       0.41677591       0.58322010       0.32622893 </v>
    <v>       0.75003447       0.24995542       0.32621009 </v>
    <v>       0.91685898       0.08313296       0.32637356 </v>
    <v>       0.75038216       0.75013303       0.32639877 </v>
    <v>       0.91671732       0.58368575       0.32638210 </v>
   </varray>
  </structure>
  <varray name="forces" >
   <v>      -0.07860875       0.00061621       0.00772768 </v>
   <v>      -0.09695163       0.00110082       0.00229064 </v>
   <v>       1.60669168      -2.82871278      -0.00000874 </v>
   <v>      -1.58669801      -2.73313176      -0.00340937 </v>
   <v>      -3.16215866      -0.00119714       0.00567098 </v>
   <v>       3.27993824       0.00610257      -0.00497460 </v>
   <v>       1.60281892       2.82281121      -0.00008742 </v>
   <v>      -1.58050093       2.73287747      -0.00318099 </v>
   <v>      -0.05982760       0.07123194       0.00280043 </v>
   <v>       0.09073705       0.05761547      -0.00224645 </v>
   <v>       0.09297971      -0.00213651      -0.00023917 </v>
   <v>      -0.04250150       0.00080413      -0.00349726 </v>
   <v>      -0.02001434       0.00083218      -0.00010957 </v>
   <v>      -0.07883599       0.00135143      -0.00116142 </v>
   <v>      -0.05826933      -0.07363131       0.00276983 </v>
   <v>       0.09120115      -0.05653394      -0.00234459 </v>
  </varray>
  <varray name="stress" >
   <v>      81.81448658      -0.03686382       0.25406208 </v>
   <v>      -0.03686384      81.06649468      -0.00597013 </v>
   <v>       0.25406211      -0.00597013      -2.47592781 </v>
  </varray>
  <energy>
   <i name="e_fr_energy">   -141.61318433 </i>
   <i name="e_wo_entrp">   -141.60903805 </i>
   <i name="e_0_energy">   -141.61111119 </i>
  </energy>
  <time name="totalsc">  120.70  121.68</time>
 </calculation>
 <calculation>
  <scstep>
   <time name="dav">    5.71    5.75</time>
   <time name="total">    6.04    6.09</time>
   <energy>
    <i name="alphaZ">     64.67582166 </i>
    <i name="ewald">   5683.00816648 </i>
    <i name="hartreedc">  -7734.50775998 </i>
    <i name="XCdc">    208.43360554 </i>
    <i name="pawpsdc">   6760.09528602 </i>
    <i name="pawaedc">  -6768.29676301 </i>
    <i name="eentropy">     -0.00171989 </i>
    <i name="bandstr">   -555.91795386 </i>
    <i name="atom">   2202.35892741 </i>
    <i name="e_fr_energy">   -140.15238965 </i>
    <i name="e_wo_entrp">   -140.15066976 </i>
    <i name="e_0_energy">   -140.15152971 </i>
   </energy>
  </scstep>
  <scstep>
   <time name="dav">    9.59    9.65</time>
   <time name="total">    9.93    9.99</time>
   <energy>
    <i name="e_fr_energy">   -140.07251368 </i>
    <i name="e_wo_entrp">   -140.07003403 </i>
    <i name="e_0_energy">   -140.07127385 </i>
   </energy>
  </scstep>
  <scstep>
   <time name="dav">   10.12   10.19</time>
   <time name="total">   10.46   10.54</time>
   <energy>
    <i name="e_fr_energy">   -140.06413504 </i>
    <i name="e_wo_entrp">   -140.06123835 </i>
    <i name="e_0_energy">   -140.06268670 </i>
   </energy>
  </scstep>
  <scstep>
   <time name="dav">    7.86    7.91</time>
   <time name="total">    8.19    8.25</time>
   <energy>
    <i name="e_fr_energy">   -140.06388092 </i>
    <i name="e_wo_entrp">   -140.06099642 </i>
    <i name="e_0_energy">   -140.06243867 </i>
   </energy>
  </scstep>
  <scstep>
   <time name="dav">    8.41    8.47</time>
   <time name="total">    8.75    8.81</time>
   <energy>
    <i name="e_fr_energy">   -140.06387762 </i>
    <i name="e_wo_entrp">   -140.06094969 </i>
    <i name="e_0_energy">   -140.06241366 </i>
   </energy>
  </scstep>
  <scstep>
   <time name="dav">    7.97    8.03</time>
   <time name="total">    8.30    8.38</time>
   <energy>
    <i name="e_fr_energy">   -140.06386700 </i>
    <i name="e_wo_entrp">   -140.06094786 </i>
    <i name="e_0_energy">   -140.06240743 </i>
   </energy>
  </scstep>
  <scstep>
   <time name="dav">    8.63    8.68</time>
   <time name="total">    8.97    9.03</time>
   <energy>
    <i name="e_fr_energy">   -140.06388174 </i>
    <i name="e_wo_entrp">   -140.06096335 </i>
    <i name="e_0_energy">   -140.06242255 </i>
   </energy>
  </scstep>
  <scstep>
   <time name="dav">    9.94   10.00</time>
   <time name="total">   10.27   10.35</time>
   <energy>
    <i name="e_fr_energy">   -140.06388987 </i>
    <i name="e_wo_entrp">   -140.06097040 </i>
    <i name="e_0_energy">   -140.06243013 </i>
   </energy>
  </scstep>
  <scstep>
   <time name="dav">    7.23    7.28</time>
   <time name="total">    7.56    7.62</time>
   <energy>
    <i name="e_fr_energy">   -140.06390702 </i>
    <i name="e_wo_entrp">   -140.06098552 </i>
    <i name="e_0_energy">   -140.06244627 </i>
   </energy>
  </scstep>
  <scstep>
   <time name="dav">    8.92    8.98</time>
   <time name="total">    9.26    9.33</time>
   <energy>
    <i name="e_fr_energy">   -140.06391679 </i>
    <i name="e_wo_entrp">   -140.06099507 </i>
    <i name="e_0_energy">   -140.06245593 </i>
   </energy>
  </scstep>
  <scstep>
   <time name="dav">    6.49    6.53</time>
   <time name="total">    6.82    6.88</time>
   <energy>
    <i name="e_fr_energy">   -140.06392538 </i>
    <i name="e_wo_entrp">   -140.06100346 </i>
    <i name="e_0_energy">   -140.06246442 </i>
   </energy>
  </scstep>
  <scstep>
   <time name="dav">   10.17   10.23</time>
   <time name="total">   10.20   10.27</time>
   <energy>
    <i name="alphaZ">     64.67582166 </i>
    <i name="ewald">   5683.00816648 </i>
    <i name="hartreedc">  -7738.36993789 </i>
    <i name="XCdc">    208.58695003 </i>
    <i name="pawpsdc">   6797.24181824 </i>
    <i name="pawaedc">  -6805.45413582 </i>
    <i name="eentropy">     -0.00292202 </i>
    <i name="bandstr">   -552.10861434 </i>
    <i name="atom">   2202.35892741 </i>
    <i name="e_fr_energy">   -140.06392625 </i>
    <i name="e_wo_entrp">   -140.06100423 </i>
    <i name="e_0_energy">   -140.06246524 </i>
   </energy>
  </scstep>
  <structure>
   <crystal>
    <varray name="basis" >
     <v>       4.29548600       2.48000000       0.00000000 </v>
     <v>      -4.29548600       2.48000000       0.00000000 </v>
     <v>       0.00000000       0.00000000      15.00000000 </v>
    </varray>
    <i name="volume">    319.58415861 </i>
    <varray name="rec_basis" >
     <v>       0.11640126       0.20161290       0.00000000 </v>
     <v>      -0.11640126       0.20161290       0.00000000 </v>
     <v>       0.00000000       0.00000000       0.06666667 </v>
    </varray>
   </crystal>
   <varray name="positions" >
    <v>       0.33835539       0.66914044       0.10003147 </v>
    <v>       0.67168699       0.33580965       0.10001842 </v>
    <v>       0.16514817       0.32280682       0.09998899 </v>
    <v>       0.32523934       0.16263910       0.09999644 </v>
    <v>       0.16512941       0.84239700       0.09999210 </v>
    <v>       0.84482878       0.16264157       0.09999179 </v>
    <v>       0.68469496       0.84232680       0.09998915 </v>
    <v>       0.84488619       0.68226231       0.09999649 </v>
    <v>       0.24996927       0.24990878       0.32634858 </v>
    <v>       0.41658215       0.08331989       0.32634612 </v>
    <v>       0.24995685       0.75004473       0.32631788 </v>
    <v>       0.41669241       0.58330588       0.32630849 </v>
    <v>       0.75000769       0.24998914       0.32630401 </v>
    <v>       0.91671218       0.08328515       0.32634291 </v>
    <v>       0.75009043       0.75003140       0.32634890 </v>
    <v>       0.91667847       0.58341669       0.32634494 </v>
   </varray>
  </structure>
  <varray name="forces" >
   <v>      -0.00074003       0.00033691       0.03094289 </v>
   <v>      -0.00079195       0.00011025       0.01735558 </v>
   <v>      -0.00453006      -0.00419004      -0.01040836 </v>
   <v>      -0.00428402       0.00080189      -0.00389685 </v>
   <v>      -0.00396449      -0.00086798      -0.00603790 </v>
   <v>       0.00577099       0.00093270      -0.00881579 </v>
   <v>      -0.00577846       0.00418821      -0.01027070 </v>
   <v>      -0.00520436      -0.00115990      -0.00378069 </v>
   <v>       0.00366388      -0.00302402       0.01595351 </v>
   <v>       0.00076057      -0.00230566       0.01236085 </v>
   <v>      -0.00233162      -0.00004190      -0.01527386 </v>
   <v>       0.00444319       0.00006030      -0.02561784 </v>
   <v>       0.00104595      -0.00011284      -0.02927305 </v>
   <v>       0.00758649       0.00002945       0.00931788 </v>
   <v>       0.00361606       0.00284650       0.01627645 </v>
   <v>       0.00073786       0.00239615       0.01116789 </v>
  </varray>
  <varray name="stress" >
   <v>      89.12752329      -0.01304218       0.32847840 </v>
   <v>      -0.01304217      88.80638656      -0.00813186 </v>
   <v>       0.32847840      -0.00813184      -2.47282341 </v>
  </varray>
  <energy>
   <i name="e_fr_energy">   -141.98405457 </i>
   <i name="e_wo_entrp">   -141.98113255 </i>
   <i name="e_0_energy">   -141.98259356 </i>
  </energy>
  <time name="totalsc">  109.89  110.72</time>
 </calculation>
 <calculation>
  <scstep>
   <time name="dav">    6.83    6.87</time>
   <time name="total">    7.15    7.21</time>
   <energy>
    <i name="alphaZ">     64.67582166 </i>
    <i name="ewald">   5683.01353684 </i>
    <i name="hartreedc">  -7738.37568712 </i>
    <i name="XCdc">    208.58703484 </i>
    <i name="pawpsdc">   6797.25208076 </i>
    <i name="pawaedc">  -6805.46438636 </i>
    <i name="eentropy">     -0.00292145 </i>
    <i name="bandstr">   -552.10833847 </i>
    <i name="atom">   2202.35892741 </i>
    <i name="e_fr_energy">   -140.06393188 </i>
    <i name="e_wo_entrp">   -140.06101043 </i>
    <i name="e_0_energy">   -140.06247115 </i>
   </energy>
  </scstep>
  <scstep>
   <time name="dav">   10.90   10.98</time>
   <time name="total">   10.94   11.01</time>
   <energy>
    <i name="alphaZ">     64.67582166 </i>
    <i name="ewald">   5683.01353684 </i>
    <i name="hartreedc">  -7738.37761805 </i>
    <i name="XCdc">    208.58709245 </i>
    <i name="pawpsdc">   6797.27139124 </i>
    <i name="pawaedc">  -6805.48370253 </i>
    <i name="eentropy">     -0.00292164 </i>
    <i name="bandstr">   -552.10645942 </i>
    <i name="atom">   2202.35892741 </i>
    <i name="e_fr_energy">   -140.06393204 </i>
    <i name="e_wo_entrp">   -140.06101040 </i>
    <i name="e_0_energy">   -140.06247122 </i>
   </energy>
  </scstep>
  <structure>
   <crystal>
    <varray name="basis" >
     <v>       4.29548600       2.48000000       0.00000000 </v>
     <v>      -4.29548600       2.48000000       0.00000000 </v>
     <v>       0.00000000       0.00000000      15.00000000 </v>
    </varray>
    <i name="volume">    319.58415861 </i>
    <varray name="rec_basis" >
     <v>       0.11640126       0.20161290       0.00000000 </v>
     <v>      -0.11640126       0.20161290       0.00000000 </v>
     <v>       0.00000000       0.00000000       0.06666667 </v>
    </varray>
   </crystal>
   <varray name="positions" >
    <v>       0.33835535       0.66914047       0.10003143 </v>
    <v>       0.67168694       0.33580969       0.10001839 </v>
    <v>       0.16514620       0.32280289       0.09998900 </v>
    <v>       0.32523551       0.16263718       0.09999645 </v>
    <v>       0.16512750       0.84239891       0.09999211 </v>
    <v>       0.84483076       0.16263960       0.09999180 </v>
    <v>       0.68469889       0.84232877       0.09998917 </v>
    <v>       0.84488812       0.68226614       0.09999649 </v>
    <v>       0.24996931       0.24990891       0.32634855 </v>
    <v>       0.41658227       0.08331991       0.32634610 </v>
    <v>       0.24995691       0.75004466       0.32631790 </v>
    <v>       0.41669237       0.58330592       0.32630853 </v>
    <v>       0.75000768       0.24998915       0.32630405 </v>
    <v>       0.91671211       0.08328521       0.32634289 </v>
    <v>       0.75009030       0.75003136       0.32634888 </v>
    <v>       0.91667845       0.58341657       0.32634492 </v>
   </varray>
  </structure>
  <varray name="forces" >
   <v>      -0.00071414       0.00033676       0.03095536 </v>
   <v>      -0.00075867       0.00011012       0.01736319 </v>
   <v>      -0.00515396      -0.00308861      -0.01041278 </v>
   <v>      -0.00366811       0.00186648      -0.00389693 </v>
   <v>      -0.00273276      -0.00086768      -0.00604295 </v>
   <v>       0.00449707       0.00093015      -0.00881710 </v>
   <v>      -0.00640162       0.00308937      -0.01027502 </v>
   <v>      -0.00459181      -0.00222447      -0.00378090 </v>
   <v>       0.00368705      -0.00305427       0.01595918 </v>
   <v>       0.00072443      -0.00232757       0.01236772 </v>
   <v>      -0.00236857      -0.00004106      -0.01528176 </v>
   <v>       0.00446372       0.00005988      -0.02562857 </v>
   <v>       0.00105775      -0.00011331      -0.02928735 </v>
   <v>       0.00761948       0.00002895       0.00932126 </v>
   <v>       0.00363851       0.00287758       0.01628242 </v>
   <v>       0.00070161       0.00241768       0.01117423 </v>
  </varray>
  <varray name="stress" >
   <v>      89.13446689      -0.01303565       0.32850690 </v>
   <v>      -0.01303568      88.81343140      -0.00813238 </v>
   <v>       0.32850691      -0.00813240      -2.46928336 </v>
  </varray>
  <energy>
   <i name="e_fr_energy">   -141.98405542 </i>
   <i name="e_wo_entrp">   -141.98113378 </i>
   <i name="e_0_energy">   -141.98259460 </i>
  </energy>
  <time name="totalsc">   23.24   23.42</time>
 </calculation>
 <calculation>
  <scstep>
   <time name="dav">    7.15    7.20</time>
   <time name="total">    7.48    7.54</time>
   <energy>
    <i name="alphaZ">     64.67582166 </i>
    <i name="ewald">   5683.01442259 </i>
    <i name="hartreedc">  -7738.37965247 </i>
    <i name="XCdc">    208.58712901 </i>
    <i name="pawpsdc">   6797.27826095 </i>
    <i name="pawaedc">  -6805.49057621 </i>
    <i name="eentropy">     -0.00292161 </i>
    <i name="bandstr">   -552.10534434 </i>
    <i name="atom">   2202.35892741 </i>
    <i name="e_fr_energy">   -140.06393302 </i>
    <i name="e_wo_entrp">   -140.06101141 </i>
    <i name="e_0_energy">   -140.06247222 </i>
   </energy>
  </scstep>
  <scstep>
   <time name="dav">    9.62    9.69</time>
   <time name="total">    9.66    9.73</time>
   <energy>
    <i name="alphaZ">     64.67582166 </i>
    <i name="ewald">   5683.01442259 </i>
    <i name="hartreedc">  -7738.38039236 </i>
    <i name="XCdc">    208.58713640 </i>
    <i name="pawpsdc">   6797.28134354 </i>
    <i name="pawaedc">  -6805.49365888 </i>
    <i name="eentropy">     -0.00292164 </i>
    <i name="bandstr">   -552.10461182 </i>
    <i name="atom">   2202.35892741 </i>
    <i name="e_fr_energy">   -140.06393311 </i>
    <i name="e_wo_entrp">   -140.06101147 </i>
    <i name="e_0_energy">   -140.06247229 </i>
   </energy>
  </scstep>
  <structure>
   <crystal>
    <varray name="basis" >
     <v>       4.29548600       2.48000000       0.00000000 </v>
     <v>      -4.29548600       2.48000000       0.00000000 </v>
     <v>       0.00000000       0.00000000      15.00000000 </v>
    </varray>
    <i name="volume">    319.58415861 </i>
    <varray name="rec_basis" >
     <v>       0.11640126       0.20161290       0.00000000 </v>
     <v>      -0.11640126       0.20161290       0.00000000 </v>
     <v>       0.00000000       0.00000000       0.06666667 </v>
    </varray>
   </crystal>
   <varray name="positions" >
    <v>       0.33835535       0.66914048       0.10003142 </v>
    <v>       0.67168693       0.33580970       0.10001839 </v>
    <v>       0.16514587       0.32280224       0.09998901 </v>
    <v>       0.32523488       0.16263686       0.09999645 </v>
    <v>       0.16512718       0.84239923       0.09999212 </v>
    <v>       0.84483108       0.16263928       0.09999180 </v>
    <v>       0.68469953       0.84232909       0.09998917 </v>
    <v>       0.84488844       0.68226677       0.09999649 </v>
    <v>       0.24996932       0.24990893       0.32634855 </v>
    <v>       0.41658229       0.08331991       0.32634609 </v>
    <v>       0.24995692       0.75004465       0.32631791 </v>
    <v>       0.41669237       0.58330592       0.32630853 </v>
    <v>       0.75000768       0.24998916       0.32630405 </v>
    <v>       0.91671210       0.08328522       0.32634289 </v>
    <v>       0.75009028       0.75003135       0.32634888 </v>
    <v>       0.91667845       0.58341655       0.32634492 </v>
   </varray>
  </structure>
  <varray name="forces" >
   <v>      -0.00070828       0.00033674       0.03095864 </v>
   <v>      -0.00075176       0.00011000       0.01736573 </v>
   <v>      -0.00532049      -0.00279752      -0.01041311 </v>
   <v>      -0.00350350       0.00215110      -0.00389653 </v>
   <v>      -0.00240405      -0.00086751      -0.00604350 </v>
   <v>       0.00416022       0.00092957      -0.00881740 </v>
   <v>      -0.00656799       0.00279877      -0.01027536 </v>
   <v>      -0.00442799      -0.00250902      -0.00378049 </v>
   <v>       0.00369246      -0.00306165       0.01595835 </v>
   <v>       0.00071644      -0.00233339       0.01236700 </v>
   <v>      -0.00237778      -0.00004092      -0.01528224 </v>
   <v>       0.00446796       0.00005983      -0.02562892 </v>
   <v>       0.00105917      -0.00011342      -0.02928829 </v>
   <v>       0.00762822       0.00002889       0.00932091 </v>
   <v>       0.00364378       0.00288509       0.01628165 </v>
   <v>       0.00069359       0.00242345       0.01117354 </v>
  </varray>
  <varray name="stress" >
   <v>      89.13449664      -0.01303336       0.32850857 </v>
   <v>      -0.01303337      88.81349474      -0.00813200 </v>
   <v>       0.32850860      -0.00813200      -2.47186378 </v>
  </varray>
  <energy>
   <i name="e_fr_energy">   -141.98405567 </i>
   <i name="e_wo_entrp">   -141.98113403 </i>
   <i name="e_0_energy">   -141.98259485 </i>
  </energy>
  <time name="totalsc">   22.28   22.45</time>
 </calculation>
 <calculation>
  <scstep>
   <time name="dav">    5.67    5.70</time>
   <time name="total">    5.99    6.04</time>
   <energy>
    <i name="alphaZ">     64.67582166 </i>
    <i name="ewald">   5682.98732857 </i>
    <i name="hartreedc">  -7738.35312283 </i>
    <i name="XCdc">    208.58735457 </i>
    <i name="pawpsdc">   6797.28557040 </i>
    <i name="pawaedc">  -6805.49788503 </i>
    <i name="eentropy">     -0.00292073 </i>
    <i name="bandstr">   -552.10509916 </i>
    <i name="atom">   2202.35892741 </i>
    <i name="e_fr_energy">   -140.06402513 </i>
    <i name="e_wo_entrp">   -140.06110441 </i>
    <i name="e_0_energy">   -140.06256477 </i>
   </energy>
  </scstep>
  <scstep>
   <time name="dav">   10.62   10.69</time>
   <time name="total">   10.94   11.02</time>
   <energy>
    <i name="e_fr_energy">   -140.06402562 </i>
    <i name="e_wo_entrp">   -140.06110601 </i>
    <i name="e_0_energy">   -140.06256582 </i>
   </energy>
  </scstep>
  <scstep>
   <time name="dav">    5.69    5.73</time>
   <time name="total">    6.01    6.07</time>
   <energy>
    <i name="e_fr_energy">   -140.06402818 </i>
    <i name="e_wo_entrp">   -140.06110985 </i>
    <i name="e_0_energy">   -140.06256901 </i>
   </energy>
  </scstep>
  <scstep>
   <time name="dav">   10.90   10.97</time>
   <time name="total">   10.94   11.00</time>
   <energy>
    <i name="alphaZ">     64.67582166 </i>
    <i name="ewald">   5682.98732857 </i>
    <i name="hartreedc">  -7738.33985055 </i>
    <i name="XCdc">    208.58729167 </i>
    <i name="pawpsdc">   6797.26079642 </i>
    <i name="pawaedc">  -6805.47310003 </i>
    <i name="eentropy">     -0.00291827 </i>
    <i name="bandstr">   -552.11832503 </i>
    <i name="atom">   2202.35892741 </i>
    <i name="e_fr_energy">   -140.06402815 </i>
    <i name="e_wo_entrp">   -140.06110988 </i>
    <i name="e_0_energy">   -140.06256901 </i>
   </energy>
  </scstep>
  <structure>
   <crystal>
    <varray name="basis" >
     <v>       4.29548600       2.48000000       0.00000000 </v>
     <v>      -4.29548600       2.48000000       0.00000000 </v>
     <v>       0.00000000       0.00000000      15.00000000 </v>
    </varray>
    <i name="volume">    319.58415861 </i>
    <varray name="rec_basis" >
     <v>       0.11640126       0.20161290       0.00000000 </v>
     <v>      -0.11640126       0.20161290       0.00000000 </v>
     <v>       0.00000000       0.00000000       0.06666667 </v>
    </varray>
   </crystal>
   <varray name="positions" >
    <v>       0.33835480       0.66914657       0.10011587 </v>
    <v>       0.67168433       0.33581412       0.10006576 </v>
    <v>       0.16510041       0.32281031       0.09996060 </v>
    <v>       0.32524161       0.16267412       0.09998582 </v>
    <v>       0.16511142       0.84240069       0.09997563 </v>
    <v>       0.84485562       0.16263005       0.09996775 </v>
    <v>       0.68468554       0.84238051       0.09996114 </v>
    <v>       0.84484382       0.68226150       0.09998618 </v>
    <v>       0.24996159       0.24986593       0.32639208 </v>
    <v>       0.41656629       0.08329724       0.32637983 </v>
    <v>       0.24994517       0.75005573       0.32627622 </v>
    <v>       0.41671418       0.58328510       0.32623862 </v>
    <v>       0.75001180       0.24998316       0.32622416 </v>
    <v>       0.91674874       0.08324906       0.32636832 </v>
    <v>       0.75013159       0.75003786       0.32639329 </v>
    <v>       0.91670175       0.58343340       0.32637540 </v>
   </varray>
  </structure>
  <varray name="forces" >
   <v>      -0.00786661      -0.00104037       0.01677734 </v>
   <v>       0.00130527       0.00012233       0.01144788 </v>
   <v>       0.00999315       0.00981857      -0.00387703 </v>
   <v>      -0.00255058      -0.00749657      -0.00353074 </v>
   <v>      -0.00770355       0.00067303       0.00077407 </v>
   <v>      -0.01795109      -0.00091981      -0.00849599 </v>
   <v>       0.00965611      -0.00695804      -0.00372773 </v>
   <v>      -0.00413529       0.00593390      -0.00341278 </v>
   <v>       0.00070185       0.00659080       0.00684768 </v>
   <v>       0.00511143       0.00500309      -0.00011253 </v>
   <v>       0.01332984       0.00009897      -0.00623449 </v>
   <v>      -0.00293422      -0.00025620      -0.00928260 </v>
   <v>       0.00642670       0.00025815      -0.00685883 </v>
   <v>      -0.00932445      -0.00018548       0.00345257 </v>
   <v>       0.00079387      -0.00622107       0.00680428 </v>
   <v>       0.00514757      -0.00542130      -0.00057109 </v>
  </varray>
  <varray name="stress" >
   <v>      89.07766315      -0.00377680       0.32416556 </v>
   <v>      -0.00377678      88.88393583      -0.00790414 </v>
   <v>       0.32416556      -0.00790414      -2.49247095 </v>
  </varray>
  <energy>
   <i name="e_fr_energy">   -141.98417557 </i>
   <i name="e_wo_entrp">   -141.98125730 </i>
   <i name="e_0_energy">   -141.98271644 </i>
  </energy>
  <time name="totalsc">   39.04   39.33</time>
 </calculation>
 <calculation>
  <scstep>
   <time name="dav">    5.67    5.72</time>
   <time name="total">    5.99    6.05</time>
   <energy>
    <i name="alphaZ">     64.67582166 </i>
    <i name="ewald">   5682.97581674 </i>
    <i name="hartreedc">  -7738.32570107 </i>
    <i name="XCdc">    208.58734963 </i>
    <i name="pawpsdc">   6797.26593841 </i>
    <i name="pawaedc">  -6805.47824354 </i>
    <i name="eentropy">     -0.00291777 </i>
    <i name="bandstr">   -552.12101998 </i>
    <i name="atom">   2202.35892741 </i>
    <i name="e_fr_energy">   -140.06402851 </i>
    <i name="e_wo_entrp">   -140.06111074 </i>
    <i name="e_0_energy">   -140.06256963 </i>
   </energy>
  </scstep>
  <scstep>
   <time name="dav">    9.55    9.60</time>
   <time name="total">    9.87    9.94</time>
   <energy>
    <i name="e_fr_energy">   -140.06402832 </i>
    <i name="e_wo_entrp">   -140.06111105 </i>
    <i name="e_0_energy">   -140.06256969 </i>
   </energy>
  </scstep>
  <scstep>
   <time name="dav">    5.90    5.94</time>
   <time name="total">    5.94    5.98</time>
   <energy>
    <i name="alphaZ">     64.67582166 </i>
    <i name="ewald">   5682.97581674 </i>
    <i name="hartreedc">  -7738.31717988 </i>
    <i name="XCdc">    208.58730322 </i>
    <i name="pawpsdc">   6797.27125066 </i>
    <i name="pawaedc">  -6805.48355595 </i>
    <i name="eentropy">     -0.00291667 </i>
    <i name="bandstr">   -552.12949638 </i>
    <i name="atom">   2202.35892741 </i>
    <i name="e_fr_energy">   -140.06402919 </i>
    <i name="e_wo_entrp">   -140.06111252 </i>
    <i name="e_0_energy">   -140.06257086 </i>
   </energy>
  </scstep>
  <structure>
   <crystal>
    <varray name="basis" >
     <v>       4.29548600       2.48000000       0.00000000 </v>
     <v>      -4.29548600       2.48000000       0.00000000 </v>
     <v>       0.00000000       0.00000000      15.00000000 </v>
    </varray>
    <i name="volume">    319.58415861 </i>
    <varray name="rec_basis" >
     <v>       0.11640126       0.20161290       0.00000000 </v>
     <v>      -0.11640126       0.20161290       0.00000000 </v>
     <v>       0.00000000       0.00000000       0.06666667 </v>
    </varray>
   </crystal>
   <varray name="positions" >
    <v>       0.33835459       0.66914899       0.10014941 </v>
    <v>       0.67168330       0.33581587       0.10008457 </v>
    <v>       0.16508235       0.32281352       0.09994932 </v>
    <v>       0.32524428       0.16268891       0.09998160 </v>
    <v>       0.16510516       0.84240127       0.09996908 </v>
    <v>       0.84486537       0.16262638       0.09995820 </v>
    <v>       0.68467998       0.84240093       0.09995001 </v>
    <v>       0.84482610       0.68225941       0.09998209 </v>
    <v>       0.24995852       0.24984885       0.32640937 </v>
    <v>       0.41655994       0.08328824       0.32639323 </v>
    <v>       0.24994051       0.75006012       0.32625966 </v>
    <v>       0.41672284       0.58327683       0.32621086 </v>
    <v>       0.75001344       0.24998078       0.32619243 </v>
    <v>       0.91676329       0.08323470       0.32637841 </v>
    <v>       0.75014800       0.75004044       0.32641093 </v>
    <v>       0.91671100       0.58344009       0.32638751 </v>
   </varray>
  </structure>
  <varray name="forces" >
   <v>      -0.01087148      -0.00157141       0.01112618 </v>
   <v>       0.00191400       0.00011432       0.00908110 </v>
   <v>       0.01622185       0.01488037      -0.00126497 </v>
   <v>      -0.00207969      -0.01133480      -0.00336975 </v>
   <v>      -0.00980231       0.00130074       0.00353797 </v>
   <v>      -0.02675064      -0.00167370      -0.00838467 </v>
   <v>       0.01622562      -0.01087001      -0.00111942 </v>
   <v>      -0.00393366       0.00928570      -0.00324962 </v>
   <v>      -0.00068916       0.01061518       0.00314252 </v>
   <v>       0.00703605       0.00811400      -0.00510637 </v>
   <v>       0.01985886       0.00015320      -0.00258642 </v>
   <v>      -0.00597290      -0.00038520      -0.00271492 </v>
   <v>       0.00862349       0.00040565       0.00217174 </v>
   <v>      -0.01633671      -0.00026932       0.00105201 </v>
   <v>      -0.00053864      -0.01003021       0.00295432 </v>
   <v>       0.00709532      -0.00873449      -0.00526971 </v>
  </varray>
  <varray name="stress" >
   <v>      89.05538490      -0.00015570       0.32225222 </v>
   <v>      -0.00015568      88.91044304      -0.00782316 </v>
   <v>       0.32225219      -0.00782312      -2.49764224 </v>
  </varray>
  <energy>
   <i name="e_fr_energy">   -141.98418654 </i>
   <i name="e_wo_entrp">   -141.98126987 </i>
   <i name="e_0_energy">   -141.98272820 </i>
  </energy>
  <time name="totalsc">   26.93   27.14</time>
 </calculation>
 <calculation>
  <scstep>
   <time name="dav">    5.73    5.77</time>
   <time name="total">    6.06    6.11</time>
   <energy>
    <i name="alphaZ">     64.67582166 </i>
    <i name="ewald">   5683.01655447 </i>
    <i name="hartreedc">  -7738.35671873 </i>
    <i name="XCdc">    208.58739767 </i>
    <i name="pawpsdc">   6797.26884503 </i>
    <i name="pawaedc">  -6805.48115037 </i>
    <i name="eentropy">     -0.00291228 </i>
    <i name="bandstr">   -552.13074745 </i>
    <i name="atom">   2202.35892741 </i>
    <i name="e_fr_energy">   -140.06398260 </i>
    <i name="e_wo_entrp">   -140.06107032 </i>
    <i name="e_0_energy">   -140.06252646 </i>
   </energy>
  </scstep>
  <scstep>
   <time name="dav">    6.16    6.20</time>
   <time name="total">    6.48    6.53</time>
   <energy>
    <i name="e_fr_energy">   -140.06398190 </i>
    <i name="e_wo_entrp">   -140.06107024 </i>
    <i name="e_0_energy">   -140.06252607 </i>
   </energy>
  </scstep>
  <scstep>
   <time name="dav">    6.93    6.98</time>
   <time name="total">    7.26    7.32</time>
   <energy>
    <i name="e_fr_energy">   -140.06398143 </i>
    <i name="e_wo_entrp">   -140.06107066 </i>
    <i name="e_0_energy">   -140.06252604 </i>
   </energy>
  </scstep>
  <scstep>
   <time name="dav">   10.44   10.51</time>
   <time name="total">   10.47   10.54</time>
   <energy>
    <i name="alphaZ">     64.67582166 </i>
    <i name="ewald">   5683.01655447 </i>
    <i name="hartreedc">  -7738.33927999 </i>
    <i name="XCdc">    208.58725029 </i>
    <i name="pawpsdc">   6797.17924218 </i>
    <i name="pawaedc">  -6805.39152389 </i>
    <i name="eentropy">     -0.00291059 </i>
    <i name="bandstr">   -552.14806302 </i>
    <i name="atom">   2202.35892741 </i>
    <i name="e_fr_energy">   -140.06398148 </i>
    <i name="e_wo_entrp">   -140.06107089 </i>
    <i name="e_0_energy">   -140.06252618 </i>
   </energy>
  </scstep>
  <structure>
   <crystal>
    <varray name="basis" >
     <v>       4.29548600       2.48000000       0.00000000 </v>
     <v>      -4.29548600       2.48000000       0.00000000 </v>
     <v>       0.00000000       0.00000000      15.00000000 </v>
    </varray>
    <i name="volume">    319.58415861 </i>
    <varray name="rec_basis" >
     <v>       0.11640126       0.20161290       0.00000000 </v>
     <v>      -0.11640126       0.20161290       0.00000000 </v>
     <v>       0.00000000       0.00000000       0.06666667 </v>
    </varray>
   </crystal>
   <varray name="positions" >
    <v>       0.33830645       0.66918132       0.10022255 </v>
    <v>       0.67168916       0.33581249       0.10013132 </v>
    <v>       0.16520275       0.32285197       0.09992971 </v>
    <v>       0.32517196       0.16264955       0.09996843 </v>
    <v>       0.16506914       0.84244454       0.09996630 </v>
    <v>       0.84477583       0.16270473       0.09992686 </v>
    <v>       0.68466242       0.84230854       0.09993092 </v>
    <v>       0.84484204       0.68232664       0.09996935 </v>
    <v>       0.25001612       0.24989011       0.32644185 </v>
    <v>       0.41662450       0.08329930       0.32640321 </v>
    <v>       0.25000424       0.74999786       0.32622941 </v>
    <v>       0.41671259       0.58328298       0.32616339 </v>
    <v>       0.75004872       0.24994931       0.32614881 </v>
    <v>       0.91672620       0.08326879       0.32639581 </v>
    <v>       0.75010982       0.74998514       0.32644356 </v>
    <v>       0.91669675       0.58337205       0.32639520 </v>
   </varray>
  </structure>
  <varray name="forces" >
   <v>       0.00352703       0.00274718       0.00045042 </v>
   <v>      -0.02319060      -0.00114212       0.00190748 </v>
   <v>      -0.03524656      -0.02446802       0.00131900 </v>
   <v>       0.01212872       0.01638241       0.00009764 </v>
   <v>       0.00345958      -0.00384511       0.00655135 </v>
   <v>       0.04121211       0.00500606      -0.00548920 </v>
   <v>      -0.03580442       0.01652636       0.00150698 </v>
   <v>       0.01494527      -0.01107118       0.00021949 </v>
   <v>       0.00174858      -0.00869647      -0.00478140 </v>
   <v>       0.00178486      -0.00629736      -0.00956114 </v>
   <v>      -0.01470943      -0.00037015       0.00157424 </v>
   <v>       0.01222222       0.00048839       0.00892543 </v>
   <v>      -0.00584343      -0.00056742       0.01288999 </v>
   <v>       0.02039706       0.00039053      -0.00121860 </v>
   <v>       0.00161710       0.00775354      -0.00514015 </v>
   <v>       0.00175190       0.00716333      -0.00925152 </v>
  </varray>
  <varray name="stress" >
   <v>      89.30863707      -0.03739579       0.32081326 </v>
   <v>      -0.03739579      88.65396304      -0.00770130 </v>
   <v>       0.32081327      -0.00770131      -2.50823435 </v>
  </varray>
  <energy>
   <i name="e_fr_energy">   -141.98417852 </i>
   <i name="e_wo_entrp">   -141.98126792 </i>
   <i name="e_0_energy">   -141.98272322 </i>
  </energy>
  <time name="totalsc">   35.42   35.69</time>
 </calculation>
 <calculation>
  <scstep>
   <time name="dav">    6.27    6.31</time>
   <time name="total">    6.60    6.65</time>
   <energy>
    <i name="alphaZ">     64.67582166 </i>
    <i name="ewald">   5682.99498400 </i>
    <i name="hartreedc">  -7738.31279906 </i>
    <i name="XCdc">    208.58717484 </i>
    <i name="pawpsdc">   6797.20706014 </i>
    <i name="pawaedc">  -6805.41934982 </i>
    <i name="eentropy">     -0.00291270 </i>
    <i name="bandstr">   -552.15294341 </i>
    <i name="atom">   2202.35892741 </i>
    <i name="e_fr_energy">   -140.06403695 </i>
    <i name="e_wo_entrp">   -140.06112425 </i>
    <i name="e_0_energy">   -140.06258060 </i>
   </energy>
  </scstep>
  <scstep>
   <time name="dav">    5.89    5.93</time>
   <time name="total">    6.22    6.27</time>
   <energy>
    <i name="e_fr_energy">   -140.06403618 </i>
    <i name="e_wo_entrp">   -140.06112323 </i>
    <i name="e_0_energy">   -140.06257970 </i>
   </energy>
  </scstep>
  <scstep>
   <time name="dav">    6.19    6.24</time>
   <time name="total">    6.23    6.28</time>
   <energy>
    <i name="alphaZ">     64.67582166 </i>
    <i name="ewald">   5682.99498400 </i>
    <i name="hartreedc">  -7738.31315089 </i>
    <i name="XCdc">    208.58719393 </i>
    <i name="pawpsdc">   6797.29769050 </i>
    <i name="pawaedc">  -6805.51000057 </i>
    <i name="eentropy">     -0.00291332 </i>
    <i name="bandstr">   -552.15258876 </i>
    <i name="atom">   2202.35892741 </i>
    <i name="e_fr_energy">   -140.06403605 </i>
    <i name="e_wo_entrp">   -140.06112273 </i>
    <i name="e_0_energy">   -140.06257939 </i>
   </energy>
  </scstep>
  <structure>
   <crystal>
    <varray name="basis" >
     <v>       4.29548600       2.48000000       0.00000000 </v>
     <v>      -4.29548600       2.48000000       0.00000000 </v>
     <v>       0.00000000       0.00000000      15.00000000 </v>
    </varray>
    <i name="volume">    319.58415861 </i>
[...]
       <r>     2.5483     1.4338    34.2298 </r>
       <r>     2.6530     1.3978    34.3760 </r>
       <r>     2.7576     1.3463    34.5169 </r>
       <r>     2.8622     1.4609    34.6697 </r>
       <r>     2.9669     1.6606    34.8435 </r>
       <r>     3.0715     1.3893    34.9889 </r>
       <r>     3.1761     1.0247    35.0961 </r>
       <r>     3.2808     1.5318    35.2564 </r>
       <r>     3.3854     1.5025    35.4136 </r>
       <r>     3.4900     1.0815    35.5267 </r>
       <r>     3.5947     1.5259    35.6864 </r>
       <r>     3.6993     1.8838    35.8835 </r>
       <r>     3.8039     1.3936    36.0293 </r>
       <r>     3.9086     1.0888    36.1432 </r>
       <r>     4.0132     1.9870    36.3511 </r>
       <r>     4.1178     2.4356    36.6060 </r>
       <r>     4.2224     1.5498    36.7682 </r>
       <r>     4.3271     0.9964    36.8724 </r>
       <r>     4.4317     2.0630    37.0883 </r>
       <r>     4.5363     2.5970    37.3600 </r>
       <r>     4.6410     2.2739    37.5979 </r>
       <r>     4.7456     1.6684    37.7725 </r>
       <r>     4.8502     1.6470    37.9448 </r>
       <r>     4.9549     2.2211    38.1772 </r>
       <r>     5.0595     2.3231    38.4203 </r>
       <r>     5.1641     2.1295    38.6431 </r>
       <r>     5.2688     2.1226    38.8652 </r>
       <r>     5.3734     1.8950    39.0635 </r>
       <r>     5.4780     2.1321    39.2866 </r>
       <r>     5.5827     2.7577    39.5751 </r>
       <r>     5.6873     2.4573    39.8322 </r>
       <r>     5.7919     1.8714    40.0281 </r>
       <r>     5.8966     1.5857    40.1940 </r>
       <r>     6.0012     1.7394    40.3760 </r>
       <r>     6.1058     2.0129    40.5866 </r>
       <r>     6.2105     2.0937    40.8057 </r>
       <r>     6.3151     2.2639    41.0425 </r>
       <r>     6.4197     2.6883    41.3238 </r>
       <r>     6.5244     3.0699    41.6450 </r>
       <r>     6.6290     2.1946    41.8747 </r>
       <r>     6.7336     2.3310    42.1186 </r>
       <r>     6.8383     3.4061    42.4750 </r>
       <r>     6.9429     3.1907    42.8088 </r>
       <r>     7.0475     2.8216    43.1040 </r>
       <r>     7.1522     2.9801    43.4159 </r>
       <r>     7.2568     3.9709    43.8313 </r>
       <r>     7.3614     4.7109    44.3243 </r>
       <r>     7.4661     4.4886    44.7939 </r>
       <r>     7.5707     5.0450    45.3218 </r>
       <r>     7.6753     4.2663    45.7682 </r>
       <r>     7.7800     3.6001    46.1449 </r>
       <r>     7.8846     4.4890    46.6146 </r>
       <r>     7.9892     4.8549    47.1225 </r>
       <r>     8.0939     3.8717    47.5276 </r>
       <r>     8.1985     2.3572    47.7743 </r>
       <r>     8.3031     1.0986    47.8892 </r>
       <r>     8.4078     0.5170    47.9433 </r>
       <r>     8.5124     0.4308    47.9884 </r>
       <r>     8.6170     0.1067    47.9996 </r>
       <r>     8.7216     0.0043    48.0000 </r>
       <r>     8.8263     0.0000    48.0000 </r>
       <r>     8.9309     0.0000    48.0000 </r>
       <r>     9.0355     0.0000    48.0000 </r>
       <r>     9.1402     0.0000    48.0000 </r>
       <r>     9.2448     0.0000    48.0000 </r>
       <r>     9.3494     0.0000    48.0000 </r>
       <r>     9.4541     0.0000    48.0000 </r>
       <r>     9.5587     0.0000    48.0000 </r>
       <r>     9.6633     0.0000    48.0000 </r>
       <r>     9.7680     0.0000    48.0000 </r>
       <r>     9.8726     0.0000    48.0000 </r>
      </set>
      <set comment="spin 2">
       <r>   -21.5172     0.0000     0.0000 </r>
       <r>   -21.4125     0.0000     0.0000 </r>
       <r>   -21.3079     0.0000     0.0000 </r>
       <r>   -21.2033     0.0000     0.0000 </r>
       <r>   -21.0986     0.0000     0.0000 </r>
       <r>   -20.9940     0.0000     0.0000 </r>
       <r>   -20.8894     0.0000     0.0000 </r>
       <r>   -20.7847     0.0000     0.0000 </r>
       <r>   -20.6801     0.0000     0.0000 </r>
       <r>   -20.5755     0.0000     0.0000 </r>
       <r>   -20.4708     0.0000     0.0000 </r>
       <r>   -20.3662     0.0000     0.0000 </r>
       <r>   -20.2616     0.0011     0.0001 </r>
       <r>   -20.1569     0.0380     0.0041 </r>
       <r>   -20.0523     0.2638     0.0317 </r>
       <r>   -19.9477     0.5495     0.0892 </r>
       <r>   -19.8430     0.6062     0.1526 </r>
       <r>   -19.7384     0.6491     0.2205 </r>
       <r>   -19.6338     0.5656     0.2797 </r>
       <r>   -19.5291     0.7130     0.3543 </r>
       <r>   -19.4245     0.5420     0.4110 </r>
       <r>   -19.3199     0.6131     0.4752 </r>
       <r>   -19.2152     0.7723     0.5560 </r>
       <r>   -19.1106     0.4691     0.6051 </r>
       <r>   -19.0060     0.5941     0.6672 </r>
       <r>   -18.9013     0.8110     0.7521 </r>
       <r>   -18.7967     0.6235     0.8173 </r>
       <r>   -18.6921     0.3780     0.8569 </r>
       <r>   -18.5874     0.7373     0.9340 </r>
       <r>   -18.4828     0.8462     1.0226 </r>
       <r>   -18.3782     0.5521     1.0803 </r>
       <r>   -18.2735     0.4583     1.1283 </r>
       <r>   -18.1689     0.6821     1.1997 </r>
       <r>   -18.0643     1.5251     1.3592 </r>
       <r>   -17.9597     1.5366     1.5200 </r>
       <r>   -17.8550     1.3197     1.6581 </r>
       <r>   -17.7504     1.5348     1.8187 </r>
       <r>   -17.6458     1.8132     2.0084 </r>
       <r>   -17.5411     2.4530     2.2651 </r>
       <r>   -17.4365     2.6410     2.5414 </r>
       <r>   -17.3319     1.6984     2.7191 </r>
       <r>   -17.2272     0.5703     2.7788 </r>
       <r>   -17.1226     0.7472     2.8570 </r>
       <r>   -17.0180     0.9162     2.9528 </r>
       <r>   -16.9133     0.7761     3.0340 </r>
       <r>   -16.8087     0.6267     3.0996 </r>
       <r>   -16.7041     0.5227     3.1543 </r>
       <r>   -16.5994     0.2738     3.1830 </r>
       <r>   -16.4948     0.7632     3.2628 </r>
       <r>   -16.3902     1.1461     3.3827 </r>
       <r>   -16.2855     0.6716     3.4530 </r>
       <r>   -16.1809     0.5729     3.5129 </r>
       <r>   -16.0763     0.5249     3.5678 </r>
       <r>   -15.9716     0.5079     3.6210 </r>
       <r>   -15.8670     0.5336     3.6768 </r>
       <r>   -15.7624     1.4774     3.8314 </r>
       <r>   -15.6577     2.0517     4.0461 </r>
       <r>   -15.5531     1.9109     4.2460 </r>
       <r>   -15.4485     1.9069     4.4456 </r>
       <r>   -15.3438     1.4444     4.5967 </r>
       <r>   -15.2392     1.4352     4.7469 </r>
       <r>   -15.1346     1.6950     4.9242 </r>
       <r>   -15.0299     2.1925     5.1536 </r>
       <r>   -14.9253     1.8264     5.3447 </r>
       <r>   -14.8207     1.8097     5.5341 </r>
       <r>   -14.7160     1.4494     5.6857 </r>
       <r>   -14.6114     1.2109     5.8124 </r>
       <r>   -14.5068     1.6882     5.9891 </r>
       <r>   -14.4021     2.6841     6.2699 </r>
       <r>   -14.2975     1.9866     6.4778 </r>
       <r>   -14.1929     1.1281     6.5958 </r>
       <r>   -14.0882     0.8269     6.6823 </r>
       <r>   -13.9836     0.8771     6.7741 </r>
       <r>   -13.8790     0.9815     6.8768 </r>
       <r>   -13.7743     0.9706     6.9784 </r>
       <r>   -13.6697     0.7911     7.0611 </r>
       <r>   -13.5651     0.5784     7.1217 </r>
       <r>   -13.4605     0.5558     7.1798 </r>
       <r>   -13.3558     0.6867     7.2516 </r>
       <r>   -13.2512     0.6185     7.3164 </r>
       <r>   -13.1466     0.8922     7.4097 </r>
       <r>   -13.0419     0.9081     7.5047 </r>
       <r>   -12.9373     0.7419     7.5824 </r>
       <r>   -12.8327     1.1212     7.6997 </r>
       <r>   -12.7280     0.8163     7.7851 </r>
       <r>   -12.6234     0.7413     7.8627 </r>
       <r>   -12.5188     0.7137     7.9373 </r>
       <r>   -12.4141     0.4021     7.9794 </r>
       <r>   -12.3095     1.1177     8.0963 </r>
       <r>   -12.2049     1.2360     8.2257 </r>
       <r>   -12.1002     0.9993     8.3302 </r>
       <r>   -11.9956     1.6434     8.5022 </r>
       <r>   -11.8910     1.9041     8.7014 </r>
       <r>   -11.7863     2.1761     8.9291 </r>
       <r>   -11.6817     1.8590     9.1236 </r>
       <r>   -11.5771     1.9041     9.3229 </r>
       <r>   -11.4724     1.6726     9.4979 </r>
       <r>   -11.3678     0.9168     9.5938 </r>
       <r>   -11.2632     1.1022     9.7091 </r>
       <r>   -11.1585     1.6627     9.8831 </r>
       <r>   -11.0539     1.6602    10.0568 </r>
       <r>   -10.9493     0.7783    10.1382 </r>
       <r>   -10.8446     0.9053    10.2329 </r>
       <r>   -10.7400     1.6562    10.4062 </r>
       <r>   -10.6354     2.2349    10.6401 </r>
       <r>   -10.5307     1.3945    10.7860 </r>
       <r>   -10.4261     0.5857    10.8473 </r>
       <r>   -10.3215     1.3145    10.9848 </r>
       <r>   -10.2168     2.4935    11.2457 </r>
       <r>   -10.1122     2.1269    11.4683 </r>
       <r>   -10.0076     1.1520    11.5888 </r>
       <r>    -9.9029     0.7874    11.6712 </r>
       <r>    -9.7983     0.8545    11.7606 </r>
       <r>    -9.6937     1.6237    11.9305 </r>
       <r>    -9.5890     1.8924    12.1285 </r>
       <r>    -9.4844     1.3780    12.2727 </r>
       <r>    -9.3798     0.7056    12.3465 </r>
       <r>    -9.2751     0.8214    12.4325 </r>
       <r>    -9.1705     1.3277    12.5714 </r>
       <r>    -9.0659     0.7971    12.6548 </r>
       <r>    -8.9613     0.9403    12.7532 </r>
       <r>    -8.8566     1.7574    12.9370 </r>
       <r>    -8.7520     1.9479    13.1409 </r>
       <r>    -8.6474     1.7532    13.3243 </r>
       <r>    -8.5427     1.2716    13.4574 </r>
       <r>    -8.4381     1.2065    13.5836 </r>
       <r>    -8.3335     1.9455    13.7872 </r>
       <r>    -8.2288     2.3986    14.0381 </r>
       <r>    -8.1242     2.9109    14.3427 </r>
       <r>    -8.0196     2.8741    14.6434 </r>
       <r>    -7.9149     1.8738    14.8395 </r>
       <r>    -7.8103     1.3416    14.9799 </r>
       <r>    -7.7057     2.2751    15.2179 </r>
       <r>    -7.6010     3.5534    15.5897 </r>
       <r>    -7.4964     3.1464    15.9189 </r>
       <r>    -7.3918     2.5486    16.1856 </r>
       <r>    -7.2871     2.5898    16.4566 </r>
       <r>    -7.1825     2.5708    16.7256 </r>
       <r>    -7.0779     3.1113    17.0511 </r>
       <r>    -6.9732     3.3687    17.4036 </r>
       <r>    -6.8686     3.3098    17.7499 </r>
       <r>    -6.7640     2.7011    18.0325 </r>
       <r>    -6.6593     3.0693    18.3537 </r>
       <r>    -6.5547     3.2962    18.6985 </r>
       <r>    -6.4501     3.0792    19.0207 </r>
       <r>    -6.3454     2.9799    19.3325 </r>
       <r>    -6.2408     2.9236    19.6384 </r>
       <r>    -6.1362     3.0164    19.9540 </r>
       <r>    -6.0315     2.7367    20.2404 </r>
       <r>    -5.9269     2.4508    20.4968 </r>
       <r>    -5.8223     2.2301    20.7302 </r>
       <r>    -5.7176     2.1850    20.9588 </r>
       <r>    -5.6130     3.3135    21.3055 </r>
       <r>    -5.5084     2.8802    21.6068 </r>
       <r>    -5.4037     2.4222    21.8603 </r>
       <r>    -5.2991     3.1072    22.1854 </r>
       <r>    -5.1945     3.4019    22.5413 </r>
       <r>    -5.0898     2.2384    22.7756 </r>
       <r>    -4.9852     1.0955    22.8902 </r>
       <r>    -4.8806     1.4027    23.0370 </r>
       <r>    -4.7760     2.5530    23.3041 </r>
       <r>    -4.6713     3.0747    23.6258 </r>
       <r>    -4.5667     2.1922    23.8552 </r>
       <r>    -4.4621     1.9046    24.0545 </r>
       <r>    -4.3574     2.7009    24.3371 </r>
       <r>    -4.2528     3.3868    24.6914 </r>
       <r>    -4.1482     3.5035    25.0580 </r>
       <r>    -4.0435     3.9568    25.4720 </r>
       <r>    -3.9389     4.0552    25.8963 </r>
       <r>    -3.8343     3.4692    26.2593 </r>
       <r>    -3.7296     2.7269    26.5446 </r>
       <r>    -3.6250     1.6979    26.7223 </r>
       <r>    -3.5204     1.8857    26.9196 </r>
       <r>    -3.4157     2.2333    27.1533 </r>
       <r>    -3.3111     2.5391    27.4190 </r>
       <r>    -3.2065     2.3719    27.6671 </r>
       <r>    -3.1018     2.3725    27.9154 </r>
       <r>    -2.9972     2.0114    28.1258 </r>
       <r>    -2.8926     2.3312    28.3698 </r>
       <r>    -2.7879     2.6181    28.6437 </r>
       <r>    -2.6833     2.7481    28.9312 </r>
       <r>    -2.5787     2.5383    29.1968 </r>
       <r>    -2.4740     2.2143    29.4285 </r>
       <r>    -2.3694     2.2615    29.6651 </r>
       <r>    -2.2648     1.5755    29.8300 </r>
       <r>    -2.1601     1.5755    29.9948 </r>
       <r>    -2.0555     1.7532    30.1783 </r>
       <r>    -1.9509     1.4110    30.3259 </r>
       <r>    -1.8462     0.9115    30.4213 </r>
       <r>    -1.7416     0.9976    30.5257 </r>
       <r>    -1.6370     0.6712    30.5959 </r>
       <r>    -1.5323     0.6355    30.6624 </r>
       <r>    -1.4277     0.9996    30.7670 </r>
       <r>    -1.3231     0.8050    30.8512 </r>
       <r>    -1.2184     0.5735    30.9112 </r>
       <r>    -1.1138     0.3766    30.9506 </r>
       <r>    -1.0092     0.2342    30.9751 </r>
       <r>    -0.9045     0.1054    30.9861 </r>
       <r>    -0.7999     0.1450    31.0013 </r>
       <r>    -0.6953     0.3109    31.0339 </r>
       <r>    -0.5906     0.4316    31.0790 </r>
       <r>    -0.4860     0.6786    31.1500 </r>
       <r>    -0.3814     1.0449    31.2594 </r>
       <r>    -0.2768     0.9019    31.3537 </r>
       <r>    -0.1721     1.1332    31.4723 </r>
       <r>    -0.0675     1.8313    31.6639 </r>
       <r>     0.0371     1.5764    31.8288 </r>
       <r>     0.1418     0.8398    31.9167 </r>
       <r>     0.2464     0.3107    31.9492 </r>
       <r>     0.3510     0.2323    31.9735 </r>
       <r>     0.4557     0.5124    32.0272 </r>
       <r>     0.5603     1.0384    32.1358 </r>
       <r>     0.6649     1.3448    32.2765 </r>
       <r>     0.7696     0.6901    32.3487 </r>
       <r>     0.8742     0.4405    32.3948 </r>
       <r>     0.9788     0.9581    32.4951 </r>
       <r>     1.0835     1.3760    32.6390 </r>
       <r>     1.1881     1.4682    32.7927 </r>
       <r>     1.2927     1.4530    32.9447 </r>
       <r>     1.3974     0.6463    33.0123 </r>
       <r>     1.5020     0.5528    33.0702 </r>
       <r>     1.6066     0.7335    33.1469 </r>
       <r>     1.7113     0.7564    33.2261 </r>
       <r>     1.8159     0.8554    33.3156 </r>
       <r>     1.9205     0.8509    33.4046 </r>
       <r>     2.0252     1.3899    33.5500 </r>
       <r>     2.1298     0.7333    33.6268 </r>
       <r>     2.2344     0.5697    33.6864 </r>
       <r>     2.3391     1.7507    33.8695 </r>
       <r>     2.4437     2.0090    34.0797 </r>
       <r>     2.5483     1.4338    34.2298 </r>
       <r>     2.6530     1.3978    34.3760 </r>
       <r>     2.7576     1.3463    34.5169 </r>
       <r>     2.8622     1.4608    34.6697 </r>
       <r>     2.9669     1.6603    34.8435 </r>
       <r>     3.0715     1.3891    34.9888 </r>
       <r>     3.1761     1.0248    35.0960 </r>
       <r>     3.2808     1.5317    35.2563 </r>
       <r>     3.3854     1.5026    35.4135 </r>
       <r>     3.4900     1.0817    35.5267 </r>
       <r>     3.5947     1.5256    35.6863 </r>
       <r>     3.6993     1.8844    35.8835 </r>
       <r>     3.8039     1.3938    36.0293 </r>
       <r>     3.9086     1.0886    36.1432 </r>
       <r>     4.0132     1.9873    36.3512 </r>
       <r>     4.1178     2.4363    36.6061 </r>
       <r>     4.2224     1.5496    36.7682 </r>
       <r>     4.3271     0.9955    36.8724 </r>
       <r>     4.4317     2.0633    37.0883 </r>
       <r>     4.5363     2.5981    37.3601 </r>
       <r>     4.6410     2.2734    37.5980 </r>
       <r>     4.7456     1.6671    37.7724 </r>
       <r>     4.8502     1.6462    37.9447 </r>
       <r>     4.9549     2.2210    38.1770 </r>
       <r>     5.0595     2.3242    38.4202 </r>
       <r>     5.1641     2.1281    38.6429 </r>
       <r>     5.2688     2.1226    38.8650 </r>
       <r>     5.3734     1.8965    39.0634 </r>
       <r>     5.4780     2.1311    39.2864 </r>
       <r>     5.5827     2.7572    39.5749 </r>
       <r>     5.6873     2.4586    39.8322 </r>
       <r>     5.7919     1.8709    40.0279 </r>
       <r>     5.8966     1.5849    40.1938 </r>
       <r>     6.0012     1.7404    40.3759 </r>
       <r>     6.1058     2.0135    40.5865 </r>
       <r>     6.2105     2.0935    40.8056 </r>
       <r>     6.3151     2.2633    41.0424 </r>
       <r>     6.4197     2.6880    41.3236 </r>
       <r>     6.5244     3.0707    41.6449 </r>
       <r>     6.6290     2.1944    41.8745 </r>
       <r>     6.7336     2.3310    42.1184 </r>
       <r>     6.8383     3.4054    42.4748 </r>
       <r>     6.9429     3.1899    42.8085 </r>
       <r>     7.0475     2.8222    43.1038 </r>
       <r>     7.1522     2.9809    43.4157 </r>
       <r>     7.2568     3.9690    43.8310 </r>
       <r>     7.3614     4.7101    44.3238 </r>
       <r>     7.4661     4.4893    44.7936 </r>
       <r>     7.5707     5.0471    45.3217 </r>
       <r>     7.6753     4.2667    45.7681 </r>
       <r>     7.7800     3.5982    46.1446 </r>
       <r>     7.8846     4.4880    46.6142 </r>
       <r>     7.9892     4.8562    47.1223 </r>
       <r>     8.0939     3.8709    47.5273 </r>
       <r>     8.1985     2.3577    47.7740 </r>
       <r>     8.3031     1.1006    47.8892 </r>
       <r>     8.4078     0.5173    47.9433 </r>
       <r>     8.5124     0.4310    47.9884 </r>
       <r>     8.6170     0.1067    47.9996 </r>
       <r>     8.7216     0.0043    48.0000 </r>
       <r>     8.8263     0.0000    48.0000 </r>
       <r>     8.9309     0.0000    48.0000 </r>
       <r>     9.0355     0.0000    48.0000 </r>
       <r>     9.1402     0.0000    48.0000 </r>
       <r>     9.2448     0.0000    48.0000 </r>
       <r>     9.3494     0.0000    48.0000 </r>
       <r>     9.4541     0.0000    48.0000 </r>
       <r>     9.5587     0.0000    48.0000 </r>
       <r>     9.6633     0.0000    48.0000 </r>
       <r>     9.7680     0.0000    48.0000 </r>
       <r>     9.8726     0.0000    48.0000 </r>
      </set>
     </set>
    </array>
   </total>
  </dos>
 </calculation>
 <structure name="finalpos" >
  <crystal>
   <varray name="basis" >
    <v>       4.29548600       2.48000000       0.00000000 </v>
    <v>      -4.29548600       2.48000000       0.00000000 </v>
    <v>       0.00000000       0.00000000      15.00000000 </v>
   </varray>
   <i name="volume">    319.58415861 </i>
   <varray name="rec_basis" >
    <v>       0.11640126       0.20161290       0.00000000 </v>
    <v>      -0.11640126       0.20161290       0.00000000 </v>
    <v>       0.00000000       0.00000000       0.06666667 </v>
   </varray>
  </crystal>
  <varray name="positions" >
   <v>       0.32744721       0.68044633       0.09966133 </v>
   <v>       0.66073179       0.34716789       0.09956257 </v>
   <v>       0.15423433       0.33424661       0.09399984 </v>
   <v>       0.31437287       0.17395735       0.10456684 </v>
   <v>       0.15408115       0.85381181       0.10996969 </v>
   <v>       0.83397026       0.17386995       0.08876687 </v>
   <v>       0.67364762       0.85369705       0.09428220 </v>
   <v>       0.83393553       0.69351298       0.10485386 </v>
   <v>       0.26096319       0.23861733       0.32693828 </v>
   <v>       0.42754064       0.07200024       0.32695184 </v>
   <v>       0.26092771       0.73869704       0.32680980 </v>
   <v>       0.42763022       0.57195891       0.32684775 </v>
   <v>       0.76095518       0.23866560       0.32675611 </v>
   <v>       0.92762243       0.07196497       0.32681619 </v>
   <v>       0.76100939       0.73866450       0.32693836 </v>
   <v>       0.92758915       0.57204678       0.32694515 </v>
  </varray>
 </structure>
</modeling>
