Lattice                                 
           1
     4.311940    2.489500    0.000000
    -4.311940    2.489500    0.000000
     0.000000    0.000000   15.000000
   B    C 
     8     8
Direct configuration=     1
   0.66888689  0.00000000  0.10000000
   0.33111211  0.00000000  0.10000000
   0.00000000  0.33111211  0.10000000
   0.00000000  0.66888689  0.10000000
   0.33111211  0.33111211  0.10000000
   0.66888689  0.66888689  0.10000000
   0.66666600  0.33333300  0.09922189
   0.33333300  0.66666600  0.10077811
   0.27777711  0.22222189  0.46960000
   0.44444411  0.05555489  0.46960000
   0.27777711  0.72222189  0.46960000
   0.44444411  0.55555489  0.46960000
   0.77777711  0.22222189  0.46960000
   0.94444411  0.05555489  0.46960000
   0.77777711  0.72222189  0.46960000
   0.94444411  0.55555489  0.46960000
Direct configuration=     2
   0.67058246 -0.00000010  0.10002618
   0.32941665 -0.00000012  0.10002623
   0.00000010  0.32941654  0.10002618
   0.00000012  0.67058235  0.10002623
   0.32941632  0.32941630  0.10002626
   0.67058270  0.67058268  0.10002626
   0.66666614  0.33333286  0.09924428
   0.33333259  0.66666641  0.10081411
   0.27777227  0.22221746  0.46957334
   0.44444186  0.05555715  0.46957272
   0.27777719  0.72222181  0.46957223
   0.44444491  0.55555409  0.46957294
   0.77778053  0.22221847  0.46957316
   0.94444465  0.05555435  0.46957380
   0.77778154  0.72222673  0.46957334
   0.94444185  0.55555714  0.46957272
Direct configuration=     3
   0.66975799 -0.00000005  0.10001345
   0.33024107 -0.00000006  0.10001348
   0.00000005  0.33024101  0.10001345
   0.00000006  0.66975793  0.10001348
   0.33024090  0.33024089  0.10001349
   0.66975811  0.66975810  0.10001349
   0.66666607  0.33333293  0.09923339
   0.33333279  0.66666621  0.10079661
   0.27777462  0.22221961  0.46958630
   0.44444295  0.05555605  0.46958599
   0.27777715  0.72222185  0.46958573
   0.44444452  0.55555448  0.46958610
   0.77777887  0.22222013  0.46958621
   0.94444439  0.05555461  0.46958654
   0.77777939  0.72222438  0.46958630
   0.94444295  0.55555605  0.46958599
Direct configuration=     4
   0.66976311 -0.00000005  0.10001353
   0.33023595 -0.00000006  0.10001356
   0.00000005  0.33023589  0.10001353
   0.00000006  0.66976305  0.10001356
   0.33023577  0.33023577  0.10001357
   0.66976323  0.66976323  0.10001357
   0.66666607  0.33333293  0.09923346
   0.33333279  0.66666621  0.10079672
   0.27777461  0.22221960  0.46958622
   0.44444295  0.05555606  0.46958590
   0.27777715  0.72222185  0.46958565
   0.44444452  0.55555448  0.46958602
   0.77777888  0.22222012  0.46958613
   0.94444439  0.05555461  0.46958646
   0.77777940  0.72222439  0.46958622
   0.94444294  0.55555605  0.46958590
Direct configuration=     5
   0.66976102 -0.00000005  0.10001350
   0.33023803 -0.00000006  0.10001353
   0.00000005  0.33023798  0.10001350
   0.00000006  0.66976097  0.10001353
   0.33023786  0.33023785  0.10001354
   0.66976115  0.66976114  0.10001354
   0.66666607  0.33333293  0.09923343
   0.33333279  0.66666621  0.10079667
   0.27777461  0.22221960  0.46958626
   0.44444295  0.05555605  0.46958594
   0.27777715  0.72222185  0.46958568
   0.44444452  0.55555448  0.46958605
   0.77777887  0.22222013  0.46958616
   0.94444439  0.05555461  0.46958649
   0.77777940  0.72222439  0.46958626
   0.94444295  0.55555605  0.46958594
Direct configuration=     6
   0.66975951 -0.00000005  0.10001347
   0.33023955 -0.00000006  0.10001350
   0.00000005  0.33023949  0.10001347
   0.00000006  0.66975945  0.10001350
   0.33023938  0.33023937  0.10001352
   0.66975963  0.66975962  0.10001352
   0.66666607  0.33333293  0.09923341
   0.33333279  0.66666621  0.10079664
   0.27777462  0.22221961  0.46958628
   0.44444295  0.05555605  0.46958596
   0.27777715  0.72222185  0.46958571
   0.44444452  0.55555448  0.46958608
   0.77777887  0.22222013  0.46958619
   0.94444439  0.05555461  0.46958652
   0.77777939  0.72222438  0.46958628
   0.94444295  0.55555605  0.46958596
Direct configuration=     7
   0.66975875 -0.00000005  0.10001346
   0.33024031 -0.00000006  0.10001349
   0.00000005  0.33024025  0.10001346
   0.00000006  0.66975869  0.10001349
   0.33024014  0.33024013  0.10001350
   0.66975887  0.66975886  0.10001350
   0.66666607  0.33333293  0.09923340
   0.33333279  0.66666621  0.10079662
   0.27777462  0.22221961  0.46958629
   0.44444295  0.05555605  0.46958597
   0.27777715  0.72222185  0.46958572
   0.44444452  0.55555448  0.46958609
   0.77777887  0.22222013  0.46958620
   0.94444439  0.05555461  0.46958653
   0.77777939  0.72222438  0.46958629
   0.94444295  0.55555605  0.46958597
Direct configuration=     8
   0.66975882 -0.00000007  0.10003735
   0.33024035 -0.00000003  0.10003743
   0.00000007  0.33024018  0.10003735
   0.00000003  0.66975865  0.10003743
   0.33024022  0.33024020  0.10003747
   0.66975880  0.66975878  0.10003747
   0.66666605  0.33333295  0.09925657
   0.33333278  0.66666622  0.10082582
   0.27777785  0.22222331  0.46956202
   0.44444498  0.05555394  0.46956126
   0.27777670  0.72222230  0.46956068
   0.44444425  0.55555475  0.46956153
   0.77777588  0.22222312  0.46956180
   0.94444436  0.05555464  0.46956255
   0.77777569  0.72222115  0.46956202
   0.94444506  0.55555402  0.46956126
Direct configuration=     9
   0.66975904 -0.00000013  0.10010903
   0.33024046  0.00000008  0.10010925
   0.00000013  0.33023996  0.10010903
  -0.00000008  0.66975854  0.10010925
   0.33024046  0.33024040  0.10010936
   0.66975860  0.66975854  0.10010936
   0.66666600  0.33333300  0.09932607
   0.33333273  0.66666627  0.10091341
   0.27778753  0.22223441  0.46948919
   0.44445108  0.05554761  0.46948712
   0.27777533  0.72222367  0.46948557
   0.44444344  0.55555556  0.46948784
   0.77776690  0.22223210  0.46948859
   0.94444429  0.05555471  0.46949063
   0.77776459  0.72221147  0.46948919
   0.94445139  0.55554792  0.46948712
Direct configuration=    10
   0.66975948 -0.00000025  0.10025238
   0.33024069  0.00000030  0.10025288
   0.00000025  0.33023952  0.10025238
  -0.00000030  0.66975831  0.10025288
   0.33024096  0.33024081  0.10025314
   0.66975819  0.66975804  0.10025314
   0.66666589  0.33333311  0.09946506
   0.33333264  0.66666636  0.10108859
   0.27780689  0.22225660  0.46934353
   0.44446327  0.05553496  0.46933884
   0.27777259  0.72222641  0.46933534
   0.44444182  0.55555718  0.46934048
   0.77774896  0.22225004  0.46934219
   0.94444413  0.05555487  0.46934678
   0.77774240  0.72219211  0.46934353
   0.94446404  0.55553573  0.46933884
Direct configuration=    11
   0.66976035 -0.00000048  0.10053909
   0.33024115  0.00000073  0.10054016
   0.00000048  0.33023865  0.10053909
  -0.00000073  0.66975785  0.10054016
   0.33024194  0.33024163  0.10054071
   0.66975737  0.66975706  0.10054071
   0.66666567  0.33333333  0.09974305
   0.33333245  0.66666655  0.10143895
   0.27784561  0.22230098  0.46905223
   0.44448764  0.05550964  0.46904227
   0.27776711  0.72223189  0.46903488
   0.44443858  0.55556042  0.46904575
   0.77771307  0.22228593  0.46904938
   0.94444382  0.05555518  0.46905909
   0.77769802  0.72215339  0.46905223
   0.94448936  0.55551136  0.46904227
Direct configuration=    12
   0.66976210 -0.00000094  0.10111250
   0.33024208  0.00000159  0.10111471
   0.00000094  0.33023690  0.10111250
  -0.00000159  0.66975692  0.10111471
   0.33024390  0.33024327  0.10111585
   0.66975573  0.66975510  0.10111585
   0.66666523  0.33333377  0.10029903
   0.33333208  0.66666692  0.10213967
   0.27792306  0.22238975  0.46846961
   0.44453639  0.05545902  0.46844914
   0.27775614  0.72224286  0.46843397
   0.44443209  0.55556691  0.46845629
   0.77764129  0.22235771  0.46846376
   0.94444321  0.05555579  0.46848369
   0.77760925  0.72207594  0.46846961
   0.94453998  0.55546261  0.46844914
Direct configuration=    13
   0.66976559 -0.00000187  0.10225932
   0.33024392  0.00000332  0.10226380
   0.00000187  0.33023341  0.10225932
  -0.00000332  0.66975508  0.10226380
   0.33024782  0.33024655  0.10226612
   0.66975245  0.66975118  0.10226612
   0.66666435  0.33333465  0.10141098
   0.33333135  0.66666765  0.10354111
   0.27807796  0.22256730  0.46730438
   0.44463389  0.05535776  0.46726287
   0.27773422  0.72226478  0.46723214
   0.44441912  0.55557988  0.46727737
   0.77749773  0.22250127  0.46729251
   0.94444198  0.05555702  0.46733291
   0.77743170  0.72192104  0.46730438
   0.94464124  0.55536511  0.46726287
Direct configuration=    14
   0.66977258 -0.00000373  0.10455297
   0.33024761  0.00000678  0.10456199
   0.00000373  0.33022642  0.10455297
  -0.00000678  0.66975139  0.10456199
   0.33025567  0.33025310  0.10456666
   0.66974590  0.66974333  0.10456666
   0.66666259  0.33333641  0.10363489
   0.33332987  0.66666913  0.10634399
   0.27838775  0.22292238  0.46497391
   0.44482890  0.05515525  0.46489034
   0.27769038  0.72230862  0.46482848
   0.44439318  0.55560582  0.46491953
   0.77721062  0.22278838  0.46495003
   0.94443951  0.05555949  0.46503135
   0.77707662  0.72161125  0.46497391
   0.94484375  0.55517010  0.46489034
Direct configuration=    15
   0.66978656 -0.00000745  0.10914026
   0.33025500  0.00001369  0.10915837
   0.00000745  0.33021244  0.10914026
  -0.00001369  0.66974400  0.10915837
   0.33027136  0.33026621  0.10916774
   0.66973279  0.66972764  0.10916774
   0.66665908  0.33333992  0.10808271
   0.33332693  0.66667207  0.11194974
   0.27900733  0.22363255  0.46031297
   0.44521890  0.05475024  0.46014529
   0.27760270  0.72239630  0.46002116
   0.44434130  0.55565770  0.46020384
   0.77663639  0.22336261  0.46026506
   0.94443458  0.05556442  0.46042822
   0.77636645  0.72099167  0.46031297
   0.94524876  0.55478010  0.46014529
Direct configuration=    16
   0.66978656 -0.00000745  0.10914138
   0.33025500  0.00001369  0.10915950
   0.00000745  0.33021244  0.10914138
  -0.00001369  0.66974400  0.10915950
   0.33027136  0.33026622  0.10916887
   0.66973278  0.66972764  0.10916887
   0.66665907  0.33333993  0.10808380
   0.33332692  0.66667208  0.11195111
   0.27900738  0.22363258  0.46031183
   0.44521892  0.05475022  0.46014413
   0.27760270  0.72239630  0.46001999
   0.44434129  0.55565771  0.46020269
   0.77663636  0.22336264  0.46026392
   0.94443457  0.05556443  0.46042709
   0.77636642  0.72099162  0.46031183
   0.94524878  0.55478008  0.46014413
Direct configuration=    17
   0.66978656 -0.00000746  0.10914474
   0.33025500  0.00001368  0.10916286
   0.00000746  0.33021244  0.10914474
  -0.00001368  0.66974400  0.10916286
   0.33027137  0.33026623  0.10917224
   0.66973277  0.66972763  0.10917224
   0.66665907  0.33333993  0.10808705
   0.33332692  0.66667208  0.11195521
   0.27900752  0.22363268  0.46030842
   0.44521896  0.05475018  0.46014066
   0.27760272  0.72239628  0.46001647
   0.44434125  0.55565775  0.46019924
   0.77663629  0.22336271  0.46026049
   0.94443454  0.05556446  0.46042371
   0.77636632  0.72099148  0.46030842
   0.94524882  0.55478004  0.46014066
Direct configuration=    18
   0.66978657 -0.00000747  0.10915146
   0.33025501  0.00001368  0.10916960
   0.00000747  0.33021243  0.10915146
  -0.00001368  0.66974399  0.10916960
   0.33027139  0.33026625  0.10917898
   0.66973275  0.66972761  0.10917898
   0.66665907  0.33333993  0.10809356
   0.33332692  0.66667208  0.11196341
   0.27900780  0.22363288  0.46030158
   0.44521903  0.05475009  0.46013371
   0.27760274  0.72239626  0.46000945
   0.44434117  0.55565783  0.46019233
   0.77663614  0.22336286  0.46025362
   0.94443448  0.05556452  0.46041696
   0.77636612  0.72099120  0.46030158
   0.94524891  0.55477997  0.46013371
Direct configuration=    19
   0.66978658 -0.00000750  0.10916491
   0.33025503  0.00001368  0.10918307
   0.00000750  0.33021242  0.10916491
  -0.00001368  0.66974397  0.10918307
   0.33027143  0.33026630  0.10919247
   0.66973270  0.66972757  0.10919247
   0.66665907  0.33333993  0.10810657
   0.33332691  0.66667209  0.11197982
   0.27900835  0.22363327  0.46028792
   0.44521919  0.05474992  0.46011982
   0.27760280  0.72239620  0.45999539
   0.44434100  0.55565800  0.46017852
   0.77663583  0.22336317  0.46023989
   0.94443436  0.05556464  0.46040344
   0.77636573  0.72099065  0.46028792
   0.94524908  0.55477981  0.46011982
Direct configuration=    20
   0.66978659 -0.00000756  0.10919180
   0.33025507  0.00001366  0.10921002
   0.00000756  0.33021241  0.10919180
  -0.00001366  0.66974393  0.10921002
   0.33027150  0.33026639  0.10921944
   0.66973261  0.66972750  0.10921944
   0.66665907  0.33333993  0.10813259
   0.33332689  0.66667211  0.11201263
   0.27900947  0.22363407  0.46026058
   0.44521949  0.05474956  0.46009204
   0.27760291  0.72239609  0.45996729
   0.44434068  0.55565832  0.46015089
   0.77663523  0.22336377  0.46021243
   0.94443411  0.05556489  0.46037641
   0.77636493  0.72098953  0.46026058
   0.94524944  0.55477951  0.46009204
Direct configuration=    21
   0.66978663 -0.00000767  0.10924558
   0.33025515  0.00001364  0.10926390
   0.00000767  0.33021237  0.10924558
  -0.00001364  0.66974385  0.10926390
   0.33027165  0.33026657  0.10927338
   0.66973243  0.66972735  0.10927338
   0.66665906  0.33333994  0.10818464
   0.33332685  0.66667215  0.11207826
   0.27901169  0.22363566  0.46020591
   0.44522010  0.05474886  0.46003649
   0.27760313  0.72239587  0.45991108
   0.44434003  0.55565897  0.46009564
   0.77663403  0.22336497  0.46015751
   0.94443362  0.05556538  0.46032235
   0.77636334  0.72098731  0.46020591
   0.94525014  0.55477890  0.46003649
Direct configuration=    22
   0.66978669 -0.00000788  0.10935315
   0.33025531  0.00001358  0.10937168
   0.00000788  0.33021231  0.10935315
  -0.00001358  0.66974369  0.10937168
   0.33027195  0.33026694  0.10938126
   0.66973206  0.66972705  0.10938126
   0.66665904  0.33333996  0.10828874
   0.33332678  0.66667222  0.11220950
   0.27901615  0.22363884  0.46009658
   0.44522133  0.05474746  0.45992537
   0.27760357  0.72239543  0.45979866
   0.44433874  0.55566026  0.45998513
   0.77663162  0.22336738  0.46004766
   0.94443264  0.05556636  0.46021422
   0.77636016  0.72098285  0.46009658
   0.94525154  0.55477767  0.45992537
Direct configuration=    23
   0.66978682 -0.00000832  0.10956828
   0.33025563  0.00001348  0.10958723
   0.00000832  0.33021218  0.10956828
  -0.00001348  0.66974337  0.10958723
   0.33027255  0.33026768  0.10959703
   0.66973132  0.66972645  0.10959703
   0.66665901  0.33333999  0.10849693
   0.33332663  0.66667237  0.11247200
   0.27902505  0.22364519  0.45987790
   0.44522378  0.05474465  0.45970314
   0.27760446  0.72239454  0.45957382
   0.44433616  0.55566284  0.45976412
   0.77662680  0.22337220  0.45982798
   0.94443069  0.05556831  0.45999797
   0.77635381  0.72097395  0.45987790
   0.94525435  0.55477522  0.45970314
Direct configuration=    24
   0.66978709 -0.00000919  0.10999855
   0.33025627  0.00001327  0.11001834
   0.00000919  0.33021191  0.10999855
  -0.00001327  0.66974273  0.11001834
   0.33027374  0.33026915  0.11002857
   0.66972985  0.66972526  0.11002857
   0.66665893  0.33334007  0.10891332
   0.33332634  0.66667266  0.11299699
   0.27904286  0.22365790  0.45944055
   0.44522868  0.05473904  0.45925867
   0.27760623  0.72239277  0.45912414
   0.44433099  0.55566801  0.45932210
   0.77661716  0.22338184  0.45938861
   0.94442677  0.05557223  0.45956547
   0.77634110  0.72095614  0.45944055
   0.94525996  0.55477032  0.45925867
Direct configuration=    25
   0.66978761 -0.00001093  0.11085909
   0.33025754  0.00001285  0.11088056
   0.00001093  0.33021139  0.11085909
  -0.00001285  0.66974146  0.11088056
   0.33027612  0.33027209  0.11089164
   0.66972691  0.66972288  0.11089164
   0.66665879  0.33334021  0.10974609
   0.33332575  0.66667325  0.11404698
   0.27907848  0.22368333  0.45856585
   0.44523849  0.05472781  0.45836975
   0.27760977  0.72238923  0.45822478
   0.44432065  0.55567835  0.45843805
   0.77659788  0.22340112  0.45850986
   0.94441894  0.05558006  0.45870048
   0.77631567  0.72092052  0.45856585
   0.94527119  0.55476051  0.45836975
Direct configuration=    26
   0.66978866 -0.00001442  0.11258017
   0.33026010  0.00001201  0.11260498
   0.00001442  0.33021034  0.11258017
  -0.00001201  0.66973890  0.11260498
   0.33028089  0.33027797  0.11261778
   0.66972103  0.66971811  0.11261778
   0.66665851  0.33334049  0.11141163
   0.33332457  0.66667443  0.11614695
   0.27914973  0.22373418  0.45681646
   0.44525810  0.05470536  0.45659189
   0.27761685  0.72238215  0.45642605
   0.44429996  0.55569904  0.45666996
   0.77655932  0.22343968  0.45675237
   0.94440328  0.05559572  0.45697048
   0.77626482  0.72084927  0.45681646
   0.94529364  0.55474090  0.45659189
Direct configuration=    27
   0.66979077 -0.00002138  0.11602232
   0.33026520  0.00001032  0.11605384
   0.00002138  0.33020823  0.11602232
  -0.00001032  0.66973380  0.11605384
   0.33029043  0.33028973  0.11607006
   0.66970927  0.66970857  0.11607006
   0.66665795  0.33334105  0.11474272
   0.33332222  0.66667678  0.12034689
   0.27929222  0.22383588  0.45331766
   0.44529732  0.05466046  0.45303619
   0.27763102  0.72236798  0.45282861
   0.44425860  0.55574040  0.45313377
   0.77648220  0.22351680  0.45323739
   0.94437196  0.05562704  0.45351049
   0.77616312  0.72070678  0.45331766
   0.94533854  0.55470168  0.45303619
Direct configuration=    28
   0.66979497 -0.00003532  0.12290662
   0.33027541  0.00000696  0.12295156
   0.00003532  0.33020403  0.12290662
  -0.00000696  0.66972359  0.12295156
   0.33030951  0.33031325  0.12297462
   0.66968575  0.66968949  0.12297462
   0.66665683  0.33334217  0.12140490
   0.33331752  0.66668148  0.12874677
   0.27957719  0.22403927  0.44632007
   0.44537575  0.05457065  0.44592477
   0.27765934  0.72233966  0.44563371
   0.44417587  0.55582313  0.44606139
   0.77632797  0.22367103  0.44620743
   0.94430932  0.05568968  0.44659050
   0.77595973  0.72042181  0.44632007
   0.94542835  0.55462325  0.44592477
Direct configuration=    29
   0.66980339 -0.00006319  0.13667523
   0.33029583  0.00000023  0.13674699
   0.00006319  0.33019561  0.13667523
  -0.00000023  0.66970317  0.13674699
   0.33034766  0.33036029  0.13678375
   0.66963871  0.66965134  0.13678375
   0.66665458  0.33334442  0.13472925
   0.33330811  0.66669089  0.14554654
   0.28014715  0.22444606  0.43232489
   0.44553263  0.05439104  0.43170194
   0.27771600  0.72228300  0.43124393
   0.44401042  0.55598858  0.43191664
   0.77601951  0.22397949  0.43214752
   0.94418405  0.05581495  0.43275052
   0.77555294  0.71985185  0.43232489
   0.94560796  0.55446637  0.43170194
Direct configuration=    30
   0.66982022 -0.00011893  0.16421245
   0.33033667 -0.00001324  0.16433784
   0.00011893  0.33017878  0.16421245
   0.00001324  0.66966233  0.16433784
   0.33042397  0.33045438  0.16440200
   0.66954462  0.66957503  0.16440200
   0.66665008  0.33334892  0.16137796
   0.33328930  0.66670970  0.17914608
   0.28128706  0.22525965  0.40433453
   0.44584637  0.05403181  0.40325629
   0.27782930  0.72216970  0.40246435
   0.44367952  0.55631948  0.40362713
   0.77540258  0.22459642  0.40402768
   0.94393350  0.05606550  0.40507058
   0.77473935  0.71871194  0.40433453
   0.94596719  0.55415263  0.40325629
Direct configuration=    31
   0.66981734 -0.00010940  0.15950071
   0.33032968 -0.00001093  0.15961693
   0.00010940  0.33018166  0.15950071
   0.00001093  0.66966932  0.15961693
   0.33041092  0.33043828  0.15967639
   0.66956072  0.66958808  0.15967639
   0.66665085  0.33334815  0.15681825
   0.33329252  0.66670648  0.17339705
   0.28109201  0.22512044  0.40912380
   0.44579269  0.05409328  0.40812346
   0.27780992  0.72218908  0.40738866
   0.44373614  0.55626286  0.40846759
   0.77550814  0.22449086  0.40883911
   0.94397637  0.05602263  0.40980674
   0.77487856  0.71890699  0.40912380
   0.94590572  0.55420631  0.40812346
Direct configuration=    32
   0.66981943 -0.00011632  0.16292177
   0.33033476 -0.00001261  0.16304465
   0.00011632  0.33017957  0.16292177
   0.00001261  0.66966424  0.16304465
   0.33042040  0.33044997  0.16310752
   0.66954903  0.66957860  0.16310752
   0.66665029  0.33334871  0.16012892
   0.33329018  0.66670882  0.17757125
   0.28123363  0.22522152  0.40564645
   0.44583167  0.05404865  0.40458955
   0.27782399  0.72217501  0.40381326
   0.44369503  0.55630397  0.40495307
   0.77543149  0.22456751  0.40534567
   0.94394524  0.05605376  0.40636795
   0.77477748  0.71876537  0.40564645
   0.94595035  0.55416733  0.40458955
Direct configuration=    33
   0.66973210 -0.00019664  0.16747214
   0.33035689 -0.00008177  0.16760308
   0.00019664  0.33026690  0.16747214
   0.00008177  0.66964211  0.16760308
   0.33043810  0.33052849  0.16766960
   0.66947051  0.66956090  0.16766960
   0.66664854  0.33335046  0.16450704
   0.33328418  0.66671482  0.18308726
   0.28090617  0.22486476  0.40101801
   0.44563198  0.05425914  0.39991000
   0.27785490  0.72214410  0.39909290
   0.44373604  0.55626296  0.40029189
   0.77571956  0.22427944  0.40070342
   0.94395042  0.05604858  0.40177184
   0.77513424  0.71909283  0.40101801
   0.94573986  0.55436702  0.39991000
Direct configuration=    34
   0.66974798 -0.00018203  0.16664435
   0.33035286 -0.00006919  0.16677381
   0.00018203  0.33025102  0.16664435
   0.00006919  0.66964614  0.16677381
   0.33043488  0.33051420  0.16683967
   0.66948480  0.66956412  0.16683967
   0.66664886  0.33335014  0.16371058
   0.33328527  0.66671373  0.18208380
   0.28096574  0.22492966  0.40186001
   0.44566830  0.05422085  0.40076129
   0.27784928  0.72214972  0.39995162
   0.44372858  0.55627042  0.40113985
   0.77566715  0.22433185  0.40154793
   0.94394948  0.05604952  0.40260795
   0.77506934  0.71903326  0.40186001
   0.94577815  0.55433070  0.40076129
Direct configuration=    35
   0.66966119 -0.00024985  0.16629507
   0.33037160 -0.00012865  0.16642278
   0.00024985  0.33033781  0.16629507
   0.00012865  0.66962740  0.16642278
   0.33044071  0.33057109  0.16648719
   0.66942791  0.66955829  0.16648719
   0.66664562  0.33335338  0.16334796
   0.33328137  0.66671763  0.18162344
   0.28053219  0.22453353  0.40221220
   0.44547258  0.05443856  0.40114246
   0.27785031  0.72214869  0.40034968
   0.44381799  0.55618101  0.40151276
   0.77597973  0.22401927  0.40190892
   0.94399628  0.05600272  0.40293782
   0.77546547  0.71946681  0.40221220
   0.94556044  0.55452642  0.40114246
Direct configuration=    36
   0.66940082 -0.00045332  0.16524724
   0.33042780 -0.00030703  0.16536969
   0.00045332  0.33059818  0.16524724
   0.00030703  0.66957120  0.16536969
   0.33045823  0.33074176  0.16542975
   0.66925724  0.66954077  0.16542975
   0.66663589  0.33336311  0.16226009
   0.33326968  0.66672932  0.18024238
   0.27923153  0.22334513  0.40326879
   0.44488542  0.05509168  0.40228597
   0.27785339  0.72214561  0.40154385
   0.44408620  0.55591280  0.40263150
   0.77691745  0.22308155  0.40299189
   0.94413670  0.05586230  0.40392742
   0.77665387  0.72076747  0.40326879
   0.94490732  0.55511358  0.40228597
Direct configuration=    37
   0.66888008 -0.00086026  0.16315158
   0.33054021 -0.00066378  0.16326351
   0.00086026  0.33111892  0.16315158
   0.00066378  0.66945879  0.16326351
   0.33049326  0.33108309  0.16331486
   0.66891591  0.66950574  0.16331486
   0.66661643  0.33338257  0.16008437
   0.33324628  0.66675272  0.17748026
   0.27663022  0.22096833  0.40538196
   0.44371108  0.05639792  0.40457299
   0.27785956  0.72213944  0.40393219
   0.44462262  0.55537638  0.40486897
   0.77879289  0.22120611  0.40515782
   0.94441754  0.05558146  0.40590662
   0.77903067  0.72336878  0.40538196
   0.94360108  0.55628792  0.40457299
Direct configuration=    38
   0.66914823 -0.00065071  0.16423072
   0.33048233 -0.00048008  0.16434807
   0.00065071  0.33085077  0.16423072
   0.00048008  0.66951667  0.16434807
   0.33047522  0.33090732  0.16440390
   0.66909168  0.66952378  0.16440390
   0.66662645  0.33337255  0.16120474
   0.33325833  0.66674067  0.17890259
   0.27796974  0.22219224  0.40429380
   0.44431579  0.05572528  0.40339531
   0.27785638  0.72214262  0.40270234
   0.44434640  0.55565260  0.40371681
   0.77782715  0.22217185  0.40404249
   0.94427292  0.05572608  0.40488745
   0.77780676  0.72202926  0.40429380
   0.94427372  0.55568321  0.40339531
Direct configuration=    39
   0.66908204 -0.00067636  0.16422595
   0.33051860 -0.00050764  0.16434154
   0.00067636  0.33091696  0.16422595
   0.00050764  0.66948040  0.16434154
   0.33049787  0.33094586  0.16439502
   0.66905314  0.66950113  0.16439502
   0.66662398  0.33337502  0.16114677
   0.33325770  0.66674130  0.17882998
   0.27786105  0.22220218  0.40429358
   0.44435617  0.05569190  0.40343962
   0.27780526  0.72219374  0.40277645
   0.44440148  0.55559752  0.40374814
   0.77780223  0.22219677  0.40405387
   0.94433444  0.05566456  0.40485337
   0.77779682  0.72213795  0.40429358
   0.94430710  0.55564283  0.40343962
Direct configuration=    40
   0.66888347 -0.00075329  0.16421165
   0.33062743 -0.00059035  0.16432196
   0.00075329  0.33111553  0.16421165
   0.00059035  0.66937157  0.16432196
   0.33056581  0.33106147  0.16436836
   0.66893753  0.66943319  0.16436836
   0.66661658  0.33338242  0.16097285
   0.33325583  0.66674317  0.17861214
   0.27753498  0.22223201  0.40429293
   0.44447730  0.05559177  0.40357257
   0.27765191  0.72234709  0.40299877
   0.44456671  0.55543229  0.40384215
   0.77772746  0.22227154  0.40408803
   0.94451901  0.05547999  0.40475111
   0.77776699  0.72246402  0.40429293
   0.94440723  0.55552170  0.40357257
Direct configuration=    41
   0.66879440 -0.00078781  0.16420523
   0.33067625 -0.00062745  0.16431318
   0.00078781  0.33120460  0.16420523
   0.00062745  0.66932275  0.16431318
   0.33059629  0.33111334  0.16435641
   0.66888566  0.66940271  0.16435641
   0.66661326  0.33338574  0.16089484
   0.33325499  0.66674401  0.17851443
   0.27738871  0.22224540  0.40429264
   0.44453163  0.05554685  0.40363221
   0.27758312  0.72241588  0.40309850
   0.44464084  0.55535816  0.40388431
   0.77769393  0.22230507  0.40410335
   0.94460180  0.05539720  0.40470523
   0.77775360  0.72261029  0.40429264
   0.94445215  0.55546737  0.40363221
Direct configuration=    42
   0.66873364 -0.00079360  0.16421687
   0.33072737 -0.00063863  0.16432131
   0.00079360  0.33126536  0.16421687
   0.00063863  0.66927163  0.16432131
   0.33062744  0.33113986  0.16435939
   0.66885914  0.66937156  0.16435939
   0.66660803  0.33339097  0.16079392
   0.33325780  0.66674120  0.17839412
   0.27742661  0.22224246  0.40427357
   0.44451898  0.05555876  0.40369739
   0.27760285  0.72239615  0.40322061
   0.44461203  0.55538697  0.40392434
   0.77770074  0.22229826  0.40410690
   0.94457827  0.05542073  0.40462305
   0.77775654  0.72257239  0.40427357
   0.94444024  0.55548002  0.40369739
Direct configuration=    43
   0.66855135 -0.00081097  0.16425180
   0.33088074 -0.00067216  0.16434570
   0.00081097  0.33144765  0.16425180
   0.00067216  0.66911826  0.16434570
   0.33072088  0.33121944  0.16436834
   0.66877956  0.66927812  0.16436834
   0.66659231  0.33340669  0.16049117
   0.33326622  0.66673278  0.17803320
   0.27754030  0.22223365  0.40421635
   0.44448103  0.05559449  0.40389290
   0.27766204  0.72233696  0.40358696
   0.44452560  0.55547340  0.40404443
   0.77772117  0.22227783  0.40411757
   0.94450769  0.05549131  0.40437648
   0.77776535  0.72245870  0.40421635
   0.94440451  0.55551797  0.40389290
Direct configuration=    44
   0.66818678 -0.00084571  0.16432167
   0.33118748 -0.00073923  0.16439449
   0.00084571  0.33181222  0.16432167
   0.00073923  0.66881152  0.16439449
   0.33090777  0.33137860  0.16438623
   0.66862040  0.66909123  0.16438623
   0.66656089  0.33343811  0.15988567
   0.33328306  0.66671594  0.17731136
   0.27776768  0.22221602  0.40410191
   0.44440512  0.05566595  0.40428394
   0.27778043  0.72221857  0.40431965
   0.44435274  0.55564626  0.40428461
   0.77776205  0.22223695  0.40413890
   0.94436652  0.05563248  0.40388334
   0.77778298  0.72223132  0.40410191
   0.94433305  0.55559388  0.40428394
Direct configuration=    45
   0.66853021 -0.00065334  0.16437415
   0.33106540 -0.00056281  0.16443944
   0.00065334  0.33146879  0.16437415
   0.00056281  0.66893360  0.16443944
   0.33081228  0.33112951  0.16441603
   0.66886949  0.66918672  0.16441603
   0.66655512  0.33344388  0.15965075
   0.33331104  0.66668796  0.17707077
   0.27779698  0.22228938  0.40407636
   0.44441793  0.05564397  0.40436403
   0.27773498  0.72226402  0.40447907
   0.44440385  0.55559515  0.40433369
   0.77772378  0.22227522  0.40414445
   0.94438002  0.05561898  0.40378124
   0.77770962  0.72220202  0.40407636
   0.94435503  0.55558107  0.40436403
Direct configuration=    46
   0.66910210 -0.00033300  0.16446155
   0.33086211 -0.00026903  0.16451430
   0.00033300  0.33089690  0.16446155
   0.00026903  0.66913689  0.16451430
   0.33065326  0.33071470  0.16446565
   0.66928430  0.66934574  0.16446565
   0.66654550  0.33345350  0.15925955
   0.33335763  0.66664137  0.17667012
   0.27784578  0.22241155  0.40403382
   0.44443926  0.05560737  0.40449742
   0.27765930  0.72233970  0.40474455
   0.44448897  0.55551003  0.40441542
   0.77766007  0.22233893  0.40415369
   0.94440250  0.05559650  0.40361121
   0.77758745  0.72215322  0.40403382
   0.94439163  0.55555974  0.40449742
Direct configuration=    47
   0.66924702 -0.00038114  0.16453626
   0.33069486 -0.00031714  0.16458314
   0.00038114  0.33075198  0.16453626
   0.00031714  0.66930414  0.16458314
   0.33053215  0.33064877  0.16451632
   0.66935023  0.66946685  0.16451632
   0.66656569  0.33343331  0.15903076
   0.33335371  0.66664529  0.17643085
   0.27774236  0.22226298  0.40404694
   0.44439288  0.05567280  0.40449873
   0.27772629  0.72227271  0.40474696
   0.44440226  0.55559674  0.40442160
   0.77773531  0.22226369  0.40416657