  16  16   0  16
  0.2067266E+02  0.5046000E-09  0.5046000E-09  0.1500000E-08  0.5000000E-15
  1.000000000000000E-004
  CAR 
 Lattice                                 
      9.75853402    -21.29695381  301     -0.97679112      1.00000000
    -21.297  0.0000E+00  0.0000E+00  0.0000E+00  0.0000E+00
    -21.193  0.0000E+00  0.0000E+00  0.0000E+00  0.0000E+00
    -21.090  0.0000E+00  0.0000E+00  0.0000E+00  0.0000E+00
    -20.986  0.0000E+00  0.0000E+00  0.0000E+00  0.0000E+00
    -20.883  0.0000E+00  0.0000E+00  0.0000E+00  0.0000E+00
    -20.779  0.0000E+00  0.0000E+00  0.0000E+00  0.0000E+00
    -20.676  0.0000E+00  0.0000E+00  0.0000E+00  0.0000E+00
    -20.572  0.0000E+00  0.0000E+00  0.0000E+00  0.0000E+00
    -20.469  0.2909E-19  0.2909E-19  0.3012E-20  0.3012E-20
    -20.365  0.3313E-14  0.3313E-14  0.3430E-15  0.3430E-15
    -20.262  0.3308E-10  0.3308E-10  0.3424E-11  0.3424E-11
    -20.158  0.4551E-07  0.4551E-07  0.4715E-08  0.4714E-08
    -20.055  0.9329E-05  0.9329E-05  0.9704E-06  0.9704E-06
    -19.951  0.3143E-03  0.3143E-03  0.3350E-04  0.3350E-04
    -19.848  0.2129E-02  0.2129E-02  0.2539E-03  0.2539E-03
    -19.744  0.4409E-02  0.4409E-02  0.7103E-03  0.7103E-03
    -19.641  0.4910E-02  0.4910E-02  0.1219E-02  0.1219E-02
    -19.537  0.5169E-02  0.5169E-02  0.1754E-02  0.1754E-02
    -19.434  0.4656E-02  0.4656E-02  0.2236E-02  0.2236E-02
    -19.330  0.5676E-02  0.5676E-02  0.2823E-02  0.2823E-02
    -19.227  0.4274E-02  0.4274E-02  0.3266E-02  0.3266E-02
    -19.123  0.5280E-02  0.5280E-02  0.3812E-02  0.3812E-02
    -19.020  0.5892E-02  0.5892E-02  0.4422E-02  0.4422E-02
    -18.916  0.3662E-02  0.3662E-02  0.4801E-02  0.4801E-02
    -18.813  0.5353E-02  0.5353E-02  0.5356E-02  0.5356E-02
    -18.709  0.6353E-02  0.6353E-02  0.6013E-02  0.6013E-02
    -18.605  0.4407E-02  0.4407E-02  0.6469E-02  0.6469E-02
    -18.502  0.3426E-02  0.3426E-02  0.6824E-02  0.6824E-02
    -18.398  0.6786E-02  0.6786E-02  0.7526E-02  0.7526E-02
    -18.295  0.5967E-02  0.5967E-02  0.8144E-02  0.8144E-02
    -18.191  0.4234E-02  0.4234E-02  0.8582E-02  0.8582E-02
    -18.088  0.3497E-02  0.3497E-02  0.8944E-02  0.8944E-02
    -17.984  0.7735E-02  0.7735E-02  0.9745E-02  0.9745E-02
    -17.881  0.1262E-01  0.1262E-01  0.1105E-01  0.1105E-01
    -17.777  0.1144E-01  0.1144E-01  0.1224E-01  0.1224E-01
    -17.674  0.1136E-01  0.1136E-01  0.1341E-01  0.1341E-01
    -17.570  0.1333E-01  0.1333E-01  0.1479E-01  0.1479E-01
    -17.467  0.1744E-01  0.1744E-01  0.1660E-01  0.1660E-01
    -17.363  0.2153E-01  0.2153E-01  0.1883E-01  0.1883E-01
    -17.260  0.1869E-01  0.1869E-01  0.2076E-01  0.2076E-01
    -17.156  0.7568E-02  0.7568E-02  0.2154E-01  0.2154E-01
    -17.053  0.4765E-02  0.4765E-02  0.2204E-01  0.2204E-01
    -16.949  0.7272E-02  0.7272E-02  0.2279E-01  0.2279E-01
    -16.846  0.6745E-02  0.6745E-02  0.2349E-01  0.2349E-01
    -16.742  0.5511E-02  0.5511E-02  0.2406E-01  0.2406E-01
    -16.639  0.4569E-02  0.4569E-02  0.2453E-01  0.2453E-01
    -16.535  0.2669E-02  0.2669E-02  0.2481E-01  0.2481E-01
    -16.432  0.4530E-02  0.4530E-02  0.2528E-01  0.2528E-01
    -16.328  0.9295E-02  0.9295E-02  0.2624E-01  0.2624E-01
    -16.225  0.6213E-02  0.6213E-02  0.2688E-01  0.2688E-01
    -16.121  0.4783E-02  0.4783E-02  0.2738E-01  0.2738E-01
    -16.018  0.4314E-02  0.4314E-02  0.2782E-01  0.2782E-01
    -15.914  0.4160E-02  0.4160E-02  0.2825E-01  0.2825E-01
    -15.810  0.3892E-02  0.3892E-02  0.2866E-01  0.2866E-01
    -15.707  0.9472E-02  0.9472E-02  0.2964E-01  0.2964E-01
    -15.603  0.1338E-01  0.1338E-01  0.3102E-01  0.3102E-01
    -15.500  0.1418E-01  0.1418E-01  0.3249E-01  0.3249E-01
    -15.396  0.1638E-01  0.1638E-01  0.3419E-01  0.3419E-01
    -15.293  0.1410E-01  0.1410E-01  0.3564E-01  0.3564E-01
    -15.189  0.1207E-01  0.1207E-01  0.3689E-01  0.3689E-01
    -15.086  0.1451E-01  0.1451E-01  0.3840E-01  0.3840E-01
    -14.982  0.1857E-01  0.1857E-01  0.4032E-01  0.4032E-01
    -14.879  0.1516E-01  0.1516E-01  0.4189E-01  0.4189E-01
    -14.775  0.1319E-01  0.1319E-01  0.4325E-01  0.4325E-01
    -14.672  0.9777E-02  0.9777E-02  0.4427E-01  0.4427E-01
    -14.568  0.1060E-01  0.1060E-01  0.4536E-01  0.4536E-01
    -14.465  0.1643E-01  0.1643E-01  0.4706E-01  0.4706E-01
    -14.361  0.2045E-01  0.2045E-01  0.4918E-01  0.4918E-01
    -14.258  0.1401E-01  0.1401E-01  0.5063E-01  0.5063E-01
    -14.154  0.9225E-02  0.9225E-02  0.5158E-01  0.5158E-01
    -14.051  0.7592E-02  0.7592E-02  0.5237E-01  0.5237E-01
    -13.947  0.8190E-02  0.8190E-02  0.5322E-01  0.5322E-01
    -13.844  0.7742E-02  0.7742E-02  0.5402E-01  0.5402E-01
    -13.740  0.5239E-02  0.5239E-02  0.5456E-01  0.5456E-01
    -13.637  0.3182E-02  0.3182E-02  0.5489E-01  0.5489E-01
    -13.533  0.4694E-02  0.4694E-02  0.5538E-01  0.5538E-01
    -13.430  0.4487E-02  0.4487E-02  0.5584E-01  0.5584E-01
    -13.326  0.6233E-02  0.6233E-02  0.5649E-01  0.5649E-01
    -13.223  0.5857E-02  0.5857E-02  0.5709E-01  0.5709E-01
    -13.119  0.6497E-02  0.6497E-02  0.5777E-01  0.5777E-01
    -13.015  0.8136E-02  0.8136E-02  0.5861E-01  0.5861E-01
    -12.912  0.7585E-02  0.7585E-02  0.5939E-01  0.5939E-01
    -12.808  0.8316E-02  0.8316E-02  0.6025E-01  0.6025E-01
    -12.705  0.5860E-02  0.5860E-02  0.6086E-01  0.6086E-01
    -12.601  0.6935E-02  0.6935E-02  0.6158E-01  0.6158E-01
    -12.498  0.4996E-02  0.4996E-02  0.6210E-01  0.6210E-01
    -12.394  0.4355E-02  0.4355E-02  0.6255E-01  0.6255E-01
    -12.291  0.8648E-02  0.8648E-02  0.6344E-01  0.6344E-01
    -12.187  0.6676E-02  0.6676E-02  0.6413E-01  0.6413E-01
    -12.084  0.6951E-02  0.6951E-02  0.6485E-01  0.6485E-01
    -11.980  0.1228E-01  0.1228E-01  0.6612E-01  0.6612E-01
    -11.877  0.1642E-01  0.1642E-01  0.6782E-01  0.6782E-01
    -11.773  0.1497E-01  0.1497E-01  0.6937E-01  0.6937E-01
    -11.670  0.1463E-01  0.1463E-01  0.7089E-01  0.7089E-01
    -11.566  0.1642E-01  0.1642E-01  0.7259E-01  0.7259E-01
    -11.463  0.1524E-01  0.1524E-01  0.7416E-01  0.7416E-01
    -11.359  0.8283E-02  0.8283E-02  0.7502E-01  0.7502E-01
    -11.256  0.9497E-02  0.9497E-02  0.7601E-01  0.7601E-01
    -11.152  0.1162E-01  0.1162E-01  0.7721E-01  0.7721E-01
    -11.049  0.1169E-01  0.1169E-01  0.7842E-01  0.7842E-01
    -10.945  0.6029E-02  0.6028E-02  0.7904E-01  0.7904E-01
    -10.842  0.6064E-02  0.6064E-02  0.7967E-01  0.7967E-01
    -10.738  0.1523E-01  0.1523E-01  0.8125E-01  0.8125E-01
    -10.635  0.1789E-01  0.1789E-01  0.8310E-01  0.8310E-01
    -10.531  0.8434E-02  0.8434E-02  0.8397E-01  0.8397E-01
    -10.428  0.6259E-02  0.6259E-02  0.8462E-01  0.8462E-01
    -10.324  0.1199E-01  0.1199E-01  0.8586E-01  0.8586E-01
    -10.220  0.1936E-01  0.1936E-01  0.8787E-01  0.8787E-01
    -10.117  0.1547E-01  0.1547E-01  0.8947E-01  0.8947E-01
    -10.013  0.8631E-02  0.8631E-02  0.9036E-01  0.9036E-01
     -9.910  0.8858E-02  0.8858E-02  0.9128E-01  0.9128E-01
     -9.806  0.1033E-01  0.1033E-01  0.9235E-01  0.9235E-01
     -9.703  0.1133E-01  0.1133E-01  0.9352E-01  0.9352E-01
     -9.599  0.8708E-02  0.8708E-02  0.9442E-01  0.9442E-01
     -9.496  0.1064E-01  0.1064E-01  0.9552E-01  0.9552E-01
     -9.392  0.9991E-02  0.9991E-02  0.9656E-01  0.9656E-01
     -9.289  0.9976E-02  0.9976E-02  0.9759E-01  0.9759E-01
     -9.185  0.8777E-02  0.8777E-02  0.9850E-01  0.9850E-01
     -9.082  0.2858E-02  0.2858E-02  0.9879E-01  0.9879E-01
     -8.978  0.5125E-02  0.5126E-02  0.9932E-01  0.9932E-01
     -8.875  0.1368E-01  0.1368E-01  0.1007E+00  0.1007E+00
     -8.771  0.1915E-01  0.1915E-01  0.1027E+00  0.1027E+00
     -8.668  0.1583E-01  0.1583E-01  0.1044E+00  0.1044E+00
     -8.564  0.8546E-02  0.8546E-02  0.1052E+00  0.1052E+00
     -8.461  0.8471E-02  0.8471E-02  0.1061E+00  0.1061E+00
     -8.357  0.1026E-01  0.1026E-01  0.1072E+00  0.1072E+00
     -8.254  0.1865E-01  0.1865E-01  0.1091E+00  0.1091E+00
     -8.150  0.2349E-01  0.2349E-01  0.1115E+00  0.1115E+00
     -8.047  0.2256E-01  0.2256E-01  0.1139E+00  0.1139E+00
     -7.943  0.1587E-01  0.1587E-01  0.1155E+00  0.1155E+00
     -7.840  0.1354E-01  0.1354E-01  0.1169E+00  0.1169E+00
     -7.736  0.1465E-01  0.1465E-01  0.1184E+00  0.1184E+00
     -7.633  0.2552E-01  0.2552E-01  0.1211E+00  0.1211E+00
     -7.529  0.2761E-01  0.2761E-01  0.1239E+00  0.1239E+00
     -7.426  0.2118E-01  0.2118E-01  0.1261E+00  0.1261E+00
     -7.322  0.2114E-01  0.2114E-01  0.1283E+00  0.1283E+00
     -7.218  0.2423E-01  0.2423E-01  0.1308E+00  0.1308E+00
     -7.115  0.2428E-01  0.2428E-01  0.1333E+00  0.1333E+00
     -7.011  0.2658E-01  0.2658E-01  0.1361E+00  0.1361E+00
     -6.908  0.2189E-01  0.2189E-01  0.1384E+00  0.1384E+00
     -6.804  0.2031E-01  0.2031E-01  0.1405E+00  0.1405E+00
     -6.701  0.2785E-01  0.2785E-01  0.1433E+00  0.1433E+00
     -6.597  0.2279E-01  0.2279E-01  0.1457E+00  0.1457E+00
     -6.494  0.2197E-01  0.2197E-01  0.1480E+00  0.1480E+00
     -6.390  0.2511E-01  0.2511E-01  0.1506E+00  0.1506E+00
     -6.287  0.2425E-01  0.2425E-01  0.1531E+00  0.1531E+00
     -6.183  0.2280E-01  0.2279E-01  0.1555E+00  0.1555E+00
     -6.080  0.1756E-01  0.1756E-01  0.1573E+00  0.1573E+00
     -5.976  0.1715E-01  0.1715E-01  0.1590E+00  0.1590E+00
     -5.873  0.2200E-01  0.2200E-01  0.1613E+00  0.1613E+00
     -5.769  0.2650E-01  0.2650E-01  0.1641E+00  0.1641E+00
     -5.666  0.1999E-01  0.1999E-01  0.1661E+00  0.1661E+00
     -5.562  0.1986E-01  0.1986E-01  0.1682E+00  0.1682E+00
     -5.459  0.2241E-01  0.2241E-01  0.1705E+00  0.1705E+00
     -5.355  0.2823E-01  0.2823E-01  0.1734E+00  0.1734E+00
     -5.252  0.2643E-01  0.2643E-01  0.1762E+00  0.1762E+00
     -5.148  0.1505E-01  0.1505E-01  0.1777E+00  0.1777E+00
     -5.045  0.1224E-01  0.1224E-01  0.1790E+00  0.1790E+00
     -4.941  0.1809E-01  0.1809E-01  0.1809E+00  0.1809E+00
     -4.838  0.1882E-01  0.1882E-01  0.1828E+00  0.1828E+00
     -4.734  0.1714E-01  0.1714E-01  0.1846E+00  0.1846E+00
     -4.631  0.1616E-01  0.1616E-01  0.1863E+00  0.1863E+00
     -4.527  0.1665E-01  0.1665E-01  0.1880E+00  0.1880E+00
     -4.423  0.1880E-01  0.1880E-01  0.1899E+00  0.1899E+00
     -4.320  0.2048E-01  0.2048E-01  0.1921E+00  0.1921E+00
     -4.216  0.2680E-01  0.2680E-01  0.1948E+00  0.1948E+00
     -4.113  0.4069E-01  0.4069E-01  0.1990E+00  0.1990E+00
     -4.009  0.3658E-01  0.3658E-01  0.2028E+00  0.2028E+00
     -3.906  0.2611E-01  0.2611E-01  0.2055E+00  0.2055E+00
     -3.802  0.1763E-01  0.1763E-01  0.2074E+00  0.2074E+00
     -3.699  0.1343E-01  0.1343E-01  0.2087E+00  0.2087E+00
     -3.595  0.1483E-01  0.1483E-01  0.2103E+00  0.2103E+00
     -3.492  0.1807E-01  0.1807E-01  0.2122E+00  0.2122E+00
     -3.388  0.2225E-01  0.2225E-01  0.2145E+00  0.2145E+00
     -3.285  0.1589E-01  0.1589E-01  0.2161E+00  0.2161E+00
     -3.181  0.1411E-01  0.1411E-01  0.2176E+00  0.2176E+00
     -3.078  0.1627E-01  0.1627E-01  0.2192E+00  0.2192E+00
     -2.974  0.2077E-01  0.2077E-01  0.2214E+00  0.2214E+00
     -2.871  0.2572E-01  0.2572E-01  0.2241E+00  0.2241E+00
     -2.767  0.1527E-01  0.1527E-01  0.2256E+00  0.2256E+00
     -2.664  0.1325E-01  0.1325E-01  0.2270E+00  0.2270E+00
     -2.560  0.2111E-01  0.2111E-01  0.2292E+00  0.2292E+00
     -2.457  0.2110E-01  0.2110E-01  0.2314E+00  0.2314E+00
     -2.353  0.1886E-01  0.1886E-01  0.2333E+00  0.2333E+00
     -2.250  0.2238E-01  0.2238E-01  0.2356E+00  0.2356E+00
     -2.146  0.1794E-01  0.1794E-01  0.2375E+00  0.2375E+00
     -2.043  0.5454E-02  0.5454E-02  0.2381E+00  0.2381E+00
     -1.939  0.4041E-02  0.4041E-02  0.2385E+00  0.2385E+00
     -1.836  0.8157E-02  0.8157E-02  0.2393E+00  0.2393E+00
     -1.732  0.5579E-02  0.5579E-02  0.2399E+00  0.2399E+00
     -1.628  0.4744E-02  0.4744E-02  0.2404E+00  0.2404E+00
     -1.525  0.7559E-02  0.7559E-02  0.2412E+00  0.2412E+00
     -1.421  0.5397E-02  0.5397E-02  0.2417E+00  0.2417E+00
     -1.318  0.2592E-02  0.2592E-02  0.2420E+00  0.2420E+00
     -1.214  0.6320E-03  0.6320E-03  0.2421E+00  0.2421E+00
     -1.111  0.7196E-04  0.7196E-04  0.2421E+00  0.2421E+00
     -1.007  0.5330E-03  0.5330E-03  0.2421E+00  0.2421E+00
     -0.904  0.2550E-02  0.2550E-02  0.2424E+00  0.2424E+00
     -0.800  0.3799E-02  0.3799E-02  0.2428E+00  0.2428E+00
     -0.697  0.4726E-02  0.4726E-02  0.2433E+00  0.2433E+00
     -0.593  0.9824E-02  0.9824E-02  0.2443E+00  0.2443E+00
     -0.490  0.1048E-01  0.1048E-01  0.2454E+00  0.2454E+00
     -0.386  0.9806E-02  0.9806E-02  0.2464E+00  0.2464E+00
     -0.283  0.1246E-01  0.1246E-01  0.2477E+00  0.2477E+00
     -0.179  0.1128E-01  0.1128E-01  0.2489E+00  0.2489E+00
     -0.076  0.6961E-02  0.6961E-02  0.2496E+00  0.2496E+00
      0.028  0.2913E-02  0.2913E-02  0.2499E+00  0.2499E+00
      0.131  0.1070E-02  0.1070E-02  0.2500E+00  0.2500E+00
      0.235  0.1742E-02  0.1742E-02  0.2502E+00  0.2502E+00
      0.338  0.6492E-02  0.6493E-02  0.2508E+00  0.2508E+00
      0.442  0.1004E-01  0.1004E-01  0.2519E+00  0.2519E+00
      0.545  0.7296E-02  0.7296E-02  0.2526E+00  0.2526E+00
      0.649  0.3737E-02  0.3736E-02  0.2530E+00  0.2530E+00
      0.752  0.7469E-02  0.7469E-02  0.2538E+00  0.2538E+00
      0.856  0.1204E-01  0.1204E-01  0.2550E+00  0.2550E+00
      0.959  0.1300E-01  0.1300E-01  0.2564E+00  0.2564E+00
      1.063  0.1057E-01  0.1057E-01  0.2575E+00  0.2575E+00
      1.167  0.4911E-02  0.4910E-02  0.2580E+00  0.2580E+00
      1.270  0.4967E-02  0.4967E-02  0.2585E+00  0.2585E+00
      1.374  0.5339E-02  0.5339E-02  0.2591E+00  0.2591E+00
      1.477  0.5010E-02  0.5010E-02  0.2596E+00  0.2596E+00
      1.581  0.6521E-02  0.6521E-02  0.2603E+00  0.2603E+00
      1.684  0.1126E-01  0.1126E-01  0.2614E+00  0.2614E+00
      1.788  0.8928E-02  0.8928E-02  0.2623E+00  0.2623E+00
      1.891  0.3440E-02  0.3440E-02  0.2627E+00  0.2627E+00
      1.995  0.2926E-02  0.2926E-02  0.2630E+00  0.2630E+00
      2.098  0.7752E-02  0.7753E-02  0.2638E+00  0.2638E+00
      2.202  0.1574E-01  0.1574E-01  0.2654E+00  0.2654E+00
      2.305  0.1461E-01  0.1461E-01  0.2669E+00  0.2669E+00
      2.409  0.1139E-01  0.1139E-01  0.2681E+00  0.2681E+00
      2.512  0.1192E-01  0.1192E-01  0.2694E+00  0.2694E+00
      2.616  0.1213E-01  0.1213E-01  0.2706E+00  0.2706E+00
      2.719  0.1073E-01  0.1073E-01  0.2717E+00  0.2717E+00
      2.823  0.7282E-02  0.7287E-02  0.2725E+00  0.2725E+00
      2.926  0.7595E-02  0.7607E-02  0.2733E+00  0.2733E+00
      3.030  0.1281E-01  0.1281E-01  0.2746E+00  0.2746E+00
      3.133  0.1360E-01  0.1359E-01  0.2760E+00  0.2760E+00
      3.237  0.1375E-01  0.1376E-01  0.2774E+00  0.2774E+00
      3.340  0.1198E-01  0.1197E-01  0.2787E+00  0.2787E+00
      3.444  0.7468E-02  0.7468E-02  0.2794E+00  0.2794E+00
      3.547  0.1052E-01  0.1054E-01  0.2805E+00  0.2805E+00
      3.651  0.1323E-01  0.1321E-01  0.2819E+00  0.2819E+00
      3.754  0.9760E-02  0.9767E-02  0.2829E+00  0.2829E+00
      3.858  0.1101E-01  0.1104E-01  0.2840E+00  0.2840E+00
      3.962  0.1826E-01  0.1827E-01  0.2859E+00  0.2859E+00
      4.065  0.1687E-01  0.1684E-01  0.2877E+00  0.2877E+00
      4.169  0.1281E-01  0.1279E-01  0.2890E+00  0.2890E+00
      4.272  0.1535E-01  0.1537E-01  0.2906E+00  0.2906E+00
      4.376  0.1676E-01  0.1677E-01  0.2923E+00  0.2923E+00
      4.479  0.1334E-01  0.1334E-01  0.2937E+00  0.2937E+00
      4.583  0.1418E-01  0.1415E-01  0.2952E+00  0.2952E+00
      4.686  0.1284E-01  0.1284E-01  0.2965E+00  0.2965E+00
      4.790  0.1524E-01  0.1530E-01  0.2981E+00  0.2981E+00
      4.893  0.1785E-01  0.1788E-01  0.2999E+00  0.2999E+00
      4.997  0.2053E-01  0.2051E-01  0.3021E+00  0.3021E+00
      5.100  0.1737E-01  0.1735E-01  0.3039E+00  0.3039E+00
      5.204  0.1633E-01  0.1632E-01  0.3055E+00  0.3056E+00
      5.307  0.1458E-01  0.1457E-01  0.3071E+00  0.3071E+00
      5.411  0.1747E-01  0.1753E-01  0.3089E+00  0.3089E+00
      5.514  0.2011E-01  0.2009E-01  0.3109E+00  0.3110E+00
      5.618  0.1584E-01  0.1578E-01  0.3126E+00  0.3126E+00
      5.721  0.1410E-01  0.1412E-01  0.3140E+00  0.3141E+00
      5.825  0.1912E-01  0.1917E-01  0.3160E+00  0.3160E+00
      5.928  0.2458E-01  0.2453E-01  0.3186E+00  0.3186E+00
      6.032  0.2472E-01  0.2474E-01  0.3211E+00  0.3211E+00
      6.135  0.2723E-01  0.2726E-01  0.3239E+00  0.3240E+00
      6.239  0.2638E-01  0.2638E-01  0.3267E+00  0.3267E+00
      6.342  0.2563E-01  0.2561E-01  0.3293E+00  0.3293E+00
      6.446  0.2175E-01  0.2169E-01  0.3316E+00  0.3316E+00
      6.549  0.1761E-01  0.1761E-01  0.3334E+00  0.3334E+00
      6.653  0.2542E-01  0.2551E-01  0.3360E+00  0.3360E+00
      6.757  0.3348E-01  0.3349E-01  0.3395E+00  0.3395E+00
      6.860  0.2987E-01  0.2982E-01  0.3426E+00  0.3426E+00
      6.964  0.2964E-01  0.2964E-01  0.3457E+00  0.3457E+00
      7.067  0.3441E-01  0.3440E-01  0.3492E+00  0.3492E+00
      7.171  0.2983E-01  0.2980E-01  0.3523E+00  0.3523E+00
      7.274  0.2796E-01  0.2799E-01  0.3552E+00  0.3552E+00
      7.378  0.3911E-01  0.3912E-01  0.3593E+00  0.3593E+00
      7.481  0.3364E-01  0.3363E-01  0.3627E+00  0.3627E+00
      7.585  0.2418E-01  0.2420E-01  0.3652E+00  0.3653E+00
      7.688  0.2523E-01  0.2530E-01  0.3679E+00  0.3679E+00
      7.792  0.2599E-01  0.2596E-01  0.3705E+00  0.3706E+00
      7.895  0.1861E-01  0.1860E-01  0.3725E+00  0.3725E+00
      7.999  0.1265E-01  0.1257E-01  0.3738E+00  0.3738E+00
      8.102  0.6252E-02  0.6204E-02  0.3744E+00  0.3744E+00
      8.206  0.2104E-02  0.2082E-02  0.3746E+00  0.3746E+00
      8.309  0.1251E-02  0.1249E-02  0.3748E+00  0.3748E+00
      8.413  0.1672E-02  0.1671E-02  0.3749E+00  0.3749E+00
      8.516  0.5187E-03  0.5171E-03  0.3750E+00  0.3750E+00
      8.620  0.2516E-04  0.2501E-04  0.3750E+00  0.3750E+00
      8.723  0.1708E-06  0.1693E-06  0.3750E+00  0.3750E+00
      8.827  0.1510E-09  0.1492E-09  0.3750E+00  0.3750E+00
      8.930  0.1669E-13  0.1644E-13  0.3750E+00  0.3750E+00
      9.034  0.0000E+00  0.0000E+00  0.3750E+00  0.3750E+00
      9.137  0.0000E+00  0.0000E+00  0.3750E+00  0.3750E+00
      9.241  0.0000E+00  0.0000E+00  0.3750E+00  0.3750E+00
      9.344  0.0000E+00  0.0000E+00  0.3750E+00  0.3750E+00
      9.448  0.0000E+00  0.0000E+00  0.3750E+00  0.3750E+00
      9.551  0.0000E+00  0.0000E+00  0.3750E+00  0.3750E+00
      9.655  0.0000E+00  0.0000E+00  0.3750E+00  0.3750E+00
      9.759  0.0000E+00  0.0000E+00  0.3750E+00  0.3750E+00
