<?xml version="1.0" encoding="ISO-8859-1"?>
<modeling>
 <generator>
  <i name="program" type="string">vasp </i>
  <i name="version" type="string">6.3.2  </i>
  <i name="subversion" type="string">27Jun22 (build Dec 22 2022 13:13:19) complex                          parallel </i>
  <i name="platform" type="string">LinuxIFC </i>
  <i name="date" type="string">2023 09 12 </i>
  <i name="time" type="string">18:16:20 </i>
 </generator>
 <incar>
  <i type="string" name="SYSTEM">Lattice</i>
  <i type="int" name="ISTART">     0</i>
  <i type="string" name="PREC">Accurate</i>
  <i type="string" name="ALGO">Normal</i>
  <i type="int" name="ISPIN">     1</i>
  <i type="int" name="ICHARG">     2</i>
  <i type="int" name="NELM">    64</i>
  <i type="int" name="IBRION">     2</i>
  <i name="EDIFF">      0.00000100</i>
  <i name="EDIFFG">     -0.00100000</i>
  <i type="int" name="NSW">   128</i>
  <i type="int" name="ISIF">     2</i>
  <i name="ENCUT">    450.00000000</i>
  <i name="POTIM">      0.50000000</i>
  <i type="int" name="ISMEAR">     0</i>
  <i name="SIGMA">      0.10000000</i>
  <i type="logical" name="LWAVE"> F  </i>
  <i type="logical" name="LCHARG"> F  </i>
  <i type="string" name="GGA">PE</i>
  <i type="int" name="IVDW">    12</i>
 </incar>
 <primitive_cell>
  <structure name="primitive_cell" >
   <crystal>
    <varray name="basis" >
     <v>       4.47648500       2.58450000       0.00000000 </v>
     <v>      -4.47648500       2.58450000       0.00000000 </v>
     <v>       0.00000000       0.00000000      15.00000000 </v>
    </varray>
    <i name="volume">    347.08426447 </i>
    <varray name="rec_basis" >
     <v>       0.11169478       0.19346102       0.00000000 </v>
     <v>      -0.11169478       0.19346102       0.00000000 </v>
     <v>       0.00000000       0.00000000       0.06666667 </v>
    </varray>
   </crystal>
   <varray name="positions" >
    <v>       0.33835568       0.66919338       0.25000000 </v>
    <v>       0.67168550       0.33578412       0.25000000 </v>
    <v>       0.16393418       0.32096121       0.25000000 </v>
    <v>       0.32344383       0.16194918       0.25000000 </v>
    <v>       0.16445142       0.84350783       0.25000000 </v>
    <v>       0.84555675       0.16147694       0.25000000 </v>
    <v>       0.68650730       0.84304996       0.25000000 </v>
    <v>       0.84606136       0.68407339       0.25000000 </v>
   </varray>
  </structure>
  <varray name="primitive_index" >
   <v type="int" >        1 </v>
   <v type="int" >        2 </v>
   <v type="int" >        3 </v>
   <v type="int" >        4 </v>
   <v type="int" >        5 </v>
   <v type="int" >        6 </v>
   <v type="int" >        7 </v>
   <v type="int" >        8 </v>
  </varray>
 </primitive_cell>
 <kpoints>
  <generation param="Gamma">
   <v type="int" name="divisions">      55       55        1 </v>
   <v name="usershift">      0.00000000       0.00000000       0.00000000 </v>
   <v name="genvec1">      0.01818182       0.00000000       0.00000000 </v>
   <v name="genvec2">      0.00000000       0.01818182       0.00000000 </v>
   <v name="genvec3">      0.00000000       0.00000000       1.00000000 </v>
   <v name="shift">      0.00000000       0.00000000       0.00000000 </v>
  </generation>
  <varray name="kpointlist" >
   <v>       0.00000000       0.00000000       0.00000000 </v>
   <v>       0.01818182       0.00000000       0.00000000 </v>
   <v>       0.00000000       0.01818182       0.00000000 </v>
   <v>      -0.01818182       0.01818182       0.00000000 </v>
   <v>       0.03636364       0.00000000       0.00000000 </v>
   <v>       0.00000000       0.03636364       0.00000000 </v>
   <v>      -0.03636364       0.03636364       0.00000000 </v>
   <v>       0.05454545       0.00000000       0.00000000 </v>
   <v>       0.00000000       0.05454545       0.00000000 </v>
   <v>      -0.05454545       0.05454545       0.00000000 </v>
   <v>       0.07272727       0.00000000       0.00000000 </v>
   <v>       0.00000000       0.07272727       0.00000000 </v>
   <v>      -0.07272727       0.07272727       0.00000000 </v>
   <v>       0.09090909      -0.00000000       0.00000000 </v>
   <v>      -0.00000000       0.09090909       0.00000000 </v>
   <v>      -0.09090909       0.09090909       0.00000000 </v>
   <v>       0.10909091       0.00000000       0.00000000 </v>
   <v>       0.00000000       0.10909091       0.00000000 </v>
   <v>      -0.10909091       0.10909091       0.00000000 </v>
   <v>       0.12727273       0.00000000       0.00000000 </v>
   <v>      -0.00000000       0.12727273       0.00000000 </v>
   <v>      -0.12727273       0.12727273       0.00000000 </v>
   <v>       0.14545455       0.00000000       0.00000000 </v>
   <v>       0.00000000       0.14545455       0.00000000 </v>
   <v>      -0.14545455       0.14545455       0.00000000 </v>
   <v>       0.16363636       0.00000000       0.00000000 </v>
   <v>       0.00000000       0.16363636       0.00000000 </v>
   <v>      -0.16363636       0.16363636       0.00000000 </v>
   <v>       0.18181818       0.00000000       0.00000000 </v>
   <v>       0.00000000       0.18181818       0.00000000 </v>
   <v>      -0.18181818       0.18181818       0.00000000 </v>
   <v>       0.20000000       0.00000000       0.00000000 </v>
   <v>       0.00000000       0.20000000       0.00000000 </v>
   <v>      -0.20000000       0.20000000       0.00000000 </v>
   <v>       0.21818182       0.00000000       0.00000000 </v>
   <v>       0.00000000       0.21818182       0.00000000 </v>
   <v>      -0.21818182       0.21818182       0.00000000 </v>
   <v>       0.23636364       0.00000000       0.00000000 </v>
   <v>       0.00000000       0.23636364       0.00000000 </v>
   <v>      -0.23636364       0.23636364       0.00000000 </v>
   <v>       0.25454545       0.00000000       0.00000000 </v>
   <v>      -0.00000000       0.25454545       0.00000000 </v>
   <v>      -0.25454545       0.25454545       0.00000000 </v>
   <v>       0.27272727       0.00000000       0.00000000 </v>
   <v>       0.00000000       0.27272727       0.00000000 </v>
   <v>      -0.27272727       0.27272727       0.00000000 </v>
   <v>       0.29090909       0.00000000       0.00000000 </v>
   <v>       0.00000000       0.29090909       0.00000000 </v>
   <v>      -0.29090909       0.29090909       0.00000000 </v>
   <v>       0.30909091      -0.00000000       0.00000000 </v>
   <v>      -0.00000000       0.30909091       0.00000000 </v>
   <v>      -0.30909091       0.30909091       0.00000000 </v>
   <v>       0.32727273       0.00000000       0.00000000 </v>
   <v>       0.00000000       0.32727273       0.00000000 </v>
   <v>      -0.32727273       0.32727273       0.00000000 </v>
   <v>       0.34545455      -0.00000000       0.00000000 </v>
   <v>      -0.00000000       0.34545455       0.00000000 </v>
   <v>      -0.34545455       0.34545455       0.00000000 </v>
   <v>       0.36363636       0.00000000       0.00000000 </v>
   <v>       0.00000000       0.36363636       0.00000000 </v>
   <v>      -0.36363636       0.36363636       0.00000000 </v>
   <v>       0.38181818       0.00000000       0.00000000 </v>
   <v>      -0.00000000       0.38181818       0.00000000 </v>
   <v>      -0.38181818       0.38181818       0.00000000 </v>
   <v>       0.40000000       0.00000000       0.00000000 </v>
   <v>       0.00000000       0.40000000       0.00000000 </v>
   <v>      -0.40000000       0.40000000       0.00000000 </v>
   <v>       0.41818182       0.00000000       0.00000000 </v>
   <v>       0.00000000       0.41818182       0.00000000 </v>
   <v>      -0.41818182       0.41818182       0.00000000 </v>
   <v>       0.43636364       0.00000000       0.00000000 </v>
   <v>       0.00000000       0.43636364       0.00000000 </v>
   <v>      -0.43636364       0.43636364       0.00000000 </v>
   <v>       0.45454545       0.00000000       0.00000000 </v>
   <v>      -0.00000000       0.45454545       0.00000000 </v>
   <v>      -0.45454545       0.45454545       0.00000000 </v>
   <v>       0.47272727       0.00000000       0.00000000 </v>
   <v>       0.00000000       0.47272727       0.00000000 </v>
   <v>      -0.47272727       0.47272727       0.00000000 </v>
   <v>       0.49090909       0.00000000       0.00000000 </v>
   <v>       0.00000000       0.49090909       0.00000000 </v>
   <v>      -0.49090909       0.49090909       0.00000000 </v>
   <v>       0.01818182       0.01818182       0.00000000 </v>
   <v>      -0.01818182       0.03636364       0.00000000 </v>
   <v>      -0.03636364       0.01818182       0.00000000 </v>
   <v>       0.03636364       0.01818182       0.00000000 </v>
   <v>      -0.01818182       0.05454545       0.00000000 </v>
   <v>      -0.05454545       0.03636364       0.00000000 </v>
   <v>      -0.03636364       0.05454545       0.00000000 </v>
   <v>       0.01818182       0.03636364       0.00000000 </v>
   <v>       0.05454545      -0.01818182       0.00000000 </v>
   <v>       0.05454545       0.01818182       0.00000000 </v>
   <v>      -0.01818182       0.07272727       0.00000000 </v>
   <v>      -0.07272727       0.05454545       0.00000000 </v>
   <v>      -0.05454545       0.07272727       0.00000000 </v>
   <v>       0.01818182       0.05454545       0.00000000 </v>
   <v>       0.07272727      -0.01818182       0.00000000 </v>
   <v>       0.07272727       0.01818182       0.00000000 </v>
   <v>      -0.01818182       0.09090909       0.00000000 </v>
   <v>      -0.09090909       0.07272727       0.00000000 </v>
   <v>      -0.07272727       0.09090909       0.00000000 </v>
   <v>       0.01818182       0.07272727       0.00000000 </v>
   <v>       0.09090909      -0.01818182       0.00000000 </v>
   <v>       0.09090909       0.01818182       0.00000000 </v>
   <v>      -0.01818182       0.10909091       0.00000000 </v>
   <v>      -0.10909091       0.09090909       0.00000000 </v>
   <v>      -0.09090909       0.10909091       0.00000000 </v>
   <v>       0.01818182       0.09090909       0.00000000 </v>
   <v>       0.10909091      -0.01818182       0.00000000 </v>
   <v>       0.10909091       0.01818182       0.00000000 </v>
   <v>      -0.01818182       0.12727273       0.00000000 </v>
   <v>      -0.12727273       0.10909091       0.00000000 </v>
   <v>      -0.10909091       0.12727273       0.00000000 </v>
   <v>       0.01818182       0.10909091       0.00000000 </v>
   <v>       0.12727273      -0.01818182       0.00000000 </v>
   <v>       0.12727273       0.01818182       0.00000000 </v>
   <v>      -0.01818182       0.14545455       0.00000000 </v>
   <v>      -0.14545455       0.12727273       0.00000000 </v>
   <v>      -0.12727273       0.14545455       0.00000000 </v>
   <v>       0.01818182       0.12727273       0.00000000 </v>
   <v>       0.14545455      -0.01818182       0.00000000 </v>
   <v>       0.14545455       0.01818182       0.00000000 </v>
   <v>      -0.01818182       0.16363636       0.00000000 </v>
   <v>      -0.16363636       0.14545455       0.00000000 </v>
   <v>      -0.14545455       0.16363636       0.00000000 </v>
   <v>       0.01818182       0.14545455       0.00000000 </v>
   <v>       0.16363636      -0.01818182       0.00000000 </v>
   <v>       0.16363636       0.01818182       0.00000000 </v>
   <v>      -0.01818182       0.18181818       0.00000000 </v>
   <v>      -0.18181818       0.16363636       0.00000000 </v>
   <v>      -0.16363636       0.18181818       0.00000000 </v>
   <v>       0.01818182       0.16363636       0.00000000 </v>
   <v>       0.18181818      -0.01818182       0.00000000 </v>
   <v>       0.18181818       0.01818182       0.00000000 </v>
   <v>      -0.01818182       0.20000000       0.00000000 </v>
   <v>      -0.20000000       0.18181818       0.00000000 </v>
   <v>      -0.18181818       0.20000000       0.00000000 </v>
   <v>       0.01818182       0.18181818       0.00000000 </v>
   <v>       0.20000000      -0.01818182       0.00000000 </v>
   <v>       0.20000000       0.01818182       0.00000000 </v>
   <v>      -0.01818182       0.21818182       0.00000000 </v>
   <v>      -0.21818182       0.20000000       0.00000000 </v>
   <v>      -0.20000000       0.21818182       0.00000000 </v>
   <v>       0.01818182       0.20000000       0.00000000 </v>
   <v>       0.21818182      -0.01818182       0.00000000 </v>
   <v>       0.21818182       0.01818182       0.00000000 </v>
   <v>      -0.01818182       0.23636364       0.00000000 </v>
   <v>      -0.23636364       0.21818182       0.00000000 </v>
   <v>      -0.21818182       0.23636364       0.00000000 </v>
   <v>       0.01818182       0.21818182       0.00000000 </v>
   <v>       0.23636364      -0.01818182       0.00000000 </v>
   <v>       0.23636364       0.01818182       0.00000000 </v>
   <v>      -0.01818182       0.25454545       0.00000000 </v>
   <v>      -0.25454545       0.23636364       0.00000000 </v>
   <v>      -0.23636364       0.25454545       0.00000000 </v>
   <v>       0.01818182       0.23636364       0.00000000 </v>
   <v>       0.25454545      -0.01818182       0.00000000 </v>
   <v>       0.25454545       0.01818182       0.00000000 </v>
   <v>      -0.01818182       0.27272727       0.00000000 </v>
   <v>      -0.27272727       0.25454545       0.00000000 </v>
   <v>      -0.25454545       0.27272727       0.00000000 </v>
   <v>       0.01818182       0.25454545       0.00000000 </v>
   <v>       0.27272727      -0.01818182       0.00000000 </v>
   <v>       0.27272727       0.01818182       0.00000000 </v>
   <v>      -0.01818182       0.29090909       0.00000000 </v>
   <v>      -0.29090909       0.27272727       0.00000000 </v>
   <v>      -0.27272727       0.29090909       0.00000000 </v>
   <v>       0.01818182       0.27272727       0.00000000 </v>
   <v>       0.29090909      -0.01818182       0.00000000 </v>
   <v>       0.29090909       0.01818182       0.00000000 </v>
   <v>      -0.01818182       0.30909091       0.00000000 </v>
   <v>      -0.30909091       0.29090909       0.00000000 </v>
   <v>      -0.29090909       0.30909091       0.00000000 </v>
   <v>       0.01818182       0.29090909       0.00000000 </v>
   <v>       0.30909091      -0.01818182       0.00000000 </v>
   <v>       0.30909091       0.01818182       0.00000000 </v>
   <v>      -0.01818182       0.32727273       0.00000000 </v>
   <v>      -0.32727273       0.30909091       0.00000000 </v>
   <v>      -0.30909091       0.32727273       0.00000000 </v>
   <v>       0.01818182       0.30909091       0.00000000 </v>
   <v>       0.32727273      -0.01818182       0.00000000 </v>
   <v>       0.32727273       0.01818182       0.00000000 </v>
   <v>      -0.01818182       0.34545455       0.00000000 </v>
   <v>      -0.34545455       0.32727273       0.00000000 </v>
   <v>      -0.32727273       0.34545455       0.00000000 </v>
   <v>       0.01818182       0.32727273       0.00000000 </v>
   <v>       0.34545455      -0.01818182       0.00000000 </v>
   <v>       0.34545455       0.01818182       0.00000000 </v>
   <v>      -0.01818182       0.36363636       0.00000000 </v>
   <v>      -0.36363636       0.34545455       0.00000000 </v>
   <v>      -0.34545455       0.36363636       0.00000000 </v>
   <v>       0.01818182       0.34545455       0.00000000 </v>
   <v>       0.36363636      -0.01818182       0.00000000 </v>
   <v>       0.36363636       0.01818182       0.00000000 </v>
   <v>      -0.01818182       0.38181818       0.00000000 </v>
   <v>      -0.38181818       0.36363636       0.00000000 </v>
   <v>      -0.36363636       0.38181818       0.00000000 </v>
   <v>       0.01818182       0.36363636       0.00000000 </v>
   <v>       0.38181818      -0.01818182       0.00000000 </v>
   <v>       0.38181818       0.01818182       0.00000000 </v>
   <v>      -0.01818182       0.40000000       0.00000000 </v>
   <v>      -0.40000000       0.38181818       0.00000000 </v>
   <v>      -0.38181818       0.40000000       0.00000000 </v>
   <v>       0.01818182       0.38181818       0.00000000 </v>
   <v>       0.40000000      -0.01818182       0.00000000 </v>
   <v>       0.40000000       0.01818182       0.00000000 </v>
   <v>      -0.01818182       0.41818182       0.00000000 </v>
   <v>      -0.41818182       0.40000000       0.00000000 </v>
   <v>      -0.40000000       0.41818182       0.00000000 </v>
   <v>       0.01818182       0.40000000       0.00000000 </v>
   <v>       0.41818182      -0.01818182       0.00000000 </v>
   <v>       0.41818182       0.01818182       0.00000000 </v>
   <v>      -0.01818182       0.43636364       0.00000000 </v>
   <v>      -0.43636364       0.41818182       0.00000000 </v>
   <v>      -0.41818182       0.43636364       0.00000000 </v>
   <v>       0.01818182       0.41818182       0.00000000 </v>
   <v>       0.43636364      -0.01818182       0.00000000 </v>
   <v>       0.43636364       0.01818182       0.00000000 </v>
   <v>      -0.01818182       0.45454545       0.00000000 </v>
   <v>      -0.45454545       0.43636364       0.00000000 </v>
   <v>      -0.43636364       0.45454545       0.00000000 </v>
   <v>       0.01818182       0.43636364       0.00000000 </v>
   <v>       0.45454545      -0.01818182       0.00000000 </v>
   <v>       0.45454545       0.01818182       0.00000000 </v>
   <v>      -0.01818182       0.47272727       0.00000000 </v>
   <v>      -0.47272727       0.45454545       0.00000000 </v>
   <v>      -0.45454545       0.47272727       0.00000000 </v>
   <v>       0.01818182       0.45454545       0.00000000 </v>
   <v>       0.47272727      -0.01818182       0.00000000 </v>
   <v>       0.47272727       0.01818182       0.00000000 </v>
   <v>      -0.01818182       0.49090909       0.00000000 </v>
   <v>      -0.49090909       0.47272727       0.00000000 </v>
   <v>      -0.47272727       0.49090909       0.00000000 </v>
   <v>       0.01818182       0.47272727       0.00000000 </v>
   <v>       0.49090909      -0.01818182       0.00000000 </v>
   <v>       0.49090909       0.01818182       0.00000000 </v>
   <v>      -0.01818182      -0.49090909       0.00000000 </v>
   <v>       0.49090909       0.49090909       0.00000000 </v>
   <v>       0.03636364       0.03636364       0.00000000 </v>
   <v>      -0.03636364       0.07272727       0.00000000 </v>
   <v>      -0.07272727       0.03636364       0.00000000 </v>
   <v>       0.05454545       0.03636364       0.00000000 </v>
   <v>      -0.03636364       0.09090909       0.00000000 </v>
   <v>      -0.09090909       0.05454545       0.00000000 </v>
   <v>      -0.05454545       0.09090909       0.00000000 </v>
   <v>       0.03636364       0.05454545       0.00000000 </v>
   <v>       0.09090909      -0.03636364       0.00000000 </v>
   <v>       0.07272727       0.03636364       0.00000000 </v>
   <v>      -0.03636364       0.10909091       0.00000000 </v>
   <v>      -0.10909091       0.07272727       0.00000000 </v>
   <v>      -0.07272727       0.10909091       0.00000000 </v>
   <v>       0.03636364       0.07272727       0.00000000 </v>
   <v>       0.10909091      -0.03636364       0.00000000 </v>
   <v>       0.09090909       0.03636364       0.00000000 </v>
   <v>      -0.03636364       0.12727273       0.00000000 </v>
   <v>      -0.12727273       0.09090909       0.00000000 </v>
   <v>      -0.09090909       0.12727273       0.00000000 </v>
   <v>       0.03636364       0.09090909       0.00000000 </v>
   <v>       0.12727273      -0.03636364       0.00000000 </v>
   <v>       0.10909091       0.03636364       0.00000000 </v>
   <v>      -0.03636364       0.14545455       0.00000000 </v>
   <v>      -0.14545455       0.10909091       0.00000000 </v>
   <v>      -0.10909091       0.14545455       0.00000000 </v>
   <v>       0.03636364       0.10909091       0.00000000 </v>
   <v>       0.14545455      -0.03636364       0.00000000 </v>
   <v>       0.12727273       0.03636364       0.00000000 </v>
   <v>      -0.03636364       0.16363636       0.00000000 </v>
   <v>      -0.16363636       0.12727273       0.00000000 </v>
   <v>      -0.12727273       0.16363636       0.00000000 </v>
   <v>       0.03636364       0.12727273       0.00000000 </v>
   <v>       0.16363636      -0.03636364       0.00000000 </v>
   <v>       0.14545455       0.03636364       0.00000000 </v>
   <v>      -0.03636364       0.18181818       0.00000000 </v>
   <v>      -0.18181818       0.14545455       0.00000000 </v>
   <v>      -0.14545455       0.18181818       0.00000000 </v>
   <v>       0.03636364       0.14545455       0.00000000 </v>
   <v>       0.18181818      -0.03636364       0.00000000 </v>
   <v>       0.16363636       0.03636364       0.00000000 </v>
   <v>      -0.03636364       0.20000000       0.00000000 </v>
   <v>      -0.20000000       0.16363636       0.00000000 </v>
   <v>      -0.16363636       0.20000000       0.00000000 </v>
   <v>       0.03636364       0.16363636       0.00000000 </v>
   <v>       0.20000000      -0.03636364       0.00000000 </v>
   <v>       0.18181818       0.03636364       0.00000000 </v>
   <v>      -0.03636364       0.21818182       0.00000000 </v>
   <v>      -0.21818182       0.18181818       0.00000000 </v>
   <v>      -0.18181818       0.21818182       0.00000000 </v>
   <v>       0.03636364       0.18181818       0.00000000 </v>
   <v>       0.21818182      -0.03636364       0.00000000 </v>
   <v>       0.20000000       0.03636364       0.00000000 </v>
   <v>      -0.03636364       0.23636364       0.00000000 </v>
   <v>      -0.23636364       0.20000000       0.00000000 </v>
   <v>      -0.20000000       0.23636364       0.00000000 </v>
   <v>       0.03636364       0.20000000       0.00000000 </v>
   <v>       0.23636364      -0.03636364       0.00000000 </v>
   <v>       0.21818182       0.03636364       0.00000000 </v>
   <v>      -0.03636364       0.25454545       0.00000000 </v>
   <v>      -0.25454545       0.21818182       0.00000000 </v>
   <v>      -0.21818182       0.25454545       0.00000000 </v>
   <v>       0.03636364       0.21818182       0.00000000 </v>
   <v>       0.25454545      -0.03636364       0.00000000 </v>
   <v>       0.23636364       0.03636364       0.00000000 </v>
   <v>      -0.03636364       0.27272727       0.00000000 </v>
   <v>      -0.27272727       0.23636364       0.00000000 </v>
   <v>      -0.23636364       0.27272727       0.00000000 </v>
   <v>       0.03636364       0.23636364       0.00000000 </v>
   <v>       0.27272727      -0.03636364       0.00000000 </v>
   <v>       0.25454545       0.03636364       0.00000000 </v>
   <v>      -0.03636364       0.29090909       0.00000000 </v>
   <v>      -0.29090909       0.25454545       0.00000000 </v>
   <v>      -0.25454545       0.29090909       0.00000000 </v>
   <v>       0.03636364       0.25454545       0.00000000 </v>
   <v>       0.29090909      -0.03636364       0.00000000 </v>
   <v>       0.27272727       0.03636364       0.00000000 </v>
   <v>      -0.03636364       0.30909091       0.00000000 </v>
   <v>      -0.30909091       0.27272727       0.00000000 </v>
   <v>      -0.27272727       0.30909091       0.00000000 </v>
   <v>       0.03636364       0.27272727       0.00000000 </v>
   <v>       0.30909091      -0.03636364       0.00000000 </v>
   <v>       0.29090909       0.03636364       0.00000000 </v>
   <v>      -0.03636364       0.32727273       0.00000000 </v>
   <v>      -0.32727273       0.29090909       0.00000000 </v>
   <v>      -0.29090909       0.32727273       0.00000000 </v>
   <v>       0.03636364       0.29090909       0.00000000 </v>
   <v>       0.32727273      -0.03636364       0.00000000 </v>
   <v>       0.30909091       0.03636364       0.00000000 </v>
   <v>      -0.03636364       0.34545455       0.00000000 </v>
   <v>      -0.34545455       0.30909091       0.00000000 </v>
   <v>      -0.30909091       0.34545455       0.00000000 </v>
   <v>       0.03636364       0.30909091       0.00000000 </v>
   <v>       0.34545455      -0.03636364       0.00000000 </v>
   <v>       0.32727273       0.03636364       0.00000000 </v>
   <v>      -0.03636364       0.36363636       0.00000000 </v>
   <v>      -0.36363636       0.32727273       0.00000000 </v>
   <v>      -0.32727273       0.36363636       0.00000000 </v>
   <v>       0.03636364       0.32727273       0.00000000 </v>
   <v>       0.36363636      -0.03636364       0.00000000 </v>
   <v>       0.34545455       0.03636364       0.00000000 </v>
   <v>      -0.03636364       0.38181818       0.00000000 </v>
   <v>      -0.38181818       0.34545455       0.00000000 </v>
   <v>      -0.34545455       0.38181818       0.00000000 </v>
   <v>       0.03636364       0.34545455       0.00000000 </v>
   <v>       0.38181818      -0.03636364       0.00000000 </v>
   <v>       0.36363636       0.03636364       0.00000000 </v>
   <v>      -0.03636364       0.40000000       0.00000000 </v>
   <v>      -0.40000000       0.36363636       0.00000000 </v>
   <v>      -0.36363636       0.40000000       0.00000000 </v>
   <v>       0.03636364       0.36363636       0.00000000 </v>
   <v>       0.40000000      -0.03636364       0.00000000 </v>
   <v>       0.38181818       0.03636364       0.00000000 </v>
   <v>      -0.03636364       0.41818182       0.00000000 </v>
   <v>      -0.41818182       0.38181818       0.00000000 </v>
   <v>      -0.38181818       0.41818182       0.00000000 </v>
   <v>       0.03636364       0.38181818       0.00000000 </v>
   <v>       0.41818182      -0.03636364       0.00000000 </v>
   <v>       0.40000000       0.03636364       0.00000000 </v>
   <v>      -0.03636364       0.43636364       0.00000000 </v>
   <v>      -0.43636364       0.40000000       0.00000000 </v>
   <v>      -0.40000000       0.43636364       0.00000000 </v>
   <v>       0.03636364       0.40000000       0.00000000 </v>
   <v>       0.43636364      -0.03636364       0.00000000 </v>
   <v>       0.41818182       0.03636364       0.00000000 </v>
   <v>      -0.03636364       0.45454545       0.00000000 </v>
   <v>      -0.45454545       0.41818182       0.00000000 </v>
   <v>      -0.41818182       0.45454545       0.00000000 </v>
   <v>       0.03636364       0.41818182       0.00000000 </v>
   <v>       0.45454545      -0.03636364       0.00000000 </v>
   <v>       0.43636364       0.03636364       0.00000000 </v>
   <v>      -0.03636364       0.47272727       0.00000000 </v>
   <v>      -0.47272727       0.43636364       0.00000000 </v>
   <v>      -0.43636364       0.47272727       0.00000000 </v>
   <v>       0.03636364       0.43636364       0.00000000 </v>
   <v>       0.47272727      -0.03636364       0.00000000 </v>
   <v>       0.45454545       0.03636364       0.00000000 </v>
   <v>      -0.03636364       0.49090909       0.00000000 </v>
   <v>      -0.49090909       0.45454545       0.00000000 </v>
   <v>      -0.45454545       0.49090909       0.00000000 </v>
   <v>       0.03636364       0.45454545       0.00000000 </v>
   <v>       0.49090909      -0.03636364       0.00000000 </v>
   <v>       0.47272727       0.03636364       0.00000000 </v>
   <v>      -0.03636364      -0.49090909       0.00000000 </v>
   <v>       0.49090909       0.47272727       0.00000000 </v>
   <v>      -0.47272727      -0.49090909       0.00000000 </v>
   <v>       0.03636364       0.47272727       0.00000000 </v>
   <v>      -0.49090909      -0.03636364       0.00000000 </v>
   <v>       0.05454545       0.05454545       0.00000000 </v>
   <v>      -0.05454545       0.10909091       0.00000000 </v>
   <v>      -0.10909091       0.05454545       0.00000000 </v>
   <v>       0.07272727       0.05454545       0.00000000 </v>
   <v>      -0.05454545       0.12727273       0.00000000 </v>
   <v>      -0.12727273       0.07272727       0.00000000 </v>
   <v>      -0.07272727       0.12727273       0.00000000 </v>
   <v>       0.05454545       0.07272727       0.00000000 </v>
   <v>       0.12727273      -0.05454545       0.00000000 </v>
   <v>       0.09090909       0.05454545       0.00000000 </v>
   <v>      -0.05454545       0.14545455       0.00000000 </v>
   <v>      -0.14545455       0.09090909       0.00000000 </v>
   <v>      -0.09090909       0.14545455       0.00000000 </v>
   <v>       0.05454545       0.09090909       0.00000000 </v>
   <v>       0.14545455      -0.05454545       0.00000000 </v>
   <v>       0.10909091       0.05454545       0.00000000 </v>
   <v>      -0.05454545       0.16363636       0.00000000 </v>
   <v>      -0.16363636       0.10909091       0.00000000 </v>
   <v>      -0.10909091       0.16363636       0.00000000 </v>
   <v>       0.05454545       0.10909091       0.00000000 </v>
   <v>       0.16363636      -0.05454545       0.00000000 </v>
   <v>       0.12727273       0.05454545       0.00000000 </v>
   <v>      -0.05454545       0.18181818       0.00000000 </v>
   <v>      -0.18181818       0.12727273       0.00000000 </v>
   <v>      -0.12727273       0.18181818       0.00000000 </v>
   <v>       0.05454545       0.12727273       0.00000000 </v>
   <v>       0.18181818      -0.05454545       0.00000000 </v>
   <v>       0.14545455       0.05454545       0.00000000 </v>
   <v>      -0.05454545       0.20000000       0.00000000 </v>
   <v>      -0.20000000       0.14545455       0.00000000 </v>
   <v>      -0.14545455       0.20000000       0.00000000 </v>
   <v>       0.05454545       0.14545455       0.00000000 </v>
   <v>       0.20000000      -0.05454545       0.00000000 </v>
   <v>       0.16363636       0.05454545       0.00000000 </v>
   <v>      -0.05454545       0.21818182       0.00000000 </v>
   <v>      -0.21818182       0.16363636       0.00000000 </v>
   <v>      -0.16363636       0.21818182       0.00000000 </v>
   <v>       0.05454545       0.16363636       0.00000000 </v>
   <v>       0.21818182      -0.05454545       0.00000000 </v>
   <v>       0.18181818       0.05454545       0.00000000 </v>
   <v>      -0.05454545       0.23636364       0.00000000 </v>
   <v>      -0.23636364       0.18181818       0.00000000 </v>
   <v>      -0.18181818       0.23636364       0.00000000 </v>
   <v>       0.05454545       0.18181818       0.00000000 </v>
   <v>       0.23636364      -0.05454545       0.00000000 </v>
   <v>       0.20000000       0.05454545       0.00000000 </v>
   <v>      -0.05454545       0.25454545       0.00000000 </v>
   <v>      -0.25454545       0.20000000       0.00000000 </v>
   <v>      -0.20000000       0.25454545       0.00000000 </v>
   <v>       0.05454545       0.20000000       0.00000000 </v>
   <v>       0.25454545      -0.05454545       0.00000000 </v>
   <v>       0.21818182       0.05454545       0.00000000 </v>
   <v>      -0.05454545       0.27272727       0.00000000 </v>
   <v>      -0.27272727       0.21818182       0.00000000 </v>
   <v>      -0.21818182       0.27272727       0.00000000 </v>
   <v>       0.05454545       0.21818182       0.00000000 </v>
   <v>       0.27272727      -0.05454545       0.00000000 </v>
   <v>       0.23636364       0.05454545       0.00000000 </v>
   <v>      -0.05454545       0.29090909       0.00000000 </v>
   <v>      -0.29090909       0.23636364       0.00000000 </v>
   <v>      -0.23636364       0.29090909       0.00000000 </v>
   <v>       0.05454545       0.23636364       0.00000000 </v>
   <v>       0.29090909      -0.05454545       0.00000000 </v>
   <v>       0.25454545       0.05454545       0.00000000 </v>
   <v>      -0.05454545       0.30909091       0.00000000 </v>
   <v>      -0.30909091       0.25454545       0.00000000 </v>
   <v>      -0.25454545       0.30909091       0.00000000 </v>
   <v>       0.05454545       0.25454545       0.00000000 </v>
   <v>       0.30909091      -0.05454545       0.00000000 </v>
   <v>       0.27272727       0.05454545       0.00000000 </v>
   <v>      -0.05454545       0.32727273       0.00000000 </v>
   <v>      -0.32727273       0.27272727       0.00000000 </v>
   <v>      -0.27272727       0.32727273       0.00000000 </v>
   <v>       0.05454545       0.27272727       0.00000000 </v>
   <v>       0.32727273      -0.05454545       0.00000000 </v>
   <v>       0.29090909       0.05454545       0.00000000 </v>
   <v>      -0.05454545       0.34545455       0.00000000 </v>
   <v>      -0.34545455       0.29090909       0.00000000 </v>
   <v>      -0.29090909       0.34545455       0.00000000 </v>
   <v>       0.05454545       0.29090909       0.00000000 </v>
   <v>       0.34545455      -0.05454545       0.00000000 </v>
   <v>       0.30909091       0.05454545       0.00000000 </v>
   <v>      -0.05454545       0.36363636       0.00000000 </v>
   <v>      -0.36363636       0.30909091       0.00000000 </v>
   <v>      -0.30909091       0.36363636       0.00000000 </v>
   <v>       0.05454545       0.30909091       0.00000000 </v>
   <v>       0.36363636      -0.05454545       0.00000000 </v>
   <v>       0.32727273       0.05454545       0.00000000 </v>
   <v>      -0.05454545       0.38181818       0.00000000 </v>
   <v>      -0.38181818       0.32727273       0.00000000 </v>
   <v>      -0.32727273       0.38181818       0.00000000 </v>
   <v>       0.05454545       0.32727273       0.00000000 </v>
   <v>       0.38181818      -0.05454545       0.00000000 </v>
   <v>       0.34545455       0.05454545       0.00000000 </v>
   <v>      -0.05454545       0.40000000       0.00000000 </v>
   <v>      -0.40000000       0.34545455       0.00000000 </v>
   <v>      -0.34545455       0.40000000       0.00000000 </v>
   <v>       0.05454545       0.34545455       0.00000000 </v>
   <v>       0.40000000      -0.05454545       0.00000000 </v>
   <v>       0.36363636       0.05454545       0.00000000 </v>
   <v>      -0.05454545       0.41818182       0.00000000 </v>
   <v>      -0.41818182       0.36363636       0.00000000 </v>
   <v>      -0.36363636       0.41818182       0.00000000 </v>
   <v>       0.05454545       0.36363636       0.00000000 </v>
   <v>       0.41818182      -0.05454545       0.00000000 </v>
   <v>       0.38181818       0.05454545       0.00000000 </v>
   <v>      -0.05454545       0.43636364       0.00000000 </v>
   <v>      -0.43636364       0.38181818       0.00000000 </v>
   <v>      -0.38181818       0.43636364       0.00000000 </v>
   <v>       0.05454545       0.38181818       0.00000000 </v>
   <v>       0.43636364      -0.05454545       0.00000000 </v>
   <v>       0.40000000       0.05454545       0.00000000 </v>
   <v>      -0.05454545       0.45454545       0.00000000 </v>
   <v>      -0.45454545       0.40000000       0.00000000 </v>
   <v>      -0.40000000       0.45454545       0.00000000 </v>
   <v>       0.05454545       0.40000000       0.00000000 </v>
   <v>       0.45454545      -0.05454545       0.00000000 </v>
   <v>       0.41818182       0.05454545       0.00000000 </v>
   <v>      -0.05454545       0.47272727       0.00000000 </v>
   <v>      -0.47272727       0.41818182       0.00000000 </v>
   <v>      -0.41818182       0.47272727       0.00000000 </v>
   <v>       0.05454545       0.41818182       0.00000000 </v>
   <v>       0.47272727      -0.05454545       0.00000000 </v>
   <v>       0.43636364       0.05454545       0.00000000 </v>
   <v>      -0.05454545       0.49090909       0.00000000 </v>
   <v>      -0.49090909       0.43636364       0.00000000 </v>
   <v>      -0.43636364       0.49090909       0.00000000 </v>
   <v>       0.05454545       0.43636364       0.00000000 </v>
   <v>       0.49090909      -0.05454545       0.00000000 </v>
   <v>       0.45454545       0.05454545       0.00000000 </v>
   <v>      -0.05454545      -0.49090909       0.00000000 </v>
   <v>       0.49090909       0.45454545       0.00000000 </v>
   <v>      -0.45454545      -0.49090909       0.00000000 </v>
   <v>       0.05454545       0.45454545       0.00000000 </v>
   <v>      -0.49090909      -0.05454545       0.00000000 </v>
   <v>       0.47272727       0.05454545       0.00000000 </v>
   <v>      -0.05454545      -0.47272727       0.00000000 </v>
   <v>       0.47272727       0.47272727       0.00000000 </v>
   <v>       0.07272727       0.07272727       0.00000000 </v>
   <v>      -0.07272727       0.14545455       0.00000000 </v>
   <v>      -0.14545455       0.07272727       0.00000000 </v>
   <v>       0.09090909       0.07272727       0.00000000 </v>
   <v>      -0.07272727       0.16363636       0.00000000 </v>
   <v>      -0.16363636       0.09090909       0.00000000 </v>
   <v>      -0.09090909       0.16363636       0.00000000 </v>
   <v>       0.07272727       0.09090909       0.00000000 </v>
   <v>       0.16363636      -0.07272727       0.00000000 </v>
   <v>       0.10909091       0.07272727       0.00000000 </v>
   <v>      -0.07272727       0.18181818       0.00000000 </v>
   <v>      -0.18181818       0.10909091       0.00000000 </v>
   <v>      -0.10909091       0.18181818       0.00000000 </v>
   <v>       0.07272727       0.10909091       0.00000000 </v>
   <v>       0.18181818      -0.07272727       0.00000000 </v>
   <v>       0.12727273       0.07272727       0.00000000 </v>
   <v>      -0.07272727       0.20000000       0.00000000 </v>
   <v>      -0.20000000       0.12727273       0.00000000 </v>
   <v>      -0.12727273       0.20000000       0.00000000 </v>
   <v>       0.07272727       0.12727273       0.00000000 </v>
   <v>       0.20000000      -0.07272727       0.00000000 </v>
   <v>       0.14545455       0.07272727       0.00000000 </v>
   <v>      -0.07272727       0.21818182       0.00000000 </v>
   <v>      -0.21818182       0.14545455       0.00000000 </v>
   <v>      -0.14545455       0.21818182       0.00000000 </v>
   <v>       0.07272727       0.14545455       0.00000000 </v>
   <v>       0.21818182      -0.07272727       0.00000000 </v>
   <v>       0.16363636       0.07272727       0.00000000 </v>
   <v>      -0.07272727       0.23636364       0.00000000 </v>
   <v>      -0.23636364       0.16363636       0.00000000 </v>
   <v>      -0.16363636       0.23636364       0.00000000 </v>
   <v>       0.07272727       0.16363636       0.00000000 </v>
   <v>       0.23636364      -0.07272727       0.00000000 </v>
   <v>       0.18181818       0.07272727       0.00000000 </v>
   <v>      -0.07272727       0.25454545       0.00000000 </v>
   <v>      -0.25454545       0.18181818       0.00000000 </v>
   <v>      -0.18181818       0.25454545       0.00000000 </v>
   <v>       0.07272727       0.18181818       0.00000000 </v>
   <v>       0.25454545      -0.07272727       0.00000000 </v>
   <v>       0.20000000       0.07272727       0.00000000 </v>
   <v>      -0.07272727       0.27272727       0.00000000 </v>
   <v>      -0.27272727       0.20000000       0.00000000 </v>
   <v>      -0.20000000       0.27272727       0.00000000 </v>
   <v>       0.07272727       0.20000000       0.00000000 </v>
   <v>       0.27272727      -0.07272727       0.00000000 </v>
   <v>       0.21818182       0.07272727       0.00000000 </v>
   <v>      -0.07272727       0.29090909       0.00000000 </v>
   <v>      -0.29090909       0.21818182       0.00000000 </v>
   <v>      -0.21818182       0.29090909       0.00000000 </v>
   <v>       0.07272727       0.21818182       0.00000000 </v>
   <v>       0.29090909      -0.07272727       0.00000000 </v>
   <v>       0.23636364       0.07272727       0.00000000 </v>
   <v>      -0.07272727       0.30909091       0.00000000 </v>
   <v>      -0.30909091       0.23636364       0.00000000 </v>
   <v>      -0.23636364       0.30909091       0.00000000 </v>
   <v>       0.07272727       0.23636364       0.00000000 </v>
   <v>       0.30909091      -0.07272727       0.00000000 </v>
   <v>       0.25454545       0.07272727       0.00000000 </v>
   <v>      -0.07272727       0.32727273       0.00000000 </v>
   <v>      -0.32727273       0.25454545       0.00000000 </v>
   <v>      -0.25454545       0.32727273       0.00000000 </v>
   <v>       0.07272727       0.25454545       0.00000000 </v>
   <v>       0.32727273      -0.07272727       0.00000000 </v>
   <v>       0.27272727       0.07272727       0.00000000 </v>
   <v>      -0.07272727       0.34545455       0.00000000 </v>
   <v>      -0.34545455       0.27272727       0.00000000 </v>
   <v>      -0.27272727       0.34545455       0.00000000 </v>
   <v>       0.07272727       0.27272727       0.00000000 </v>
   <v>       0.34545455      -0.07272727       0.00000000 </v>
   <v>       0.29090909       0.07272727       0.00000000 </v>
   <v>      -0.07272727       0.36363636       0.00000000 </v>
   <v>      -0.36363636       0.29090909       0.00000000 </v>
   <v>      -0.29090909       0.36363636       0.00000000 </v>
   <v>       0.07272727       0.29090909       0.00000000 </v>
   <v>       0.36363636      -0.07272727       0.00000000 </v>
   <v>       0.30909091       0.07272727       0.00000000 </v>
   <v>      -0.07272727       0.38181818       0.00000000 </v>
   <v>      -0.38181818       0.30909091       0.00000000 </v>
   <v>      -0.30909091       0.38181818       0.00000000 </v>
   <v>       0.07272727       0.30909091       0.00000000 </v>
   <v>       0.38181818      -0.07272727       0.00000000 </v>
   <v>       0.32727273       0.07272727       0.00000000 </v>
   <v>      -0.07272727       0.40000000       0.00000000 </v>
   <v>      -0.40000000       0.32727273       0.00000000 </v>
   <v>      -0.32727273       0.40000000       0.00000000 </v>
   <v>       0.07272727       0.32727273       0.00000000 </v>
   <v>       0.40000000      -0.07272727       0.00000000 </v>
   <v>       0.34545455       0.07272727       0.00000000 </v>
   <v>      -0.07272727       0.41818182       0.00000000 </v>
   <v>      -0.41818182       0.34545455       0.00000000 </v>
   <v>      -0.34545455       0.41818182       0.00000000 </v>
   <v>       0.07272727       0.34545455       0.00000000 </v>
   <v>       0.41818182      -0.07272727       0.00000000 </v>
   <v>       0.36363636       0.07272727       0.00000000 </v>
   <v>      -0.07272727       0.43636364       0.00000000 </v>
   <v>      -0.43636364       0.36363636       0.00000000 </v>
   <v>      -0.36363636       0.43636364       0.00000000 </v>
   <v>       0.07272727       0.36363636       0.00000000 </v>
   <v>       0.43636364      -0.07272727       0.00000000 </v>
   <v>       0.38181818       0.07272727       0.00000000 </v>
   <v>      -0.07272727       0.45454545       0.00000000 </v>
   <v>      -0.45454545       0.38181818       0.00000000 </v>
   <v>      -0.38181818       0.45454545       0.00000000 </v>
   <v>       0.07272727       0.38181818       0.00000000 </v>
   <v>       0.45454545      -0.07272727       0.00000000 </v>
   <v>       0.40000000       0.07272727       0.00000000 </v>
   <v>      -0.07272727       0.47272727       0.00000000 </v>
   <v>      -0.47272727       0.40000000       0.00000000 </v>
   <v>      -0.40000000       0.47272727       0.00000000 </v>
   <v>       0.07272727       0.40000000       0.00000000 </v>
   <v>       0.47272727      -0.07272727       0.00000000 </v>
   <v>       0.41818182       0.07272727       0.00000000 </v>
   <v>      -0.07272727       0.49090909       0.00000000 </v>
   <v>      -0.49090909       0.41818182       0.00000000 </v>
   <v>      -0.41818182       0.49090909       0.00000000 </v>
   <v>       0.07272727       0.41818182       0.00000000 </v>
   <v>       0.49090909      -0.07272727       0.00000000 </v>
   <v>       0.43636364       0.07272727       0.00000000 </v>
   <v>      -0.07272727      -0.49090909       0.00000000 </v>
   <v>       0.49090909       0.43636364       0.00000000 </v>
   <v>      -0.43636364      -0.49090909       0.00000000 </v>
   <v>       0.07272727       0.43636364       0.00000000 </v>
   <v>      -0.49090909      -0.07272727       0.00000000 </v>
   <v>       0.45454545       0.07272727       0.00000000 </v>
   <v>      -0.07272727      -0.47272727       0.00000000 </v>
   <v>       0.47272727       0.45454545       0.00000000 </v>
   <v>      -0.45454545      -0.47272727       0.00000000 </v>
   <v>       0.07272727       0.45454545       0.00000000 </v>
   <v>      -0.47272727      -0.07272727       0.00000000 </v>
   <v>       0.09090909       0.09090909       0.00000000 </v>
   <v>      -0.09090909       0.18181818       0.00000000 </v>
   <v>      -0.18181818       0.09090909       0.00000000 </v>
   <v>       0.10909091       0.09090909       0.00000000 </v>
   <v>      -0.09090909       0.20000000       0.00000000 </v>
   <v>      -0.20000000       0.10909091       0.00000000 </v>
   <v>      -0.10909091       0.20000000       0.00000000 </v>
   <v>       0.09090909       0.10909091       0.00000000 </v>
   <v>       0.20000000      -0.09090909       0.00000000 </v>
   <v>       0.12727273       0.09090909       0.00000000 </v>
   <v>      -0.09090909       0.21818182       0.00000000 </v>
   <v>      -0.21818182       0.12727273       0.00000000 </v>
   <v>      -0.12727273       0.21818182       0.00000000 </v>
   <v>       0.09090909       0.12727273       0.00000000 </v>
   <v>       0.21818182      -0.09090909       0.00000000 </v>
   <v>       0.14545455       0.09090909       0.00000000 </v>
   <v>      -0.09090909       0.23636364       0.00000000 </v>
   <v>      -0.23636364       0.14545455       0.00000000 </v>
   <v>      -0.14545455       0.23636364       0.00000000 </v>
   <v>       0.09090909       0.14545455       0.00000000 </v>
   <v>       0.23636364      -0.09090909       0.00000000 </v>
   <v>       0.16363636       0.09090909       0.00000000 </v>
   <v>      -0.09090909       0.25454545       0.00000000 </v>
   <v>      -0.25454545       0.16363636       0.00000000 </v>
   <v>      -0.16363636       0.25454545       0.00000000 </v>
   <v>       0.09090909       0.16363636       0.00000000 </v>
   <v>       0.25454545      -0.09090909       0.00000000 </v>
   <v>       0.18181818       0.09090909       0.00000000 </v>
   <v>      -0.09090909       0.27272727       0.00000000 </v>
   <v>      -0.27272727       0.18181818       0.00000000 </v>
   <v>      -0.18181818       0.27272727       0.00000000 </v>
   <v>       0.09090909       0.18181818       0.00000000 </v>
   <v>       0.27272727      -0.09090909       0.00000000 </v>
   <v>       0.20000000       0.09090909       0.00000000 </v>
   <v>      -0.09090909       0.29090909       0.00000000 </v>
   <v>      -0.29090909       0.20000000       0.00000000 </v>
   <v>      -0.20000000       0.29090909       0.00000000 </v>
   <v>       0.09090909       0.20000000       0.00000000 </v>
   <v>       0.29090909      -0.09090909       0.00000000 </v>
   <v>       0.21818182       0.09090909       0.00000000 </v>
   <v>      -0.09090909       0.30909091       0.00000000 </v>
   <v>      -0.30909091       0.21818182       0.00000000 </v>
   <v>      -0.21818182       0.30909091       0.00000000 </v>
   <v>       0.09090909       0.21818182       0.00000000 </v>
   <v>       0.30909091      -0.09090909       0.00000000 </v>
   <v>       0.23636364       0.09090909       0.00000000 </v>
   <v>      -0.09090909       0.32727273       0.00000000 </v>
   <v>      -0.32727273       0.23636364       0.00000000 </v>
   <v>      -0.23636364       0.32727273       0.00000000 </v>
   <v>       0.09090909       0.23636364       0.00000000 </v>
   <v>       0.32727273      -0.09090909       0.00000000 </v>
   <v>       0.25454545       0.09090909       0.00000000 </v>
   <v>      -0.09090909       0.34545455       0.00000000 </v>
   <v>      -0.34545455       0.25454545       0.00000000 </v>
   <v>      -0.25454545       0.34545455       0.00000000 </v>
   <v>       0.09090909       0.25454545       0.00000000 </v>
   <v>       0.34545455      -0.09090909       0.00000000 </v>
   <v>       0.27272727       0.09090909       0.00000000 </v>
   <v>      -0.09090909       0.36363636       0.00000000 </v>
   <v>      -0.36363636       0.27272727       0.00000000 </v>
   <v>      -0.27272727       0.36363636       0.00000000 </v>
   <v>       0.09090909       0.27272727       0.00000000 </v>
   <v>       0.36363636      -0.09090909       0.00000000 </v>
   <v>       0.29090909       0.09090909       0.00000000 </v>
   <v>      -0.09090909       0.38181818       0.00000000 </v>
   <v>      -0.38181818       0.29090909       0.00000000 </v>
   <v>      -0.29090909       0.38181818       0.00000000 </v>
   <v>       0.09090909       0.29090909       0.00000000 </v>
   <v>       0.38181818      -0.09090909       0.00000000 </v>
   <v>       0.30909091       0.09090909       0.00000000 </v>
   <v>      -0.09090909       0.40000000       0.00000000 </v>
   <v>      -0.40000000       0.30909091       0.00000000 </v>
   <v>      -0.30909091       0.40000000       0.00000000 </v>
   <v>       0.09090909       0.30909091       0.00000000 </v>
   <v>       0.40000000      -0.09090909       0.00000000 </v>
   <v>       0.32727273       0.09090909       0.00000000 </v>
   <v>      -0.09090909       0.41818182       0.00000000 </v>
   <v>      -0.41818182       0.32727273       0.00000000 </v>
   <v>      -0.32727273       0.41818182       0.00000000 </v>
   <v>       0.09090909       0.32727273       0.00000000 </v>
   <v>       0.41818182      -0.09090909       0.00000000 </v>
   <v>       0.34545455       0.09090909       0.00000000 </v>
   <v>      -0.09090909       0.43636364       0.00000000 </v>
   <v>      -0.43636364       0.34545455       0.00000000 </v>
   <v>      -0.34545455       0.43636364       0.00000000 </v>
   <v>       0.09090909       0.34545455       0.00000000 </v>
   <v>       0.43636364      -0.09090909       0.00000000 </v>
   <v>       0.36363636       0.09090909       0.00000000 </v>
   <v>      -0.09090909       0.45454545       0.00000000 </v>
   <v>      -0.45454545       0.36363636       0.00000000 </v>
   <v>      -0.36363636       0.45454545       0.00000000 </v>
   <v>       0.09090909       0.36363636       0.00000000 </v>
   <v>       0.45454545      -0.09090909       0.00000000 </v>
   <v>       0.38181818       0.09090909       0.00000000 </v>
   <v>      -0.09090909       0.47272727       0.00000000 </v>
   <v>      -0.47272727       0.38181818       0.00000000 </v>
   <v>      -0.38181818       0.47272727       0.00000000 </v>
   <v>       0.09090909       0.38181818       0.00000000 </v>
   <v>       0.47272727      -0.09090909       0.00000000 </v>
   <v>       0.40000000       0.09090909       0.00000000 </v>
   <v>      -0.09090909       0.49090909       0.00000000 </v>
   <v>      -0.49090909       0.40000000       0.00000000 </v>
   <v>      -0.40000000       0.49090909       0.00000000 </v>
   <v>       0.09090909       0.40000000       0.00000000 </v>
   <v>       0.49090909      -0.09090909       0.00000000 </v>
   <v>       0.41818182       0.09090909       0.00000000 </v>
   <v>      -0.09090909      -0.49090909       0.00000000 </v>
   <v>       0.49090909       0.41818182       0.00000000 </v>
   <v>      -0.41818182      -0.49090909       0.00000000 </v>
   <v>       0.09090909       0.41818182       0.00000000 </v>
   <v>      -0.49090909      -0.09090909       0.00000000 </v>
   <v>       0.43636364       0.09090909       0.00000000 </v>
   <v>      -0.09090909      -0.47272727       0.00000000 </v>
   <v>       0.47272727       0.43636364       0.00000000 </v>
   <v>      -0.43636364      -0.47272727       0.00000000 </v>
   <v>       0.09090909       0.43636364       0.00000000 </v>
   <v>      -0.47272727      -0.09090909       0.00000000 </v>
   <v>       0.45454545       0.09090909       0.00000000 </v>
   <v>      -0.09090909      -0.45454545       0.00000000 </v>
   <v>       0.45454545       0.45454545       0.00000000 </v>
   <v>       0.10909091       0.10909091       0.00000000 </v>
   <v>      -0.10909091       0.21818182       0.00000000 </v>
   <v>      -0.21818182       0.10909091       0.00000000 </v>
   <v>       0.12727273       0.10909091       0.00000000 </v>
   <v>      -0.10909091       0.23636364       0.00000000 </v>
   <v>      -0.23636364       0.12727273       0.00000000 </v>
   <v>      -0.12727273       0.23636364       0.00000000 </v>
   <v>       0.10909091       0.12727273       0.00000000 </v>
   <v>       0.23636364      -0.10909091       0.00000000 </v>
   <v>       0.14545455       0.10909091       0.00000000 </v>
   <v>      -0.10909091       0.25454545       0.00000000 </v>
   <v>      -0.25454545       0.14545455       0.00000000 </v>
   <v>      -0.14545455       0.25454545       0.00000000 </v>
   <v>       0.10909091       0.14545455       0.00000000 </v>
   <v>       0.25454545      -0.10909091       0.00000000 </v>
   <v>       0.16363636       0.10909091       0.00000000 </v>
   <v>      -0.10909091       0.27272727       0.00000000 </v>
   <v>      -0.27272727       0.16363636       0.00000000 </v>
   <v>      -0.16363636       0.27272727       0.00000000 </v>
   <v>       0.10909091       0.16363636       0.00000000 </v>
   <v>       0.27272727      -0.10909091       0.00000000 </v>
   <v>       0.18181818       0.10909091       0.00000000 </v>
   <v>      -0.10909091       0.29090909       0.00000000 </v>
   <v>      -0.29090909       0.18181818       0.00000000 </v>
   <v>      -0.18181818       0.29090909       0.00000000 </v>
   <v>       0.10909091       0.18181818       0.00000000 </v>
   <v>       0.29090909      -0.10909091       0.00000000 </v>
   <v>       0.20000000       0.10909091       0.00000000 </v>
   <v>      -0.10909091       0.30909091       0.00000000 </v>
   <v>      -0.30909091       0.20000000       0.00000000 </v>
   <v>      -0.20000000       0.30909091       0.00000000 </v>
   <v>       0.10909091       0.20000000       0.00000000 </v>
   <v>       0.30909091      -0.10909091       0.00000000 </v>
   <v>       0.21818182       0.10909091       0.00000000 </v>
   <v>      -0.10909091       0.32727273       0.00000000 </v>
   <v>      -0.32727273       0.21818182       0.00000000 </v>
   <v>      -0.21818182       0.32727273       0.00000000 </v>
   <v>       0.10909091       0.21818182       0.00000000 </v>
   <v>       0.32727273      -0.10909091       0.00000000 </v>
   <v>       0.23636364       0.10909091       0.00000000 </v>
   <v>      -0.10909091       0.34545455       0.00000000 </v>
   <v>      -0.34545455       0.23636364       0.00000000 </v>
   <v>      -0.23636364       0.34545455       0.00000000 </v>
   <v>       0.10909091       0.23636364       0.00000000 </v>
   <v>       0.34545455      -0.10909091       0.00000000 </v>
   <v>       0.25454545       0.10909091       0.00000000 </v>
   <v>      -0.10909091       0.36363636       0.00000000 </v>
   <v>      -0.36363636       0.25454545       0.00000000 </v>
   <v>      -0.25454545       0.36363636       0.00000000 </v>
   <v>       0.10909091       0.25454545       0.00000000 </v>
   <v>       0.36363636      -0.10909091       0.00000000 </v>
   <v>       0.27272727       0.10909091       0.00000000 </v>
   <v>      -0.10909091       0.38181818       0.00000000 </v>
   <v>      -0.38181818       0.27272727       0.00000000 </v>
   <v>      -0.27272727       0.38181818       0.00000000 </v>
   <v>       0.10909091       0.27272727       0.00000000 </v>
   <v>       0.38181818      -0.10909091       0.00000000 </v>
   <v>       0.29090909       0.10909091       0.00000000 </v>
   <v>      -0.10909091       0.40000000       0.00000000 </v>
   <v>      -0.40000000       0.29090909       0.00000000 </v>
   <v>      -0.29090909       0.40000000       0.00000000 </v>
   <v>       0.10909091       0.29090909       0.00000000 </v>
   <v>       0.40000000      -0.10909091       0.00000000 </v>
   <v>       0.30909091       0.10909091       0.00000000 </v>
   <v>      -0.10909091       0.41818182       0.00000000 </v>
   <v>      -0.41818182       0.30909091       0.00000000 </v>
   <v>      -0.30909091       0.41818182       0.00000000 </v>
   <v>       0.10909091       0.30909091       0.00000000 </v>
   <v>       0.41818182      -0.10909091       0.00000000 </v>
   <v>       0.32727273       0.10909091       0.00000000 </v>
   <v>      -0.10909091       0.43636364       0.00000000 </v>
   <v>      -0.43636364       0.32727273       0.00000000 </v>
   <v>      -0.32727273       0.43636364       0.00000000 </v>
   <v>       0.10909091       0.32727273       0.00000000 </v>
   <v>       0.43636364      -0.10909091       0.00000000 </v>
   <v>       0.34545455       0.10909091       0.00000000 </v>
   <v>      -0.10909091       0.45454545       0.00000000 </v>
   <v>      -0.45454545       0.34545455       0.00000000 </v>
   <v>      -0.34545455       0.45454545       0.00000000 </v>
   <v>       0.10909091       0.34545455       0.00000000 </v>
   <v>       0.45454545      -0.10909091       0.00000000 </v>
   <v>       0.36363636       0.10909091       0.00000000 </v>
   <v>      -0.10909091       0.47272727       0.00000000 </v>
   <v>      -0.47272727       0.36363636       0.00000000 </v>
   <v>      -0.36363636       0.47272727       0.00000000 </v>
   <v>       0.10909091       0.36363636       0.00000000 </v>
   <v>       0.47272727      -0.10909091       0.00000000 </v>
   <v>       0.38181818       0.10909091       0.00000000 </v>
   <v>      -0.10909091       0.49090909       0.00000000 </v>
   <v>      -0.49090909       0.38181818       0.00000000 </v>
   <v>      -0.38181818       0.49090909       0.00000000 </v>
   <v>       0.10909091       0.38181818       0.00000000 </v>
   <v>       0.49090909      -0.10909091       0.00000000 </v>
   <v>       0.40000000       0.10909091       0.00000000 </v>
   <v>      -0.10909091      -0.49090909       0.00000000 </v>
   <v>       0.49090909       0.40000000       0.00000000 </v>
   <v>      -0.40000000      -0.49090909       0.00000000 </v>
   <v>       0.10909091       0.40000000       0.00000000 </v>
   <v>      -0.49090909      -0.10909091       0.00000000 </v>
   <v>       0.41818182       0.10909091       0.00000000 </v>
   <v>      -0.10909091      -0.47272727       0.00000000 </v>
   <v>       0.47272727       0.41818182       0.00000000 </v>
   <v>      -0.41818182      -0.47272727       0.00000000 </v>
   <v>       0.10909091       0.41818182       0.00000000 </v>
   <v>      -0.47272727      -0.10909091       0.00000000 </v>
   <v>       0.43636364       0.10909091       0.00000000 </v>
   <v>      -0.10909091      -0.45454545       0.00000000 </v>
   <v>       0.45454545       0.43636364       0.00000000 </v>
   <v>      -0.43636364      -0.45454545       0.00000000 </v>
   <v>       0.10909091       0.43636364       0.00000000 </v>
   <v>      -0.45454545      -0.10909091       0.00000000 </v>
   <v>       0.12727273       0.12727273       0.00000000 </v>
   <v>      -0.12727273       0.25454545       0.00000000 </v>
   <v>      -0.25454545       0.12727273       0.00000000 </v>
   <v>       0.14545455       0.12727273       0.00000000 </v>
   <v>      -0.12727273       0.27272727       0.00000000 </v>
   <v>      -0.27272727       0.14545455       0.00000000 </v>
   <v>      -0.14545455       0.27272727       0.00000000 </v>
   <v>       0.12727273       0.14545455       0.00000000 </v>
   <v>       0.27272727      -0.12727273       0.00000000 </v>
   <v>       0.16363636       0.12727273       0.00000000 </v>
   <v>      -0.12727273       0.29090909       0.00000000 </v>
   <v>      -0.29090909       0.16363636       0.00000000 </v>
   <v>      -0.16363636       0.29090909       0.00000000 </v>
   <v>       0.12727273       0.16363636       0.00000000 </v>
   <v>       0.29090909      -0.12727273       0.00000000 </v>
   <v>       0.18181818       0.12727273       0.00000000 </v>
   <v>      -0.12727273       0.30909091       0.00000000 </v>
   <v>      -0.30909091       0.18181818       0.00000000 </v>
   <v>      -0.18181818       0.30909091       0.00000000 </v>
   <v>       0.12727273       0.18181818       0.00000000 </v>
   <v>       0.30909091      -0.12727273       0.00000000 </v>
   <v>       0.20000000       0.12727273       0.00000000 </v>
   <v>      -0.12727273       0.32727273       0.00000000 </v>
   <v>      -0.32727273       0.20000000       0.00000000 </v>
   <v>      -0.20000000       0.32727273       0.00000000 </v>
   <v>       0.12727273       0.20000000       0.00000000 </v>
   <v>       0.32727273      -0.12727273       0.00000000 </v>
   <v>       0.21818182       0.12727273       0.00000000 </v>
   <v>      -0.12727273       0.34545455       0.00000000 </v>
   <v>      -0.34545455       0.21818182       0.00000000 </v>
   <v>      -0.21818182       0.34545455       0.00000000 </v>
   <v>       0.12727273       0.21818182       0.00000000 </v>
   <v>       0.34545455      -0.12727273       0.00000000 </v>
   <v>       0.23636364       0.12727273       0.00000000 </v>
   <v>      -0.12727273       0.36363636       0.00000000 </v>
   <v>      -0.36363636       0.23636364       0.00000000 </v>
   <v>      -0.23636364       0.36363636       0.00000000 </v>
   <v>       0.12727273       0.23636364       0.00000000 </v>
   <v>       0.36363636      -0.12727273       0.00000000 </v>
   <v>       0.25454545       0.12727273       0.00000000 </v>
   <v>      -0.12727273       0.38181818       0.00000000 </v>
   <v>      -0.38181818       0.25454545       0.00000000 </v>
   <v>      -0.25454545       0.38181818       0.00000000 </v>
   <v>       0.12727273       0.25454545       0.00000000 </v>
   <v>       0.38181818      -0.12727273       0.00000000 </v>
   <v>       0.27272727       0.12727273       0.00000000 </v>
   <v>      -0.12727273       0.40000000       0.00000000 </v>
   <v>      -0.40000000       0.27272727       0.00000000 </v>
   <v>      -0.27272727       0.40000000       0.00000000 </v>
   <v>       0.12727273       0.27272727       0.00000000 </v>
   <v>       0.40000000      -0.12727273       0.00000000 </v>
   <v>       0.29090909       0.12727273       0.00000000 </v>
   <v>      -0.12727273       0.41818182       0.00000000 </v>
   <v>      -0.41818182       0.29090909       0.00000000 </v>
   <v>      -0.29090909       0.41818182       0.00000000 </v>
   <v>       0.12727273       0.29090909       0.00000000 </v>
   <v>       0.41818182      -0.12727273       0.00000000 </v>
   <v>       0.30909091       0.12727273       0.00000000 </v>
   <v>      -0.12727273       0.43636364       0.00000000 </v>
   <v>      -0.43636364       0.30909091       0.00000000 </v>
   <v>      -0.30909091       0.43636364       0.00000000 </v>
   <v>       0.12727273       0.30909091       0.00000000 </v>
   <v>       0.43636364      -0.12727273       0.00000000 </v>
   <v>       0.32727273       0.12727273       0.00000000 </v>
   <v>      -0.12727273       0.45454545       0.00000000 </v>
   <v>      -0.45454545       0.32727273       0.00000000 </v>
   <v>      -0.32727273       0.45454545       0.00000000 </v>
   <v>       0.12727273       0.32727273       0.00000000 </v>
   <v>       0.45454545      -0.12727273       0.00000000 </v>
   <v>       0.34545455       0.12727273       0.00000000 </v>
   <v>      -0.12727273       0.47272727       0.00000000 </v>
   <v>      -0.47272727       0.34545455       0.00000000 </v>
   <v>      -0.34545455       0.47272727       0.00000000 </v>
   <v>       0.12727273       0.34545455       0.00000000 </v>
   <v>       0.47272727      -0.12727273       0.00000000 </v>
   <v>       0.36363636       0.12727273       0.00000000 </v>
   <v>      -0.12727273       0.49090909       0.00000000 </v>
   <v>      -0.49090909       0.36363636       0.00000000 </v>
   <v>      -0.36363636       0.49090909       0.00000000 </v>
   <v>       0.12727273       0.36363636       0.00000000 </v>
   <v>       0.49090909      -0.12727273       0.00000000 </v>
   <v>       0.38181818       0.12727273       0.00000000 </v>
   <v>      -0.12727273      -0.49090909       0.00000000 </v>
   <v>       0.49090909       0.38181818       0.00000000 </v>
   <v>      -0.38181818      -0.49090909       0.00000000 </v>
   <v>       0.12727273       0.38181818       0.00000000 </v>
   <v>      -0.49090909      -0.12727273       0.00000000 </v>
   <v>       0.40000000       0.12727273       0.00000000 </v>
   <v>      -0.12727273      -0.47272727       0.00000000 </v>
   <v>       0.47272727       0.40000000       0.00000000 </v>
   <v>      -0.40000000      -0.47272727       0.00000000 </v>
   <v>       0.12727273       0.40000000       0.00000000 </v>
   <v>      -0.47272727      -0.12727273       0.00000000 </v>
   <v>       0.41818182       0.12727273       0.00000000 </v>
   <v>      -0.12727273      -0.45454545       0.00000000 </v>
   <v>       0.45454545       0.41818182       0.00000000 </v>
   <v>      -0.41818182      -0.45454545       0.00000000 </v>
   <v>       0.12727273       0.41818182       0.00000000 </v>
   <v>      -0.45454545      -0.12727273       0.00000000 </v>
   <v>       0.43636364       0.12727273       0.00000000 </v>
   <v>      -0.12727273      -0.43636364       0.00000000 </v>
   <v>       0.43636364       0.43636364       0.00000000 </v>
   <v>       0.14545455       0.14545455       0.00000000 </v>
   <v>      -0.14545455       0.29090909       0.00000000 </v>
   <v>      -0.29090909       0.14545455       0.00000000 </v>
   <v>       0.16363636       0.14545455       0.00000000 </v>
   <v>      -0.14545455       0.30909091       0.00000000 </v>
   <v>      -0.30909091       0.16363636       0.00000000 </v>
   <v>      -0.16363636       0.30909091       0.00000000 </v>
   <v>       0.14545455       0.16363636       0.00000000 </v>
   <v>       0.30909091      -0.14545455       0.00000000 </v>
   <v>       0.18181818       0.14545455       0.00000000 </v>
   <v>      -0.14545455       0.32727273       0.00000000 </v>
   <v>      -0.32727273       0.18181818       0.00000000 </v>
   <v>      -0.18181818       0.32727273       0.00000000 </v>
   <v>       0.14545455       0.18181818       0.00000000 </v>
   <v>       0.32727273      -0.14545455       0.00000000 </v>
   <v>       0.20000000       0.14545455       0.00000000 </v>
   <v>      -0.14545455       0.34545455       0.00000000 </v>
   <v>      -0.34545455       0.20000000       0.00000000 </v>
   <v>      -0.20000000       0.34545455       0.00000000 </v>
   <v>       0.14545455       0.20000000       0.00000000 </v>
   <v>       0.34545455      -0.14545455       0.00000000 </v>
   <v>       0.21818182       0.14545455       0.00000000 </v>
   <v>      -0.14545455       0.36363636       0.00000000 </v>
   <v>      -0.36363636       0.21818182       0.00000000 </v>
   <v>      -0.21818182       0.36363636       0.00000000 </v>
   <v>       0.14545455       0.21818182       0.00000000 </v>
   <v>       0.36363636      -0.14545455       0.00000000 </v>
   <v>       0.23636364       0.14545455       0.00000000 </v>
   <v>      -0.14545455       0.38181818       0.00000000 </v>
   <v>      -0.38181818       0.23636364       0.00000000 </v>
   <v>      -0.23636364       0.38181818       0.00000000 </v>
   <v>       0.14545455       0.23636364       0.00000000 </v>
   <v>       0.38181818      -0.14545455       0.00000000 </v>
   <v>       0.25454545       0.14545455       0.00000000 </v>
   <v>      -0.14545455       0.40000000       0.00000000 </v>
   <v>      -0.40000000       0.25454545       0.00000000 </v>
   <v>      -0.25454545       0.40000000       0.00000000 </v>
   <v>       0.14545455       0.25454545       0.00000000 </v>
   <v>       0.40000000      -0.14545455       0.00000000 </v>
   <v>       0.27272727       0.14545455       0.00000000 </v>
   <v>      -0.14545455       0.41818182       0.00000000 </v>
   <v>      -0.41818182       0.27272727       0.00000000 </v>
   <v>      -0.27272727       0.41818182       0.00000000 </v>
   <v>       0.14545455       0.27272727       0.00000000 </v>
   <v>       0.41818182      -0.14545455       0.00000000 </v>
   <v>       0.29090909       0.14545455       0.00000000 </v>
   <v>      -0.14545455       0.43636364       0.00000000 </v>
   <v>      -0.43636364       0.29090909       0.00000000 </v>
   <v>      -0.29090909       0.43636364       0.00000000 </v>
   <v>       0.14545455       0.29090909       0.00000000 </v>
   <v>       0.43636364      -0.14545455       0.00000000 </v>
   <v>       0.30909091       0.14545455       0.00000000 </v>
   <v>      -0.14545455       0.45454545       0.00000000 </v>
   <v>      -0.45454545       0.30909091       0.00000000 </v>
   <v>      -0.30909091       0.45454545       0.00000000 </v>
   <v>       0.14545455       0.30909091       0.00000000 </v>
   <v>       0.45454545      -0.14545455       0.00000000 </v>
   <v>       0.32727273       0.14545455       0.00000000 </v>
   <v>      -0.14545455       0.47272727       0.00000000 </v>
   <v>      -0.47272727       0.32727273       0.00000000 </v>
   <v>      -0.32727273       0.47272727       0.00000000 </v>
   <v>       0.14545455       0.32727273       0.00000000 </v>
   <v>       0.47272727      -0.14545455       0.00000000 </v>
   <v>       0.34545455       0.14545455       0.00000000 </v>
   <v>      -0.14545455       0.49090909       0.00000000 </v>
   <v>      -0.49090909       0.34545455       0.00000000 </v>
   <v>      -0.34545455       0.49090909       0.00000000 </v>
   <v>       0.14545455       0.34545455       0.00000000 </v>
   <v>       0.49090909      -0.14545455       0.00000000 </v>
   <v>       0.36363636       0.14545455       0.00000000 </v>
   <v>      -0.14545455      -0.49090909       0.00000000 </v>
   <v>       0.49090909       0.36363636       0.00000000 </v>
   <v>      -0.36363636      -0.49090909       0.00000000 </v>
   <v>       0.14545455       0.36363636       0.00000000 </v>
   <v>      -0.49090909      -0.14545455       0.00000000 </v>
   <v>       0.38181818       0.14545455       0.00000000 </v>
   <v>      -0.14545455      -0.47272727       0.00000000 </v>
   <v>       0.47272727       0.38181818       0.00000000 </v>
   <v>      -0.38181818      -0.47272727       0.00000000 </v>
   <v>       0.14545455       0.38181818       0.00000000 </v>
   <v>      -0.47272727      -0.14545455       0.00000000 </v>
   <v>       0.40000000       0.14545455       0.00000000 </v>
   <v>      -0.14545455      -0.45454545       0.00000000 </v>
   <v>       0.45454545       0.40000000       0.00000000 </v>
   <v>      -0.40000000      -0.45454545       0.00000000 </v>
   <v>       0.14545455       0.40000000       0.00000000 </v>
   <v>      -0.45454545      -0.14545455       0.00000000 </v>
   <v>       0.41818182       0.14545455       0.00000000 </v>
   <v>      -0.14545455      -0.43636364       0.00000000 </v>
   <v>       0.43636364       0.41818182       0.00000000 </v>
   <v>      -0.41818182      -0.43636364       0.00000000 </v>
   <v>       0.14545455       0.41818182       0.00000000 </v>
   <v>      -0.43636364      -0.14545455       0.00000000 </v>
   <v>       0.16363636       0.16363636       0.00000000 </v>
   <v>      -0.16363636       0.32727273       0.00000000 </v>
   <v>      -0.32727273       0.16363636       0.00000000 </v>
   <v>       0.18181818       0.16363636       0.00000000 </v>
   <v>      -0.16363636       0.34545455       0.00000000 </v>
   <v>      -0.34545455       0.18181818       0.00000000 </v>
   <v>      -0.18181818       0.34545455       0.00000000 </v>
   <v>       0.16363636       0.18181818       0.00000000 </v>
   <v>       0.34545455      -0.16363636       0.00000000 </v>
   <v>       0.20000000       0.16363636       0.00000000 </v>
   <v>      -0.16363636       0.36363636       0.00000000 </v>
   <v>      -0.36363636       0.20000000       0.00000000 </v>
   <v>      -0.20000000       0.36363636       0.00000000 </v>
   <v>       0.16363636       0.20000000       0.00000000 </v>
   <v>       0.36363636      -0.16363636       0.00000000 </v>
   <v>       0.21818182       0.16363636       0.00000000 </v>
   <v>      -0.16363636       0.38181818       0.00000000 </v>
   <v>      -0.38181818       0.21818182       0.00000000 </v>
   <v>      -0.21818182       0.38181818       0.00000000 </v>
   <v>       0.16363636       0.21818182       0.00000000 </v>
   <v>       0.38181818      -0.16363636       0.00000000 </v>
   <v>       0.23636364       0.16363636       0.00000000 </v>
   <v>      -0.16363636       0.40000000       0.00000000 </v>
   <v>      -0.40000000       0.23636364       0.00000000 </v>
   <v>      -0.23636364       0.40000000       0.00000000 </v>
   <v>       0.16363636       0.23636364       0.00000000 </v>
   <v>       0.40000000      -0.16363636       0.00000000 </v>
   <v>       0.25454545       0.16363636       0.00000000 </v>
   <v>      -0.16363636       0.41818182       0.00000000 </v>
   <v>      -0.41818182       0.25454545       0.00000000 </v>
   <v>      -0.25454545       0.41818182       0.00000000 </v>
   <v>       0.16363636       0.25454545       0.00000000 </v>
   <v>       0.41818182      -0.16363636       0.00000000 </v>
   <v>       0.27272727       0.16363636       0.00000000 </v>
   <v>      -0.16363636       0.43636364       0.00000000 </v>
   <v>      -0.43636364       0.27272727       0.00000000 </v>
   <v>      -0.27272727       0.43636364       0.00000000 </v>
   <v>       0.16363636       0.27272727       0.00000000 </v>
   <v>       0.43636364      -0.16363636       0.00000000 </v>
   <v>       0.29090909       0.16363636       0.00000000 </v>
   <v>      -0.16363636       0.45454545       0.00000000 </v>
   <v>      -0.45454545       0.29090909       0.00000000 </v>
   <v>      -0.29090909       0.45454545       0.00000000 </v>
   <v>       0.16363636       0.29090909       0.00000000 </v>
   <v>       0.45454545      -0.16363636       0.00000000 </v>
   <v>       0.30909091       0.16363636       0.00000000 </v>
   <v>      -0.16363636       0.47272727       0.00000000 </v>
   <v>      -0.47272727       0.30909091       0.00000000 </v>
   <v>      -0.30909091       0.47272727       0.00000000 </v>
   <v>       0.16363636       0.30909091       0.00000000 </v>
   <v>       0.47272727      -0.16363636       0.00000000 </v>
   <v>       0.32727273       0.16363636       0.00000000 </v>
   <v>      -0.16363636       0.49090909       0.00000000 </v>
   <v>      -0.49090909       0.32727273       0.00000000 </v>
   <v>      -0.32727273       0.49090909       0.00000000 </v>
   <v>       0.16363636       0.32727273       0.00000000 </v>
   <v>       0.49090909      -0.16363636       0.00000000 </v>
   <v>       0.34545455       0.16363636       0.00000000 </v>
   <v>      -0.16363636      -0.49090909       0.00000000 </v>
   <v>       0.49090909       0.34545455       0.00000000 </v>
   <v>      -0.34545455      -0.49090909       0.00000000 </v>
   <v>       0.16363636       0.34545455       0.00000000 </v>
   <v>      -0.49090909      -0.16363636       0.00000000 </v>
   <v>       0.36363636       0.16363636       0.00000000 </v>
   <v>      -0.16363636      -0.47272727       0.00000000 </v>
   <v>       0.47272727       0.36363636       0.00000000 </v>
   <v>      -0.36363636      -0.47272727       0.00000000 </v>
   <v>       0.16363636       0.36363636       0.00000000 </v>
   <v>      -0.47272727      -0.16363636       0.00000000 </v>
   <v>       0.38181818       0.16363636       0.00000000 </v>
   <v>      -0.16363636      -0.45454545       0.00000000 </v>
   <v>       0.45454545       0.38181818       0.00000000 </v>
   <v>      -0.38181818      -0.45454545       0.00000000 </v>
   <v>       0.16363636       0.38181818       0.00000000 </v>
   <v>      -0.45454545      -0.16363636       0.00000000 </v>
   <v>       0.40000000       0.16363636       0.00000000 </v>
   <v>      -0.16363636      -0.43636364       0.00000000 </v>
   <v>       0.43636364       0.40000000       0.00000000 </v>
   <v>      -0.40000000      -0.43636364       0.00000000 </v>
   <v>       0.16363636       0.40000000       0.00000000 </v>
   <v>      -0.43636364      -0.16363636       0.00000000 </v>
   <v>       0.41818182       0.16363636       0.00000000 </v>
   <v>      -0.16363636      -0.41818182       0.00000000 </v>
   <v>       0.41818182       0.41818182       0.00000000 </v>
   <v>       0.18181818       0.18181818       0.00000000 </v>
   <v>      -0.18181818       0.36363636       0.00000000 </v>
   <v>      -0.36363636       0.18181818       0.00000000 </v>
   <v>       0.20000000       0.18181818       0.00000000 </v>
   <v>      -0.18181818       0.38181818       0.00000000 </v>
   <v>      -0.38181818       0.20000000       0.00000000 </v>
   <v>      -0.20000000       0.38181818       0.00000000 </v>
   <v>       0.18181818       0.20000000       0.00000000 </v>
   <v>       0.38181818      -0.18181818       0.00000000 </v>
   <v>       0.21818182       0.18181818       0.00000000 </v>
   <v>      -0.18181818       0.40000000       0.00000000 </v>
   <v>      -0.40000000       0.21818182       0.00000000 </v>
   <v>      -0.21818182       0.40000000       0.00000000 </v>
   <v>       0.18181818       0.21818182       0.00000000 </v>
   <v>       0.40000000      -0.18181818       0.00000000 </v>
   <v>       0.23636364       0.18181818       0.00000000 </v>
   <v>      -0.18181818       0.41818182       0.00000000 </v>
   <v>      -0.41818182       0.23636364       0.00000000 </v>
   <v>      -0.23636364       0.41818182       0.00000000 </v>
   <v>       0.18181818       0.23636364       0.00000000 </v>
   <v>       0.41818182      -0.18181818       0.00000000 </v>
   <v>       0.25454545       0.18181818       0.00000000 </v>
   <v>      -0.18181818       0.43636364       0.00000000 </v>
   <v>      -0.43636364       0.25454545       0.00000000 </v>
   <v>      -0.25454545       0.43636364       0.00000000 </v>
   <v>       0.18181818       0.25454545       0.00000000 </v>
   <v>       0.43636364      -0.18181818       0.00000000 </v>
   <v>       0.27272727       0.18181818       0.00000000 </v>
   <v>      -0.18181818       0.45454545       0.00000000 </v>
   <v>      -0.45454545       0.27272727       0.00000000 </v>
   <v>      -0.27272727       0.45454545       0.00000000 </v>
   <v>       0.18181818       0.27272727       0.00000000 </v>
   <v>       0.45454545      -0.18181818       0.00000000 </v>
   <v>       0.29090909       0.18181818       0.00000000 </v>
   <v>      -0.18181818       0.47272727       0.00000000 </v>
   <v>      -0.47272727       0.29090909       0.00000000 </v>
   <v>      -0.29090909       0.47272727       0.00000000 </v>
   <v>       0.18181818       0.29090909       0.00000000 </v>
   <v>       0.47272727      -0.18181818       0.00000000 </v>
   <v>       0.30909091       0.18181818       0.00000000 </v>
   <v>      -0.18181818       0.49090909       0.00000000 </v>
   <v>      -0.49090909       0.30909091       0.00000000 </v>
   <v>      -0.30909091       0.49090909       0.00000000 </v>
   <v>       0.18181818       0.30909091       0.00000000 </v>
   <v>       0.49090909      -0.18181818       0.00000000 </v>
   <v>       0.32727273       0.18181818       0.00000000 </v>
   <v>      -0.18181818      -0.49090909       0.00000000 </v>
   <v>       0.49090909       0.32727273       0.00000000 </v>
   <v>      -0.32727273      -0.49090909       0.00000000 </v>
   <v>       0.18181818       0.32727273       0.00000000 </v>
   <v>      -0.49090909      -0.18181818       0.00000000 </v>
   <v>       0.34545455       0.18181818       0.00000000 </v>
   <v>      -0.18181818      -0.47272727       0.00000000 </v>
   <v>       0.47272727       0.34545455       0.00000000 </v>
   <v>      -0.34545455      -0.47272727       0.00000000 </v>
[...]
       <r>  -17.2329    1.0000 </r>
       <r>  -12.9406    1.0000 </r>
       <r>  -12.7573    1.0000 </r>
       <r>  -10.8819    1.0000 </r>
       <r>   -8.4954    1.0000 </r>
       <r>   -8.3136    1.0000 </r>
       <r>   -7.9876    1.0000 </r>
       <r>   -7.3827    1.0000 </r>
       <r>   -7.2388    1.0000 </r>
       <r>   -6.3118    1.0000 </r>
       <r>   -6.2217    1.0000 </r>
       <r>   -6.1303    1.0000 </r>
       <r>   -6.0771    1.0000 </r>
       <r>   -1.5168    0.0000 </r>
       <r>   -1.2265    0.0000 </r>
       <r>    3.1989    0.0000 </r>
       <r>    3.2163    0.0000 </r>
       <r>    3.4734    0.0000 </r>
       <r>    3.7908    0.0000 </r>
       <r>    3.9575    0.0000 </r>
       <r>    4.1662    0.0000 </r>
       <r>    4.3317    0.0000 </r>
      </set>
      <set comment="kpoint 1511">
       <r>  -19.2154    1.0000 </r>
       <r>  -17.3061    1.0000 </r>
       <r>  -17.2607    1.0000 </r>
       <r>  -12.8880    1.0000 </r>
       <r>  -12.8042    1.0000 </r>
       <r>  -10.8905    1.0000 </r>
       <r>   -8.4400    1.0000 </r>
       <r>   -8.3289    1.0000 </r>
       <r>   -8.0140    1.0000 </r>
       <r>   -7.3788    1.0000 </r>
       <r>   -7.2386    1.0000 </r>
       <r>   -6.2716    1.0000 </r>
       <r>   -6.1869    1.0000 </r>
       <r>   -6.1830    1.0000 </r>
       <r>   -6.1204    1.0000 </r>
       <r>   -1.4419    0.0000 </r>
       <r>   -1.3013    0.0000 </r>
       <r>    3.2043    0.0000 </r>
       <r>    3.3299    0.0000 </r>
       <r>    3.3474    0.0000 </r>
       <r>    3.8491    0.0000 </r>
       <r>    3.9662    0.0000 </r>
       <r>    4.1099    0.0000 </r>
       <r>    4.3735    0.0000 </r>
      </set>
      <set comment="kpoint 1512">
       <r>  -19.2154    1.0000 </r>
       <r>  -17.3062    1.0000 </r>
       <r>  -17.2605    1.0000 </r>
       <r>  -12.8880    1.0000 </r>
       <r>  -12.8042    1.0000 </r>
       <r>  -10.8905    1.0000 </r>
       <r>   -8.4401    1.0000 </r>
       <r>   -8.3288    1.0000 </r>
       <r>   -8.0140    1.0000 </r>
       <r>   -7.3788    1.0000 </r>
       <r>   -7.2387    1.0000 </r>
       <r>   -6.2717    1.0000 </r>
       <r>   -6.1870    1.0000 </r>
       <r>   -6.1830    1.0000 </r>
       <r>   -6.1203    1.0000 </r>
       <r>   -1.4419    0.0000 </r>
       <r>   -1.3012    0.0000 </r>
       <r>    3.2043    0.0000 </r>
       <r>    3.3300    0.0000 </r>
       <r>    3.3474    0.0000 </r>
       <r>    3.8491    0.0000 </r>
       <r>    3.9662    0.0000 </r>
       <r>    4.1099    0.0000 </r>
       <r>    4.3736    0.0000 </r>
      </set>
      <set comment="kpoint 1513">
       <r>  -19.2154    1.0000 </r>
       <r>  -17.3063    1.0000 </r>
       <r>  -17.2605    1.0000 </r>
       <r>  -12.8880    1.0000 </r>
       <r>  -12.8042    1.0000 </r>
       <r>  -10.8905    1.0000 </r>
       <r>   -8.4401    1.0000 </r>
       <r>   -8.3288    1.0000 </r>
       <r>   -8.0141    1.0000 </r>
       <r>   -7.3788    1.0000 </r>
       <r>   -7.2387    1.0000 </r>
       <r>   -6.2717    1.0000 </r>
       <r>   -6.1870    1.0000 </r>
       <r>   -6.1830    1.0000 </r>
       <r>   -6.1203    1.0000 </r>
       <r>   -1.4419    0.0000 </r>
       <r>   -1.3012    0.0000 </r>
       <r>    3.2043    0.0000 </r>
       <r>    3.3300    0.0000 </r>
       <r>    3.3474    0.0000 </r>
       <r>    3.8491    0.0000 </r>
       <r>    3.9662    0.0000 </r>
       <r>    4.1099    0.0000 </r>
       <r>    4.3736    0.0000 </r>
      </set>
     </set>
    </set>
   </array>
  </eigenvalues>
  <separator name="orbital magnetization" >
   <v name="MAGDIPOLOUT">      0.00000000      0.00000000      0.00000000</v>
  </separator>
  <dos>
   <i name="efermi">     -3.47632150 </i>
   <total>
    <array>
     <dimension dim="1">gridpoints</dimension>
     <dimension dim="2">spin</dimension>
     <field>energy</field>
     <field>total</field>
     <field>integrated</field>
     <set>
      <set comment="spin 1">
       <r>   -21.1449     0.0000     0.0000 </r>
       <r>   -21.0525     0.0000     0.0000 </r>
       <r>   -20.9601     0.0000     0.0000 </r>
       <r>   -20.8677     0.0000     0.0000 </r>
       <r>   -20.7753     0.0000     0.0000 </r>
       <r>   -20.6829     0.0000     0.0000 </r>
       <r>   -20.5904     0.0000     0.0000 </r>
       <r>   -20.4980     0.0000     0.0000 </r>
       <r>   -20.4056     0.0000     0.0000 </r>
       <r>   -20.3132     0.0000     0.0000 </r>
       <r>   -20.2208     0.0000     0.0000 </r>
       <r>   -20.1284     0.0001     0.0000 </r>
       <r>   -20.0360     0.0082     0.0008 </r>
       <r>   -19.9436     0.1544     0.0150 </r>
       <r>   -19.8512     0.8222     0.0910 </r>
       <r>   -19.7588     1.6636     0.2448 </r>
       <r>   -19.6663     2.0359     0.4329 </r>
       <r>   -19.5739     2.2525     0.6410 </r>
       <r>   -19.4815     2.6079     0.8820 </r>
       <r>   -19.3891     3.3940     1.1957 </r>
       <r>   -19.2967     4.3389     1.5966 </r>
       <r>   -19.2043     3.2804     1.8998 </r>
       <r>   -19.1119     0.9876     1.9910 </r>
       <r>   -19.0195     0.0946     1.9998 </r>
       <r>   -18.9271     0.0024     2.0000 </r>
       <r>   -18.8347     0.0000     2.0000 </r>
       <r>   -18.7422     0.0000     2.0000 </r>
       <r>   -18.6498     0.0000     2.0000 </r>
       <r>   -18.5574     0.0000     2.0000 </r>
       <r>   -18.4650     0.0000     2.0000 </r>
       <r>   -18.3726     0.0000     2.0000 </r>
       <r>   -18.2802     0.0000     2.0000 </r>
       <r>   -18.1878     0.0000     2.0000 </r>
       <r>   -18.0954     0.0000     2.0000 </r>
       <r>   -18.0030     0.0000     2.0000 </r>
       <r>   -17.9106     0.0000     2.0000 </r>
       <r>   -17.8181     0.0013     2.0001 </r>
       <r>   -17.7257     0.0520     2.0049 </r>
       <r>   -17.6333     0.5478     2.0555 </r>
       <r>   -17.5409     1.8437     2.2259 </r>
       <r>   -17.4485     2.9423     2.4978 </r>
       <r>   -17.3561     3.2158     2.7950 </r>
       <r>   -17.2637     2.5318     3.0290 </r>
       <r>   -17.1713     1.9272     3.2070 </r>
       <r>   -17.0789     1.8451     3.3776 </r>
       <r>   -16.9865     1.9035     3.5535 </r>
       <r>   -16.8940     1.9879     3.7372 </r>
       <r>   -16.8016     2.1008     3.9313 </r>
       <r>   -16.7092     2.2620     4.1403 </r>
       <r>   -16.6168     2.5274     4.3739 </r>
       <r>   -16.5244     3.0375     4.6546 </r>
       <r>   -16.4320     3.5738     4.9848 </r>
       <r>   -16.3396     3.2530     5.2854 </r>
       <r>   -16.2472     2.5225     5.5186 </r>
       <r>   -16.1548     2.0534     5.7083 </r>
       <r>   -16.0624     1.6952     5.8650 </r>
       <r>   -15.9699     1.0891     5.9656 </r>
       <r>   -15.8775     0.3375     5.9968 </r>
       <r>   -15.7851     0.0339     5.9999 </r>
       <r>   -15.6927     0.0009     6.0000 </r>
       <r>   -15.6003     0.0000     6.0000 </r>
       <r>   -15.5079     0.0000     6.0000 </r>
       <r>   -15.4155     0.0000     6.0000 </r>
       <r>   -15.3231     0.0000     6.0000 </r>
       <r>   -15.2307     0.0000     6.0000 </r>
       <r>   -15.1383     0.0000     6.0000 </r>
       <r>   -15.0458     0.0000     6.0000 </r>
       <r>   -14.9534     0.0000     6.0000 </r>
       <r>   -14.8610     0.0000     6.0000 </r>
       <r>   -14.7686     0.0000     6.0000 </r>
       <r>   -14.6762     0.0000     6.0000 </r>
       <r>   -14.5838     0.0000     6.0000 </r>
       <r>   -14.4914     0.0000     6.0000 </r>
       <r>   -14.3990     0.0006     6.0001 </r>
       <r>   -14.3066     0.0274     6.0026 </r>
       <r>   -14.2142     0.3288     6.0330 </r>
       <r>   -14.1217     1.2122     6.1450 </r>
       <r>   -14.0293     1.9696     6.3270 </r>
       <r>   -13.9369     2.2944     6.5390 </r>
       <r>   -13.8445     2.6550     6.7844 </r>
       <r>   -13.7521     3.2933     7.0887 </r>
       <r>   -13.6597     3.4625     7.4087 </r>
       <r>   -13.5673     2.5215     7.6417 </r>
       <r>   -13.4749     1.7908     7.8072 </r>
       <r>   -13.3825     1.5578     7.9511 </r>
       <r>   -13.2901     1.4587     8.0859 </r>
       <r>   -13.1976     1.3936     8.2147 </r>
       <r>   -13.1052     1.3430     8.3388 </r>
       <r>   -13.0128     1.2992     8.4589 </r>
       <r>   -12.9204     1.2651     8.5758 </r>
       <r>   -12.8280     1.2984     8.6958 </r>
       <r>   -12.7356     1.5486     8.8389 </r>
       <r>   -12.6432     1.9229     9.0166 </r>
       <r>   -12.5508     1.9949     9.2009 </r>
       <r>   -12.4584     1.8837     9.3750 </r>
       <r>   -12.3660     1.7573     9.5374 </r>
       <r>   -12.2735     1.6386     9.6888 </r>
       <r>   -12.1811     1.5408     9.8312 </r>
       <r>   -12.0887     1.4579     9.9659 </r>
       <r>   -11.9963     1.3800    10.0935 </r>
       <r>   -11.9039     1.2354    10.2076 </r>
       <r>   -11.8115     0.8750    10.2885 </r>
       <r>   -11.7191     0.5349    10.3379 </r>
       <r>   -11.6267     0.4516    10.3796 </r>
       <r>   -11.5343     0.4566    10.4218 </r>
       <r>   -11.4419     0.4688    10.4652 </r>
       <r>   -11.3494     0.4899    10.5104 </r>
       <r>   -11.2570     0.5687    10.5630 </r>
       <r>   -11.1646     0.7256    10.6300 </r>
       <r>   -11.0722     0.8319    10.7069 </r>
       <r>   -10.9798     0.8908    10.7892 </r>
       <r>   -10.8874     1.0611    10.8873 </r>
       <r>   -10.7950     1.3590    11.0129 </r>
       <r>   -10.7026     1.5468    11.1558 </r>
       <r>   -10.6102     1.6481    11.3081 </r>
       <r>   -10.5178     1.7554    11.4703 </r>
       <r>   -10.4253     1.8956    11.6455 </r>
       <r>   -10.3329     2.1373    11.8430 </r>
       <r>   -10.2405     2.3453    12.0597 </r>
       <r>   -10.1481     2.0084    12.2453 </r>
       <r>   -10.0557     1.4843    12.3825 </r>
       <r>    -9.9633     1.3073    12.5033 </r>
       <r>    -9.8709     1.8314    12.6725 </r>
       <r>    -9.7785     2.6897    12.9211 </r>
       <r>    -9.6861     2.6766    13.1684 </r>
       <r>    -9.5937     2.3011    13.3811 </r>
       <r>    -9.5012     2.0784    13.5731 </r>
       <r>    -9.4088     1.9132    13.7499 </r>
       <r>    -9.3164     1.8661    13.9224 </r>
       <r>    -9.2240     1.8978    14.0978 </r>
       <r>    -9.1316     2.0364    14.2859 </r>
       <r>    -9.0392     2.2491    14.4938 </r>
       <r>    -8.9468     2.4872    14.7236 </r>
       <r>    -8.8544     2.6257    14.9663 </r>
       <r>    -8.7620     2.4856    15.1960 </r>
       <r>    -8.6696     2.5910    15.4354 </r>
       <r>    -8.5771     2.9641    15.7093 </r>
       <r>    -8.4847     2.9464    15.9816 </r>
       <r>    -8.3923     2.5217    16.2146 </r>
       <r>    -8.2999     2.1824    16.4163 </r>
       <r>    -8.2075     1.9870    16.5999 </r>
       <r>    -8.1151     2.0748    16.7916 </r>
       <r>    -8.0227     2.5799    17.0300 </r>
       <r>    -7.9303     3.2118    17.3268 </r>
       <r>    -7.8379     3.9790    17.6945 </r>
       <r>    -7.7455     4.3997    18.1011 </r>
       <r>    -7.6530     4.3599    18.5040 </r>
       <r>    -7.5606     4.1702    18.8894 </r>
       <r>    -7.4682     3.1741    19.1827 </r>
       <r>    -7.3758     2.0570    19.3728 </r>
       <r>    -7.2834     1.7153    19.5313 </r>
       <r>    -7.1910     2.1217    19.7274 </r>
       <r>    -7.0986     2.0364    19.9156 </r>
       <r>    -7.0062     1.7299    20.0754 </r>
       <r>    -6.9138     1.6179    20.2249 </r>
       <r>    -6.8214     1.6189    20.3745 </r>
       <r>    -6.7289     1.7554    20.5368 </r>
       <r>    -6.6365     2.3191    20.7511 </r>
       <r>    -6.5441     3.4599    21.0708 </r>
       <r>    -6.4517     5.2675    21.5576 </r>
       <r>    -6.3593     7.7153    22.2705 </r>
       <r>    -6.2669     7.5552    22.9687 </r>
       <r>    -6.1745     5.4289    23.4704 </r>
       <r>    -6.0821     3.8428    23.8255 </r>
       <r>    -5.9897     2.7168    24.0765 </r>
       <r>    -5.8973     2.3418    24.2930 </r>
       <r>    -5.8048     2.3463    24.5098 </r>
       <r>    -5.7124     2.4083    24.7323 </r>
       <r>    -5.6200     2.4857    24.9620 </r>
       <r>    -5.5276     2.5783    25.2003 </r>
       <r>    -5.4352     2.6902    25.4489 </r>
       <r>    -5.3428     2.8291    25.7103 </r>
       <r>    -5.2504     3.0102    25.9885 </r>
       <r>    -5.1580     3.2717    26.2908 </r>
       <r>    -5.0656     3.6925    26.6320 </r>
       <r>    -4.9732     4.1362    27.0143 </r>
       <r>    -4.8807     4.3022    27.4118 </r>
       <r>    -4.7883     4.5932    27.8363 </r>
       <r>    -4.6959     4.7925    28.2792 </r>
       <r>    -4.6035     4.3448    28.6807 </r>
       <r>    -4.5111     3.6251    29.0157 </r>
       <r>    -4.4187     2.4295    29.2402 </r>
       <r>    -4.3263     1.4976    29.3786 </r>
       <r>    -4.2339     1.2615    29.4952 </r>
       <r>    -4.1415     1.2085    29.6068 </r>
       <r>    -4.0491     1.1694    29.7149 </r>
       <r>    -3.9566     1.1313    29.8194 </r>
       <r>    -3.8642     1.0399    29.9155 </r>
       <r>    -3.7718     0.6892    29.9792 </r>
       <r>    -3.6794     0.2053    29.9982 </r>
       <r>    -3.5870     0.0190    30.0000 </r>
       <r>    -3.4946     0.0004    30.0000 </r>
       <r>    -3.4022     0.0001    30.0000 </r>
       <r>    -3.3098     0.0057    30.0005 </r>
       <r>    -3.2174     0.1087    30.0106 </r>
       <r>    -3.1250     0.5897    30.0651 </r>
       <r>    -3.0325     1.2199    30.1778 </r>
       <r>    -2.9401     1.5283    30.3190 </r>
       <r>    -2.8477     1.7229    30.4782 </r>
       <r>    -2.7553     2.0169    30.6646 </r>
       <r>    -2.6629     2.5043    30.8960 </r>
       <r>    -2.5705     2.6860    31.1443 </r>
       <r>    -2.4781     2.1345    31.3415 </r>
       <r>    -2.3857     1.5828    31.4878 </r>
       <r>    -2.2933     1.2610    31.6043 </r>
       <r>    -2.2009     1.0426    31.7006 </r>
       <r>    -2.1084     0.8721    31.7812 </r>
       <r>    -2.0160     0.7152    31.8473 </r>
       <r>    -1.9236     0.5296    31.8963 </r>
       <r>    -1.8312     0.3649    31.9300 </r>
       <r>    -1.7388     0.2726    31.9552 </r>
       <r>    -1.6464     0.2073    31.9743 </r>
       <r>    -1.5540     0.1462    31.9879 </r>
       <r>    -1.4616     0.0879    31.9960 </r>
       <r>    -1.3692     0.0445    32.0001 </r>
       <r>    -1.2768     0.0460    32.0043 </r>
       <r>    -1.1843     0.0915    32.0128 </r>
       <r>    -1.0919     0.1511    32.0268 </r>
       <r>    -0.9995     0.2139    32.0465 </r>
       <r>    -0.9071     0.2800    32.0724 </r>
       <r>    -0.8147     0.3509    32.1048 </r>
       <r>    -0.7223     0.4283    32.1444 </r>
       <r>    -0.6299     0.5148    32.1920 </r>
       <r>    -0.5375     0.6149    32.2488 </r>
       <r>    -0.4451     0.7367    32.3169 </r>
       <r>    -0.3527     0.9089    32.4009 </r>
       <r>    -0.2602     1.3231    32.5231 </r>
       <r>    -0.1678     2.3325    32.7387 </r>
       <r>    -0.0754     3.0931    33.0245 </r>
       <r>     0.0170     2.6102    33.2657 </r>
       <r>     0.1094     1.9609    33.4469 </r>
       <r>     0.2018     1.6276    33.5973 </r>
       <r>     0.2942     1.4411    33.7305 </r>
       <r>     0.3866     1.3609    33.8563 </r>
       <r>     0.4790     1.4380    33.9892 </r>
       <r>     0.5714     1.5168    34.1293 </r>
       <r>     0.6639     1.4261    34.2611 </r>
       <r>     0.7563     1.1826    34.3704 </r>
       <r>     0.8487     1.1830    34.4797 </r>
       <r>     0.9411     1.5834    34.6260 </r>
       <r>     1.0335     1.8250    34.7947 </r>
       <r>     1.1259     1.8948    34.9698 </r>
       <r>     1.2183     1.9493    35.1499 </r>
       <r>     1.3107     2.0137    35.3360 </r>
       <r>     1.4031     2.1023    35.5303 </r>
       <r>     1.4955     2.2430    35.7376 </r>
       <r>     1.5880     2.4092    35.9602 </r>
       <r>     1.6804     2.4075    36.1827 </r>
       <r>     1.7728     2.3374    36.3987 </r>
       <r>     1.8652     2.5383    36.6332 </r>
       <r>     1.9576     2.8888    36.9002 </r>
       <r>     2.0500     3.0070    37.1781 </r>
       <r>     2.1424     3.0013    37.4554 </r>
       <r>     2.2348     3.1091    37.7427 </r>
       <r>     2.3272     3.4925    38.0655 </r>
       <r>     2.4196     3.8151    38.4180 </r>
       <r>     2.5121     3.8767    38.7763 </r>
       <r>     2.6045     3.8645    39.1334 </r>
       <r>     2.6969     3.8545    39.4896 </r>
       <r>     2.7893     3.8404    39.8445 </r>
       <r>     2.8817     3.8318    40.1986 </r>
       <r>     2.9741     3.8205    40.5516 </r>
       <r>     3.0665     3.8127    40.9040 </r>
       <r>     3.1589     3.8055    41.2556 </r>
       <r>     3.2513     3.7990    41.6067 </r>
       <r>     3.3437     3.7972    41.9576 </r>
       <r>     3.4362     3.8006    42.3088 </r>
       <r>     3.5286     3.7965    42.6596 </r>
       <r>     3.6210     3.7722    43.0082 </r>
       <r>     3.7134     3.7879    43.3583 </r>
       <r>     3.8058     3.8272    43.7119 </r>
       <r>     3.8982     3.9161    44.0738 </r>
       <r>     3.9906     4.0765    44.4505 </r>
       <r>     4.0830     3.8901    44.8100 </r>
       <r>     4.1754     3.2806    45.1132 </r>
       <r>     4.2678     3.0506    45.3951 </r>
       <r>     4.3603     3.5138    45.7198 </r>
       <r>     4.4527     3.9564    46.0854 </r>
       <r>     4.5451     3.5083    46.4096 </r>
       <r>     4.6375     2.7691    46.6655 </r>
       <r>     4.7299     2.3113    46.8791 </r>
       <r>     4.8223     2.3144    47.0930 </r>
       <r>     4.9147     2.6825    47.3409 </r>
       <r>     5.0071     2.6739    47.5879 </r>
       <r>     5.0995     1.9802    47.7709 </r>
       <r>     5.1919     1.3813    47.8986 </r>
       <r>     5.2844     0.8073    47.9732 </r>
       <r>     5.3768     0.2552    47.9968 </r>
       <r>     5.4692     0.0335    47.9999 </r>
       <r>     5.5616     0.0015    48.0000 </r>
       <r>     5.6540     0.0000    48.0000 </r>
       <r>     5.7464     0.0000    48.0000 </r>
       <r>     5.8388     0.0000    48.0000 </r>
       <r>     5.9312     0.0000    48.0000 </r>
       <r>     6.0236     0.0000    48.0000 </r>
       <r>     6.1160     0.0000    48.0000 </r>
       <r>     6.2085     0.0000    48.0000 </r>
       <r>     6.3009     0.0000    48.0000 </r>
       <r>     6.3933     0.0000    48.0000 </r>
       <r>     6.4857     0.0000    48.0000 </r>
       <r>     6.5781     0.0000    48.0000 </r>
      </set>
     </set>
    </array>
   </total>
  </dos>
 </calculation>
 <structure name="finalpos" >
  <crystal>
   <varray name="basis" >
    <v>       4.47648500       2.58450000       0.00000000 </v>
    <v>      -4.47648500       2.58450000       0.00000000 </v>
    <v>       0.00000000       0.00000000      15.00000000 </v>
   </varray>
   <i name="volume">    347.08426447 </i>
   <varray name="rec_basis" >
    <v>       0.11169478       0.19346102       0.00000000 </v>
    <v>      -0.11169478       0.19346102       0.00000000 </v>
    <v>       0.00000000       0.00000000       0.06666667 </v>
   </varray>
  </crystal>
  <varray name="positions" >
   <v>       0.33833421       0.66916508       0.25000000 </v>
   <v>       0.67166631       0.33583189       0.25000000 </v>
   <v>       0.16374616       0.31999989       0.25000000 </v>
   <v>       0.32249989       0.16125031       0.25000000 </v>
   <v>       0.16375429       0.84374885       0.25000000 </v>
   <v>       0.84624417       0.16125091       0.25000000 </v>
   <v>       0.68749960       0.84375007       0.25000000 </v>
   <v>       0.84625136       0.68499899       0.25000000 </v>
  </varray>
 </structure>
</modeling>
