 ----------------------------------------------------
    OOO  PPPP  EEEEE N   N M   M PPPP
   O   O P   P E     NN  N MM MM P   P
   O   O PPPP  EEEEE N N N M M M PPPP   -- VERSION
   O   O P     E     N  NN M   M P
    OOO  P     EEEEE N   N M   M P
 ----------------------------------------------------
 running   24 mpi-ranks, with    1 threads/rank
 distrk:  each k-point on   24 cores,    1 groups
 distr:  one band on    1 cores,   24 groups
 vasp.6.3.2 27Jun22 (build Dec 22 2022 13:13:19) complex                        
  
 POSCAR found type information on POSCAR B C 
 POSCAR found :  2 types and       8 ions
 Reading from existing POTCAR
 scaLAPACK will be used
 Reading from existing POTCAR
 LDA part: xc-table for Pade appr. of Perdew
 POSCAR found type information on POSCAR B C 
 POSCAR found :  2 types and       8 ions
 POSCAR, INCAR and KPOINTS ok, starting setup
 FFT: planning ... GRIDC
 FFT: planning ... GRID_SOFT
 FFT: planning ... GRID
 WAVECAR not read
 entering main loop
       N       E                     dE             d eps       ncg     rms          rms(c)
DAV:   1     0.184375929953E+03    0.18438E+03   -0.11433E+04 72624   0.827E+02
DAV:   2    -0.562021735294E+02   -0.24058E+03   -0.23978E+03118536   0.158E+02
DAV:   3    -0.733069642454E+02   -0.17105E+02   -0.17066E+02119184   0.641E+01
DAV:   4    -0.734310177043E+02   -0.12405E+00   -0.12405E+00119136   0.539E+00
DAV:   5    -0.734312593835E+02   -0.24168E-03   -0.24168E-03114720   0.211E-01    0.131E+01
DAV:   6    -0.689927603620E+02    0.44385E+01   -0.58731E+00139464   0.104E+01    0.746E+00
DAV:   7    -0.673334315138E+02    0.16593E+01   -0.39168E+00140328   0.857E+00    0.213E+00
DAV:   8    -0.672503306194E+02    0.83101E-01   -0.17075E-01112536   0.178E+00    0.602E-01
DAV:   9    -0.672309156812E+02    0.19415E-01   -0.13514E-02111000   0.657E-01    0.169E-01
DAV:  10    -0.672219313856E+02    0.89843E-02   -0.95421E-03 98112   0.344E-01    0.970E-02
DAV:  11    -0.672195927975E+02    0.23386E-02   -0.48740E-03 97800   0.255E-01    0.592E-02
DAV:  12    -0.672202614457E+02   -0.66865E-03   -0.67123E-04 80136   0.116E-01    0.280E-02
DAV:  13    -0.672232734541E+02   -0.30120E-02   -0.57039E-04120408   0.868E-02    0.197E-02
DAV:  14    -0.672248522095E+02   -0.15788E-02   -0.28808E-04 94080   0.598E-02    0.122E-02
DAV:  15    -0.672255955841E+02   -0.74337E-03   -0.85699E-05100032   0.327E-02    0.488E-03
DAV:  16    -0.672258297116E+02   -0.23413E-03   -0.29217E-05 84816   0.166E-02    0.213E-03
DAV:  17    -0.672259034767E+02   -0.73765E-04   -0.37119E-06 75720   0.687E-03    0.125E-03
DAV:  18    -0.672259088562E+02   -0.53794E-05   -0.23765E-07105840   0.216E-03    0.231E-04
DAV:  19    -0.672259110050E+02   -0.21488E-05   -0.54575E-08 78552   0.756E-04    0.162E-04
DAV:  20    -0.672259113056E+02   -0.30059E-06   -0.64465E-09 99480   0.254E-04
   1 F= -.67904248E+02 E0= -.67904248E+02  d E =-.679042E+02
 curvature:   0.00 expect dE= 0.000E+00 dE for cont linesearch  0.000E+00
 trial: gam= 0.00000 g(F)=  0.210E-01 g(S)=  0.000E+00 ort = 0.000E+00 (trialstep = 0.100E+01)
 search vector abs. value=  0.210E-01
 bond charge predicted
       N       E                     dE             d eps       ncg     rms          rms(c)
DAV:   1    -0.672219922692E+02    0.39187E-02   -0.32493E+00 72768   0.107E+01    0.493E-01
DAV:   2    -0.672164062961E+02    0.55860E-02   -0.54996E-02126552   0.146E+00    0.241E-01
DAV:   3    -0.672156329521E+02    0.77334E-03   -0.89972E-03 93792   0.499E-01    0.942E-02
DAV:   4    -0.672156292986E+02    0.36535E-05   -0.12967E-03 97512   0.181E-01    0.425E-02
DAV:   5    -0.672156353703E+02   -0.60717E-05   -0.74846E-05 78864   0.554E-02    0.684E-03
DAV:   6    -0.672156362354E+02   -0.86514E-06   -0.13709E-05 79776   0.217E-02    0.420E-03
DAV:   7    -0.672156381779E+02   -0.19425E-05   -0.23527E-06 75288   0.843E-03    0.757E-04
DAV:   8    -0.672156394045E+02   -0.12267E-05   -0.22374E-07 81168   0.250E-03    0.456E-04
DAV:   9    -0.672156409969E+02   -0.15923E-05   -0.88775E-08 76224   0.987E-04    0.317E-04
DAV:  10    -0.672156420343E+02   -0.10374E-05   -0.53595E-08111960   0.891E-04    0.250E-04
DAV:  11    -0.672156429311E+02   -0.89675E-06   -0.54932E-08107784   0.810E-04
   2 F= -.67892986E+02 E0= -.67892986E+02  d E =0.112614E-01
 trial-energy change:    0.011261  1 .order    0.011391   -0.021035    0.043818
 step:   0.3270(harm=  0.3243)  dis= 0.00409  next Energy=   -67.907692 (dE=-0.344E-02)
 bond charge predicted
       N       E                     dE             d eps       ncg     rms          rms(c)
DAV:   1    -0.672325541096E+02   -0.16912E-01   -0.14763E+00 72624   0.720E+00    0.333E-01
DAV:   2    -0.672299528529E+02    0.26013E-02   -0.25450E-02114288   0.979E-01    0.163E-01
DAV:   3    -0.672296467681E+02    0.30608E-03   -0.41055E-03121488   0.339E-01    0.645E-02
DAV:   4    -0.672296434781E+02    0.32900E-05   -0.51019E-04 87864   0.112E-01    0.289E-02
DAV:   5    -0.672296485749E+02   -0.50968E-05   -0.37721E-05 98568   0.387E-02    0.467E-03
DAV:   6    -0.672296495971E+02   -0.10223E-05   -0.60775E-06 85800   0.145E-02    0.288E-03
DAV:   7    -0.672296512834E+02   -0.16863E-05   -0.11482E-06 75840   0.582E-03    0.554E-04
DAV:   8    -0.672296522520E+02   -0.96858E-06   -0.14775E-07 88632   0.196E-03
   3 F= -.67907689E+02 E0= -.67907689E+02  d E =-.344118E-02
 curvature:  -0.16 expect dE=-0.909E-05 dE for cont linesearch -0.138E-08
 ZBRENT: interpolating
 opt :   0.3268  next Energy=   -67.907689 (dE=-0.344E-02)
 bond charge predicted
       N       E                     dE             d eps       ncg     rms          rms(c)
DAV:   1    -0.672296531456E+02   -0.18621E-05   -0.17449E-07 99648   0.217E-03    0.232E-04
DAV:   2    -0.672296533335E+02   -0.18793E-06   -0.79140E-09131904   0.393E-04
   4 F= -.67907690E+02 E0= -.67907690E+02  d E =-.344246E-02
 curvature:  -0.16 expect dE=-0.914E-05 dE for cont linesearch -0.579E-09
 trial: gam= 0.00225 g(F)=  0.560E-04 g(S)=  0.000E+00 ort = 0.863E-05 (trialstep = 0.865E+00)
 search vector abs. value=  0.561E-04
 bond charge predicted
       N       E                     dE             d eps       ncg     rms          rms(c)
DAV:   1    -0.672296572604E+02   -0.41148E-05   -0.43031E-03 74136   0.425E-01    0.138E-02
DAV:   2    -0.672296603640E+02   -0.31037E-05   -0.60339E-05 86472   0.470E-02    0.878E-03
DAV:   3    -0.672296599849E+02    0.37914E-06   -0.31623E-06 83328   0.108E-02
   5 F= -.67907695E+02 E0= -.67907695E+02  d E =-.493166E-05
 trial-energy change:   -0.000005  1 .order   -0.000004   -0.000048    0.000040
 step:   0.4749(harm=  0.4749)  dis= 0.00038  next Energy=   -67.907704 (dE=-0.133E-04)
 bond charge predicted
       N       E                     dE             d eps       ncg     rms          rms(c)
DAV:   1    -0.672296677004E+02   -0.73364E-05   -0.88469E-04 76008   0.193E-01    0.580E-03
DAV:   2    -0.672296684109E+02   -0.71056E-06   -0.13409E-05 86448   0.221E-02    0.376E-03
DAV:   3    -0.672296683286E+02    0.82396E-07   -0.63647E-07 87840   0.488E-03
   6 F= -.67907704E+02 E0= -.67907704E+02  d E =-.140513E-04
 curvature:  -0.24 expect dE=-0.134E-04 dE for cont linesearch -0.931E-10
 trial: gam= 1.01193 g(F)=  0.565E-04 g(S)=  0.000E+00 ort =-0.148E-06 (trialstep = 0.389E+00)
 search vector abs. value=  0.114E-03
 bond charge predicted
       N       E                     dE             d eps       ncg     rms          rms(c)
DAV:   1    -0.672296834941E+02   -0.15083E-04   -0.15045E-03 73080   0.258E-01    0.651E-03
DAV:   2    -0.672296846442E+02   -0.11501E-05   -0.14551E-05 78648   0.211E-02    0.485E-03
DAV:   3    -0.672296847897E+02   -0.14542E-06   -0.50628E-07 74304   0.393E-03
   7 F= -.67907721E+02 E0= -.67907721E+02  d E =-.168242E-04
 trial-energy change:   -0.000017  1 .order   -0.000017   -0.000022   -0.000012
 step:   0.8284(harm=  0.8284)  dis= 0.00081  next Energy=   -67.907728 (dE=-0.233E-04)
 bond charge predicted
       N       E                     dE             d eps       ncg     rms          rms(c)
DAV:   1    -0.672296895058E+02   -0.48616E-05   -0.19212E-03 73608   0.292E-01    0.760E-03
DAV:   2    -0.672296909338E+02   -0.14280E-05   -0.18675E-05 75264   0.239E-02    0.562E-03
DAV:   3    -0.672296911399E+02   -0.20606E-06   -0.68692E-07 73416   0.460E-03
   8 F= -.67907728E+02 E0= -.67907728E+02  d E =-.235640E-04
 curvature:  -0.84 expect dE=-0.114E-05 dE for cont linesearch -0.332E-09
 trial: gam= 0.01187 g(F)=  0.136E-05 g(S)=  0.000E+00 ort = 0.213E-06 (trialstep = 0.477E+00)
 search vector abs. value=  0.138E-05
 bond charge predicted
       N       E                     dE             d eps       ncg     rms          rms(c)
DAV:   1    -0.672296910759E+02   -0.14210E-06   -0.23531E-05 76992   0.293E-02    0.137E-03
DAV:   2    -0.672296910618E+02    0.14044E-07   -0.47436E-07129144   0.425E-03
   9 F= -.67907728E+02 E0= -.67907728E+02  d E =-.304071E-06
 trial-energy change:   -0.000000  1 .order   -0.000000   -0.000001    0.000000
 step:   0.3989(harm=  0.3989)  dis= 0.00008  next Energy=   -67.907728 (dE=-0.272E-06)
 reached required accuracy - stopping structural energy minimisation
