<?xml version="1.0" encoding="ISO-8859-1"?>
<modeling>
 <generator>
  <i name="program" type="string">vasp </i>
  <i name="version" type="string">6.3.2  </i>
  <i name="subversion" type="string">27Jun22 (build Dec 22 2022 13:13:19) complex                          parallel </i>
  <i name="platform" type="string">LinuxIFC </i>
  <i name="date" type="string">2023 09 12 </i>
  <i name="time" type="string">18:03:12 </i>
 </generator>
 <incar>
  <i type="string" name="SYSTEM">Lattice</i>
  <i type="int" name="ISTART">     0</i>
  <i type="string" name="PREC">Accurate</i>
  <i type="string" name="ALGO">Normal</i>
  <i type="int" name="ICHARG">     2</i>
  <i type="int" name="NELM">    64</i>
  <i type="int" name="IBRION">     2</i>
  <i name="EDIFF">      0.00000100</i>
  <i name="EDIFFG">     -0.00100000</i>
  <i type="int" name="NSW">   128</i>
  <i type="int" name="ISIF">     2</i>
  <i name="ENCUT">    450.00000000</i>
  <i name="POTIM">      0.50000000</i>
  <i type="int" name="ISMEAR">     0</i>
  <i name="SIGMA">      0.10000000</i>
  <i type="logical" name="LWAVE"> F  </i>
  <i type="logical" name="LCHARG"> F  </i>
  <i type="string" name="GGA">PE</i>
  <i type="int" name="IVDW">    12</i>
 </incar>
 <primitive_cell>
  <structure name="primitive_cell" >
   <crystal>
    <varray name="basis" >
     <v>       4.36823214       2.52200000       0.00000000 </v>
     <v>      -4.36823214       2.52200000       0.00000000 </v>
     <v>       0.00000000       0.00000000      15.00000000 </v>
    </varray>
    <i name="volume">    330.50044346 </i>
    <varray name="rec_basis" >
     <v>       0.11446278       0.19825535       0.00000000 </v>
     <v>      -0.11446278       0.19825535       0.00000000 </v>
     <v>       0.00000000       0.00000000       0.06666667 </v>
    </varray>
   </crystal>
   <varray name="positions" >
    <v>       0.33833034       0.66916432       0.10000000 </v>
    <v>       0.67165522       0.33584146       0.10000000 </v>
    <v>       0.16373946       0.31999962       0.10000000 </v>
    <v>       0.32250218       0.16126397       0.10000000 </v>
    <v>       0.16376430       0.84376384       0.10000000 </v>
    <v>       0.84623863       0.16123684       0.10000000 </v>
    <v>       0.68749850       0.84373000       0.10000000 </v>
    <v>       0.84626736       0.68499594       0.10000000 </v>
    <v>       0.33333267       0.16666633       0.35120000 </v>
    <v>       0.49999967       0.99999933       0.35120000 </v>
    <v>       0.33333267       0.66666633       0.35120000 </v>
    <v>       0.49999967       0.49999933       0.35120000 </v>
    <v>       0.83333267       0.16666633       0.35120000 </v>
    <v>       0.99999967       0.99999933       0.35120000 </v>
    <v>       0.83333267       0.66666633       0.35120000 </v>
    <v>       0.99999967       0.49999933       0.35120000 </v>
   </varray>
  </structure>
  <varray name="primitive_index" >
   <v type="int" >        1 </v>
   <v type="int" >        2 </v>
   <v type="int" >        3 </v>
   <v type="int" >        4 </v>
   <v type="int" >        5 </v>
   <v type="int" >        6 </v>
   <v type="int" >        7 </v>
   <v type="int" >        8 </v>
   <v type="int" >        9 </v>
   <v type="int" >       10 </v>
   <v type="int" >       11 </v>
   <v type="int" >       12 </v>
   <v type="int" >       13 </v>
   <v type="int" >       14 </v>
   <v type="int" >       15 </v>
   <v type="int" >       16 </v>
  </varray>
 </primitive_cell>
 <kpoints>
  <generation param="Gamma">
   <v type="int" name="divisions">      39       39        1 </v>
   <v name="usershift">      0.00000000       0.00000000       0.00000000 </v>
   <v name="genvec1">      0.02564103       0.00000000       0.00000000 </v>
   <v name="genvec2">      0.00000000       0.02564103       0.00000000 </v>
   <v name="genvec3">      0.00000000       0.00000000       1.00000000 </v>
   <v name="shift">      0.00000000       0.00000000       0.00000000 </v>
  </generation>
  <varray name="kpointlist" >
   <v>       0.00000000       0.00000000       0.00000000 </v>
   <v>       0.02564103       0.00000000       0.00000000 </v>
   <v>       0.00000000       0.02564103       0.00000000 </v>
   <v>      -0.02564103       0.02564103       0.00000000 </v>
   <v>       0.05128205       0.00000000       0.00000000 </v>
   <v>       0.00000000       0.05128205       0.00000000 </v>
   <v>      -0.05128205       0.05128205       0.00000000 </v>
   <v>       0.07692308       0.00000000       0.00000000 </v>
   <v>       0.00000000       0.07692308       0.00000000 </v>
   <v>      -0.07692308       0.07692308       0.00000000 </v>
   <v>       0.10256410       0.00000000       0.00000000 </v>
   <v>       0.00000000       0.10256410       0.00000000 </v>
   <v>      -0.10256410       0.10256410       0.00000000 </v>
   <v>       0.12820513      -0.00000000       0.00000000 </v>
   <v>      -0.00000000       0.12820513       0.00000000 </v>
   <v>      -0.12820513       0.12820513       0.00000000 </v>
   <v>       0.15384615      -0.00000000       0.00000000 </v>
   <v>      -0.00000000       0.15384615       0.00000000 </v>
   <v>      -0.15384615       0.15384615       0.00000000 </v>
   <v>       0.17948718       0.00000000       0.00000000 </v>
   <v>       0.00000000       0.17948718       0.00000000 </v>
   <v>      -0.17948718       0.17948718       0.00000000 </v>
   <v>       0.20512821       0.00000000       0.00000000 </v>
   <v>       0.00000000       0.20512821       0.00000000 </v>
   <v>      -0.20512821       0.20512821       0.00000000 </v>
   <v>       0.23076923       0.00000000       0.00000000 </v>
   <v>       0.00000000       0.23076923       0.00000000 </v>
   <v>      -0.23076923       0.23076923       0.00000000 </v>
   <v>       0.25641026      -0.00000000       0.00000000 </v>
   <v>       0.00000000       0.25641026       0.00000000 </v>
   <v>      -0.25641026       0.25641026       0.00000000 </v>
   <v>       0.28205128       0.00000000       0.00000000 </v>
   <v>       0.00000000       0.28205128       0.00000000 </v>
   <v>      -0.28205128       0.28205128       0.00000000 </v>
   <v>       0.30769231      -0.00000000       0.00000000 </v>
   <v>      -0.00000000       0.30769231       0.00000000 </v>
   <v>      -0.30769231       0.30769231       0.00000000 </v>
   <v>       0.33333333       0.00000000       0.00000000 </v>
   <v>      -0.00000000       0.33333333       0.00000000 </v>
   <v>      -0.33333333       0.33333333       0.00000000 </v>
   <v>       0.35897436      -0.00000000       0.00000000 </v>
   <v>       0.00000000       0.35897436       0.00000000 </v>
   <v>      -0.35897436       0.35897436       0.00000000 </v>
   <v>       0.38461538      -0.00000000       0.00000000 </v>
   <v>       0.00000000       0.38461538       0.00000000 </v>
   <v>      -0.38461538       0.38461538       0.00000000 </v>
   <v>       0.41025641       0.00000000       0.00000000 </v>
   <v>       0.00000000       0.41025641       0.00000000 </v>
   <v>      -0.41025641       0.41025641       0.00000000 </v>
   <v>       0.43589744      -0.00000000       0.00000000 </v>
   <v>       0.00000000       0.43589744       0.00000000 </v>
   <v>      -0.43589744       0.43589744       0.00000000 </v>
   <v>       0.46153846       0.00000000       0.00000000 </v>
   <v>       0.00000000       0.46153846       0.00000000 </v>
   <v>      -0.46153846       0.46153846       0.00000000 </v>
   <v>       0.48717949      -0.00000000       0.00000000 </v>
   <v>      -0.00000000       0.48717949       0.00000000 </v>
   <v>      -0.48717949       0.48717949       0.00000000 </v>
   <v>       0.02564103       0.02564103       0.00000000 </v>
   <v>      -0.02564103       0.05128205       0.00000000 </v>
   <v>      -0.05128205       0.02564103       0.00000000 </v>
   <v>       0.05128205       0.02564103       0.00000000 </v>
   <v>      -0.02564103       0.07692308       0.00000000 </v>
   <v>      -0.07692308       0.05128205       0.00000000 </v>
   <v>      -0.05128205       0.07692308       0.00000000 </v>
   <v>       0.02564103       0.05128205       0.00000000 </v>
   <v>       0.07692308      -0.02564103       0.00000000 </v>
   <v>       0.07692308       0.02564103       0.00000000 </v>
   <v>      -0.02564103       0.10256410       0.00000000 </v>
   <v>      -0.10256410       0.07692308       0.00000000 </v>
   <v>      -0.07692308       0.10256410       0.00000000 </v>
   <v>       0.02564103       0.07692308       0.00000000 </v>
   <v>       0.10256410      -0.02564103       0.00000000 </v>
   <v>       0.10256410       0.02564103       0.00000000 </v>
   <v>      -0.02564103       0.12820513       0.00000000 </v>
   <v>      -0.12820513       0.10256410       0.00000000 </v>
   <v>      -0.10256410       0.12820513       0.00000000 </v>
   <v>       0.02564103       0.10256410       0.00000000 </v>
   <v>       0.12820513      -0.02564103       0.00000000 </v>
   <v>       0.12820513       0.02564103       0.00000000 </v>
   <v>      -0.02564103       0.15384615       0.00000000 </v>
   <v>      -0.15384615       0.12820513       0.00000000 </v>
   <v>      -0.12820513       0.15384615       0.00000000 </v>
   <v>       0.02564103       0.12820513       0.00000000 </v>
   <v>       0.15384615      -0.02564103       0.00000000 </v>
   <v>       0.15384615       0.02564103       0.00000000 </v>
   <v>      -0.02564103       0.17948718       0.00000000 </v>
   <v>      -0.17948718       0.15384615       0.00000000 </v>
   <v>      -0.15384615       0.17948718       0.00000000 </v>
   <v>       0.02564103       0.15384615       0.00000000 </v>
   <v>       0.17948718      -0.02564103       0.00000000 </v>
   <v>       0.17948718       0.02564103       0.00000000 </v>
   <v>      -0.02564103       0.20512821       0.00000000 </v>
   <v>      -0.20512821       0.17948718       0.00000000 </v>
   <v>      -0.17948718       0.20512821       0.00000000 </v>
   <v>       0.02564103       0.17948718       0.00000000 </v>
   <v>       0.20512821      -0.02564103       0.00000000 </v>
   <v>       0.20512821       0.02564103       0.00000000 </v>
   <v>      -0.02564103       0.23076923       0.00000000 </v>
   <v>      -0.23076923       0.20512821       0.00000000 </v>
   <v>      -0.20512821       0.23076923       0.00000000 </v>
   <v>       0.02564103       0.20512821       0.00000000 </v>
   <v>       0.23076923      -0.02564103       0.00000000 </v>
   <v>       0.23076923       0.02564103       0.00000000 </v>
   <v>      -0.02564103       0.25641026       0.00000000 </v>
   <v>      -0.25641026       0.23076923       0.00000000 </v>
   <v>      -0.23076923       0.25641026       0.00000000 </v>
   <v>       0.02564103       0.23076923       0.00000000 </v>
   <v>       0.25641026      -0.02564103       0.00000000 </v>
   <v>       0.25641026       0.02564103       0.00000000 </v>
   <v>      -0.02564103       0.28205128       0.00000000 </v>
   <v>      -0.28205128       0.25641026       0.00000000 </v>
   <v>      -0.25641026       0.28205128       0.00000000 </v>
   <v>       0.02564103       0.25641026       0.00000000 </v>
   <v>       0.28205128      -0.02564103       0.00000000 </v>
   <v>       0.28205128       0.02564103       0.00000000 </v>
   <v>      -0.02564103       0.30769231       0.00000000 </v>
   <v>      -0.30769231       0.28205128       0.00000000 </v>
   <v>      -0.28205128       0.30769231       0.00000000 </v>
   <v>       0.02564103       0.28205128       0.00000000 </v>
   <v>       0.30769231      -0.02564103       0.00000000 </v>
   <v>       0.30769231       0.02564103       0.00000000 </v>
   <v>      -0.02564103       0.33333333       0.00000000 </v>
   <v>      -0.33333333       0.30769231       0.00000000 </v>
   <v>      -0.30769231       0.33333333       0.00000000 </v>
   <v>       0.02564103       0.30769231       0.00000000 </v>
   <v>       0.33333333      -0.02564103       0.00000000 </v>
   <v>       0.33333333       0.02564103       0.00000000 </v>
   <v>      -0.02564103       0.35897436       0.00000000 </v>
   <v>      -0.35897436       0.33333333       0.00000000 </v>
   <v>      -0.33333333       0.35897436       0.00000000 </v>
   <v>       0.02564103       0.33333333       0.00000000 </v>
   <v>       0.35897436      -0.02564103       0.00000000 </v>
   <v>       0.35897436       0.02564103       0.00000000 </v>
   <v>      -0.02564103       0.38461538       0.00000000 </v>
   <v>      -0.38461538       0.35897436       0.00000000 </v>
   <v>      -0.35897436       0.38461538       0.00000000 </v>
   <v>       0.02564103       0.35897436       0.00000000 </v>
   <v>       0.38461538      -0.02564103       0.00000000 </v>
   <v>       0.38461538       0.02564103       0.00000000 </v>
   <v>      -0.02564103       0.41025641       0.00000000 </v>
   <v>      -0.41025641       0.38461538       0.00000000 </v>
   <v>      -0.38461538       0.41025641       0.00000000 </v>
   <v>       0.02564103       0.38461538       0.00000000 </v>
   <v>       0.41025641      -0.02564103       0.00000000 </v>
   <v>       0.41025641       0.02564103       0.00000000 </v>
   <v>      -0.02564103       0.43589744       0.00000000 </v>
   <v>      -0.43589744       0.41025641       0.00000000 </v>
   <v>      -0.41025641       0.43589744       0.00000000 </v>
   <v>       0.02564103       0.41025641       0.00000000 </v>
   <v>       0.43589744      -0.02564103       0.00000000 </v>
   <v>       0.43589744       0.02564103       0.00000000 </v>
   <v>      -0.02564103       0.46153846       0.00000000 </v>
   <v>      -0.46153846       0.43589744       0.00000000 </v>
   <v>      -0.43589744       0.46153846       0.00000000 </v>
   <v>       0.02564103       0.43589744       0.00000000 </v>
   <v>       0.46153846      -0.02564103       0.00000000 </v>
   <v>       0.46153846       0.02564103       0.00000000 </v>
   <v>      -0.02564103       0.48717949       0.00000000 </v>
   <v>      -0.48717949       0.46153846       0.00000000 </v>
   <v>      -0.46153846       0.48717949       0.00000000 </v>
   <v>       0.02564103       0.46153846       0.00000000 </v>
   <v>       0.48717949      -0.02564103       0.00000000 </v>
   <v>       0.48717949       0.02564103       0.00000000 </v>
   <v>      -0.02564103      -0.48717949       0.00000000 </v>
   <v>       0.48717949       0.48717949       0.00000000 </v>
   <v>       0.05128205       0.05128205       0.00000000 </v>
   <v>      -0.05128205       0.10256410       0.00000000 </v>
   <v>      -0.10256410       0.05128205       0.00000000 </v>
   <v>       0.07692308       0.05128205       0.00000000 </v>
   <v>      -0.05128205       0.12820513       0.00000000 </v>
   <v>      -0.12820513       0.07692308       0.00000000 </v>
   <v>      -0.07692308       0.12820513       0.00000000 </v>
   <v>       0.05128205       0.07692308       0.00000000 </v>
   <v>       0.12820513      -0.05128205       0.00000000 </v>
   <v>       0.10256410       0.05128205       0.00000000 </v>
   <v>      -0.05128205       0.15384615       0.00000000 </v>
   <v>      -0.15384615       0.10256410       0.00000000 </v>
   <v>      -0.10256410       0.15384615       0.00000000 </v>
   <v>       0.05128205       0.10256410       0.00000000 </v>
   <v>       0.15384615      -0.05128205       0.00000000 </v>
   <v>       0.12820513       0.05128205       0.00000000 </v>
   <v>      -0.05128205       0.17948718       0.00000000 </v>
   <v>      -0.17948718       0.12820513       0.00000000 </v>
   <v>      -0.12820513       0.17948718       0.00000000 </v>
   <v>       0.05128205       0.12820513       0.00000000 </v>
   <v>       0.17948718      -0.05128205       0.00000000 </v>
   <v>       0.15384615       0.05128205       0.00000000 </v>
   <v>      -0.05128205       0.20512821       0.00000000 </v>
   <v>      -0.20512821       0.15384615       0.00000000 </v>
   <v>      -0.15384615       0.20512821       0.00000000 </v>
   <v>       0.05128205       0.15384615       0.00000000 </v>
   <v>       0.20512821      -0.05128205       0.00000000 </v>
   <v>       0.17948718       0.05128205       0.00000000 </v>
   <v>      -0.05128205       0.23076923       0.00000000 </v>
   <v>      -0.23076923       0.17948718       0.00000000 </v>
   <v>      -0.17948718       0.23076923       0.00000000 </v>
   <v>       0.05128205       0.17948718       0.00000000 </v>
   <v>       0.23076923      -0.05128205       0.00000000 </v>
   <v>       0.20512821       0.05128205       0.00000000 </v>
   <v>      -0.05128205       0.25641026       0.00000000 </v>
   <v>      -0.25641026       0.20512821       0.00000000 </v>
   <v>      -0.20512821       0.25641026       0.00000000 </v>
   <v>       0.05128205       0.20512821       0.00000000 </v>
   <v>       0.25641026      -0.05128205       0.00000000 </v>
   <v>       0.23076923       0.05128205       0.00000000 </v>
   <v>      -0.05128205       0.28205128       0.00000000 </v>
   <v>      -0.28205128       0.23076923       0.00000000 </v>
   <v>      -0.23076923       0.28205128       0.00000000 </v>
   <v>       0.05128205       0.23076923       0.00000000 </v>
   <v>       0.28205128      -0.05128205       0.00000000 </v>
   <v>       0.25641026       0.05128205       0.00000000 </v>
   <v>      -0.05128205       0.30769231       0.00000000 </v>
   <v>      -0.30769231       0.25641026       0.00000000 </v>
   <v>      -0.25641026       0.30769231       0.00000000 </v>
   <v>       0.05128205       0.25641026       0.00000000 </v>
   <v>       0.30769231      -0.05128205       0.00000000 </v>
   <v>       0.28205128       0.05128205       0.00000000 </v>
   <v>      -0.05128205       0.33333333       0.00000000 </v>
   <v>      -0.33333333       0.28205128       0.00000000 </v>
   <v>      -0.28205128       0.33333333       0.00000000 </v>
   <v>       0.05128205       0.28205128       0.00000000 </v>
   <v>       0.33333333      -0.05128205       0.00000000 </v>
   <v>       0.30769231       0.05128205       0.00000000 </v>
   <v>      -0.05128205       0.35897436       0.00000000 </v>
   <v>      -0.35897436       0.30769231       0.00000000 </v>
   <v>      -0.30769231       0.35897436       0.00000000 </v>
   <v>       0.05128205       0.30769231       0.00000000 </v>
   <v>       0.35897436      -0.05128205       0.00000000 </v>
   <v>       0.33333333       0.05128205       0.00000000 </v>
   <v>      -0.05128205       0.38461538       0.00000000 </v>
   <v>      -0.38461538       0.33333333       0.00000000 </v>
   <v>      -0.33333333       0.38461538       0.00000000 </v>
   <v>       0.05128205       0.33333333       0.00000000 </v>
   <v>       0.38461538      -0.05128205       0.00000000 </v>
   <v>       0.35897436       0.05128205       0.00000000 </v>
   <v>      -0.05128205       0.41025641       0.00000000 </v>
   <v>      -0.41025641       0.35897436       0.00000000 </v>
   <v>      -0.35897436       0.41025641       0.00000000 </v>
   <v>       0.05128205       0.35897436       0.00000000 </v>
   <v>       0.41025641      -0.05128205       0.00000000 </v>
   <v>       0.38461538       0.05128205       0.00000000 </v>
   <v>      -0.05128205       0.43589744       0.00000000 </v>
   <v>      -0.43589744       0.38461538       0.00000000 </v>
   <v>      -0.38461538       0.43589744       0.00000000 </v>
   <v>       0.05128205       0.38461538       0.00000000 </v>
   <v>       0.43589744      -0.05128205       0.00000000 </v>
   <v>       0.41025641       0.05128205       0.00000000 </v>
   <v>      -0.05128205       0.46153846       0.00000000 </v>
   <v>      -0.46153846       0.41025641       0.00000000 </v>
   <v>      -0.41025641       0.46153846       0.00000000 </v>
   <v>       0.05128205       0.41025641       0.00000000 </v>
   <v>       0.46153846      -0.05128205       0.00000000 </v>
   <v>       0.43589744       0.05128205       0.00000000 </v>
   <v>      -0.05128205       0.48717949       0.00000000 </v>
   <v>      -0.48717949       0.43589744       0.00000000 </v>
   <v>      -0.43589744       0.48717949       0.00000000 </v>
   <v>       0.05128205       0.43589744       0.00000000 </v>
   <v>       0.48717949      -0.05128205       0.00000000 </v>
   <v>       0.46153846       0.05128205       0.00000000 </v>
   <v>      -0.05128205      -0.48717949       0.00000000 </v>
   <v>       0.48717949       0.46153846       0.00000000 </v>
   <v>      -0.46153846      -0.48717949       0.00000000 </v>
   <v>       0.05128205       0.46153846       0.00000000 </v>
   <v>      -0.48717949      -0.05128205       0.00000000 </v>
   <v>       0.07692308       0.07692308       0.00000000 </v>
   <v>      -0.07692308       0.15384615       0.00000000 </v>
   <v>      -0.15384615       0.07692308       0.00000000 </v>
   <v>       0.10256410       0.07692308       0.00000000 </v>
   <v>      -0.07692308       0.17948718       0.00000000 </v>
   <v>      -0.17948718       0.10256410       0.00000000 </v>
   <v>      -0.10256410       0.17948718       0.00000000 </v>
   <v>       0.07692308       0.10256410       0.00000000 </v>
   <v>       0.17948718      -0.07692308       0.00000000 </v>
   <v>       0.12820513       0.07692308       0.00000000 </v>
   <v>      -0.07692308       0.20512821       0.00000000 </v>
   <v>      -0.20512821       0.12820513       0.00000000 </v>
   <v>      -0.12820513       0.20512821       0.00000000 </v>
   <v>       0.07692308       0.12820513       0.00000000 </v>
   <v>       0.20512821      -0.07692308       0.00000000 </v>
   <v>       0.15384615       0.07692308       0.00000000 </v>
   <v>      -0.07692308       0.23076923       0.00000000 </v>
   <v>      -0.23076923       0.15384615       0.00000000 </v>
   <v>      -0.15384615       0.23076923       0.00000000 </v>
   <v>       0.07692308       0.15384615       0.00000000 </v>
   <v>       0.23076923      -0.07692308       0.00000000 </v>
   <v>       0.17948718       0.07692308       0.00000000 </v>
   <v>      -0.07692308       0.25641026       0.00000000 </v>
   <v>      -0.25641026       0.17948718       0.00000000 </v>
   <v>      -0.17948718       0.25641026       0.00000000 </v>
   <v>       0.07692308       0.17948718       0.00000000 </v>
   <v>       0.25641026      -0.07692308       0.00000000 </v>
   <v>       0.20512821       0.07692308       0.00000000 </v>
   <v>      -0.07692308       0.28205128       0.00000000 </v>
   <v>      -0.28205128       0.20512821       0.00000000 </v>
   <v>      -0.20512821       0.28205128       0.00000000 </v>
   <v>       0.07692308       0.20512821       0.00000000 </v>
   <v>       0.28205128      -0.07692308       0.00000000 </v>
   <v>       0.23076923       0.07692308       0.00000000 </v>
   <v>      -0.07692308       0.30769231       0.00000000 </v>
   <v>      -0.30769231       0.23076923       0.00000000 </v>
   <v>      -0.23076923       0.30769231       0.00000000 </v>
   <v>       0.07692308       0.23076923       0.00000000 </v>
   <v>       0.30769231      -0.07692308       0.00000000 </v>
   <v>       0.25641026       0.07692308       0.00000000 </v>
   <v>      -0.07692308       0.33333333       0.00000000 </v>
   <v>      -0.33333333       0.25641026       0.00000000 </v>
   <v>      -0.25641026       0.33333333       0.00000000 </v>
   <v>       0.07692308       0.25641026       0.00000000 </v>
   <v>       0.33333333      -0.07692308       0.00000000 </v>
   <v>       0.28205128       0.07692308       0.00000000 </v>
   <v>      -0.07692308       0.35897436       0.00000000 </v>
   <v>      -0.35897436       0.28205128       0.00000000 </v>
   <v>      -0.28205128       0.35897436       0.00000000 </v>
   <v>       0.07692308       0.28205128       0.00000000 </v>
   <v>       0.35897436      -0.07692308       0.00000000 </v>
   <v>       0.30769231       0.07692308       0.00000000 </v>
   <v>      -0.07692308       0.38461538       0.00000000 </v>
   <v>      -0.38461538       0.30769231       0.00000000 </v>
   <v>      -0.30769231       0.38461538       0.00000000 </v>
   <v>       0.07692308       0.30769231       0.00000000 </v>
   <v>       0.38461538      -0.07692308       0.00000000 </v>
   <v>       0.33333333       0.07692308       0.00000000 </v>
   <v>      -0.07692308       0.41025641       0.00000000 </v>
   <v>      -0.41025641       0.33333333       0.00000000 </v>
   <v>      -0.33333333       0.41025641       0.00000000 </v>
   <v>       0.07692308       0.33333333       0.00000000 </v>
   <v>       0.41025641      -0.07692308       0.00000000 </v>
   <v>       0.35897436       0.07692308       0.00000000 </v>
   <v>      -0.07692308       0.43589744       0.00000000 </v>
   <v>      -0.43589744       0.35897436       0.00000000 </v>
   <v>      -0.35897436       0.43589744       0.00000000 </v>
   <v>       0.07692308       0.35897436       0.00000000 </v>
   <v>       0.43589744      -0.07692308       0.00000000 </v>
   <v>       0.38461538       0.07692308       0.00000000 </v>
   <v>      -0.07692308       0.46153846       0.00000000 </v>
   <v>      -0.46153846       0.38461538       0.00000000 </v>
   <v>      -0.38461538       0.46153846       0.00000000 </v>
   <v>       0.07692308       0.38461538       0.00000000 </v>
   <v>       0.46153846      -0.07692308       0.00000000 </v>
   <v>       0.41025641       0.07692308       0.00000000 </v>
   <v>      -0.07692308       0.48717949       0.00000000 </v>
   <v>      -0.48717949       0.41025641       0.00000000 </v>
   <v>      -0.41025641       0.48717949       0.00000000 </v>
   <v>       0.07692308       0.41025641       0.00000000 </v>
   <v>       0.48717949      -0.07692308       0.00000000 </v>
   <v>       0.43589744       0.07692308       0.00000000 </v>
   <v>      -0.07692308      -0.48717949       0.00000000 </v>
   <v>       0.48717949       0.43589744       0.00000000 </v>
   <v>      -0.43589744      -0.48717949       0.00000000 </v>
   <v>       0.07692308       0.43589744       0.00000000 </v>
   <v>      -0.48717949      -0.07692308       0.00000000 </v>
   <v>       0.46153846       0.07692308       0.00000000 </v>
   <v>      -0.07692308      -0.46153846       0.00000000 </v>
   <v>       0.46153846       0.46153846       0.00000000 </v>
   <v>       0.10256410       0.10256410       0.00000000 </v>
   <v>      -0.10256410       0.20512821       0.00000000 </v>
   <v>      -0.20512821       0.10256410       0.00000000 </v>
   <v>       0.12820513       0.10256410       0.00000000 </v>
   <v>      -0.10256410       0.23076923       0.00000000 </v>
   <v>      -0.23076923       0.12820513       0.00000000 </v>
   <v>      -0.12820513       0.23076923       0.00000000 </v>
   <v>       0.10256410       0.12820513       0.00000000 </v>
   <v>       0.23076923      -0.10256410       0.00000000 </v>
   <v>       0.15384615       0.10256410       0.00000000 </v>
   <v>      -0.10256410       0.25641026       0.00000000 </v>
   <v>      -0.25641026       0.15384615       0.00000000 </v>
   <v>      -0.15384615       0.25641026       0.00000000 </v>
   <v>       0.10256410       0.15384615       0.00000000 </v>
   <v>       0.25641026      -0.10256410       0.00000000 </v>
   <v>       0.17948718       0.10256410       0.00000000 </v>
   <v>      -0.10256410       0.28205128       0.00000000 </v>
   <v>      -0.28205128       0.17948718       0.00000000 </v>
   <v>      -0.17948718       0.28205128       0.00000000 </v>
   <v>       0.10256410       0.17948718       0.00000000 </v>
   <v>       0.28205128      -0.10256410       0.00000000 </v>
   <v>       0.20512821       0.10256410       0.00000000 </v>
   <v>      -0.10256410       0.30769231       0.00000000 </v>
   <v>      -0.30769231       0.20512821       0.00000000 </v>
   <v>      -0.20512821       0.30769231       0.00000000 </v>
   <v>       0.10256410       0.20512821       0.00000000 </v>
   <v>       0.30769231      -0.10256410       0.00000000 </v>
   <v>       0.23076923       0.10256410       0.00000000 </v>
   <v>      -0.10256410       0.33333333       0.00000000 </v>
   <v>      -0.33333333       0.23076923       0.00000000 </v>
   <v>      -0.23076923       0.33333333       0.00000000 </v>
   <v>       0.10256410       0.23076923       0.00000000 </v>
   <v>       0.33333333      -0.10256410       0.00000000 </v>
   <v>       0.25641026       0.10256410       0.00000000 </v>
   <v>      -0.10256410       0.35897436       0.00000000 </v>
   <v>      -0.35897436       0.25641026       0.00000000 </v>
   <v>      -0.25641026       0.35897436       0.00000000 </v>
   <v>       0.10256410       0.25641026       0.00000000 </v>
   <v>       0.35897436      -0.10256410       0.00000000 </v>
   <v>       0.28205128       0.10256410       0.00000000 </v>
   <v>      -0.10256410       0.38461538       0.00000000 </v>
   <v>      -0.38461538       0.28205128       0.00000000 </v>
   <v>      -0.28205128       0.38461538       0.00000000 </v>
   <v>       0.10256410       0.28205128       0.00000000 </v>
   <v>       0.38461538      -0.10256410       0.00000000 </v>
   <v>       0.30769231       0.10256410       0.00000000 </v>
   <v>      -0.10256410       0.41025641       0.00000000 </v>
   <v>      -0.41025641       0.30769231       0.00000000 </v>
   <v>      -0.30769231       0.41025641       0.00000000 </v>
   <v>       0.10256410       0.30769231       0.00000000 </v>
   <v>       0.41025641      -0.10256410       0.00000000 </v>
   <v>       0.33333333       0.10256410       0.00000000 </v>
   <v>      -0.10256410       0.43589744       0.00000000 </v>
   <v>      -0.43589744       0.33333333       0.00000000 </v>
   <v>      -0.33333333       0.43589744       0.00000000 </v>
   <v>       0.10256410       0.33333333       0.00000000 </v>
   <v>       0.43589744      -0.10256410       0.00000000 </v>
   <v>       0.35897436       0.10256410       0.00000000 </v>
   <v>      -0.10256410       0.46153846       0.00000000 </v>
   <v>      -0.46153846       0.35897436       0.00000000 </v>
   <v>      -0.35897436       0.46153846       0.00000000 </v>
   <v>       0.10256410       0.35897436       0.00000000 </v>
   <v>       0.46153846      -0.10256410       0.00000000 </v>
   <v>       0.38461538       0.10256410       0.00000000 </v>
   <v>      -0.10256410       0.48717949       0.00000000 </v>
   <v>      -0.48717949       0.38461538       0.00000000 </v>
   <v>      -0.38461538       0.48717949       0.00000000 </v>
   <v>       0.10256410       0.38461538       0.00000000 </v>
   <v>       0.48717949      -0.10256410       0.00000000 </v>
   <v>       0.41025641       0.10256410       0.00000000 </v>
   <v>      -0.10256410      -0.48717949       0.00000000 </v>
   <v>       0.48717949       0.41025641       0.00000000 </v>
   <v>      -0.41025641      -0.48717949       0.00000000 </v>
   <v>       0.10256410       0.41025641       0.00000000 </v>
   <v>      -0.48717949      -0.10256410       0.00000000 </v>
   <v>       0.43589744       0.10256410       0.00000000 </v>
   <v>      -0.10256410      -0.46153846       0.00000000 </v>
   <v>       0.46153846       0.43589744       0.00000000 </v>
   <v>      -0.43589744      -0.46153846       0.00000000 </v>
   <v>       0.10256410       0.43589744       0.00000000 </v>
   <v>      -0.46153846      -0.10256410       0.00000000 </v>
   <v>       0.12820513       0.12820513       0.00000000 </v>
   <v>      -0.12820513       0.25641026       0.00000000 </v>
   <v>      -0.25641026       0.12820513       0.00000000 </v>
   <v>       0.15384615       0.12820513       0.00000000 </v>
   <v>      -0.12820513       0.28205128       0.00000000 </v>
   <v>      -0.28205128       0.15384615       0.00000000 </v>
   <v>      -0.15384615       0.28205128       0.00000000 </v>
   <v>       0.12820513       0.15384615       0.00000000 </v>
   <v>       0.28205128      -0.12820513       0.00000000 </v>
   <v>       0.17948718       0.12820513       0.00000000 </v>
   <v>      -0.12820513       0.30769231       0.00000000 </v>
   <v>      -0.30769231       0.17948718       0.00000000 </v>
   <v>      -0.17948718       0.30769231       0.00000000 </v>
   <v>       0.12820513       0.17948718       0.00000000 </v>
   <v>       0.30769231      -0.12820513       0.00000000 </v>
   <v>       0.20512821       0.12820513       0.00000000 </v>
   <v>      -0.12820513       0.33333333       0.00000000 </v>
   <v>      -0.33333333       0.20512821       0.00000000 </v>
   <v>      -0.20512821       0.33333333       0.00000000 </v>
   <v>       0.12820513       0.20512821       0.00000000 </v>
   <v>       0.33333333      -0.12820513       0.00000000 </v>
   <v>       0.23076923       0.12820513       0.00000000 </v>
   <v>      -0.12820513       0.35897436       0.00000000 </v>
   <v>      -0.35897436       0.23076923       0.00000000 </v>
   <v>      -0.23076923       0.35897436       0.00000000 </v>
   <v>       0.12820513       0.23076923       0.00000000 </v>
   <v>       0.35897436      -0.12820513       0.00000000 </v>
   <v>       0.25641026       0.12820513       0.00000000 </v>
   <v>      -0.12820513       0.38461538       0.00000000 </v>
   <v>      -0.38461538       0.25641026       0.00000000 </v>
   <v>      -0.25641026       0.38461538       0.00000000 </v>
   <v>       0.12820513       0.25641026       0.00000000 </v>
   <v>       0.38461538      -0.12820513       0.00000000 </v>
   <v>       0.28205128       0.12820513       0.00000000 </v>
   <v>      -0.12820513       0.41025641       0.00000000 </v>
   <v>      -0.41025641       0.28205128       0.00000000 </v>
   <v>      -0.28205128       0.41025641       0.00000000 </v>
   <v>       0.12820513       0.28205128       0.00000000 </v>
   <v>       0.41025641      -0.12820513       0.00000000 </v>
   <v>       0.30769231       0.12820513       0.00000000 </v>
   <v>      -0.12820513       0.43589744       0.00000000 </v>
   <v>      -0.43589744       0.30769231       0.00000000 </v>
   <v>      -0.30769231       0.43589744       0.00000000 </v>
   <v>       0.12820513       0.30769231       0.00000000 </v>
   <v>       0.43589744      -0.12820513       0.00000000 </v>
   <v>       0.33333333       0.12820513       0.00000000 </v>
   <v>      -0.12820513       0.46153846       0.00000000 </v>
   <v>      -0.46153846       0.33333333       0.00000000 </v>
   <v>      -0.33333333       0.46153846       0.00000000 </v>
   <v>       0.12820513       0.33333333       0.00000000 </v>
   <v>       0.46153846      -0.12820513       0.00000000 </v>
   <v>       0.35897436       0.12820513       0.00000000 </v>
   <v>      -0.12820513       0.48717949       0.00000000 </v>
   <v>      -0.48717949       0.35897436       0.00000000 </v>
   <v>      -0.35897436       0.48717949       0.00000000 </v>
   <v>       0.12820513       0.35897436       0.00000000 </v>
   <v>       0.48717949      -0.12820513       0.00000000 </v>
   <v>       0.38461538       0.12820513       0.00000000 </v>
   <v>      -0.12820513      -0.48717949       0.00000000 </v>
   <v>       0.48717949       0.38461538       0.00000000 </v>
   <v>      -0.38461538      -0.48717949       0.00000000 </v>
   <v>       0.12820513       0.38461538       0.00000000 </v>
   <v>      -0.48717949      -0.12820513       0.00000000 </v>
   <v>       0.41025641       0.12820513       0.00000000 </v>
   <v>      -0.12820513      -0.46153846       0.00000000 </v>
   <v>       0.46153846       0.41025641       0.00000000 </v>
   <v>      -0.41025641      -0.46153846       0.00000000 </v>
   <v>       0.12820513       0.41025641       0.00000000 </v>
   <v>      -0.46153846      -0.12820513       0.00000000 </v>
   <v>       0.43589744       0.12820513       0.00000000 </v>
   <v>      -0.12820513      -0.43589744       0.00000000 </v>
   <v>       0.43589744       0.43589744       0.00000000 </v>
   <v>       0.15384615       0.15384615       0.00000000 </v>
   <v>      -0.15384615       0.30769231       0.00000000 </v>
   <v>      -0.30769231       0.15384615       0.00000000 </v>
   <v>       0.17948718       0.15384615       0.00000000 </v>
   <v>      -0.15384615       0.33333333       0.00000000 </v>
   <v>      -0.33333333       0.17948718       0.00000000 </v>
   <v>      -0.17948718       0.33333333       0.00000000 </v>
   <v>       0.15384615       0.17948718       0.00000000 </v>
   <v>       0.33333333      -0.15384615       0.00000000 </v>
   <v>       0.20512821       0.15384615       0.00000000 </v>
   <v>      -0.15384615       0.35897436       0.00000000 </v>
   <v>      -0.35897436       0.20512821       0.00000000 </v>
   <v>      -0.20512821       0.35897436       0.00000000 </v>
   <v>       0.15384615       0.20512821       0.00000000 </v>
   <v>       0.35897436      -0.15384615       0.00000000 </v>
   <v>       0.23076923       0.15384615       0.00000000 </v>
   <v>      -0.15384615       0.38461538       0.00000000 </v>
   <v>      -0.38461538       0.23076923       0.00000000 </v>
   <v>      -0.23076923       0.38461538       0.00000000 </v>
   <v>       0.15384615       0.23076923       0.00000000 </v>
   <v>       0.38461538      -0.15384615       0.00000000 </v>
   <v>       0.25641026       0.15384615       0.00000000 </v>
   <v>      -0.15384615       0.41025641       0.00000000 </v>
   <v>      -0.41025641       0.25641026       0.00000000 </v>
   <v>      -0.25641026       0.41025641       0.00000000 </v>
   <v>       0.15384615       0.25641026       0.00000000 </v>
   <v>       0.41025641      -0.15384615       0.00000000 </v>
   <v>       0.28205128       0.15384615       0.00000000 </v>
   <v>      -0.15384615       0.43589744       0.00000000 </v>
   <v>      -0.43589744       0.28205128       0.00000000 </v>
   <v>      -0.28205128       0.43589744       0.00000000 </v>
   <v>       0.15384615       0.28205128       0.00000000 </v>
   <v>       0.43589744      -0.15384615       0.00000000 </v>
   <v>       0.30769231       0.15384615       0.00000000 </v>
   <v>      -0.15384615       0.46153846       0.00000000 </v>
   <v>      -0.46153846       0.30769231       0.00000000 </v>
   <v>      -0.30769231       0.46153846       0.00000000 </v>
   <v>       0.15384615       0.30769231       0.00000000 </v>
   <v>       0.46153846      -0.15384615       0.00000000 </v>
   <v>       0.33333333       0.15384615       0.00000000 </v>
   <v>      -0.15384615       0.48717949       0.00000000 </v>
   <v>      -0.48717949       0.33333333       0.00000000 </v>
   <v>      -0.33333333       0.48717949       0.00000000 </v>
   <v>       0.15384615       0.33333333       0.00000000 </v>
   <v>       0.48717949      -0.15384615       0.00000000 </v>
   <v>       0.35897436       0.15384615       0.00000000 </v>
   <v>      -0.15384615      -0.48717949       0.00000000 </v>
   <v>       0.48717949       0.35897436       0.00000000 </v>
   <v>      -0.35897436      -0.48717949       0.00000000 </v>
   <v>       0.15384615       0.35897436       0.00000000 </v>
   <v>      -0.48717949      -0.15384615       0.00000000 </v>
   <v>       0.38461538       0.15384615       0.00000000 </v>
   <v>      -0.15384615      -0.46153846       0.00000000 </v>
   <v>       0.46153846       0.38461538       0.00000000 </v>
   <v>      -0.38461538      -0.46153846       0.00000000 </v>
   <v>       0.15384615       0.38461538       0.00000000 </v>
   <v>      -0.46153846      -0.15384615       0.00000000 </v>
   <v>       0.41025641       0.15384615       0.00000000 </v>
   <v>      -0.15384615      -0.43589744       0.00000000 </v>
   <v>       0.43589744       0.41025641       0.00000000 </v>
   <v>      -0.41025641      -0.43589744       0.00000000 </v>
   <v>       0.15384615       0.41025641       0.00000000 </v>
   <v>      -0.43589744      -0.15384615       0.00000000 </v>
   <v>       0.17948718       0.17948718       0.00000000 </v>
   <v>      -0.17948718       0.35897436       0.00000000 </v>
   <v>      -0.35897436       0.17948718       0.00000000 </v>
   <v>       0.20512821       0.17948718       0.00000000 </v>
   <v>      -0.17948718       0.38461538       0.00000000 </v>
   <v>      -0.38461538       0.20512821       0.00000000 </v>
   <v>      -0.20512821       0.38461538       0.00000000 </v>
   <v>       0.17948718       0.20512821       0.00000000 </v>
   <v>       0.38461538      -0.17948718       0.00000000 </v>
   <v>       0.23076923       0.17948718       0.00000000 </v>
   <v>      -0.17948718       0.41025641       0.00000000 </v>
   <v>      -0.41025641       0.23076923       0.00000000 </v>
   <v>      -0.23076923       0.41025641       0.00000000 </v>
   <v>       0.17948718       0.23076923       0.00000000 </v>
   <v>       0.41025641      -0.17948718       0.00000000 </v>
   <v>       0.25641026       0.17948718       0.00000000 </v>
   <v>      -0.17948718       0.43589744       0.00000000 </v>
   <v>      -0.43589744       0.25641026       0.00000000 </v>
   <v>      -0.25641026       0.43589744       0.00000000 </v>
   <v>       0.17948718       0.25641026       0.00000000 </v>
   <v>       0.43589744      -0.17948718       0.00000000 </v>
   <v>       0.28205128       0.17948718       0.00000000 </v>
   <v>      -0.17948718       0.46153846       0.00000000 </v>
   <v>      -0.46153846       0.28205128       0.00000000 </v>
   <v>      -0.28205128       0.46153846       0.00000000 </v>
   <v>       0.17948718       0.28205128       0.00000000 </v>
   <v>       0.46153846      -0.17948718       0.00000000 </v>
   <v>       0.30769231       0.17948718       0.00000000 </v>
   <v>      -0.17948718       0.48717949       0.00000000 </v>
   <v>      -0.48717949       0.30769231       0.00000000 </v>
   <v>      -0.30769231       0.48717949       0.00000000 </v>
   <v>       0.17948718       0.30769231       0.00000000 </v>
   <v>       0.48717949      -0.17948718       0.00000000 </v>
   <v>       0.33333333       0.17948718       0.00000000 </v>
   <v>      -0.17948718      -0.48717949       0.00000000 </v>
   <v>       0.48717949       0.33333333       0.00000000 </v>
   <v>      -0.33333333      -0.48717949       0.00000000 </v>
   <v>       0.17948718       0.33333333       0.00000000 </v>
   <v>      -0.48717949      -0.17948718       0.00000000 </v>
   <v>       0.35897436       0.17948718       0.00000000 </v>
   <v>      -0.17948718      -0.46153846       0.00000000 </v>
   <v>       0.46153846       0.35897436       0.00000000 </v>
   <v>      -0.35897436      -0.46153846       0.00000000 </v>
   <v>       0.17948718       0.35897436       0.00000000 </v>
   <v>      -0.46153846      -0.17948718       0.00000000 </v>
   <v>       0.38461538       0.17948718       0.00000000 </v>
   <v>      -0.17948718      -0.43589744       0.00000000 </v>
   <v>       0.43589744       0.38461538       0.00000000 </v>
   <v>      -0.38461538      -0.43589744       0.00000000 </v>
   <v>       0.17948718       0.38461538       0.00000000 </v>
   <v>      -0.43589744      -0.17948718       0.00000000 </v>
   <v>       0.41025641       0.17948718       0.00000000 </v>
   <v>      -0.17948718      -0.41025641       0.00000000 </v>
   <v>       0.41025641       0.41025641       0.00000000 </v>
   <v>       0.20512821       0.20512821       0.00000000 </v>
   <v>      -0.20512821       0.41025641       0.00000000 </v>
   <v>      -0.41025641       0.20512821       0.00000000 </v>
   <v>       0.23076923       0.20512821       0.00000000 </v>
   <v>      -0.20512821       0.43589744       0.00000000 </v>
   <v>      -0.43589744       0.23076923       0.00000000 </v>
   <v>      -0.23076923       0.43589744       0.00000000 </v>
   <v>       0.20512821       0.23076923       0.00000000 </v>
   <v>       0.43589744      -0.20512821       0.00000000 </v>
   <v>       0.25641026       0.20512821       0.00000000 </v>
   <v>      -0.20512821       0.46153846       0.00000000 </v>
   <v>      -0.46153846       0.25641026       0.00000000 </v>
   <v>      -0.25641026       0.46153846       0.00000000 </v>
   <v>       0.20512821       0.25641026       0.00000000 </v>
   <v>       0.46153846      -0.20512821       0.00000000 </v>
   <v>       0.28205128       0.20512821       0.00000000 </v>
   <v>      -0.20512821       0.48717949       0.00000000 </v>
   <v>      -0.48717949       0.28205128       0.00000000 </v>
   <v>      -0.28205128       0.48717949       0.00000000 </v>
   <v>       0.20512821       0.28205128       0.00000000 </v>
   <v>       0.48717949      -0.20512821       0.00000000 </v>
   <v>       0.30769231       0.20512821       0.00000000 </v>
   <v>      -0.20512821      -0.48717949       0.00000000 </v>
   <v>       0.48717949       0.30769231       0.00000000 </v>
   <v>      -0.30769231      -0.48717949       0.00000000 </v>
   <v>       0.20512821       0.30769231       0.00000000 </v>
   <v>      -0.48717949      -0.20512821       0.00000000 </v>
   <v>       0.33333333       0.20512821       0.00000000 </v>
   <v>      -0.20512821      -0.46153846       0.00000000 </v>
   <v>       0.46153846       0.33333333       0.00000000 </v>
   <v>      -0.33333333      -0.46153846       0.00000000 </v>
   <v>       0.20512821       0.33333333       0.00000000 </v>
   <v>      -0.46153846      -0.20512821       0.00000000 </v>
   <v>       0.35897436       0.20512821       0.00000000 </v>
   <v>      -0.20512821      -0.43589744       0.00000000 </v>
   <v>       0.43589744       0.35897436       0.00000000 </v>
   <v>      -0.35897436      -0.43589744       0.00000000 </v>
   <v>       0.20512821       0.35897436       0.00000000 </v>
   <v>      -0.43589744      -0.20512821       0.00000000 </v>
   <v>       0.38461538       0.20512821       0.00000000 </v>
   <v>      -0.20512821      -0.41025641       0.00000000 </v>
   <v>       0.41025641       0.38461538       0.00000000 </v>
   <v>      -0.38461538      -0.41025641       0.00000000 </v>
   <v>       0.20512821       0.38461538       0.00000000 </v>
   <v>      -0.41025641      -0.20512821       0.00000000 </v>
   <v>       0.23076923       0.23076923       0.00000000 </v>
   <v>      -0.23076923       0.46153846       0.00000000 </v>
   <v>      -0.46153846       0.23076923       0.00000000 </v>
   <v>       0.25641026       0.23076923       0.00000000 </v>
   <v>      -0.23076923       0.48717949       0.00000000 </v>
   <v>      -0.48717949       0.25641026       0.00000000 </v>
   <v>      -0.25641026       0.48717949       0.00000000 </v>
   <v>       0.23076923       0.25641026       0.00000000 </v>
   <v>       0.48717949      -0.23076923       0.00000000 </v>
   <v>       0.28205128       0.23076923       0.00000000 </v>
   <v>      -0.23076923      -0.48717949       0.00000000 </v>
   <v>       0.48717949       0.28205128       0.00000000 </v>
   <v>      -0.28205128      -0.48717949       0.00000000 </v>
   <v>       0.23076923       0.28205128       0.00000000 </v>
   <v>      -0.48717949      -0.23076923       0.00000000 </v>
   <v>       0.30769231       0.23076923       0.00000000 </v>
   <v>      -0.23076923      -0.46153846       0.00000000 </v>
   <v>       0.46153846       0.30769231       0.00000000 </v>
   <v>      -0.30769231      -0.46153846       0.00000000 </v>
   <v>       0.23076923       0.30769231       0.00000000 </v>
   <v>      -0.46153846      -0.23076923       0.00000000 </v>
   <v>       0.33333333       0.23076923       0.00000000 </v>
   <v>      -0.23076923      -0.43589744       0.00000000 </v>
   <v>       0.43589744       0.33333333       0.00000000 </v>
   <v>      -0.33333333      -0.43589744       0.00000000 </v>
   <v>       0.23076923       0.33333333       0.00000000 </v>
   <v>      -0.43589744      -0.23076923       0.00000000 </v>
   <v>       0.35897436       0.23076923       0.00000000 </v>
   <v>      -0.23076923      -0.41025641       0.00000000 </v>
   <v>       0.41025641       0.35897436       0.00000000 </v>
   <v>      -0.35897436      -0.41025641       0.00000000 </v>
   <v>       0.23076923       0.35897436       0.00000000 </v>
   <v>      -0.41025641      -0.23076923       0.00000000 </v>
   <v>       0.38461538       0.23076923       0.00000000 </v>
   <v>      -0.23076923      -0.38461538       0.00000000 </v>
   <v>       0.38461538       0.38461538       0.00000000 </v>
   <v>       0.25641026       0.25641026       0.00000000 </v>
   <v>      -0.25641026      -0.48717949       0.00000000 </v>
   <v>       0.48717949       0.25641026       0.00000000 </v>
   <v>       0.28205128       0.25641026       0.00000000 </v>
   <v>      -0.25641026      -0.46153846       0.00000000 </v>
   <v>       0.46153846       0.28205128       0.00000000 </v>
   <v>      -0.28205128      -0.46153846       0.00000000 </v>
   <v>       0.25641026       0.28205128       0.00000000 </v>
   <v>      -0.46153846      -0.25641026       0.00000000 </v>
   <v>       0.30769231       0.25641026       0.00000000 </v>
   <v>      -0.25641026      -0.43589744       0.00000000 </v>
   <v>       0.43589744       0.30769231       0.00000000 </v>
   <v>      -0.30769231      -0.43589744       0.00000000 </v>
   <v>       0.25641026       0.30769231       0.00000000 </v>
   <v>      -0.43589744      -0.25641026       0.00000000 </v>
   <v>       0.33333333       0.25641026       0.00000000 </v>
   <v>      -0.25641026      -0.41025641       0.00000000 </v>
   <v>       0.41025641       0.33333333       0.00000000 </v>
   <v>      -0.33333333      -0.41025641       0.00000000 </v>
   <v>       0.25641026       0.33333333       0.00000000 </v>
   <v>      -0.41025641      -0.25641026       0.00000000 </v>
   <v>       0.35897436       0.25641026       0.00000000 </v>
   <v>      -0.25641026      -0.38461538       0.00000000 </v>
   <v>       0.38461538       0.35897436       0.00000000 </v>
   <v>      -0.35897436      -0.38461538       0.00000000 </v>
   <v>       0.25641026       0.35897436       0.00000000 </v>
   <v>      -0.38461538      -0.25641026       0.00000000 </v>
   <v>       0.28205128       0.28205128       0.00000000 </v>
   <v>      -0.28205128      -0.43589744       0.00000000 </v>
   <v>       0.43589744       0.28205128       0.00000000 </v>
   <v>       0.30769231       0.28205128       0.00000000 </v>
   <v>      -0.28205128      -0.41025641       0.00000000 </v>
   <v>       0.41025641       0.30769231       0.00000000 </v>
   <v>      -0.30769231      -0.41025641       0.00000000 </v>
   <v>       0.28205128       0.30769231       0.00000000 </v>
   <v>      -0.41025641      -0.28205128       0.00000000 </v>
   <v>       0.33333333       0.28205128       0.00000000 </v>
   <v>      -0.28205128      -0.38461538       0.00000000 </v>
   <v>       0.38461538       0.33333333       0.00000000 </v>
   <v>      -0.33333333      -0.38461538       0.00000000 </v>
   <v>       0.28205128       0.33333333       0.00000000 </v>
   <v>      -0.38461538      -0.28205128       0.00000000 </v>
   <v>       0.35897436       0.28205128       0.00000000 </v>
   <v>      -0.28205128      -0.35897436       0.00000000 </v>
   <v>       0.35897436       0.35897436       0.00000000 </v>
   <v>       0.30769231       0.30769231       0.00000000 </v>
   <v>      -0.30769231      -0.38461538       0.00000000 </v>
   <v>       0.38461538       0.30769231       0.00000000 </v>
   <v>       0.33333333       0.30769231       0.00000000 </v>
   <v>      -0.30769231      -0.35897436       0.00000000 </v>
   <v>       0.35897436       0.33333333       0.00000000 </v>
   <v>      -0.33333333      -0.35897436       0.00000000 </v>
   <v>       0.30769231       0.33333333       0.00000000 </v>
   <v>      -0.35897436      -0.30769231       0.00000000 </v>
   <v>       0.33333333       0.33333333       0.00000000 </v>
  </varray>
  <varray name="weights" >
   <v>       0.00065746 </v>
   <v>       0.00131492 </v>
   <v>       0.00131492 </v>
   <v>       0.00131492 </v>
   <v>       0.00131492 </v>
   <v>       0.00131492 </v>
   <v>       0.00131492 </v>
   <v>       0.00131492 </v>
   <v>       0.00131492 </v>
   <v>       0.00131492 </v>
   <v>       0.00131492 </v>
   <v>       0.00131492 </v>
   <v>       0.00131492 </v>
   <v>       0.00131492 </v>
   <v>       0.00131492 </v>
   <v>       0.00131492 </v>
   <v>       0.00131492 </v>
   <v>       0.00131492 </v>
   <v>       0.00131492 </v>
   <v>       0.00131492 </v>
   <v>       0.00131492 </v>
   <v>       0.00131492 </v>
   <v>       0.00131492 </v>
   <v>       0.00131492 </v>
   <v>       0.00131492 </v>
   <v>       0.00131492 </v>
   <v>       0.00131492 </v>
   <v>       0.00131492 </v>
   <v>       0.00131492 </v>
   <v>       0.00131492 </v>
   <v>       0.00131492 </v>
   <v>       0.00131492 </v>
   <v>       0.00131492 </v>
   <v>       0.00131492 </v>
   <v>       0.00131492 </v>
   <v>       0.00131492 </v>
   <v>       0.00131492 </v>
   <v>       0.00131492 </v>
   <v>       0.00131492 </v>
   <v>       0.00131492 </v>
   <v>       0.00131492 </v>
   <v>       0.00131492 </v>
   <v>       0.00131492 </v>
   <v>       0.00131492 </v>
   <v>       0.00131492 </v>
   <v>       0.00131492 </v>
   <v>       0.00131492 </v>
   <v>       0.00131492 </v>
   <v>       0.00131492 </v>
   <v>       0.00131492 </v>
   <v>       0.00131492 </v>
   <v>       0.00131492 </v>
   <v>       0.00131492 </v>
   <v>       0.00131492 </v>
   <v>       0.00131492 </v>
   <v>       0.00131492 </v>
   <v>       0.00131492 </v>
   <v>       0.00131492 </v>
   <v>       0.00131492 </v>
   <v>       0.00131492 </v>
   <v>       0.00131492 </v>
   <v>       0.00131492 </v>
   <v>       0.00131492 </v>
   <v>       0.00131492 </v>
   <v>       0.00131492 </v>
   <v>       0.00131492 </v>
   <v>       0.00131492 </v>
   <v>       0.00131492 </v>
   <v>       0.00131492 </v>
   <v>       0.00131492 </v>
   <v>       0.00131492 </v>
   <v>       0.00131492 </v>
   <v>       0.00131492 </v>
   <v>       0.00131492 </v>
   <v>       0.00131492 </v>
   <v>       0.00131492 </v>
   <v>       0.00131492 </v>
   <v>       0.00131492 </v>
   <v>       0.00131492 </v>
   <v>       0.00131492 </v>
   <v>       0.00131492 </v>
   <v>       0.00131492 </v>
   <v>       0.00131492 </v>
   <v>       0.00131492 </v>
   <v>       0.00131492 </v>
   <v>       0.00131492 </v>
   <v>       0.00131492 </v>
   <v>       0.00131492 </v>
   <v>       0.00131492 </v>
   <v>       0.00131492 </v>
   <v>       0.00131492 </v>
   <v>       0.00131492 </v>
   <v>       0.00131492 </v>
   <v>       0.00131492 </v>
   <v>       0.00131492 </v>
   <v>       0.00131492 </v>
   <v>       0.00131492 </v>
   <v>       0.00131492 </v>
   <v>       0.00131492 </v>
   <v>       0.00131492 </v>
   <v>       0.00131492 </v>
   <v>       0.00131492 </v>
   <v>       0.00131492 </v>
   <v>       0.00131492 </v>
   <v>       0.00131492 </v>
   <v>       0.00131492 </v>
   <v>       0.00131492 </v>
   <v>       0.00131492 </v>
   <v>       0.00131492 </v>
   <v>       0.00131492 </v>
   <v>       0.00131492 </v>
   <v>       0.00131492 </v>
   <v>       0.00131492 </v>
   <v>       0.00131492 </v>
   <v>       0.00131492 </v>
   <v>       0.00131492 </v>
   <v>       0.00131492 </v>
   <v>       0.00131492 </v>
   <v>       0.00131492 </v>
   <v>       0.00131492 </v>
   <v>       0.00131492 </v>
   <v>       0.00131492 </v>
   <v>       0.00131492 </v>
   <v>       0.00131492 </v>
   <v>       0.00131492 </v>
   <v>       0.00131492 </v>
   <v>       0.00131492 </v>
   <v>       0.00131492 </v>
   <v>       0.00131492 </v>
   <v>       0.00131492 </v>
   <v>       0.00131492 </v>
   <v>       0.00131492 </v>
   <v>       0.00131492 </v>
   <v>       0.00131492 </v>
   <v>       0.00131492 </v>
   <v>       0.00131492 </v>
   <v>       0.00131492 </v>
   <v>       0.00131492 </v>
   <v>       0.00131492 </v>
   <v>       0.00131492 </v>
   <v>       0.00131492 </v>
   <v>       0.00131492 </v>
   <v>       0.00131492 </v>
   <v>       0.00131492 </v>
   <v>       0.00131492 </v>
   <v>       0.00131492 </v>
   <v>       0.00131492 </v>
   <v>       0.00131492 </v>
   <v>       0.00131492 </v>
   <v>       0.00131492 </v>
   <v>       0.00131492 </v>
   <v>       0.00131492 </v>
   <v>       0.00131492 </v>
   <v>       0.00131492 </v>
   <v>       0.00131492 </v>
   <v>       0.00131492 </v>
   <v>       0.00131492 </v>
   <v>       0.00131492 </v>
   <v>       0.00131492 </v>
   <v>       0.00131492 </v>
   <v>       0.00131492 </v>
   <v>       0.00131492 </v>
   <v>       0.00131492 </v>
   <v>       0.00131492 </v>
   <v>       0.00131492 </v>
   <v>       0.00131492 </v>
   <v>       0.00131492 </v>
   <v>       0.00131492 </v>
   <v>       0.00131492 </v>
   <v>       0.00131492 </v>
   <v>       0.00131492 </v>
   <v>       0.00131492 </v>
   <v>       0.00131492 </v>
   <v>       0.00131492 </v>
   <v>       0.00131492 </v>
   <v>       0.00131492 </v>
   <v>       0.00131492 </v>
   <v>       0.00131492 </v>
   <v>       0.00131492 </v>
   <v>       0.00131492 </v>
   <v>       0.00131492 </v>
   <v>       0.00131492 </v>
   <v>       0.00131492 </v>
   <v>       0.00131492 </v>
   <v>       0.00131492 </v>
   <v>       0.00131492 </v>
   <v>       0.00131492 </v>
   <v>       0.00131492 </v>
   <v>       0.00131492 </v>
   <v>       0.00131492 </v>
   <v>       0.00131492 </v>
   <v>       0.00131492 </v>
   <v>       0.00131492 </v>
   <v>       0.00131492 </v>
   <v>       0.00131492 </v>
   <v>       0.00131492 </v>
   <v>       0.00131492 </v>
   <v>       0.00131492 </v>
   <v>       0.00131492 </v>
   <v>       0.00131492 </v>
   <v>       0.00131492 </v>
   <v>       0.00131492 </v>
   <v>       0.00131492 </v>
   <v>       0.00131492 </v>
   <v>       0.00131492 </v>
   <v>       0.00131492 </v>
   <v>       0.00131492 </v>
   <v>       0.00131492 </v>
   <v>       0.00131492 </v>
   <v>       0.00131492 </v>
   <v>       0.00131492 </v>
   <v>       0.00131492 </v>
   <v>       0.00131492 </v>
   <v>       0.00131492 </v>
   <v>       0.00131492 </v>
   <v>       0.00131492 </v>
   <v>       0.00131492 </v>
   <v>       0.00131492 </v>
   <v>       0.00131492 </v>
   <v>       0.00131492 </v>
   <v>       0.00131492 </v>
   <v>       0.00131492 </v>
   <v>       0.00131492 </v>
   <v>       0.00131492 </v>
   <v>       0.00131492 </v>
   <v>       0.00131492 </v>
   <v>       0.00131492 </v>
   <v>       0.00131492 </v>
   <v>       0.00131492 </v>
   <v>       0.00131492 </v>
   <v>       0.00131492 </v>
   <v>       0.00131492 </v>
   <v>       0.00131492 </v>
   <v>       0.00131492 </v>
   <v>       0.00131492 </v>
   <v>       0.00131492 </v>
   <v>       0.00131492 </v>
   <v>       0.00131492 </v>
   <v>       0.00131492 </v>
   <v>       0.00131492 </v>
   <v>       0.00131492 </v>
   <v>       0.00131492 </v>
   <v>       0.00131492 </v>
   <v>       0.00131492 </v>
   <v>       0.00131492 </v>
   <v>       0.00131492 </v>
   <v>       0.00131492 </v>
   <v>       0.00131492 </v>
   <v>       0.00131492 </v>
   <v>       0.00131492 </v>
   <v>       0.00131492 </v>
   <v>       0.00131492 </v>
   <v>       0.00131492 </v>
   <v>       0.00131492 </v>
   <v>       0.00131492 </v>
   <v>       0.00131492 </v>
   <v>       0.00131492 </v>
   <v>       0.00131492 </v>
   <v>       0.00131492 </v>
   <v>       0.00131492 </v>
   <v>       0.00131492 </v>
   <v>       0.00131492 </v>
   <v>       0.00131492 </v>
   <v>       0.00131492 </v>
   <v>       0.00131492 </v>
   <v>       0.00131492 </v>
   <v>       0.00131492 </v>
   <v>       0.00131492 </v>
   <v>       0.00131492 </v>
   <v>       0.00131492 </v>
   <v>       0.00131492 </v>
   <v>       0.00131492 </v>
   <v>       0.00131492 </v>
   <v>       0.00131492 </v>
   <v>       0.00131492 </v>
   <v>       0.00131492 </v>
   <v>       0.00131492 </v>
   <v>       0.00131492 </v>
   <v>       0.00131492 </v>
   <v>       0.00131492 </v>
   <v>       0.00131492 </v>
   <v>       0.00131492 </v>
   <v>       0.00131492 </v>
   <v>       0.00131492 </v>
   <v>       0.00131492 </v>
   <v>       0.00131492 </v>
   <v>       0.00131492 </v>
   <v>       0.00131492 </v>
   <v>       0.00131492 </v>
   <v>       0.00131492 </v>
   <v>       0.00131492 </v>
   <v>       0.00131492 </v>
   <v>       0.00131492 </v>
   <v>       0.00131492 </v>
   <v>       0.00131492 </v>
   <v>       0.00131492 </v>
   <v>       0.00131492 </v>
   <v>       0.00131492 </v>
   <v>       0.00131492 </v>
   <v>       0.00131492 </v>
   <v>       0.00131492 </v>
   <v>       0.00131492 </v>
   <v>       0.00131492 </v>
   <v>       0.00131492 </v>
   <v>       0.00131492 </v>
   <v>       0.00131492 </v>
   <v>       0.00131492 </v>
   <v>       0.00131492 </v>
   <v>       0.00131492 </v>
   <v>       0.00131492 </v>
   <v>       0.00131492 </v>
   <v>       0.00131492 </v>
   <v>       0.00131492 </v>
   <v>       0.00131492 </v>
   <v>       0.00131492 </v>
   <v>       0.00131492 </v>
   <v>       0.00131492 </v>
   <v>       0.00131492 </v>
   <v>       0.00131492 </v>
   <v>       0.00131492 </v>
   <v>       0.00131492 </v>
   <v>       0.00131492 </v>
   <v>       0.00131492 </v>
   <v>       0.00131492 </v>
   <v>       0.00131492 </v>
   <v>       0.00131492 </v>
   <v>       0.00131492 </v>
   <v>       0.00131492 </v>
   <v>       0.00131492 </v>
   <v>       0.00131492 </v>
   <v>       0.00131492 </v>
   <v>       0.00131492 </v>
   <v>       0.00131492 </v>
   <v>       0.00131492 </v>
   <v>       0.00131492 </v>
   <v>       0.00131492 </v>
   <v>       0.00131492 </v>
   <v>       0.00131492 </v>
   <v>       0.00131492 </v>
   <v>       0.00131492 </v>
   <v>       0.00131492 </v>
   <v>       0.00131492 </v>
   <v>       0.00131492 </v>
   <v>       0.00131492 </v>
   <v>       0.00131492 </v>
   <v>       0.00131492 </v>
   <v>       0.00131492 </v>
   <v>       0.00131492 </v>
   <v>       0.00131492 </v>
   <v>       0.00131492 </v>
   <v>       0.00131492 </v>
   <v>       0.00131492 </v>
   <v>       0.00131492 </v>
   <v>       0.00131492 </v>
   <v>       0.00131492 </v>
   <v>       0.00131492 </v>
   <v>       0.00131492 </v>
   <v>       0.00131492 </v>
   <v>       0.00131492 </v>
   <v>       0.00131492 </v>
   <v>       0.00131492 </v>
   <v>       0.00131492 </v>
   <v>       0.00131492 </v>
   <v>       0.00131492 </v>
   <v>       0.00131492 </v>
   <v>       0.00131492 </v>
   <v>       0.00131492 </v>
   <v>       0.00131492 </v>
   <v>       0.00131492 </v>
   <v>       0.00131492 </v>
   <v>       0.00131492 </v>
   <v>       0.00131492 </v>
   <v>       0.00131492 </v>
   <v>       0.00131492 </v>
   <v>       0.00131492 </v>
   <v>       0.00131492 </v>
   <v>       0.00131492 </v>
   <v>       0.00131492 </v>
   <v>       0.00131492 </v>
   <v>       0.00131492 </v>
   <v>       0.00131492 </v>
   <v>       0.00131492 </v>
   <v>       0.00131492 </v>
   <v>       0.00131492 </v>
   <v>       0.00131492 </v>
   <v>       0.00131492 </v>
   <v>       0.00131492 </v>
   <v>       0.00131492 </v>
   <v>       0.00131492 </v>
   <v>       0.00131492 </v>
   <v>       0.00131492 </v>
   <v>       0.00131492 </v>
   <v>       0.00131492 </v>
   <v>       0.00131492 </v>
   <v>       0.00131492 </v>
   <v>       0.00131492 </v>
   <v>       0.00131492 </v>
   <v>       0.00131492 </v>
   <v>       0.00131492 </v>
   <v>       0.00131492 </v>
   <v>       0.00131492 </v>
   <v>       0.00131492 </v>
   <v>       0.00131492 </v>
   <v>       0.00131492 </v>
   <v>       0.00131492 </v>
   <v>       0.00131492 </v>
   <v>       0.00131492 </v>
   <v>       0.00131492 </v>
   <v>       0.00131492 </v>
   <v>       0.00131492 </v>
   <v>       0.00131492 </v>
   <v>       0.00131492 </v>
   <v>       0.00131492 </v>
   <v>       0.00131492 </v>
   <v>       0.00131492 </v>
   <v>       0.00131492 </v>
   <v>       0.00131492 </v>
   <v>       0.00131492 </v>
   <v>       0.00131492 </v>
   <v>       0.00131492 </v>
   <v>       0.00131492 </v>
   <v>       0.00131492 </v>
   <v>       0.00131492 </v>
   <v>       0.00131492 </v>
   <v>       0.00131492 </v>
   <v>       0.00131492 </v>
   <v>       0.00131492 </v>
   <v>       0.00131492 </v>
   <v>       0.00131492 </v>
   <v>       0.00131492 </v>
   <v>       0.00131492 </v>
   <v>       0.00131492 </v>
   <v>       0.00131492 </v>
   <v>       0.00131492 </v>
   <v>       0.00131492 </v>
   <v>       0.00131492 </v>
   <v>       0.00131492 </v>
   <v>       0.00131492 </v>
   <v>       0.00131492 </v>
   <v>       0.00131492 </v>
   <v>       0.00131492 </v>
   <v>       0.00131492 </v>
   <v>       0.00131492 </v>
   <v>       0.00131492 </v>
   <v>       0.00131492 </v>
   <v>       0.00131492 </v>
   <v>       0.00131492 </v>
   <v>       0.00131492 </v>
   <v>       0.00131492 </v>
   <v>       0.00131492 </v>
   <v>       0.00131492 </v>
   <v>       0.00131492 </v>
   <v>       0.00131492 </v>
   <v>       0.00131492 </v>
   <v>       0.00131492 </v>
   <v>       0.00131492 </v>
   <v>       0.00131492 </v>
   <v>       0.00131492 </v>
   <v>       0.00131492 </v>
   <v>       0.00131492 </v>
   <v>       0.00131492 </v>
   <v>       0.00131492 </v>
   <v>       0.00131492 </v>
   <v>       0.00131492 </v>
   <v>       0.00131492 </v>
   <v>       0.00131492 </v>
   <v>       0.00131492 </v>
   <v>       0.00131492 </v>
   <v>       0.00131492 </v>
   <v>       0.00131492 </v>
   <v>       0.00131492 </v>
   <v>       0.00131492 </v>
   <v>       0.00131492 </v>
   <v>       0.00131492 </v>
   <v>       0.00131492 </v>
   <v>       0.00131492 </v>
   <v>       0.00131492 </v>
   <v>       0.00131492 </v>
   <v>       0.00131492 </v>
   <v>       0.00131492 </v>
   <v>       0.00131492 </v>
   <v>       0.00131492 </v>
   <v>       0.00131492 </v>
   <v>       0.00131492 </v>
   <v>       0.00131492 </v>
   <v>       0.00131492 </v>
   <v>       0.00131492 </v>
   <v>       0.00131492 </v>
   <v>       0.00131492 </v>
   <v>       0.00131492 </v>
   <v>       0.00131492 </v>
   <v>       0.00131492 </v>
   <v>       0.00131492 </v>
   <v>       0.00131492 </v>
   <v>       0.00131492 </v>
   <v>       0.00131492 </v>
   <v>       0.00131492 </v>
   <v>       0.00131492 </v>
   <v>       0.00131492 </v>
   <v>       0.00131492 </v>
   <v>       0.00131492 </v>
   <v>       0.00131492 </v>
   <v>       0.00131492 </v>
   <v>       0.00131492 </v>
   <v>       0.00131492 </v>
   <v>       0.00131492 </v>
   <v>       0.00131492 </v>
   <v>       0.00131492 </v>
   <v>       0.00131492 </v>
   <v>       0.00131492 </v>
   <v>       0.00131492 </v>
   <v>       0.00131492 </v>
   <v>       0.00131492 </v>
   <v>       0.00131492 </v>
   <v>       0.00131492 </v>
   <v>       0.00131492 </v>
   <v>       0.00131492 </v>
   <v>       0.00131492 </v>
   <v>       0.00131492 </v>
   <v>       0.00131492 </v>
   <v>       0.00131492 </v>
   <v>       0.00131492 </v>
   <v>       0.00131492 </v>
   <v>       0.00131492 </v>
   <v>       0.00131492 </v>
   <v>       0.00131492 </v>
   <v>       0.00131492 </v>
   <v>       0.00131492 </v>
   <v>       0.00131492 </v>
   <v>       0.00131492 </v>
   <v>       0.00131492 </v>
   <v>       0.00131492 </v>
   <v>       0.00131492 </v>
   <v>       0.00131492 </v>
   <v>       0.00131492 </v>
   <v>       0.00131492 </v>
   <v>       0.00131492 </v>
   <v>       0.00131492 </v>
   <v>       0.00131492 </v>
   <v>       0.00131492 </v>
   <v>       0.00131492 </v>
   <v>       0.00131492 </v>
   <v>       0.00131492 </v>
   <v>       0.00131492 </v>
   <v>       0.00131492 </v>
   <v>       0.00131492 </v>
   <v>       0.00131492 </v>
   <v>       0.00131492 </v>
   <v>       0.00131492 </v>
   <v>       0.00131492 </v>
   <v>       0.00131492 </v>
   <v>       0.00131492 </v>
   <v>       0.00131492 </v>
   <v>       0.00131492 </v>
   <v>       0.00131492 </v>
   <v>       0.00131492 </v>
   <v>       0.00131492 </v>
   <v>       0.00131492 </v>
   <v>       0.00131492 </v>
   <v>       0.00131492 </v>
   <v>       0.00131492 </v>
   <v>       0.00131492 </v>
   <v>       0.00131492 </v>
   <v>       0.00131492 </v>
   <v>       0.00131492 </v>
   <v>       0.00131492 </v>
   <v>       0.00131492 </v>
   <v>       0.00131492 </v>
   <v>       0.00131492 </v>
   <v>       0.00131492 </v>
   <v>       0.00131492 </v>
   <v>       0.00131492 </v>
   <v>       0.00131492 </v>
   <v>       0.00131492 </v>
   <v>       0.00131492 </v>
   <v>       0.00131492 </v>
   <v>       0.00131492 </v>
   <v>       0.00131492 </v>
   <v>       0.00131492 </v>
   <v>       0.00131492 </v>
   <v>       0.00131492 </v>
   <v>       0.00131492 </v>
   <v>       0.00131492 </v>
   <v>       0.00131492 </v>
   <v>       0.00131492 </v>
   <v>       0.00131492 </v>
   <v>       0.00131492 </v>
   <v>       0.00131492 </v>
   <v>       0.00131492 </v>
   <v>       0.00131492 </v>
   <v>       0.00131492 </v>
   <v>       0.00131492 </v>
   <v>       0.00131492 </v>
   <v>       0.00131492 </v>
   <v>       0.00131492 </v>
   <v>       0.00131492 </v>
   <v>       0.00131492 </v>
   <v>       0.00131492 </v>
   <v>       0.00131492 </v>
   <v>       0.00131492 </v>
   <v>       0.00131492 </v>
   <v>       0.00131492 </v>
   <v>       0.00131492 </v>
   <v>       0.00131492 </v>
   <v>       0.00131492 </v>
   <v>       0.00131492 </v>
   <v>       0.00131492 </v>
   <v>       0.00131492 </v>
   <v>       0.00131492 </v>
   <v>       0.00131492 </v>
   <v>       0.00131492 </v>
   <v>       0.00131492 </v>
   <v>       0.00131492 </v>
   <v>       0.00131492 </v>
   <v>       0.00131492 </v>
   <v>       0.00131492 </v>
   <v>       0.00131492 </v>
   <v>       0.00131492 </v>
   <v>       0.00131492 </v>
   <v>       0.00131492 </v>
   <v>       0.00131492 </v>
   <v>       0.00131492 </v>
   <v>       0.00131492 </v>
   <v>       0.00131492 </v>
   <v>       0.00131492 </v>
   <v>       0.00131492 </v>
   <v>       0.00131492 </v>
   <v>       0.00131492 </v>
   <v>       0.00131492 </v>
   <v>       0.00131492 </v>
   <v>       0.00131492 </v>
   <v>       0.00131492 </v>
   <v>       0.00131492 </v>
   <v>       0.00131492 </v>
   <v>       0.00131492 </v>
   <v>       0.00131492 </v>
   <v>       0.00131492 </v>
   <v>       0.00131492 </v>
   <v>       0.00131492 </v>
   <v>       0.00131492 </v>
   <v>       0.00131492 </v>
   <v>       0.00131492 </v>
   <v>       0.00131492 </v>
   <v>       0.00131492 </v>
   <v>       0.00131492 </v>
   <v>       0.00131492 </v>
   <v>       0.00131492 </v>
   <v>       0.00131492 </v>
   <v>       0.00131492 </v>
   <v>       0.00131492 </v>
   <v>       0.00131492 </v>
   <v>       0.00131492 </v>
   <v>       0.00131492 </v>
   <v>       0.00131492 </v>
   <v>       0.00131492 </v>
   <v>       0.00131492 </v>
   <v>       0.00131492 </v>
   <v>       0.00131492 </v>
   <v>       0.00131492 </v>
   <v>       0.00131492 </v>
   <v>       0.00131492 </v>
   <v>       0.00131492 </v>
   <v>       0.00131492 </v>
   <v>       0.00131492 </v>
   <v>       0.00131492 </v>
   <v>       0.00131492 </v>
   <v>       0.00131492 </v>
   <v>       0.00131492 </v>
   <v>       0.00131492 </v>
   <v>       0.00131492 </v>
   <v>       0.00131492 </v>
   <v>       0.00131492 </v>
   <v>       0.00131492 </v>
   <v>       0.00131492 </v>
   <v>       0.00131492 </v>
   <v>       0.00131492 </v>
   <v>       0.00131492 </v>
   <v>       0.00131492 </v>
   <v>       0.00131492 </v>
   <v>       0.00131492 </v>
   <v>       0.00131492 </v>
   <v>       0.00131492 </v>
   <v>       0.00131492 </v>
   <v>       0.00131492 </v>
   <v>       0.00131492 </v>
   <v>       0.00131492 </v>
   <v>       0.00131492 </v>
   <v>       0.00131492 </v>
   <v>       0.00131492 </v>
   <v>       0.00131492 </v>
   <v>       0.00131492 </v>
   <v>       0.00131492 </v>
   <v>       0.00131492 </v>
   <v>       0.00131492 </v>
   <v>       0.00131492 </v>
   <v>       0.00131492 </v>
   <v>       0.00131492 </v>
   <v>       0.00131492 </v>
   <v>       0.00131492 </v>
   <v>       0.00131492 </v>
   <v>       0.00131492 </v>
   <v>       0.00131492 </v>
   <v>       0.00131492 </v>
   <v>       0.00131492 </v>
   <v>       0.00131492 </v>
   <v>       0.00131492 </v>
   <v>       0.00131492 </v>
   <v>       0.00131492 </v>
   <v>       0.00131492 </v>
   <v>       0.00131492 </v>
   <v>       0.00131492 </v>
   <v>       0.00131492 </v>
   <v>       0.00131492 </v>
   <v>       0.00131492 </v>
   <v>       0.00131492 </v>
   <v>       0.00131492 </v>
   <v>       0.00131492 </v>
   <v>       0.00131492 </v>
   <v>       0.00131492 </v>
   <v>       0.00131492 </v>
   <v>       0.00131492 </v>
   <v>       0.00131492 </v>
   <v>       0.00131492 </v>
   <v>       0.00131492 </v>
   <v>       0.00131492 </v>
   <v>       0.00131492 </v>
   <v>       0.00131492 </v>
   <v>       0.00131492 </v>
   <v>       0.00131492 </v>
   <v>       0.00131492 </v>
   <v>       0.00131492 </v>
   <v>       0.00131492 </v>
   <v>       0.00131492 </v>
   <v>       0.00131492 </v>
   <v>       0.00131492 </v>
   <v>       0.00131492 </v>
   <v>       0.00131492 </v>
   <v>       0.00131492 </v>
   <v>       0.00131492 </v>
   <v>       0.00131492 </v>
   <v>       0.00131492 </v>
   <v>       0.00131492 </v>
   <v>       0.00131492 </v>
   <v>       0.00131492 </v>
   <v>       0.00131492 </v>
   <v>       0.00131492 </v>
   <v>       0.00131492 </v>
   <v>       0.00131492 </v>
   <v>       0.00131492 </v>
   <v>       0.00131492 </v>
   <v>       0.00131492 </v>
   <v>       0.00131492 </v>
   <v>       0.00131492 </v>
   <v>       0.00131492 </v>
   <v>       0.00131492 </v>
   <v>       0.00131492 </v>
   <v>       0.00131492 </v>
   <v>       0.00131492 </v>
   <v>       0.00131492 </v>
   <v>       0.00131492 </v>
   <v>       0.00131492 </v>
  </varray>
 </kpoints>
 <parameters>
  <separator name="general" >
   <i type="string" name="SYSTEM">Lattice</i>
   <i type="logical" name="LCOMPAT"> F  </i>
  </separator>
  <separator name="electronic" >
   <i type="string" name="PREC">accura</i>
   <i name="ENMAX">    450.00000000</i>
   <i name="ENAUG">    644.87300000</i>
   <i name="EDIFF">      0.00000100</i>
   <i type="int" name="IALGO">    38</i>
   <i type="int" name="IWAVPR">    11</i>
   <i type="int" name="NBANDS">    48</i>
   <i type="int" name="NBANDSLOW">    -1</i>
   <i type="int" name="NBANDSHIGH">    -1</i>
   <i name="NELECT">     62.00000000</i>
   <i type="int" name="TURBO">     0</i>
   <i type="int" name="IRESTART">     0</i>
   <i type="int" name="NREBOOT">     0</i>
   <i type="int" name="NMIN">     0</i>
   <i name="EREF">      0.00000000</i>
   <separator name="electronic smearing" >
    <i type="int" name="ISMEAR">     0</i>
    <i name="SIGMA">      0.10000000</i>
    <i name="KSPACING">      0.50000000</i>
    <i type="logical" name="KGAMMA"> T  </i>
    <i type="logical" name="KBLOWUP"> T  </i>
   </separator>
   <separator name="electronic projectors" >
    <i type="logical" name="LREAL"> F  </i>
    <v name="ROPT">      0.00000000      0.00000000</v>
    <i type="int" name="LMAXPAW">  -100</i>
    <i type="int" name="LMAXMIX">     2</i>
    <i type="logical" name="NLSPLINE"> F  </i>
   </separator>
   <separator name="electronic startup" >
    <i type="int" name="ISTART">     0</i>
    <i type="int" name="ICHARG">     2</i>
    <i type="int" name="INIWAV">     1</i>
   </separator>
   <separator name="electronic spin" >
    <i type="int" name="ISPIN">     1</i>
    <i type="logical" name="LNONCOLLINEAR"> F  </i>
    <v name="MAGMOM">      1.00000000      1.00000000      1.00000000      1.00000000      1.00000000      1.00000000      1.00000000      1.00000000      1.00000000      1.00000000      1.00000000      1.00000000      1.00000000      1.00000000      1.00000000      1.00000000</v>
    <i name="NUPDOWN">     -1.00000000</i>
    <i type="logical" name="LSORBIT"> F  </i>
    <v name="SAXIS">      0.00000000      0.00000000      1.00000000</v>
    <i type="logical" name="LSPIRAL"> F  </i>
    <v name="QSPIRAL">      0.00000000      0.00000000      0.00000000</v>
    <i type="logical" name="LZEROZ"> F  </i>
   </separator>
   <separator name="electronic exchange-correlation" >
    <i type="logical" name="LASPH"> F  </i>
    <i type="logical" name="LMETAGGA"> F  </i>
   </separator>
   <separator name="electronic convergence" >
    <i type="int" name="NELM">    64</i>
    <i type="int" name="NELMDL">    -5</i>
    <i type="int" name="NELMIN">     2</i>
    <i name="ENINI">    450.00000000</i>
    <separator name="electronic convergence detail" >
     <i type="logical" name="LDIAG"> T  </i>
     <i type="logical" name="LSUBROT"> F  </i>
     <i name="WEIMIN">      0.00100000</i>
     <i name="EBREAK">      0.00000001</i>
     <i name="DEPER">      0.30000000</i>
     <i type="int" name="NRMM">     4</i>
     <i name="TIME">      0.40000000</i>
    </separator>
   </separator>
   <separator name="electronic mixer" >
    <i name="AMIX">      0.40000000</i>
    <i name="BMIX">      1.00000000</i>
    <i name="AMIN">      0.10000000</i>
    <i name="AMIX_MAG">      1.60000000</i>
    <i name="BMIX_MAG">      1.00000000</i>
    <separator name="electronic mixer details" >
     <i type="int" name="IMIX">     4</i>
     <i type="logical" name="MIXFIRST"> F  </i>
     <i type="int" name="MAXMIX">   -45</i>
     <i name="WC">    100.00000000</i>
     <i type="int" name="INIMIX">     1</i>
     <i type="int" name="MIXPRE">     1</i>
     <i type="int" name="MREMOVE">     5</i>
    </separator>
   </separator>
   <separator name="electronic dipolcorrection" >
    <i type="logical" name="LDIPOL"> F  </i>
    <i type="logical" name="LMONO"> F  </i>
    <i type="int" name="IDIPOL">     0</i>
    <i name="EPSILON">      1.00000000</i>
    <v name="DIPOL">   -100.00000000   -100.00000000   -100.00000000</v>
    <i name="EFIELD">      0.00000000</i>
   </separator>
  </separator>
  <separator name="grids" >
   <i type="int" name="NGX">    36</i>
   <i type="int" name="NGY">    36</i>
   <i type="int" name="NGZ">   108</i>
   <i type="int" name="NGXF">    72</i>
   <i type="int" name="NGYF">    72</i>
   <i type="int" name="NGZF">   216</i>
   <i type="logical" name="ADDGRID"> F  </i>
  </separator>
  <separator name="ionic" >
   <i type="int" name="NSW">   128</i>
   <i type="int" name="IBRION">     2</i>
   <i type="int" name="MDALGO">     0</i>
   <i type="int" name="ISIF">     2</i>
   <i name="PSTRESS">      0.00000000</i>
   <i name="EDIFFG">     -0.00100000</i>
   <i type="int" name="NFREE">     1</i>
   <i name="POTIM">      0.50000000</i>
   <i name="SMASS">     -3.00000000</i>
   <i name="SCALEE">      1.00000000</i>
  </separator>
  <separator name="ionic md" >
   <i name="TEBEG">      0.00010000</i>
   <i name="TEEND">      0.00010000</i>
   <i type="int" name="NBLOCK">     1</i>
   <i type="int" name="KBLOCK">   128</i>
   <i type="int" name="NPACO">   256</i>
   <i name="APACO">     10.00000000</i>
  </separator>
  <separator name="symmetry" >
   <i type="int" name="ISYM">     2</i>
   <i name="SYMPREC">      0.00001000</i>
  </separator>
  <separator name="dos" >
   <i type="int" name="LORBIT">     0</i>
   <v name="RWIGS">     -1.00000000     -1.00000000</v>
   <i type="int" name="NEDOS">   301</i>
   <i name="EMIN">     10.00000000</i>
   <i name="EMAX">    -10.00000000</i>
   <i name="EFERMI">      0.00000000</i>
  </separator>
  <separator name="writing" >
   <i type="int" name="NWRITE">     2</i>
   <i type="logical" name="LWAVE"> F  </i>
   <i type="logical" name="LDOWNSAMPLE"> F  </i>
   <i type="logical" name="LCHARG"> F  </i>
   <i type="logical" name="LPARD"> F  </i>
[...]
       <r>   -8.5720    1.0000 </r>
       <r>   -8.3263    1.0000 </r>
       <r>   -7.2790    1.0000 </r>
       <r>   -7.0759    1.0000 </r>
       <r>   -6.9001    1.0000 </r>
       <r>   -6.3161    1.0000 </r>
       <r>   -6.1817    1.0000 </r>
       <r>   -6.0650    1.0000 </r>
       <r>   -5.9828    1.0000 </r>
       <r>   -5.8446    1.0000 </r>
       <r>   -5.7403    1.0000 </r>
       <r>   -5.0959    1.0000 </r>
       <r>   -4.9086    1.0000 </r>
       <r>   -4.1061    1.0000 </r>
       <r>   -4.0815    1.0000 </r>
       <r>   -3.9070    1.0000 </r>
       <r>   -3.8750    1.0000 </r>
       <r>   -1.1055    0.9001 </r>
       <r>   -0.7188    0.0000 </r>
       <r>    0.8041    0.0000 </r>
       <r>    1.1764    0.0000 </r>
       <r>    4.8194    0.0000 </r>
       <r>    5.0793    0.0000 </r>
       <r>    5.2254    0.0000 </r>
       <r>    5.3548    0.0000 </r>
       <r>    5.4215    0.0000 </r>
       <r>    5.6150    0.0000 </r>
       <r>    5.8593    0.0000 </r>
       <r>    6.0494    0.0000 </r>
       <r>    6.2410    0.0000 </r>
       <r>    6.8748    0.0000 </r>
       <r>    7.0062    0.0000 </r>
       <r>    7.1640    0.0000 </r>
       <r>    7.2394    0.0000 </r>
       <r>    7.3744    0.0000 </r>
      </set>
      <set comment="kpoint 761">
       <r>  -17.9939    1.0000 </r>
       <r>  -17.9927    1.0000 </r>
       <r>  -17.9921    1.0000 </r>
       <r>  -17.2718    1.0000 </r>
       <r>  -15.3252    1.0000 </r>
       <r>  -15.3233    1.0000 </r>
       <r>  -13.2701    1.0000 </r>
       <r>  -13.2696    1.0000 </r>
       <r>  -10.9472    1.0000 </r>
       <r>  -10.6769    1.0000 </r>
       <r>  -10.6732    1.0000 </r>
       <r>   -8.9889    1.0000 </r>
       <r>   -8.5504    1.0000 </r>
       <r>   -8.5488    1.0000 </r>
       <r>   -8.5469    1.0000 </r>
       <r>   -7.0944    1.0000 </r>
       <r>   -7.0932    1.0000 </r>
       <r>   -7.0931    1.0000 </r>
       <r>   -6.1635    1.0000 </r>
       <r>   -6.1412    1.0000 </r>
       <r>   -6.1165    1.0000 </r>
       <r>   -5.9464    1.0000 </r>
       <r>   -5.9277    1.0000 </r>
       <r>   -5.8129    1.0000 </r>
       <r>   -5.0868    1.0000 </r>
       <r>   -4.9073    1.0000 </r>
       <r>   -4.0124    1.0000 </r>
       <r>   -4.0074    1.0000 </r>
       <r>   -4.0034    1.0000 </r>
       <r>   -3.9971    1.0000 </r>
       <r>   -0.9356    0.1313 </r>
       <r>   -0.8858    0.0340 </r>
       <r>    0.9428    0.0000 </r>
       <r>    1.0365    0.0000 </r>
       <r>    5.0801    0.0000 </r>
       <r>    5.0940    0.0000 </r>
       <r>    5.0952    0.0000 </r>
       <r>    5.4073    0.0000 </r>
       <r>    5.4201    0.0000 </r>
       <r>    5.4205    0.0000 </r>
       <r>    6.0371    0.0000 </r>
       <r>    6.0504    0.0000 </r>
       <r>    6.0520    0.0000 </r>
       <r>    7.0468    0.0000 </r>
       <r>    7.1190    0.0000 </r>
       <r>    7.1243    0.0000 </r>
       <r>    7.1971    0.0000 </r>
       <r>    7.3348    0.0000 </r>
      </set>
     </set>
    </set>
   </array>
  </eigenvalues>
  <separator name="orbital magnetization" >
   <v name="MAGDIPOLOUT">      0.00000000      0.00000000      0.00000000</v>
  </separator>
  <dos>
   <i name="efermi">     -1.01485851 </i>
   <total>
    <array>
     <dimension dim="1">gridpoints</dimension>
     <dimension dim="2">spin</dimension>
     <field>energy</field>
     <field>total</field>
     <field>integrated</field>
     <set>
      <set comment="spin 1">
       <r>   -21.2739     0.0000     0.0000 </r>
       <r>   -21.1704     0.0000     0.0000 </r>
       <r>   -21.0668     0.0000     0.0000 </r>
       <r>   -20.9633     0.0000     0.0000 </r>
       <r>   -20.8597     0.0000     0.0000 </r>
       <r>   -20.7561     0.0000     0.0000 </r>
       <r>   -20.6526     0.0000     0.0000 </r>
       <r>   -20.5490     0.0000     0.0000 </r>
       <r>   -20.4455     0.0000     0.0000 </r>
       <r>   -20.3419     0.0000     0.0000 </r>
       <r>   -20.2384     0.0000     0.0000 </r>
       <r>   -20.1348     0.0000     0.0000 </r>
       <r>   -20.0312     0.0024     0.0002 </r>
       <r>   -19.9277     0.0802     0.0086 </r>
       <r>   -19.8241     0.5460     0.0651 </r>
       <r>   -19.7206     1.1220     0.1813 </r>
       <r>   -19.6170     1.2726     0.3131 </r>
       <r>   -19.5135     1.2817     0.4458 </r>
       <r>   -19.4099     1.2834     0.5787 </r>
       <r>   -19.3063     1.2852     0.7118 </r>
       <r>   -19.2028     1.2870     0.8451 </r>
       <r>   -19.0992     1.2888     0.9785 </r>
       <r>   -18.9957     1.2907     1.1122 </r>
       <r>   -18.8921     1.2927     1.2461 </r>
       <r>   -18.7886     1.2947     1.3801 </r>
       <r>   -18.6850     1.2968     1.5144 </r>
       <r>   -18.5814     1.2991     1.6490 </r>
       <r>   -18.4779     1.3014     1.7837 </r>
       <r>   -18.3743     1.3036     1.9187 </r>
       <r>   -18.2708     1.3058     2.0540 </r>
       <r>   -18.1672     1.3147     2.1901 </r>
       <r>   -18.0637     1.4725     2.3426 </r>
       <r>   -17.9601     2.2080     2.5713 </r>
       <r>   -17.8565     2.9743     2.8793 </r>
       <r>   -17.7530     3.2470     3.2155 </r>
       <r>   -17.6494     3.4654     3.5744 </r>
       <r>   -17.5459     3.7756     3.9654 </r>
       <r>   -17.4423     4.5533     4.4369 </r>
       <r>   -17.3388     5.3033     4.9861 </r>
       <r>   -17.2352     3.6777     5.3669 </r>
       <r>   -17.1316     1.8070     5.5541 </r>
       <r>   -17.0281     1.3705     5.6960 </r>
       <r>   -16.9245     1.3465     5.8354 </r>
       <r>   -16.8210     1.3616     5.9764 </r>
       <r>   -16.7174     1.3471     6.1159 </r>
       <r>   -16.6139     1.3716     6.2580 </r>
       <r>   -16.5103     1.3611     6.3989 </r>
       <r>   -16.4067     1.3754     6.5413 </r>
       <r>   -16.3032     1.3832     6.6846 </r>
       <r>   -16.1996     1.3795     6.8274 </r>
       <r>   -16.0961     1.4082     6.9733 </r>
       <r>   -15.9925     1.3896     7.1172 </r>
       <r>   -15.8890     1.4354     7.2658 </r>
       <r>   -15.7854     1.4591     7.4169 </r>
       <r>   -15.6818     2.0795     7.6323 </r>
       <r>   -15.5783     3.3830     7.9826 </r>
       <r>   -15.4747     4.3411     8.4321 </r>
       <r>   -15.3712     4.3523     8.8829 </r>
       <r>   -15.2676     3.6507     9.2609 </r>
       <r>   -15.1641     3.2942     9.6021 </r>
       <r>   -15.0605     3.4615     9.9605 </r>
       <r>   -14.9569     3.6971    10.3434 </r>
       <r>   -14.8534     3.9240    10.7497 </r>
       <r>   -14.7498     3.6292    11.1256 </r>
       <r>   -14.6463     3.4629    11.4842 </r>
       <r>   -14.5427     3.4565    11.8421 </r>
       <r>   -14.4392     3.9121    12.2472 </r>
       <r>   -14.3356     4.0712    12.6688 </r>
       <r>   -14.2320     3.4039    13.0213 </r>
       <r>   -14.1285     2.6830    13.2992 </r>
       <r>   -14.0249     2.2591    13.5331 </r>
       <r>   -13.9214     1.9122    13.7311 </r>
       <r>   -13.8178     1.2834    13.8641 </r>
       <r>   -13.7143     0.7129    13.9379 </r>
       <r>   -13.6107     0.9619    14.0375 </r>
       <r>   -13.5072     1.3186    14.1740 </r>
       <r>   -13.4036     1.3635    14.3152 </r>
       <r>   -13.3000     1.3755    14.4577 </r>
       <r>   -13.1965     1.4573    14.6086 </r>
       <r>   -13.0929     1.6975    14.7844 </r>
       <r>   -12.9894     2.0598    14.9977 </r>
       <r>   -12.8858     2.0967    15.2148 </r>
       <r>   -12.7823     1.8438    15.4058 </r>
       <r>   -12.6787     1.6835    15.5801 </r>
       <r>   -12.5751     1.5890    15.7446 </r>
       <r>   -12.4716     1.5182    15.9019 </r>
       <r>   -12.3680     1.4669    16.0538 </r>
       <r>   -12.2645     1.5079    16.2099 </r>
       <r>   -12.1609     2.0758    16.4249 </r>
       <r>   -12.0574     2.9662    16.7321 </r>
       <r>   -11.9538     3.3475    17.0787 </r>
       <r>   -11.8502     3.6177    17.4534 </r>
       <r>   -11.7467     4.2302    17.8914 </r>
       <r>   -11.6431     4.5040    18.3578 </r>
       <r>   -11.5396     3.5196    18.7223 </r>
       <r>   -11.4360     2.8833    19.0209 </r>
       <r>   -11.3325     2.6764    19.2981 </r>
       <r>   -11.2289     2.5549    19.5626 </r>
       <r>   -11.1253     2.4565    19.8170 </r>
       <r>   -11.0218     2.4176    20.0674 </r>
       <r>   -10.9182     2.4677    20.3229 </r>
       <r>   -10.8147     2.6090    20.5931 </r>
       <r>   -10.7111     2.7058    20.8733 </r>
       <r>   -10.6076     2.9551    21.1793 </r>
       <r>   -10.5040     3.3815    21.5295 </r>
       <r>   -10.4004     3.4259    21.8843 </r>
       <r>   -10.2969     3.2361    22.2194 </r>
       <r>   -10.1933     3.0801    22.5384 </r>
       <r>   -10.0898     3.0166    22.8508 </r>
       <r>    -9.9862     2.9000    23.1511 </r>
       <r>    -9.8827     2.8979    23.4512 </r>
       <r>    -9.7791     2.7911    23.7402 </r>
       <r>    -9.6755     2.7116    24.0210 </r>
       <r>    -9.5720     2.3688    24.2663 </r>
       <r>    -9.4684     2.1108    24.4849 </r>
       <r>    -9.3649     2.0775    24.7001 </r>
       <r>    -9.2613     2.0916    24.9166 </r>
       <r>    -9.1578     2.1737    25.1418 </r>
       <r>    -9.0542     2.2333    25.3730 </r>
       <r>    -8.9506     2.7040    25.6530 </r>
       <r>    -8.8471     2.8929    25.9526 </r>
       <r>    -8.7435     3.1866    26.2826 </r>
       <r>    -8.6400     3.1505    26.6089 </r>
       <r>    -8.5364     3.4131    26.9623 </r>
       <r>    -8.4329     3.3967    27.3141 </r>
       <r>    -8.3293     3.7330    27.7007 </r>
       <r>    -8.2257     4.0449    28.1195 </r>
       <r>    -8.1222     4.8710    28.6240 </r>
       <r>    -8.0186     4.8131    29.1224 </r>
       <r>    -7.9151     4.3541    29.5733 </r>
       <r>    -7.8115     4.4499    30.0341 </r>
       <r>    -7.7080     5.3265    30.5857 </r>
       <r>    -7.6044     5.8723    31.1938 </r>
       <r>    -7.5008     5.7194    31.7861 </r>
       <r>    -7.3973     5.6192    32.3680 </r>
       <r>    -7.2937     5.6832    32.9566 </r>
       <r>    -7.1902     5.9501    33.5727 </r>
       <r>    -7.0866     6.5475    34.2508 </r>
       <r>    -6.9831     6.4840    34.9222 </r>
       <r>    -6.8795     6.1459    35.5587 </r>
       <r>    -6.7759     5.8772    36.1673 </r>
       <r>    -6.6724     6.0456    36.7934 </r>
       <r>    -6.5688     6.1128    37.4264 </r>
       <r>    -6.4653     6.2749    38.0762 </r>
       <r>    -6.3617     6.1387    38.7119 </r>
       <r>    -6.2582     5.8517    39.3179 </r>
       <r>    -6.1546     5.2725    39.8639 </r>
       <r>    -6.0510     5.0413    40.3860 </r>
       <r>    -5.9475     5.2241    40.9270 </r>
       <r>    -5.8439     5.5510    41.5018 </r>
       <r>    -5.7404     5.5106    42.0725 </r>
       <r>    -5.6368     5.3085    42.6222 </r>
       <r>    -5.5333     6.0495    43.2487 </r>
       <r>    -5.4297     6.7868    43.9515 </r>
       <r>    -5.3261     6.4350    44.6179 </r>
       <r>    -5.2226     4.8179    45.1168 </r>
       <r>    -5.1190     4.1917    45.5509 </r>
       <r>    -5.0155     4.0841    45.9738 </r>
       <r>    -4.9119     4.3815    46.4276 </r>
       <r>    -4.8084     4.5820    46.9021 </r>
       <r>    -4.7048     4.1978    47.3368 </r>
       <r>    -4.6013     4.0980    47.7612 </r>
       <r>    -4.4977     4.5596    48.2333 </r>
       <r>    -4.3941     5.3956    48.7921 </r>
       <r>    -4.2906     6.2784    49.4422 </r>
       <r>    -4.1870     8.2057    50.2920 </r>
       <r>    -4.0835     9.9336    51.3207 </r>
       <r>    -3.9799     7.8698    52.1357 </r>
       <r>    -3.8764     5.9360    52.7504 </r>
       <r>    -3.7728     4.7043    53.2375 </r>
       <r>    -3.6692     3.9718    53.6488 </r>
       <r>    -3.5657     3.8268    54.0451 </r>
       <r>    -3.4621     3.9691    54.4562 </r>
       <r>    -3.3586     4.1173    54.8825 </r>
       <r>    -3.2550     4.5186    55.3505 </r>
       <r>    -3.1515     4.9471    55.8628 </r>
       <r>    -3.0479     5.1766    56.3989 </r>
       <r>    -2.9443     5.0272    56.9195 </r>
       <r>    -2.8408     5.0984    57.4474 </r>
       <r>    -2.7372     4.3227    57.8951 </r>
       <r>    -2.6337     3.9562    58.3048 </r>
       <r>    -2.5301     5.3558    58.8594 </r>
       <r>    -2.4266     6.2767    59.5094 </r>
       <r>    -2.3230     5.7301    60.1028 </r>
       <r>    -2.2194     4.0960    60.5270 </r>
       <r>    -2.1159     2.3701    60.7724 </r>
       <r>    -2.0123     1.9208    60.9713 </r>
       <r>    -1.9088     1.7514    61.1527 </r>
       <r>    -1.8052     1.6696    61.3256 </r>
       <r>    -1.7017     1.5411    61.4852 </r>
       <r>    -1.5981     1.4666    61.6371 </r>
       <r>    -1.4945     1.3522    61.7771 </r>
       <r>    -1.3910     1.1434    61.8955 </r>
       <r>    -1.2874     0.5988    61.9575 </r>
       <r>    -1.1839     0.2162    61.9799 </r>
       <r>    -1.0803     0.1168    61.9920 </r>
       <r>    -0.9768     0.1621    62.0088 </r>
       <r>    -0.8732     0.6751    62.0787 </r>
       <r>    -0.7696     1.3667    62.2202 </r>
       <r>    -0.6661     1.7784    62.4044 </r>
       <r>    -0.5625     2.2766    62.6401 </r>
       <r>    -0.4590     3.0586    62.9569 </r>
       <r>    -0.3554     3.1332    63.2813 </r>
       <r>    -0.2519     2.5710    63.5476 </r>
       <r>    -0.1483     2.2459    63.7802 </r>
       <r>    -0.0447     1.4365    63.9289 </r>
       <r>     0.0588     0.5631    63.9872 </r>
       <r>     0.1624     0.2600    64.0142 </r>
       <r>     0.2659     0.8305    64.1002 </r>
       <r>     0.3695     1.5694    64.2627 </r>
       <r>     0.4730     1.6149    64.4299 </r>
       <r>     0.5766     1.5483    64.5903 </r>
       <r>     0.6802     1.8203    64.7788 </r>
       <r>     0.7837     2.3763    65.0248 </r>
       <r>     0.8873     2.9614    65.3315 </r>
       <r>     0.9908     2.4750    65.5878 </r>
       <r>     1.0944     2.1684    65.8124 </r>
       <r>     1.1979     1.8380    66.0027 </r>
       <r>     1.3015     1.7600    66.1850 </r>
       <r>     1.4051     1.6583    66.3567 </r>
       <r>     1.5086     1.6826    66.5309 </r>
       <r>     1.6122     1.6631    66.7032 </r>
       <r>     1.7157     1.7055    66.8798 </r>
       <r>     1.8193     1.7595    67.0620 </r>
       <r>     1.9228     1.8203    67.2505 </r>
       <r>     2.0264     1.9899    67.4566 </r>
       <r>     2.1300     2.3448    67.6994 </r>
       <r>     2.2335     3.3836    68.0498 </r>
       <r>     2.3371     3.8538    68.4489 </r>
       <r>     2.4406     3.3042    68.7911 </r>
       <r>     2.5442     2.7245    69.0732 </r>
       <r>     2.6477     2.4001    69.3218 </r>
       <r>     2.7513     2.2931    69.5592 </r>
       <r>     2.8549     2.3891    69.8066 </r>
       <r>     2.9584     2.9816    70.1154 </r>
       <r>     3.0620     3.2533    70.4523 </r>
       <r>     3.1655     3.1045    70.7738 </r>
       <r>     3.2691     2.8339    71.0673 </r>
       <r>     3.3726     2.5931    71.3358 </r>
       <r>     3.4762     2.6575    71.6110 </r>
       <r>     3.5798     2.7096    71.8916 </r>
       <r>     3.6833     2.9338    72.1954 </r>
       <r>     3.7869     3.4440    72.5521 </r>
       <r>     3.8904     3.6089    72.9258 </r>
       <r>     3.9940     3.7429    73.3134 </r>
       <r>     4.0975     3.9200    73.7193 </r>
       <r>     4.2011     3.9134    74.1246 </r>
       <r>     4.3046     3.8813    74.5265 </r>
       <r>     4.4082     3.6911    74.9088 </r>
       <r>     4.5118     3.6666    75.2885 </r>
       <r>     4.6153     3.6794    75.6695 </r>
       <r>     4.7189     3.8461    76.0678 </r>
       <r>     4.8224     4.3506    76.5183 </r>
       <r>     4.9260     4.4699    76.9812 </r>
       <r>     5.0295     4.4733    77.4445 </r>
       <r>     5.1331     4.5040    77.9109 </r>
       <r>     5.2367     4.2319    78.3491 </r>
       <r>     5.3402     4.3455    78.7991 </r>
       <r>     5.4438     4.5358    79.2688 </r>
       <r>     5.5473     4.4503    79.7297 </r>
       <r>     5.6509     3.9963    80.1435 </r>
       <r>     5.7544     3.9756    80.5552 </r>
       <r>     5.8580     5.0091    81.0740 </r>
       <r>     5.9616     6.0723    81.7028 </r>
       <r>     6.0651     6.4025    82.3658 </r>
       <r>     6.1687     6.5725    83.0464 </r>
       <r>     6.2722     6.4486    83.7142 </r>
       <r>     6.3758     6.2335    84.3598 </r>
       <r>     6.4793     6.0357    84.9848 </r>
       <r>     6.5829     5.8952    85.5953 </r>
       <r>     6.6865     6.4965    86.2680 </r>
       <r>     6.7900     6.6895    86.9608 </r>
       <r>     6.8936     7.0488    87.6907 </r>
       <r>     6.9971     8.0873    88.5282 </r>
       <r>     7.1007     9.4198    89.5037 </r>
       <r>     7.2042     9.0943    90.4455 </r>
       <r>     7.3078     8.3327    91.3084 </r>
       <r>     7.4114     7.8641    92.1228 </r>
       <r>     7.5149     7.7200    92.9223 </r>
       <r>     7.6185     7.1365    93.6613 </r>
       <r>     7.7220     6.7201    94.3572 </r>
       <r>     7.8256     6.2482    95.0042 </r>
       <r>     7.9291     4.3274    95.4524 </r>
       <r>     8.0327     2.5590    95.7174 </r>
       <r>     8.1363     1.4656    95.8691 </r>
       <r>     8.2398     0.7074    95.9424 </r>
       <r>     8.3434     0.3823    95.9820 </r>
       <r>     8.4469     0.1444    95.9969 </r>
       <r>     8.5505     0.0283    95.9999 </r>
       <r>     8.6540     0.0012    96.0000 </r>
       <r>     8.7576     0.0000    96.0000 </r>
       <r>     8.8612     0.0000    96.0000 </r>
       <r>     8.9647     0.0000    96.0000 </r>
       <r>     9.0683     0.0000    96.0000 </r>
       <r>     9.1718     0.0000    96.0000 </r>
       <r>     9.2754     0.0000    96.0000 </r>
       <r>     9.3789     0.0000    96.0000 </r>
       <r>     9.4825     0.0000    96.0000 </r>
       <r>     9.5861     0.0000    96.0000 </r>
       <r>     9.6896     0.0000    96.0000 </r>
       <r>     9.7932     0.0000    96.0000 </r>
      </set>
     </set>
    </array>
   </total>
  </dos>
 </calculation>
 <structure name="finalpos" >
  <crystal>
   <varray name="basis" >
    <v>       4.36823214       2.52200000       0.00000000 </v>
    <v>      -4.36823214       2.52200000       0.00000000 </v>
    <v>       0.00000000       0.00000000      15.00000000 </v>
   </varray>
   <i name="volume">    330.50044346 </i>
   <varray name="rec_basis" >
    <v>       0.11446278       0.19825535       0.00000000 </v>
    <v>      -0.11446278       0.19825535       0.00000000 </v>
    <v>       0.00000000       0.00000000       0.06666667 </v>
   </varray>
  </crystal>
  <varray name="positions" >
   <v>       0.33822316       0.66910722       0.11349855 </v>
   <v>       0.67156051       0.33577434       0.11317033 </v>
   <v>       0.16450481       0.32166382       0.11314778 </v>
   <v>       0.32403714       0.16201214       0.11315929 </v>
   <v>       0.16450422       0.84282823       0.11314996 </v>
   <v>       0.84531400       0.16201189       0.11315172 </v>
   <v>       0.68565989       0.84282307       0.11314322 </v>
   <v>       0.84531460       0.68329017       0.11315395 </v>
   <v>       0.33346083       0.16673609       0.33805811 </v>
   <v>       0.50015187       0.00014916       0.33802917 </v>
   <v>       0.33343986       0.66672561       0.33773559 </v>
   <v>       0.50015182       0.50001347       0.33802917 </v>
   <v>       0.83343411       0.16673741       0.33805325 </v>
   <v>       0.00011171       0.00006117       0.33803692 </v>
   <v>       0.83343419       0.66670821       0.33805329 </v>
   <v>       0.00002262       0.50001667       0.33802970 </v>
  </varray>
 </structure>
</modeling>
