  16  16   0  16
  0.2037874E+02  0.5010000E-09  0.5010000E-09  0.1500000E-08  0.5000000E-15
  1.000000000000000E-004
  CAR 
 Lattice                                 
      9.83780990    -21.39636370  301     -0.91562441      1.00000000
    -21.396  0.0000E+00  0.0000E+00  0.0000E+00  0.0000E+00
    -21.292  0.0000E+00  0.0000E+00  0.0000E+00  0.0000E+00
    -21.188  0.0000E+00  0.0000E+00  0.0000E+00  0.0000E+00
    -21.084  0.0000E+00  0.0000E+00  0.0000E+00  0.0000E+00
    -20.980  0.0000E+00  0.0000E+00  0.0000E+00  0.0000E+00
    -20.876  0.0000E+00  0.0000E+00  0.0000E+00  0.0000E+00
    -20.772  0.0000E+00  0.0000E+00  0.0000E+00  0.0000E+00
    -20.668  0.0000E+00  0.0000E+00  0.0000E+00  0.0000E+00
    -20.563  0.2893E-19  0.2893E-19  0.3012E-20  0.3012E-20
    -20.459  0.2493E-14  0.2493E-14  0.2596E-15  0.2596E-15
    -20.355  0.2746E-10  0.2746E-10  0.2859E-11  0.2859E-11
    -20.251  0.4067E-07  0.4067E-07  0.4238E-08  0.4238E-08
    -20.147  0.8785E-05  0.8785E-05  0.9188E-06  0.9188E-06
    -20.043  0.3057E-03  0.3058E-03  0.3275E-04  0.3275E-04
    -19.939  0.2100E-02  0.2100E-02  0.2514E-03  0.2514E-03
    -19.835  0.4361E-02  0.4361E-02  0.7054E-03  0.7054E-03
    -19.731  0.4837E-02  0.4837E-02  0.1209E-02  0.1209E-02
    -19.626  0.5126E-02  0.5126E-02  0.1743E-02  0.1743E-02
    -19.522  0.4556E-02  0.4556E-02  0.2217E-02  0.2217E-02
    -19.418  0.5636E-02  0.5636E-02  0.2804E-02  0.2804E-02
    -19.314  0.4241E-02  0.4241E-02  0.3245E-02  0.3245E-02
    -19.210  0.5095E-02  0.5096E-02  0.3776E-02  0.3776E-02
    -19.106  0.5949E-02  0.5949E-02  0.4395E-02  0.4395E-02
    -19.002  0.3628E-02  0.3628E-02  0.4773E-02  0.4773E-02
    -18.898  0.5092E-02  0.5092E-02  0.5303E-02  0.5303E-02
    -18.794  0.6354E-02  0.6354E-02  0.5965E-02  0.5965E-02
    -18.689  0.4571E-02  0.4571E-02  0.6441E-02  0.6441E-02
    -18.585  0.3182E-02  0.3182E-02  0.6772E-02  0.6772E-02
    -18.481  0.6461E-02  0.6461E-02  0.7445E-02  0.7445E-02
    -18.377  0.6201E-02  0.6201E-02  0.8090E-02  0.8090E-02
    -18.273  0.4246E-02  0.4246E-02  0.8532E-02  0.8532E-02
    -18.169  0.3394E-02  0.3394E-02  0.8886E-02  0.8886E-02
    -18.065  0.6272E-02  0.6272E-02  0.9539E-02  0.9539E-02
    -17.961  0.1164E-01  0.1164E-01  0.1075E-01  0.1075E-01
    -17.856  0.1130E-01  0.1130E-01  0.1193E-01  0.1193E-01
    -17.752  0.1071E-01  0.1071E-01  0.1304E-01  0.1304E-01
    -17.648  0.1255E-01  0.1255E-01  0.1435E-01  0.1435E-01
    -17.544  0.1557E-01  0.1557E-01  0.1597E-01  0.1597E-01
    -17.440  0.1978E-01  0.1978E-01  0.1803E-01  0.1803E-01
    -17.336  0.2047E-01  0.2047E-01  0.2016E-01  0.2016E-01
    -17.232  0.1166E-01  0.1166E-01  0.2138E-01  0.2138E-01
    -17.128  0.5007E-02  0.5007E-02  0.2190E-01  0.2190E-01
    -17.024  0.6936E-02  0.6936E-02  0.2262E-01  0.2262E-01
    -16.919  0.6910E-02  0.6910E-02  0.2334E-01  0.2334E-01
    -16.815  0.5720E-02  0.5720E-02  0.2393E-01  0.2393E-01
    -16.711  0.4694E-02  0.4694E-02  0.2442E-01  0.2442E-01
    -16.607  0.3183E-02  0.3183E-02  0.2475E-01  0.2475E-01
    -16.503  0.3090E-02  0.3090E-02  0.2508E-01  0.2508E-01
    -16.399  0.8693E-02  0.8693E-02  0.2598E-01  0.2598E-01
    -16.295  0.7214E-02  0.7214E-02  0.2673E-01  0.2673E-01
    -16.191  0.4807E-02  0.4807E-02  0.2723E-01  0.2723E-01
    -16.087  0.4283E-02  0.4283E-02  0.2768E-01  0.2768E-01
    -15.982  0.4328E-02  0.4328E-02  0.2813E-01  0.2813E-01
    -15.878  0.3424E-02  0.3424E-02  0.2849E-01  0.2849E-01
    -15.774  0.7007E-02  0.7007E-02  0.2921E-01  0.2921E-01
    -15.670  0.1236E-01  0.1236E-01  0.3050E-01  0.3050E-01
    -15.566  0.1332E-01  0.1332E-01  0.3189E-01  0.3189E-01
    -15.462  0.1531E-01  0.1531E-01  0.3348E-01  0.3348E-01
    -15.358  0.1513E-01  0.1513E-01  0.3506E-01  0.3506E-01
    -15.254  0.1224E-01  0.1224E-01  0.3633E-01  0.3633E-01
    -15.150  0.1248E-01  0.1248E-01  0.3763E-01  0.3763E-01
    -15.045  0.1701E-01  0.1701E-01  0.3940E-01  0.3940E-01
    -14.941  0.1645E-01  0.1645E-01  0.4112E-01  0.4112E-01
    -14.837  0.1362E-01  0.1362E-01  0.4253E-01  0.4253E-01
    -14.733  0.1165E-01  0.1165E-01  0.4375E-01  0.4375E-01
    -14.629  0.8927E-02  0.8927E-02  0.4468E-01  0.4468E-01
    -14.525  0.1251E-01  0.1251E-01  0.4598E-01  0.4598E-01
    -14.421  0.1913E-01  0.1913E-01  0.4797E-01  0.4797E-01
    -14.317  0.1758E-01  0.1758E-01  0.4980E-01  0.4980E-01
    -14.213  0.1108E-01  0.1108E-01  0.5095E-01  0.5095E-01
    -14.108  0.8377E-02  0.8377E-02  0.5183E-01  0.5183E-01
    -14.004  0.7257E-02  0.7257E-02  0.5258E-01  0.5258E-01
    -13.900  0.8339E-02  0.8339E-02  0.5345E-01  0.5345E-01
    -13.796  0.7998E-02  0.7998E-02  0.5428E-01  0.5428E-01
    -13.692  0.5266E-02  0.5266E-02  0.5483E-01  0.5483E-01
    -13.588  0.4768E-02  0.4768E-02  0.5533E-01  0.5533E-01
    -13.484  0.4296E-02  0.4296E-02  0.5578E-01  0.5578E-01
    -13.380  0.5452E-02  0.5452E-02  0.5634E-01  0.5634E-01
    -13.275  0.5736E-02  0.5736E-02  0.5694E-01  0.5694E-01
    -13.171  0.5980E-02  0.5980E-02  0.5756E-01  0.5756E-01
    -13.067  0.7712E-02  0.7712E-02  0.5837E-01  0.5837E-01
    -12.963  0.6637E-02  0.6637E-02  0.5906E-01  0.5906E-01
    -12.859  0.8468E-02  0.8468E-02  0.5994E-01  0.5994E-01
    -12.755  0.7052E-02  0.7052E-02  0.6067E-01  0.6067E-01
    -12.651  0.5680E-02  0.5680E-02  0.6126E-01  0.6126E-01
    -12.547  0.6508E-02  0.6508E-02  0.6194E-01  0.6194E-01
    -12.443  0.3156E-02  0.3156E-02  0.6227E-01  0.6227E-01
    -12.338  0.7387E-02  0.7387E-02  0.6304E-01  0.6304E-01
    -12.234  0.8352E-02  0.8352E-02  0.6391E-01  0.6391E-01
    -12.130  0.5893E-02  0.5893E-02  0.6452E-01  0.6452E-01
    -12.026  0.9485E-02  0.9485E-02  0.6551E-01  0.6551E-01
    -11.922  0.1480E-01  0.1480E-01  0.6705E-01  0.6705E-01
    -11.818  0.1646E-01  0.1646E-01  0.6876E-01  0.6876E-01
    -11.714  0.1462E-01  0.1462E-01  0.7029E-01  0.7029E-01
    -11.610  0.1409E-01  0.1409E-01  0.7175E-01  0.7175E-01
    -11.506  0.1648E-01  0.1648E-01  0.7347E-01  0.7347E-01
    -11.401  0.1154E-01  0.1154E-01  0.7467E-01  0.7467E-01
    -11.297  0.7994E-02  0.7994E-02  0.7550E-01  0.7550E-01
    -11.193  0.1012E-01  0.1012E-01  0.7656E-01  0.7656E-01
    -11.089  0.1265E-01  0.1265E-01  0.7787E-01  0.7787E-01
    -10.985  0.9481E-02  0.9481E-02  0.7886E-01  0.7886E-01
    -10.881  0.5149E-02  0.5149E-02  0.7940E-01  0.7940E-01
    -10.777  0.1119E-01  0.1119E-01  0.8056E-01  0.8056E-01
    -10.673  0.1687E-01  0.1687E-01  0.8232E-01  0.8232E-01
    -10.569  0.1358E-01  0.1358E-01  0.8373E-01  0.8373E-01
    -10.464  0.6502E-02  0.6502E-02  0.8441E-01  0.8441E-01
    -10.360  0.6954E-02  0.6954E-02  0.8513E-01  0.8513E-01
    -10.256  0.1695E-01  0.1695E-01  0.8690E-01  0.8690E-01
    -10.152  0.1927E-01  0.1927E-01  0.8890E-01  0.8890E-01
    -10.048  0.1087E-01  0.1087E-01  0.9004E-01  0.9004E-01
     -9.944  0.8662E-02  0.8662E-02  0.9094E-01  0.9094E-01
     -9.840  0.6929E-02  0.6929E-02  0.9166E-01  0.9166E-01
     -9.736  0.1110E-01  0.1110E-01  0.9281E-01  0.9281E-01
     -9.631  0.1204E-01  0.1204E-01  0.9407E-01  0.9407E-01
     -9.527  0.1168E-01  0.1168E-01  0.9528E-01  0.9528E-01
     -9.423  0.8998E-02  0.8998E-02  0.9622E-01  0.9622E-01
     -9.319  0.8136E-02  0.8136E-02  0.9707E-01  0.9707E-01
     -9.215  0.1084E-01  0.1084E-01  0.9820E-01  0.9820E-01
     -9.111  0.4977E-02  0.4977E-02  0.9871E-01  0.9871E-01
     -9.007  0.3030E-02  0.3030E-02  0.9903E-01  0.9903E-01
     -8.903  0.1091E-01  0.1091E-01  0.1002E+00  0.1002E+00
     -8.799  0.1728E-01  0.1728E-01  0.1020E+00  0.1020E+00
     -8.694  0.1814E-01  0.1814E-01  0.1039E+00  0.1039E+00
     -8.590  0.9897E-02  0.9897E-02  0.1049E+00  0.1049E+00
     -8.486  0.8384E-02  0.8384E-02  0.1058E+00  0.1058E+00
     -8.382  0.9319E-02  0.9319E-02  0.1067E+00  0.1067E+00
     -8.278  0.1436E-01  0.1436E-01  0.1082E+00  0.1082E+00
     -8.174  0.2488E-01  0.2488E-01  0.1108E+00  0.1108E+00
     -8.070  0.2419E-01  0.2419E-01  0.1133E+00  0.1133E+00
     -7.966  0.1764E-01  0.1764E-01  0.1152E+00  0.1152E+00
     -7.862  0.1356E-01  0.1356E-01  0.1166E+00  0.1166E+00
     -7.757  0.1260E-01  0.1260E-01  0.1179E+00  0.1179E+00
     -7.653  0.2267E-01  0.2267E-01  0.1203E+00  0.1203E+00
     -7.549  0.2653E-01  0.2653E-01  0.1230E+00  0.1230E+00
     -7.445  0.2154E-01  0.2154E-01  0.1253E+00  0.1253E+00
     -7.341  0.2200E-01  0.2200E-01  0.1275E+00  0.1275E+00
     -7.237  0.2353E-01  0.2353E-01  0.1300E+00  0.1300E+00
     -7.133  0.2231E-01  0.2231E-01  0.1323E+00  0.1323E+00
     -7.029  0.2633E-01  0.2633E-01  0.1351E+00  0.1351E+00
     -6.925  0.2627E-01  0.2627E-01  0.1378E+00  0.1378E+00
     -6.820  0.1722E-01  0.1722E-01  0.1396E+00  0.1396E+00
     -6.716  0.2152E-01  0.2152E-01  0.1418E+00  0.1418E+00
     -6.612  0.2799E-01  0.2799E-01  0.1447E+00  0.1447E+00
     -6.508  0.2554E-01  0.2554E-01  0.1474E+00  0.1474E+00
     -6.404  0.2384E-01  0.2384E-01  0.1499E+00  0.1499E+00
     -6.300  0.2194E-01  0.2194E-01  0.1522E+00  0.1522E+00
     -6.196  0.2424E-01  0.2424E-01  0.1547E+00  0.1547E+00
     -6.092  0.2090E-01  0.2090E-01  0.1569E+00  0.1569E+00
     -5.988  0.1806E-01  0.1806E-01  0.1587E+00  0.1587E+00
     -5.883  0.1855E-01  0.1855E-01  0.1607E+00  0.1607E+00
     -5.779  0.2334E-01  0.2334E-01  0.1631E+00  0.1631E+00
     -5.675  0.2114E-01  0.2114E-01  0.1653E+00  0.1653E+00
     -5.571  0.2043E-01  0.2043E-01  0.1674E+00  0.1674E+00
     -5.467  0.2253E-01  0.2253E-01  0.1698E+00  0.1698E+00
     -5.363  0.2519E-01  0.2519E-01  0.1724E+00  0.1724E+00
     -5.259  0.2719E-01  0.2719E-01  0.1752E+00  0.1752E+00
     -5.155  0.2091E-01  0.2091E-01  0.1774E+00  0.1774E+00
     -5.050  0.9945E-02  0.9945E-02  0.1784E+00  0.1784E+00
     -4.946  0.1306E-01  0.1306E-01  0.1798E+00  0.1798E+00
     -4.842  0.1935E-01  0.1935E-01  0.1818E+00  0.1818E+00
     -4.738  0.1937E-01  0.1937E-01  0.1838E+00  0.1838E+00
     -4.634  0.1533E-01  0.1533E-01  0.1854E+00  0.1854E+00
     -4.530  0.1577E-01  0.1577E-01  0.1871E+00  0.1871E+00
     -4.426  0.1833E-01  0.1833E-01  0.1890E+00  0.1890E+00
     -4.322  0.2119E-01  0.2119E-01  0.1912E+00  0.1912E+00
     -4.218  0.2312E-01  0.2312E-01  0.1936E+00  0.1936E+00
     -4.113  0.3385E-01  0.3385E-01  0.1971E+00  0.1971E+00
     -4.009  0.3865E-01  0.3865E-01  0.2011E+00  0.2011E+00
     -3.905  0.3186E-01  0.3186E-01  0.2045E+00  0.2045E+00
     -3.801  0.2015E-01  0.2015E-01  0.2066E+00  0.2066E+00
     -3.697  0.1522E-01  0.1522E-01  0.2081E+00  0.2081E+00
     -3.593  0.1647E-01  0.1647E-01  0.2099E+00  0.2099E+00
     -3.489  0.1542E-01  0.1542E-01  0.2115E+00  0.2115E+00
     -3.385  0.2020E-01  0.2020E-01  0.2136E+00  0.2136E+00
     -3.281  0.1822E-01  0.1822E-01  0.2155E+00  0.2155E+00
     -3.176  0.1508E-01  0.1508E-01  0.2170E+00  0.2170E+00
     -3.072  0.1528E-01  0.1528E-01  0.2186E+00  0.2186E+00
     -2.968  0.1603E-01  0.1603E-01  0.2203E+00  0.2203E+00
     -2.864  0.2512E-01  0.2512E-01  0.2229E+00  0.2229E+00
     -2.760  0.1946E-01  0.1946E-01  0.2249E+00  0.2249E+00
     -2.656  0.1232E-01  0.1232E-01  0.2262E+00  0.2262E+00
     -2.552  0.1788E-01  0.1788E-01  0.2281E+00  0.2281E+00
     -2.448  0.2249E-01  0.2249E-01  0.2304E+00  0.2304E+00
     -2.344  0.2044E-01  0.2044E-01  0.2326E+00  0.2326E+00
     -2.239  0.1872E-01  0.1872E-01  0.2345E+00  0.2345E+00
     -2.135  0.1911E-01  0.1911E-01  0.2365E+00  0.2365E+00
     -2.031  0.1262E-01  0.1262E-01  0.2378E+00  0.2378E+00
     -1.927  0.3088E-02  0.3088E-02  0.2381E+00  0.2381E+00
     -1.823  0.4742E-02  0.4742E-02  0.2386E+00  0.2386E+00
     -1.719  0.7668E-02  0.7668E-02  0.2394E+00  0.2394E+00
     -1.615  0.5199E-02  0.5199E-02  0.2400E+00  0.2400E+00
     -1.511  0.5964E-02  0.5964E-02  0.2406E+00  0.2406E+00
     -1.406  0.6813E-02  0.6813E-02  0.2413E+00  0.2413E+00
     -1.302  0.4413E-02  0.4413E-02  0.2418E+00  0.2418E+00
     -1.198  0.2489E-02  0.2489E-02  0.2420E+00  0.2420E+00
     -1.094  0.6243E-03  0.6243E-03  0.2421E+00  0.2421E+00
     -0.990  0.1950E-03  0.1950E-03  0.2421E+00  0.2421E+00
     -0.886  0.1655E-02  0.1655E-02  0.2423E+00  0.2423E+00
     -0.782  0.3925E-02  0.3925E-02  0.2427E+00  0.2427E+00
     -0.678  0.4053E-02  0.4053E-02  0.2431E+00  0.2431E+00
     -0.574  0.8033E-02  0.8033E-02  0.2439E+00  0.2439E+00
     -0.469  0.1110E-01  0.1110E-01  0.2451E+00  0.2451E+00
     -0.365  0.8800E-02  0.8800E-02  0.2460E+00  0.2460E+00
     -0.261  0.1096E-01  0.1096E-01  0.2471E+00  0.2471E+00
     -0.157  0.1242E-01  0.1242E-01  0.2484E+00  0.2484E+00
     -0.053  0.9115E-02  0.9115E-02  0.2494E+00  0.2494E+00
      0.051  0.4148E-02  0.4148E-02  0.2498E+00  0.2498E+00
      0.155  0.1405E-02  0.1405E-02  0.2500E+00  0.2500E+00
      0.259  0.4633E-03  0.4633E-03  0.2500E+00  0.2500E+00
      0.363  0.2437E-02  0.2437E-02  0.2503E+00  0.2503E+00
      0.468  0.8094E-02  0.8094E-02  0.2511E+00  0.2511E+00
      0.572  0.1018E-01  0.1018E-01  0.2522E+00  0.2522E+00
      0.676  0.5488E-02  0.5488E-02  0.2527E+00  0.2527E+00
      0.780  0.3481E-02  0.3481E-02  0.2531E+00  0.2531E+00
      0.884  0.8924E-02  0.8924E-02  0.2540E+00  0.2540E+00
      0.988  0.1243E-01  0.1243E-01  0.2553E+00  0.2553E+00
      1.092  0.1294E-01  0.1294E-01  0.2567E+00  0.2567E+00
      1.196  0.9338E-02  0.9338E-02  0.2576E+00  0.2576E+00
      1.300  0.4109E-02  0.4109E-02  0.2581E+00  0.2581E+00
      1.405  0.5199E-02  0.5199E-02  0.2586E+00  0.2586E+00
      1.509  0.5093E-02  0.5093E-02  0.2591E+00  0.2591E+00
      1.613  0.5060E-02  0.5060E-02  0.2597E+00  0.2597E+00
      1.717  0.7293E-02  0.7293E-02  0.2604E+00  0.2604E+00
      1.821  0.1108E-01  0.1108E-01  0.2616E+00  0.2616E+00
      1.925  0.8265E-02  0.8265E-02  0.2624E+00  0.2624E+00
      2.029  0.2831E-02  0.2831E-02  0.2627E+00  0.2627E+00
      2.133  0.3079E-02  0.3079E-02  0.2631E+00  0.2631E+00
      2.237  0.1048E-01  0.1048E-01  0.2642E+00  0.2642E+00
      2.342  0.1728E-01  0.1728E-01  0.2660E+00  0.2660E+00
      2.446  0.1276E-01  0.1276E-01  0.2673E+00  0.2673E+00
      2.550  0.1079E-01  0.1079E-01  0.2684E+00  0.2684E+00
      2.654  0.1143E-01  0.1143E-01  0.2696E+00  0.2696E+00
      2.758  0.1159E-01  0.1159E-01  0.2708E+00  0.2708E+00
      2.862  0.1122E-01  0.1122E-01  0.2720E+00  0.2720E+00
      2.966  0.8557E-02  0.8563E-02  0.2729E+00  0.2729E+00
      3.070  0.9489E-02  0.9491E-02  0.2738E+00  0.2739E+00
      3.175  0.1330E-01  0.1330E-01  0.2752E+00  0.2752E+00
      3.279  0.1266E-01  0.1266E-01  0.2766E+00  0.2766E+00
      3.383  0.1346E-01  0.1346E-01  0.2780E+00  0.2780E+00
      3.487  0.1055E-01  0.1055E-01  0.2791E+00  0.2791E+00
      3.591  0.1051E-01  0.1051E-01  0.2801E+00  0.2801E+00
      3.695  0.1069E-01  0.1068E-01  0.2813E+00  0.2813E+00
      3.799  0.1086E-01  0.1086E-01  0.2824E+00  0.2824E+00
      3.903  0.1214E-01  0.1215E-01  0.2837E+00  0.2837E+00
      4.007  0.1537E-01  0.1537E-01  0.2853E+00  0.2853E+00
      4.112  0.1601E-01  0.1600E-01  0.2869E+00  0.2869E+00
      4.216  0.1232E-01  0.1232E-01  0.2882E+00  0.2882E+00
      4.320  0.1170E-01  0.1171E-01  0.2894E+00  0.2894E+00
      4.424  0.2102E-01  0.2102E-01  0.2916E+00  0.2916E+00
      4.528  0.1796E-01  0.1796E-01  0.2935E+00  0.2935E+00
      4.632  0.1037E-01  0.1037E-01  0.2946E+00  0.2946E+00
      4.736  0.9513E-02  0.9531E-02  0.2956E+00  0.2956E+00
      4.840  0.1834E-01  0.1837E-01  0.2975E+00  0.2975E+00
      4.944  0.2119E-01  0.2119E-01  0.2997E+00  0.2997E+00
      5.049  0.1752E-01  0.1751E-01  0.3015E+00  0.3015E+00
      5.153  0.1532E-01  0.1533E-01  0.3031E+00  0.3031E+00
      5.257  0.1721E-01  0.1719E-01  0.3049E+00  0.3049E+00
      5.361  0.1481E-01  0.1482E-01  0.3064E+00  0.3064E+00
      5.465  0.1762E-01  0.1764E-01  0.3083E+00  0.3083E+00
      5.569  0.2343E-01  0.2342E-01  0.3107E+00  0.3107E+00
      5.673  0.1476E-01  0.1475E-01  0.3122E+00  0.3122E+00
      5.777  0.1127E-01  0.1128E-01  0.3134E+00  0.3134E+00
      5.881  0.1499E-01  0.1499E-01  0.3150E+00  0.3150E+00
      5.986  0.1699E-01  0.1697E-01  0.3167E+00  0.3167E+00
      6.090  0.1778E-01  0.1780E-01  0.3186E+00  0.3186E+00
      6.194  0.2673E-01  0.2676E-01  0.3214E+00  0.3214E+00
      6.298  0.2903E-01  0.2903E-01  0.3244E+00  0.3244E+00
      6.402  0.2650E-01  0.2648E-01  0.3271E+00  0.3272E+00
      6.506  0.2157E-01  0.2155E-01  0.3294E+00  0.3294E+00
      6.610  0.1771E-01  0.1772E-01  0.3312E+00  0.3312E+00
      6.714  0.1645E-01  0.1648E-01  0.3330E+00  0.3330E+00
      6.819  0.2869E-01  0.2870E-01  0.3359E+00  0.3359E+00
      6.923  0.3408E-01  0.3404E-01  0.3395E+00  0.3395E+00
      7.027  0.2929E-01  0.2930E-01  0.3425E+00  0.3425E+00
      7.131  0.2900E-01  0.2900E-01  0.3456E+00  0.3456E+00
      7.235  0.3403E-01  0.3406E-01  0.3491E+00  0.3491E+00
      7.339  0.3588E-01  0.3590E-01  0.3528E+00  0.3528E+00
      7.443  0.2715E-01  0.2712E-01  0.3557E+00  0.3557E+00
      7.547  0.3212E-01  0.3212E-01  0.3590E+00  0.3590E+00
      7.651  0.3698E-01  0.3696E-01  0.3629E+00  0.3629E+00
      7.756  0.3410E-01  0.3414E-01  0.3664E+00  0.3664E+00
      7.860  0.3120E-01  0.3120E-01  0.3697E+00  0.3697E+00
      7.964  0.2301E-01  0.2298E-01  0.3720E+00  0.3721E+00
      8.068  0.1367E-01  0.1363E-01  0.3735E+00  0.3735E+00
      8.172  0.7994E-02  0.7976E-02  0.3743E+00  0.3743E+00
      8.276  0.2095E-02  0.2078E-02  0.3745E+00  0.3745E+00
      8.380  0.1637E-02  0.1643E-02  0.3747E+00  0.3747E+00
      8.484  0.2308E-02  0.2305E-02  0.3749E+00  0.3749E+00
      8.588  0.6187E-03  0.6122E-03  0.3750E+00  0.3750E+00
      8.693  0.2698E-04  0.2639E-04  0.3750E+00  0.3750E+00
      8.797  0.1682E-06  0.1625E-06  0.3750E+00  0.3750E+00
      8.901  0.1366E-09  0.1302E-09  0.3750E+00  0.3750E+00
      9.005  0.1369E-13  0.1288E-13  0.3750E+00  0.3750E+00
      9.109  0.0000E+00  0.0000E+00  0.3750E+00  0.3750E+00
      9.213  0.0000E+00  0.0000E+00  0.3750E+00  0.3750E+00
      9.317  0.0000E+00  0.0000E+00  0.3750E+00  0.3750E+00
      9.421  0.0000E+00  0.0000E+00  0.3750E+00  0.3750E+00
      9.525  0.0000E+00  0.0000E+00  0.3750E+00  0.3750E+00
      9.630  0.0000E+00  0.0000E+00  0.3750E+00  0.3750E+00
      9.734  0.0000E+00  0.0000E+00  0.3750E+00  0.3750E+00
      9.838  0.0000E+00  0.0000E+00  0.3750E+00  0.3750E+00
