Lattice                                 
           1
     4.338787    2.505000    0.000000
    -4.338787    2.505000    0.000000
     0.000000    0.000000   15.000000
   B    C 
     2    14
Direct configuration=     1
   0.33833034  0.66916432  0.10000000
   0.67165522  0.33584146  0.10000000
   0.16373946  0.31999962  0.10000000
   0.32250218  0.16126397  0.10000000
   0.16376430  0.84376384  0.10000000
   0.84623863  0.16123684  0.10000000
   0.68749850  0.84373000  0.10000000
   0.84626736  0.68499594  0.10000000
   0.33333267  0.16666633  0.32553333
   0.49999967  0.99999933  0.32553333
   0.33333267  0.66666633  0.32553333
   0.49999967  0.49999933  0.32553333
   0.83333267  0.16666633  0.32553333
   0.99999967  0.99999933  0.32553333
   0.83333267  0.66666633  0.32553333
   0.99999967  0.49999933  0.32553333
Direct configuration=     2
   0.33834461  0.66917113  0.10016607
   0.67169424  0.33581987  0.09997888
   0.16797136  0.32847059  0.09994795
   0.33070619  0.16536211  0.10001803
   0.16800275  0.83951957  0.09994795
   0.84210844  0.16534752  0.10001753
   0.67902564  0.83951343  0.09994773
   0.84213433  0.67678747  0.10001751
   0.33337824  0.16668797  0.32554176
   0.50012579  0.00026873  0.32558238
   0.33332880  0.66666331  0.32532909
   0.50012580  0.49985834  0.32558237
   0.83331904  0.16669183  0.32553832
   0.00000497  0.00000312  0.32552903
   0.83331908  0.66662499  0.32553834
   0.99973607  0.49986867  0.32558373
Direct configuration=     3
   0.33833401  0.66916607  0.10004268
   0.67166524  0.33583591  0.09999457
   0.16482694  0.32217643  0.09998662
   0.32461039  0.16231708  0.10000463
   0.16485347  0.84267318  0.09998663
   0.84517729  0.16229317  0.10000450
   0.68532121  0.84264646  0.09998657
   0.84520528  0.68288659  0.10000450
   0.33334438  0.16667189  0.32553550
   0.50003208  0.00006856  0.32554594
   0.33333167  0.66666556  0.32548085
   0.50003208  0.49996310  0.32554593
   0.83332916  0.16667289  0.32553461
   0.00000103  0.00000031  0.32553223
   0.83332917  0.66665571  0.32553462
   0.99993193  0.49996576  0.32554628
Direct configuration=     4
   0.33833401  0.66916607  0.10004263
   0.67166523  0.33583592  0.09999458
   0.16482587  0.32217428  0.09998664
   0.32460831  0.16231604  0.10000463
   0.16485239  0.84267426  0.09998664
   0.84517833  0.16229213  0.10000450
   0.68532336  0.84264753  0.09998658
   0.84520633  0.68288868  0.10000450
   0.33334437  0.16667189  0.32553550
   0.50003205  0.00006849  0.32554592
   0.33333167  0.66666556  0.32548090
   0.50003205  0.49996314  0.32554592
   0.83332917  0.16667288  0.32553461
   0.00000103  0.00000031  0.32553223
   0.83332918  0.66665572  0.32553462
   0.99993200  0.49996579  0.32554627
Direct configuration=     5
   0.33833826  0.66916623  0.10014843
   0.67166910  0.33583232  0.09997627
   0.16482505  0.32217968  0.09996215
   0.32459716  0.16230495  0.10001004
   0.16484383  0.84266361  0.09996215
   0.84519318  0.16228969  0.10000966
   0.68531099  0.84265151  0.09996179
   0.84520967  0.68290352  0.10000966
   0.33335501  0.16667738  0.32554636
   0.50004278  0.00008870  0.32557165
   0.33333095  0.66666533  0.32535177
   0.50004279  0.49995341  0.32557165
   0.83332432  0.16667900  0.32554322
   0.00000343  0.00000138  0.32552582
   0.83332431  0.66664503  0.32554323
   0.99991451  0.49995692  0.32557283
Direct configuration=     6
   0.33833954  0.66916628  0.10018007
   0.67167026  0.33583124  0.09997079
   0.16482481  0.32218130  0.09995482
   0.32459382  0.16230163  0.10001166
   0.16484126  0.84266042  0.09995482
   0.84519762  0.16228896  0.10001120
   0.68530729  0.84265270  0.09995437
   0.84521067  0.68290796  0.10001120
   0.33335819  0.16667902  0.32554961
   0.50004600  0.00009475  0.32557935
   0.33333073  0.66666526  0.32531314
   0.50004600  0.49995050  0.32557934
   0.83332287  0.16668084  0.32554580
   0.00000415  0.00000170  0.32552390
   0.83332285  0.66664183  0.32554581
   0.99990928  0.49995427  0.32558077
Direct configuration=     7
   0.33831606  0.66916356  0.10024398
   0.67166982  0.33583846  0.09997493
   0.16485107  0.32215566  0.09997031
   0.32460609  0.16231163  0.09998822
   0.16484652  0.84268192  0.09997032
   0.84516583  0.16230043  0.09998737
   0.68535477  0.84266182  0.09996947
   0.84516617  0.68287244  0.09998738
   0.33333765  0.16666821  0.32557362
   0.50002170  0.00004617  0.32555912
   0.33333682  0.66666780  0.32526694
   0.50002168  0.49997588  0.32555912
   0.83333832  0.16666842  0.32556881
   0.00000024  0.00000029  0.32551782
   0.83333834  0.66666871  0.32556879
   0.99995425  0.49997728  0.32556046
Direct configuration=     8
   0.33832173  0.66916422  0.10022853
   0.67166992  0.33583672  0.09997393
   0.16484472  0.32216186  0.09996657
   0.32460312  0.16230922  0.09999389
   0.16484525  0.84267672  0.09996657
   0.84517351  0.16229765  0.09999313
   0.68534329  0.84265962  0.09996582
   0.84517693  0.68288102  0.09999314
   0.33334262  0.16667082  0.32556781
   0.50002757  0.00005791  0.32556401
   0.33333535  0.66666719  0.32527811
   0.50002756  0.49996974  0.32556401
   0.83333458  0.16667142  0.32556325
   0.00000118  0.00000063  0.32551929
   0.83333460  0.66666221  0.32556324
   0.99994338  0.49997172  0.32556537
Direct configuration=     9
   0.33834846  0.66916884  0.10028529
   0.67164615  0.33582925  0.09997860
   0.16479030  0.32217124  0.09998704
   0.32462684  0.16229459  0.09997277
   0.16479480  0.84264492  0.09998710
   0.84523648  0.16230944  0.09997148
   0.68528179  0.84265905  0.09998582
   0.84524142  0.68290339  0.09997149
   0.33335238  0.16667637  0.32558320
   0.50004504  0.00008622  0.32553682
   0.33333201  0.66666626  0.32525169
   0.50004510  0.49995761  0.32553681
   0.83332692  0.16667781  0.32557808
   0.00000748  0.00000313  0.32552465
   0.83332694  0.66664951  0.32557809
   0.99992321  0.49996103  0.32553774
Direct configuration=    10
   0.33833211  0.66916601  0.10025056
   0.67166070  0.33583382  0.09997574
   0.16482361  0.32216550  0.09997451
   0.32461233  0.16230354  0.09998570
   0.16482568  0.84266438  0.09997454
   0.84519795  0.16230223  0.09998473
   0.68531943  0.84265940  0.09997358
   0.84520195  0.68288970  0.09998474
   0.33334641  0.16667297  0.32557379
   0.50003435  0.00006890  0.32555346
   0.33333405  0.66666683  0.32526786
   0.50003436  0.49996503  0.32555346
   0.83333161  0.16667390  0.32556900
   0.00000363  0.00000160  0.32552137
   0.83333163  0.66665729  0.32556900
   0.99993555  0.49996757  0.32555465
Direct configuration=    11
   0.33833277  0.66916613  0.10025197
   0.67166011  0.33583363  0.09997586
   0.16482225  0.32216573  0.09997502
   0.32461292  0.16230318  0.09998517
   0.16482442  0.84266359  0.09997505
   0.84519951  0.16230252  0.09998419
   0.68531790  0.84265938  0.09997408
   0.84520356  0.68289026  0.09998420
   0.33334665  0.16667311  0.32557417
   0.50003479  0.00006960  0.32555278
   0.33333397  0.66666680  0.32526720
   0.50003480  0.49996473  0.32555278
   0.83333142  0.16667406  0.32556937
   0.00000378  0.00000166  0.32552150
   0.83333144  0.66665697  0.32556937
   0.99993505  0.49996731  0.32555396
Direct configuration=    12
   0.33832915  0.66916471  0.10028395
   0.67167477  0.33583003  0.09997572
   0.16484609  0.32218486  0.09998674
   0.32457714  0.16229245  0.09997989
   0.16484746  0.84265563  0.09998677
   0.84518968  0.16228708  0.09997844
   0.68531080  0.84265521  0.09998536
   0.84518780  0.68290905  0.09997846
   0.33336239  0.16668123  0.32557239
   0.50005216  0.00010251  0.32553671
   0.33333300  0.66666649  0.32525865
   0.50005214  0.49994883  0.32553671
   0.83332441  0.16668321  0.32556758
   0.00000751  0.00000336  0.32553429
   0.83332439  0.66664122  0.32556758
   0.99990644  0.49995281  0.32553743
Direct configuration=    13
   0.33833091  0.66916540  0.10026840
   0.67166764  0.33583178  0.09997578
   0.16483450  0.32217556  0.09998104
   0.32459453  0.16229766  0.09998246
   0.16483625  0.84265950  0.09998107
   0.84519446  0.16229459  0.09998124
   0.68531425  0.84265724  0.09997987
   0.84519546  0.68289991  0.09998125
   0.33335474  0.16667728  0.32557326
   0.50004371  0.00008651  0.32554452
   0.33333347  0.66666664  0.32526281
   0.50004371  0.49995656  0.32554452
   0.83332782  0.16667876  0.32556845
   0.00000570  0.00000254  0.32552807
   0.83332782  0.66664888  0.32556845
   0.99992035  0.49995986  0.32554547
Direct configuration=    14
   0.33832815  0.66916353  0.10028350
   0.67166741  0.33583241  0.09997365
   0.16483482  0.32216961  0.09998523
   0.32459705  0.16229961  0.09998693
   0.16483354  0.84266209  0.09998522
   0.84518863  0.16229709  0.09998535
   0.68532238  0.84265996  0.09998378
   0.84518691  0.68289265  0.09998540
   0.33335349  0.16667638  0.32556467
   0.50003864  0.00007694  0.32553804
   0.33333664  0.66666793  0.32525991
   0.50003864  0.49996170  0.32553804
   0.83333262  0.16667756  0.32556001
   0.00000471  0.00000236  0.32553823
   0.83333260  0.66665430  0.32556001
   0.99992908  0.49996454  0.32553869
Direct configuration=    15
   0.33832627  0.66916226  0.10029374
   0.67166726  0.33583283  0.09997221
   0.16483504  0.32216558  0.09998807
   0.32459876  0.16230093  0.09998996
   0.16483170  0.84266384  0.09998803
   0.84518468  0.16229878  0.09998814
   0.68532790  0.84266180  0.09998643
   0.84518111  0.68288773  0.09998821
   0.33335265  0.16667577  0.32555885
   0.50003520  0.00007046  0.32553365
   0.33333879  0.66666881  0.32525794
   0.50003520  0.49996518  0.32553365
   0.83333588  0.16667675  0.32555429
   0.00000405  0.00000224  0.32554511
   0.83333585  0.66665797  0.32555428
   0.99993500  0.49996771  0.32553410
Direct configuration=    16
   0.33832865  0.66916304  0.10030246
   0.67166196  0.33583172  0.09997206
   0.16482782  0.32216579  0.09999219
   0.32460160  0.16229879  0.09999436
   0.16482521  0.84266018  0.09999212
   0.84519181  0.16230024  0.09999223
   0.68531915  0.84266067  0.09999029
   0.84518924  0.68288960  0.09999231
   0.33335243  0.16667597  0.32555299
   0.50003904  0.00007398  0.32552860
   0.33333783  0.66666868  0.32525521
   0.50003904  0.49996491  0.32552860
   0.83333474  0.16667696  0.32554849
   0.00000684  0.00000334  0.32554735
   0.83333472  0.66665726  0.32554849
   0.99993525  0.49996755  0.32552892
Direct configuration=    17
   0.33832990  0.66916345  0.10030702
   0.67165919  0.33583113  0.09997198
   0.16482404  0.32216589  0.09999435
   0.32460308  0.16229766  0.09999666
   0.16482182  0.84265827  0.09999426
   0.84519554  0.16230100  0.09999437
   0.68531457  0.84266007  0.09999231
   0.84519350  0.68289058  0.09999445
   0.33335231  0.16667608  0.32554992
   0.50004105  0.00007583  0.32552596
   0.33333733  0.66666861  0.32525378
   0.50004105  0.49996476  0.32552596
   0.83333414  0.16667707  0.32554545
   0.00000830  0.00000391  0.32554853
   0.83333413  0.66665689  0.32554545
   0.99993539  0.49996746  0.32552621
Direct configuration=    18
   0.33832748  0.66916359  0.10031341
   0.67165914  0.33583013  0.09997406
   0.16482813  0.32216957  0.10000009
   0.32459567  0.16229460  0.10000188
   0.16482625  0.84265645  0.09999998
   0.84519347  0.16229738  0.09999923
   0.68531101  0.84265770  0.09999771
   0.84519193  0.68289423  0.09999933
   0.33335536  0.16667779  0.32554493
   0.50004641  0.00008366  0.32552025
   0.33333720  0.66666874  0.32524979
   0.50004640  0.49996196  0.32552025
   0.83333275  0.16667900  0.32554047
   0.00001071  0.00000495  0.32554433
   0.83333276  0.66665398  0.32554047
   0.99993067  0.49996494  0.32552048
Direct configuration=    19
   0.33832023  0.66916402  0.10033259
   0.67165900  0.33582714  0.09998031
   0.16484039  0.32218062  0.10001732
   0.32457342  0.16228542  0.10001756
   0.16483955  0.84265099  0.10001715
   0.84518728  0.16228652  0.10001384
   0.68530033  0.84265058  0.10001391
   0.84518721  0.68290517  0.10001396
   0.33336452  0.16668293  0.32552994
   0.50006248  0.00010715  0.32550312
   0.33333682  0.66666913  0.32523781
   0.50006245  0.49995356  0.32550313
   0.83332857  0.16668478  0.32552552
   0.00001792  0.00000806  0.32553171
   0.83332864  0.66664524  0.32552553
   0.99991651  0.49995736  0.32550327
Direct configuration=    20
   0.33832275  0.66916387  0.10032591
   0.67165905  0.33582819  0.09997813
   0.16483612  0.32217677  0.10001132
   0.32458117  0.16228862  0.10001210
   0.16483492  0.84265289  0.10001117
   0.84518944  0.16229030  0.10000875
   0.68530405  0.84265306  0.10000826
   0.84518885  0.68290136  0.10000887
   0.33336133  0.16668114  0.32553516
   0.50005688  0.00009897  0.32550909
   0.33333695  0.66666899  0.32524198
   0.50005686  0.49995649  0.32550910
   0.83333002  0.16668276  0.32553073
   0.00001541  0.00000698  0.32553611
   0.83333007  0.66664829  0.32553073
   0.99992144  0.49996000  0.32550926
Direct configuration=    21
   0.33832188  0.66916288  0.10032956
   0.67165849  0.33582791  0.09998110
   0.16483427  0.32217517  0.10001616
   0.32458152  0.16228898  0.10001627
   0.16483289  0.84265299  0.10001600
   0.84518797  0.16229037  0.10001263
   0.68530477  0.84265316  0.10001283
   0.84518717  0.68289978  0.10001275
   0.33336296  0.16668175  0.32553171
   0.50005568  0.00009718  0.32550488
   0.33333917  0.66666989  0.32523803
   0.50005566  0.49995753  0.32550489
   0.83333246  0.16668335  0.32552725
   0.00001502  0.00000702  0.32553027
   0.83333250  0.66664972  0.32552726
   0.99992293  0.49996098  0.32550509
Direct configuration=    22
   0.33831924  0.66915990  0.10034050
   0.67165683  0.33582709  0.09998999
   0.16482871  0.32217037  0.10003070
   0.32458255  0.16229006  0.10002879
   0.16482681  0.84265330  0.10003051
   0.84518356  0.16229056  0.10002429
   0.68530690  0.84265348  0.10002651
   0.84518211  0.68289502  0.10002440
   0.33336784  0.16668360  0.32552135
   0.50005208  0.00009183  0.32549225
   0.33334583  0.66667259  0.32522617
   0.50005208  0.49996068  0.32549226
   0.83333977  0.16668510  0.32551683
   0.00001384  0.00000713  0.32551274
   0.83333977  0.66665404  0.32551684
   0.99992740  0.49996391  0.32549255
Direct configuration=    23
   0.33831396  0.66915395  0.10036239
   0.67165349  0.33582546  0.10000777
   0.16481759  0.32216076  0.10005977
   0.32458463  0.16229223  0.10005382
   0.16481466  0.84265391  0.10005952
   0.84517473  0.16229094  0.10004759
   0.68531118  0.84265410  0.10005389
   0.84517200  0.68288551  0.10004770
   0.33337761  0.16668730  0.32550062
   0.50004489  0.00008113  0.32546699
   0.33335914  0.66667799  0.32520245
   0.50004492  0.49996697  0.32546701
   0.83335439  0.16668862  0.32549598
   0.00001147  0.00000736  0.32547768
   0.83335433  0.66666267  0.32549600
   0.99993635  0.49996978  0.32546748
Direct configuration=    24
   0.33830341  0.66914205  0.10040618
   0.67164683  0.33582219  0.10004333
   0.16479535  0.32214156  0.10011791
   0.32458877  0.16229655  0.10010389
   0.16479035  0.84265513  0.10011754
   0.84515708  0.16229171  0.10009420
   0.68531973  0.84265536  0.10010864
   0.84515177  0.68286649  0.10009431
   0.33339716  0.16669471  0.32545918
   0.50003049  0.00005972  0.32541647
   0.33338577  0.66668878  0.32515501
   0.50003058  0.49997955  0.32541650
   0.83338362  0.16669564  0.32545429
   0.00000675  0.00000781  0.32540757
   0.83338343  0.66667993  0.32545432
   0.99995423  0.49998150  0.32541733
Direct configuration=    25
   0.33830781  0.66914701  0.10038791
   0.67164961  0.33582355  0.10002850
   0.16480463  0.32214957  0.10009366
   0.32458704  0.16229475  0.10008301
   0.16480049  0.84265462  0.10009334
   0.84516444  0.16229139  0.10007476
   0.68531617  0.84265483  0.10008581
   0.84516021  0.68287442  0.10007487
   0.33338901  0.16669162  0.32547646
   0.50003650  0.00006865  0.32543754
   0.33337467  0.66668428  0.32517480
   0.50003656  0.49997431  0.32543757
   0.83337143  0.16669271  0.32547168
   0.00000872  0.00000762  0.32543681
   0.83337129  0.66667273  0.32547170
   0.99994677  0.49997661  0.32543825
Direct configuration=    26
   0.33830573  0.66914467  0.10039654
   0.67164829  0.33582291  0.10003551
   0.16480024  0.32214578  0.10010512
   0.32458786  0.16229560  0.10009287
   0.16479570  0.84265486  0.10010477
   0.84516097  0.16229154  0.10008395
   0.68531785  0.84265508  0.10009660
   0.84515622  0.68287068  0.10008406
   0.33339286  0.16669308  0.32546830
   0.50003366  0.00006443  0.32542759
   0.33337991  0.66668641  0.32516545
   0.50003374  0.49997679  0.32542761
   0.83337719  0.16669409  0.32546346
   0.00000779  0.00000771  0.32542300
   0.83337703  0.66667613  0.32546349
   0.99995030  0.49997892  0.32542836
Direct configuration=    27
   0.33830666  0.66914571  0.10039270
   0.67164888  0.33582319  0.10003238
   0.16480220  0.32214747  0.10010001
   0.32458749  0.16229522  0.10008847
   0.16479784  0.84265475  0.10009968
   0.84516252  0.16229147  0.10007985
   0.68531710  0.84265497  0.10009179
   0.84515800  0.68287235  0.10007996
   0.33339114  0.16669243  0.32547194
   0.50003492  0.00006631  0.32543203
   0.33337757  0.66668546  0.32516961
   0.50003500  0.49997568  0.32543205
   0.83337462  0.16669348  0.32546712
   0.00000821  0.00000767  0.32542915
   0.83337447  0.66667461  0.32546715
   0.99994873  0.49997789  0.32543277
Direct configuration=    28
   0.33830598  0.66914542  0.10039612
   0.67164782  0.33582275  0.10003558
   0.16480095  0.32214684  0.10010433
   0.32458681  0.16229484  0.10009254
   0.16479688  0.84265434  0.10010399
   0.84516192  0.16229109  0.10008365
   0.68531569  0.84265445  0.10009584
   0.84515752  0.68287173  0.10008375
   0.33339085  0.16669246  0.32546833
   0.50003676  0.00006698  0.32542837
   0.33337748  0.66668560  0.32516558
   0.50003683  0.49997652  0.32542840
   0.83337460  0.16669350  0.32546350
   0.00001007  0.00000845  0.32542402
   0.83337446  0.66667495  0.32546353
   0.99995072  0.49997873  0.32542914
Direct configuration=    29
   0.33830394  0.66914455  0.10040639
   0.67164463  0.33582143  0.10004518
   0.16479720  0.32214496  0.10011728
   0.32458476  0.16229369  0.10010472
   0.16479400  0.84265312  0.10011693
   0.84516011  0.16228994  0.10009502
   0.68531145  0.84265289  0.10010799
   0.84515610  0.68286989  0.10009512
   0.33338996  0.16669258  0.32545751
   0.50004228  0.00006901  0.32541742
   0.33337721  0.66668603  0.32515349
   0.50004235  0.49997905  0.32541744
   0.83337456  0.16669356  0.32545264
   0.00001565  0.00001076  0.32540862
   0.83337443  0.66667598  0.32545267
   0.99995671  0.49998125  0.32541826
Direct configuration=    30
   0.33829985  0.66914280  0.10042692
   0.67163826  0.33581879  0.10006439
   0.16478970  0.32214119  0.10014320
   0.32458066  0.16229138  0.10012910
   0.16478824  0.84265067  0.10014280
   0.84515651  0.16228763  0.10011777
   0.68530298  0.84264978  0.10013229
   0.84515325  0.68286621  0.10011785
   0.33338820  0.16669280  0.32543587
   0.50005330  0.00007306  0.32539550
   0.33337665  0.66668688  0.32512930
   0.50005338  0.49998410  0.32539553
   0.83337447  0.16669368  0.32543091
   0.00002682  0.00001539  0.32537781
   0.83337437  0.66667802  0.32543094
   0.99996869  0.49998628  0.32539649
Direct configuration=    31
   0.33829947  0.66914409  0.10042681
   0.67163756  0.33581829  0.10006536
   0.16479262  0.32214426  0.10014175
   0.32457716  0.16228940  0.10012902
   0.16479171  0.84264946  0.10014136
   0.84515740  0.16228590  0.10011772
   0.68529918  0.84264808  0.10013086
   0.84515496  0.68286927  0.10011779
   0.33338672  0.16669253  0.32543508
   0.50005830  0.00007876  0.32539680
   0.33337368  0.66668590  0.32512903
   0.50005836  0.49998243  0.32539683
   0.83337093  0.16669350  0.32543014
   0.00002972  0.00001635  0.32538017
   0.83337086  0.66667566  0.32543017
   0.99996669  0.49998479  0.32539777
Direct configuration=    32
   0.33829833  0.66914796  0.10042648
   0.67163546  0.33581679  0.10006827
   0.16480139  0.32215346  0.10013740
   0.32456666  0.16228346  0.10012880
   0.16480211  0.84264583  0.10013704
   0.84516006  0.16228072  0.10011758
   0.68528780  0.84264300  0.10012656
   0.84516008  0.68287848  0.10011762
   0.33338227  0.16669171  0.32543270
   0.50007330  0.00009584  0.32540071
   0.33336477  0.66668294  0.32512823
   0.50007333  0.49997741  0.32540073
   0.83336031  0.16669294  0.32542783
   0.00003843  0.00001922  0.32538725
   0.83336034  0.66666856  0.32542786
   0.99996069  0.49998033  0.32540160
Direct configuration=    33
   0.33829784  0.66914963  0.10042634
   0.67163455  0.33581615  0.10006953
   0.16480518  0.32215743  0.10013553
   0.32456213  0.16228089  0.10012870
   0.16480660  0.84264427  0.10013518
   0.84516121  0.16227848  0.10011751
   0.68528288  0.84264081  0.10012471
   0.84516229  0.68288245  0.10011755
   0.33338036  0.16669136  0.32543168
   0.50007978  0.00010322  0.32540239
   0.33336092  0.66668166  0.32512788
   0.50007979  0.49997524  0.32540242
   0.83335573  0.16669270  0.32542684
   0.00004219  0.00002046  0.32539031
   0.83335579  0.66666550  0.32542686
   0.99995810  0.49997840  0.32540325
Direct configuration=    34
   0.33829798  0.66914942  0.10042664
   0.67163371  0.33581601  0.10007235
   0.16480370  0.32215707  0.10013430
   0.32456339  0.16228089  0.10012938
   0.16480487  0.84264405  0.10013397
   0.84516202  0.16227895  0.10011817
   0.68528287  0.84264096  0.10012344
   0.84516328  0.68288233  0.10011820
   0.33338238  0.16669204  0.32543010
   0.50007771  0.00010214  0.32540310
   0.33336295  0.66668235  0.32512697
   0.50007773  0.49997494  0.32540312
   0.83335776  0.16669338  0.32542528
   0.00004037  0.00001988  0.32539243
   0.83335783  0.66666618  0.32542530
   0.99995678  0.49997809  0.32540392
Direct configuration=    35
   0.33829838  0.66914880  0.10042754
   0.67163122  0.33581560  0.10008080
   0.16479925  0.32215597  0.10013063
   0.32456717  0.16228087  0.10013141
   0.16479966  0.84264340  0.10013034
   0.84516447  0.16228035  0.10012015
   0.68528284  0.84264144  0.10011964
   0.84516622  0.68288197  0.10012013
   0.33338846  0.16669406  0.32542538
   0.50007152  0.00009889  0.32540521
   0.33336903  0.66668439  0.32512424
   0.50007155  0.49997401  0.32540523
   0.83336387  0.16669541  0.32542062
   0.00003492  0.00001815  0.32539878
   0.83336393  0.66666822  0.32542064
   0.99995284  0.49997714  0.32540592
Direct configuration=    36
   0.33829843  0.66914870  0.10042767
   0.67163085  0.33581554  0.10008203
   0.16479861  0.32215581  0.10013010
   0.32456772  0.16228087  0.10013170
   0.16479890  0.84264330  0.10012981
   0.84516483  0.16228056  0.10012044
   0.68528284  0.84264150  0.10011909
   0.84516665  0.68288192  0.10012042
   0.33338935  0.16669436  0.32542469
   0.50007062  0.00009841  0.32540552
   0.33336991  0.66668469  0.32512385
   0.50007065  0.49997387  0.32540554
   0.83336476  0.16669571  0.32541994
   0.00003413  0.00001789  0.32539970
   0.83336482  0.66666852  0.32541995
   0.99995226  0.49997700  0.32540621
Direct configuration=    37
   0.33829713  0.66914798  0.10042791
   0.67163292  0.33581599  0.10008746
   0.16480057  0.32215405  0.10012929
   0.32456621  0.16228204  0.10013269
   0.16480040  0.84264495  0.10012903
   0.84516100  0.16228049  0.10012135
   0.68528678  0.84264223  0.10011818
   0.84516139  0.68287926  0.10012131
   0.33338709  0.16669352  0.32542337
   0.50007115  0.00009621  0.32540478
   0.33336874  0.66668436  0.32512311
   0.50007117  0.49997607  0.32540480
   0.83336401  0.16669480  0.32541864
   0.00003584  0.00001849  0.32540068
   0.83336403  0.66666921  0.32541865
   0.99995690  0.49997903  0.32540543
Direct configuration=    38
   0.33829557  0.66914710  0.10042821
   0.67163539  0.33581652  0.10009397
   0.16480293  0.32215193  0.10012833
   0.32456441  0.16228344  0.10013387
   0.16480221  0.84264693  0.10012810
   0.84515640  0.16228041  0.10012245
   0.68529150  0.84264310  0.10011708
   0.84515509  0.68287607  0.10012238
   0.33338438  0.16669253  0.32542178
   0.50007178  0.00009356  0.32540389
   0.33336734  0.66668397  0.32512222
   0.50007178  0.49997869  0.32540390
   0.83336311  0.16669370  0.32541708
   0.00003789  0.00001920  0.32540184
   0.83336308  0.66667005  0.32541709
   0.99996247  0.49998147  0.32540449
Direct configuration=    39
   0.33829646  0.66914707  0.10042831
   0.67163441  0.33581613  0.10010040
   0.16480041  0.32215148  0.10012829
   0.32456527  0.16228336  0.10013500
   0.16480002  0.84264612  0.10012808
   0.84515763  0.16228068  0.10012346
   0.68528946  0.84264307  0.10011688
   0.84515630  0.68287579  0.10012337
   0.33338335  0.16669222  0.32542100
   0.50007318  0.00009381  0.32540192
   0.33336670  0.66668384  0.32512164
   0.50007317  0.49997945  0.32540193
   0.83336261  0.16669338  0.32541633
   0.00003942  0.00001978  0.32540122
   0.83336258  0.66667027  0.32541634
   0.99996436  0.49998222  0.32540249
Direct configuration=    40
   0.33829880  0.66914700  0.10042859
   0.67163179  0.33581508  0.10011747
   0.16479374  0.32215028  0.10012818
   0.32456757  0.16228314  0.10013800
   0.16479422  0.84264396  0.10012805
   0.84516089  0.16228140  0.10012614
   0.68528406  0.84264300  0.10011634
   0.84515952  0.68287502  0.10012599
   0.33338061  0.16669139  0.32541896
   0.50007687  0.00009448  0.32539669
   0.33336501  0.66668351  0.32512012
   0.50007684  0.49998147  0.32539670
   0.83336130  0.16669253  0.32541434
   0.00004348  0.00002131  0.32539959
   0.83336125  0.66667085  0.32541433
   0.99996938  0.49998422  0.32539719
Direct configuration=    41
   0.33829660  0.66914687  0.10042889
   0.67163098  0.33581431  0.10012438
   0.16479598  0.32215210  0.10012922
   0.32456449  0.16228143  0.10013986
   0.16479609  0.84264326  0.10012914
   0.84515922  0.16227970  0.10012778
   0.68528330  0.84264171  0.10011714
   0.84515875  0.68287684  0.10012761
   0.33338549  0.16669327  0.32541795
   0.50007577  0.00009666  0.32539386
   0.33336868  0.66668484  0.32511864
   0.50007575  0.49997931  0.32539386
   0.83336446  0.16669452  0.32541333
   0.00004113  0.00002068  0.32539733
   0.83336444  0.66667097  0.32541332
   0.99996421  0.49998220  0.32539435
Direct configuration=    42
   0.33829447  0.66914675  0.10042919
   0.67163019  0.33581357  0.10013105
   0.16479814  0.32215386  0.10013023
   0.32456151  0.16227978  0.10014166
   0.16479789  0.84264258  0.10013019
   0.84515761  0.16227805  0.10012937
   0.68528257  0.84264047  0.10011791
   0.84515800  0.68287859  0.10012918
   0.33339021  0.16669509  0.32541697
   0.50007471  0.00009876  0.32539112
   0.33337223  0.66668611  0.32511722
   0.50007469  0.49997721  0.32539112
   0.83336751  0.16669643  0.32541236
   0.00003886  0.00002007  0.32539514
   0.83336753  0.66667108  0.32541235
   0.99995921  0.49998025  0.32539161
Direct configuration=    43
   0.33829339  0.66914648  0.10043001
   0.67162932  0.33581354  0.10013299
   0.16479780  0.32215308  0.10013213
   0.32456093  0.16227951  0.10014356
   0.16479752  0.84264267  0.10013210
   0.84515717  0.16227795  0.10013104
   0.68528257  0.84264014  0.10011959
   0.84515733  0.68287806  0.10013086
   0.33339065  0.16669541  0.32541559
   0.50007583  0.00009935  0.32538960
   0.33337221  0.66668622  0.32511491
   0.50007584  0.49997757  0.32538960
   0.83336731  0.16669674  0.32541096
   0.00003998  0.00002053  0.32539269
   0.83336734  0.66667079  0.32541094
   0.99996015  0.49998063  0.32539011
Direct configuration=    44
   0.33829013  0.66914566  0.10043246
   0.67162673  0.33581345  0.10013880
   0.16479677  0.32215076  0.10013781
   0.32455921  0.16227873  0.10014925
   0.16479640  0.84264293  0.10013782
   0.84515583  0.16227763  0.10013607
   0.68528258  0.84263916  0.10012462
   0.84515530  0.68287647  0.10013590
   0.33339197  0.16669637  0.32541144
   0.50007920  0.00010109  0.32538503
   0.33337215  0.66668653  0.32510799
   0.50007928  0.49997864  0.32538503
   0.83336672  0.16669766  0.32540675
   0.00004334  0.00002190  0.32538533
   0.83336675  0.66666990  0.32540674
   0.99996297  0.49998178  0.32538561
Direct configuration=    45
   0.33828361  0.66914403  0.10043738
   0.67162153  0.33581327  0.10015044
   0.16479470  0.32214610  0.10014917
   0.32455577  0.16227717  0.10016064
   0.16479415  0.84264346  0.10014926
   0.84515317  0.16227701  0.10014612
   0.68528261  0.84263718  0.10013469
   0.84515125  0.68287329  0.10014597
   0.33339461  0.16669828  0.32540315
   0.50008593  0.00010459  0.32537590
   0.33337204  0.66668715  0.32509415
   0.50008616  0.49998078  0.32537590
   0.83336554  0.16669950  0.32539835
   0.00005007  0.00002464  0.32537061
   0.83336559  0.66666813  0.32539832
   0.99996860  0.49998407  0.32537662
Direct configuration=    46
   0.33828476  0.66914358  0.10043905
   0.67162140  0.33581241  0.10015135
   0.16479257  0.32214686  0.10015118
   0.32455623  0.16227689  0.10016288
   0.16479206  0.84264213  0.10015128
   0.84515281  0.16227658  0.10014810
   0.68528007  0.84263719  0.10013647
   0.84515190  0.68287336  0.10014796
   0.33339523  0.16669835  0.32540119
   0.50008479  0.00010348  0.32537439
   0.33337407  0.66668788  0.32509193
   0.50008495  0.49998126  0.32537439
   0.83336822  0.16669954  0.32539637
   0.00004925  0.00002452  0.32536864
   0.83336826  0.66667024  0.32539635
   0.99996877  0.49998440  0.32537513
Direct configuration=    47
   0.33828821  0.66914222  0.10044405
   0.67162100  0.33580984  0.10015411
   0.16478620  0.32214916  0.10015723
   0.32455760  0.16227605  0.10016957
   0.16478578  0.84263813  0.10015734
   0.84515172  0.16227528  0.10015403
   0.68527244  0.84263719  0.10014180
   0.84515386  0.68287355  0.10015391
   0.33339708  0.16669856  0.32539531
   0.50008134  0.00010015  0.32536989
   0.33338018  0.66669007  0.32508525
   0.50008133  0.49998268  0.32536988
   0.83337623  0.16669966  0.32539045