Automatically generated mesh
     481
Reciprocal lattice
    0.00000000000000    0.00000000000000    0.00000000000000             1
    0.03225806451613    0.00000000000000    0.00000000000000             2
    0.00000000000000    0.03225806451613    0.00000000000000             2
   -0.03225806451613    0.03225806451613    0.00000000000000             2
    0.06451612903226    0.00000000000000    0.00000000000000             2
    0.00000000000000    0.06451612903226    0.00000000000000             2
   -0.06451612903226    0.06451612903226    0.00000000000000             2
    0.09677419354838    0.00000000000000    0.00000000000000             2
   -0.00000000000000    0.09677419354838    0.00000000000000             2
   -0.09677419354838    0.09677419354838    0.00000000000000             2
    0.12903225806452    0.00000000000000    0.00000000000000             2
    0.00000000000000    0.12903225806452    0.00000000000000             2
   -0.12903225806452    0.12903225806452    0.00000000000000             2
    0.16129032258065    0.00000000000000    0.00000000000000             2
    0.00000000000000    0.16129032258065    0.00000000000000             2
   -0.16129032258065    0.16129032258065    0.00000000000000             2
    0.19354838709678    0.00000000000000    0.00000000000000             2
    0.00000000000000    0.19354838709678    0.00000000000000             2
   -0.19354838709678    0.19354838709678    0.00000000000000             2
    0.22580645161290    0.00000000000000    0.00000000000000             2
    0.00000000000000    0.22580645161290    0.00000000000000             2
   -0.22580645161290    0.22580645161290    0.00000000000000             2
    0.25806451612903    0.00000000000000    0.00000000000000             2
    0.00000000000000    0.25806451612903    0.00000000000000             2
   -0.25806451612903    0.25806451612903    0.00000000000000             2
    0.29032258064516    0.00000000000000    0.00000000000000             2
    0.00000000000000    0.29032258064516    0.00000000000000             2
   -0.29032258064516    0.29032258064516    0.00000000000000             2
    0.32258064516129    0.00000000000000    0.00000000000000             2
    0.00000000000000    0.32258064516129    0.00000000000000             2
   -0.32258064516129    0.32258064516129    0.00000000000000             2
    0.35483870967742    0.00000000000000    0.00000000000000             2
    0.00000000000000    0.35483870967742    0.00000000000000             2
   -0.35483870967742    0.35483870967742    0.00000000000000             2
    0.38709677419355    0.00000000000000    0.00000000000000             2
    0.00000000000000    0.38709677419355    0.00000000000000             2
   -0.38709677419355    0.38709677419355    0.00000000000000             2
    0.41935483870968    0.00000000000000    0.00000000000000             2
    0.00000000000000    0.41935483870968    0.00000000000000             2
   -0.41935483870968    0.41935483870968    0.00000000000000             2
    0.45161290322581    0.00000000000000    0.00000000000000             2
    0.00000000000000    0.45161290322581    0.00000000000000             2
   -0.45161290322581    0.45161290322581    0.00000000000000             2
    0.48387096774194    0.00000000000000    0.00000000000000             2
    0.00000000000000    0.48387096774194    0.00000000000000             2
   -0.48387096774194    0.48387096774194    0.00000000000000             2
    0.03225806451613    0.03225806451613    0.00000000000000             2
   -0.03225806451613    0.06451612903226    0.00000000000000             2
   -0.06451612903226    0.03225806451613    0.00000000000000             2
    0.06451612903226    0.03225806451613    0.00000000000000             2
   -0.03225806451613    0.09677419354838    0.00000000000000             2
   -0.09677419354838    0.06451612903226    0.00000000000000             2
   -0.06451612903226    0.09677419354838    0.00000000000000             2
    0.03225806451613    0.06451612903226    0.00000000000000             2
    0.09677419354838   -0.03225806451613    0.00000000000000             2
    0.09677419354838    0.03225806451613    0.00000000000000             2
   -0.03225806451613    0.12903225806451    0.00000000000000             2
   -0.12903225806451    0.09677419354838    0.00000000000000             2
   -0.09677419354838    0.12903225806451    0.00000000000000             2
    0.03225806451613    0.09677419354838    0.00000000000000             2
    0.12903225806451   -0.03225806451613    0.00000000000000             2
    0.12903225806452    0.03225806451613    0.00000000000000             2
   -0.03225806451613    0.16129032258065    0.00000000000000             2
   -0.16129032258065    0.12903225806452    0.00000000000000             2
   -0.12903225806452    0.16129032258065    0.00000000000000             2
    0.03225806451613    0.12903225806452    0.00000000000000             2
    0.16129032258065   -0.03225806451613    0.00000000000000             2
    0.16129032258065    0.03225806451613    0.00000000000000             2
   -0.03225806451613    0.19354838709678    0.00000000000000             2
   -0.19354838709678    0.16129032258065    0.00000000000000             2
   -0.16129032258065    0.19354838709678    0.00000000000000             2
    0.03225806451613    0.16129032258065    0.00000000000000             2
    0.19354838709678   -0.03225806451613    0.00000000000000             2
    0.19354838709678    0.03225806451613    0.00000000000000             2
   -0.03225806451613    0.22580645161290    0.00000000000000             2
   -0.22580645161290    0.19354838709678    0.00000000000000             2
   -0.19354838709678    0.22580645161290    0.00000000000000             2
    0.03225806451613    0.19354838709678    0.00000000000000             2
    0.22580645161290   -0.03225806451613    0.00000000000000             2
    0.22580645161290    0.03225806451613    0.00000000000000             2
   -0.03225806451613    0.25806451612903    0.00000000000000             2
   -0.25806451612903    0.22580645161290    0.00000000000000             2
   -0.22580645161290    0.25806451612903    0.00000000000000             2
    0.03225806451613    0.22580645161290    0.00000000000000             2
    0.25806451612903   -0.03225806451613    0.00000000000000             2
    0.25806451612903    0.03225806451613    0.00000000000000             2
   -0.03225806451613    0.29032258064516    0.00000000000000             2
   -0.29032258064516    0.25806451612903    0.00000000000000             2
   -0.25806451612903    0.29032258064516    0.00000000000000             2
    0.03225806451613    0.25806451612903    0.00000000000000             2
    0.29032258064516   -0.03225806451613    0.00000000000000             2
    0.29032258064516    0.03225806451613    0.00000000000000             2
   -0.03225806451613    0.32258064516129    0.00000000000000             2
   -0.32258064516129    0.29032258064516    0.00000000000000             2
   -0.29032258064516    0.32258064516129    0.00000000000000             2
    0.03225806451613    0.29032258064516    0.00000000000000             2
    0.32258064516129   -0.03225806451613    0.00000000000000             2
    0.32258064516129    0.03225806451613    0.00000000000000             2
   -0.03225806451613    0.35483870967742    0.00000000000000             2
   -0.35483870967742    0.32258064516129    0.00000000000000             2
   -0.32258064516129    0.35483870967742    0.00000000000000             2
    0.03225806451613    0.32258064516129    0.00000000000000             2
    0.35483870967742   -0.03225806451613    0.00000000000000             2
    0.35483870967742    0.03225806451613    0.00000000000000             2
   -0.03225806451613    0.38709677419354    0.00000000000000             2
   -0.38709677419354    0.35483870967742    0.00000000000000             2
   -0.35483870967742    0.38709677419354    0.00000000000000             2
    0.03225806451613    0.35483870967742    0.00000000000000             2
    0.38709677419354   -0.03225806451613    0.00000000000000             2
    0.38709677419355    0.03225806451613    0.00000000000000             2
   -0.03225806451613    0.41935483870968    0.00000000000000             2
   -0.41935483870968    0.38709677419355    0.00000000000000             2
   -0.38709677419355    0.41935483870968    0.00000000000000             2
    0.03225806451613    0.38709677419355    0.00000000000000             2
    0.41935483870968   -0.03225806451613    0.00000000000000             2
    0.41935483870968    0.03225806451613    0.00000000000000             2
   -0.03225806451613    0.45161290322581    0.00000000000000             2
   -0.45161290322581    0.41935483870968    0.00000000000000             2
   -0.41935483870968    0.45161290322581    0.00000000000000             2
    0.03225806451613    0.41935483870968    0.00000000000000             2
    0.45161290322581   -0.03225806451613    0.00000000000000             2
    0.45161290322581    0.03225806451613    0.00000000000000             2
   -0.03225806451613    0.48387096774194    0.00000000000000             2
   -0.48387096774194    0.45161290322581    0.00000000000000             2
   -0.45161290322581    0.48387096774194    0.00000000000000             2
    0.03225806451613    0.45161290322581    0.00000000000000             2
    0.48387096774194   -0.03225806451613    0.00000000000000             2
    0.48387096774194    0.03225806451613    0.00000000000000             2
   -0.03225806451613   -0.48387096774194    0.00000000000000             2
    0.48387096774194    0.48387096774194    0.00000000000000             2
    0.06451612903226    0.06451612903226    0.00000000000000             2
   -0.06451612903226    0.12903225806451    0.00000000000000             2
   -0.12903225806451    0.06451612903226    0.00000000000000             2
    0.09677419354838    0.06451612903226    0.00000000000000             2
   -0.06451612903226    0.16129032258064    0.00000000000000             2
   -0.16129032258064    0.09677419354838    0.00000000000000             2
   -0.09677419354838    0.16129032258064    0.00000000000000             2
    0.06451612903226    0.09677419354838    0.00000000000000             2
    0.16129032258064   -0.06451612903226    0.00000000000000             2
    0.12903225806452    0.06451612903226    0.00000000000000             2
   -0.06451612903226    0.19354838709678    0.00000000000000             2
   -0.19354838709678    0.12903225806452    0.00000000000000             2
   -0.12903225806452    0.19354838709678    0.00000000000000             2
    0.06451612903226    0.12903225806452    0.00000000000000             2
    0.19354838709678   -0.06451612903226    0.00000000000000             2
    0.16129032258065    0.06451612903226    0.00000000000000             2
   -0.06451612903226    0.22580645161290    0.00000000000000             2
   -0.22580645161290    0.16129032258065    0.00000000000000             2
   -0.16129032258065    0.22580645161290    0.00000000000000             2
    0.06451612903226    0.16129032258065    0.00000000000000             2
    0.22580645161290   -0.06451612903226    0.00000000000000             2
    0.19354838709678    0.06451612903226    0.00000000000000             2
   -0.06451612903226    0.25806451612903    0.00000000000000             2
   -0.25806451612903    0.19354838709678    0.00000000000000             2
   -0.19354838709678    0.25806451612903    0.00000000000000             2
    0.06451612903226    0.19354838709678    0.00000000000000             2
    0.25806451612903   -0.06451612903226    0.00000000000000             2
    0.22580645161290    0.06451612903226    0.00000000000000             2
   -0.06451612903226    0.29032258064516    0.00000000000000             2
   -0.29032258064516    0.22580645161290    0.00000000000000             2
   -0.22580645161290    0.29032258064516    0.00000000000000             2
    0.06451612903226    0.22580645161290    0.00000000000000             2
    0.29032258064516   -0.06451612903226    0.00000000000000             2
    0.25806451612903    0.06451612903226    0.00000000000000             2
   -0.06451612903226    0.32258064516129    0.00000000000000             2
   -0.32258064516129    0.25806451612903    0.00000000000000             2
   -0.25806451612903    0.32258064516129    0.00000000000000             2
    0.06451612903226    0.25806451612903    0.00000000000000             2
    0.32258064516129   -0.06451612903226    0.00000000000000             2
    0.29032258064516    0.06451612903226    0.00000000000000             2
   -0.06451612903226    0.35483870967742    0.00000000000000             2
   -0.35483870967742    0.29032258064516    0.00000000000000             2
   -0.29032258064516    0.35483870967742    0.00000000000000             2
    0.06451612903226    0.29032258064516    0.00000000000000             2
    0.35483870967742   -0.06451612903226    0.00000000000000             2
    0.32258064516129    0.06451612903226    0.00000000000000             2
   -0.06451612903226    0.38709677419354    0.00000000000000             2
   -0.38709677419354    0.32258064516129    0.00000000000000             2
   -0.32258064516129    0.38709677419354    0.00000000000000             2
    0.06451612903226    0.32258064516129    0.00000000000000             2
    0.38709677419354   -0.06451612903226    0.00000000000000             2
    0.35483870967742    0.06451612903226    0.00000000000000             2
   -0.06451612903226    0.41935483870967    0.00000000000000             2
   -0.41935483870967    0.35483870967742    0.00000000000000             2
   -0.35483870967742    0.41935483870967    0.00000000000000             2
    0.06451612903226    0.35483870967742    0.00000000000000             2
    0.41935483870967   -0.06451612903226    0.00000000000000             2
    0.38709677419355    0.06451612903226    0.00000000000000             2
   -0.06451612903226    0.45161290322581    0.00000000000000             2
   -0.45161290322581    0.38709677419355    0.00000000000000             2
   -0.38709677419355    0.45161290322581    0.00000000000000             2
    0.06451612903226    0.38709677419355    0.00000000000000             2
    0.45161290322581   -0.06451612903226    0.00000000000000             2
    0.41935483870968    0.06451612903226    0.00000000000000             2
   -0.06451612903226    0.48387096774194    0.00000000000000             2
   -0.48387096774194    0.41935483870968    0.00000000000000             2
   -0.41935483870968    0.48387096774194    0.00000000000000             2
    0.06451612903226    0.41935483870968    0.00000000000000             2
    0.48387096774194   -0.06451612903226    0.00000000000000             2
    0.45161290322581    0.06451612903226    0.00000000000000             2
   -0.06451612903226   -0.48387096774194    0.00000000000000             2
    0.48387096774194    0.45161290322581    0.00000000000000             2
   -0.45161290322581   -0.48387096774194    0.00000000000000             2
    0.06451612903226    0.45161290322581    0.00000000000000             2
   -0.48387096774194   -0.06451612903226    0.00000000000000             2
    0.09677419354838    0.09677419354838    0.00000000000000             2
   -0.09677419354838    0.19354838709677    0.00000000000000             2
   -0.19354838709677    0.09677419354838    0.00000000000000             2
    0.12903225806452    0.09677419354838    0.00000000000000             2
   -0.09677419354838    0.22580645161290    0.00000000000000             2
   -0.22580645161290    0.12903225806452    0.00000000000000             2
   -0.12903225806452    0.22580645161290    0.00000000000000             2
    0.09677419354838    0.12903225806452    0.00000000000000             2
    0.22580645161290   -0.09677419354838    0.00000000000000             2
    0.16129032258065    0.09677419354838    0.00000000000000             2
   -0.09677419354838    0.25806451612903    0.00000000000000             2
   -0.25806451612903    0.16129032258065    0.00000000000000             2
   -0.16129032258065    0.25806451612903    0.00000000000000             2
    0.09677419354838    0.16129032258065    0.00000000000000             2
    0.25806451612903   -0.09677419354838    0.00000000000000             2
    0.19354838709678    0.09677419354838    0.00000000000000             2
   -0.09677419354838    0.29032258064516    0.00000000000000             2
   -0.29032258064516    0.19354838709678    0.00000000000000             2
   -0.19354838709678    0.29032258064516    0.00000000000000             2
    0.09677419354838    0.19354838709678    0.00000000000000             2
    0.29032258064516   -0.09677419354838    0.00000000000000             2
    0.22580645161290    0.09677419354838    0.00000000000000             2
   -0.09677419354838    0.32258064516129    0.00000000000000             2
   -0.32258064516129    0.22580645161290    0.00000000000000             2
   -0.22580645161290    0.32258064516129    0.00000000000000             2
    0.09677419354838    0.22580645161290    0.00000000000000             2
    0.32258064516129   -0.09677419354838    0.00000000000000             2
    0.25806451612903    0.09677419354838    0.00000000000000             2
   -0.09677419354838    0.35483870967742    0.00000000000000             2
   -0.35483870967742    0.25806451612903    0.00000000000000             2
   -0.25806451612903    0.35483870967742    0.00000000000000             2
    0.09677419354838    0.25806451612903    0.00000000000000             2
    0.35483870967742   -0.09677419354838    0.00000000000000             2
    0.29032258064516    0.09677419354838    0.00000000000000             2
   -0.09677419354838    0.38709677419354    0.00000000000000             2
   -0.38709677419354    0.29032258064516    0.00000000000000             2
   -0.29032258064516    0.38709677419354    0.00000000000000             2
    0.09677419354838    0.29032258064516    0.00000000000000             2
    0.38709677419354   -0.09677419354838    0.00000000000000             2
    0.32258064516129    0.09677419354838    0.00000000000000             2
   -0.09677419354838    0.41935483870967    0.00000000000000             2
   -0.41935483870967    0.32258064516129    0.00000000000000             2
   -0.32258064516129    0.41935483870967    0.00000000000000             2
    0.09677419354838    0.32258064516129    0.00000000000000             2
    0.41935483870967   -0.09677419354838    0.00000000000000             2
    0.35483870967742    0.09677419354838    0.00000000000000             2
   -0.09677419354838    0.45161290322580    0.00000000000000             2
   -0.45161290322580    0.35483870967742    0.00000000000000             2
   -0.35483870967742    0.45161290322580    0.00000000000000             2
    0.09677419354838    0.35483870967742    0.00000000000000             2
    0.45161290322580   -0.09677419354838    0.00000000000000             2
    0.38709677419355    0.09677419354838    0.00000000000000             2
   -0.09677419354838    0.48387096774194    0.00000000000000             2
   -0.48387096774194    0.38709677419355    0.00000000000000             2
   -0.38709677419355    0.48387096774194    0.00000000000000             2
    0.09677419354838    0.38709677419355    0.00000000000000             2
    0.48387096774194   -0.09677419354838    0.00000000000000             2
    0.41935483870968    0.09677419354838    0.00000000000000             2
   -0.09677419354838   -0.48387096774194    0.00000000000000             2
    0.48387096774194    0.41935483870968    0.00000000000000             2
   -0.41935483870968   -0.48387096774194    0.00000000000000             2
    0.09677419354838    0.41935483870968    0.00000000000000             2
   -0.48387096774194   -0.09677419354838    0.00000000000000             2
    0.45161290322581    0.09677419354838    0.00000000000000             2
   -0.09677419354838   -0.45161290322581    0.00000000000000             2
    0.45161290322581    0.45161290322581    0.00000000000000             2
    0.12903225806452    0.12903225806452    0.00000000000000             2
   -0.12903225806452    0.25806451612904    0.00000000000000             2
   -0.25806451612904    0.12903225806452    0.00000000000000             2
    0.16129032258065    0.12903225806452    0.00000000000000             2
   -0.12903225806452    0.29032258064517    0.00000000000000             2
   -0.29032258064517    0.16129032258065    0.00000000000000             2
   -0.16129032258065    0.29032258064517    0.00000000000000             2
    0.12903225806452    0.16129032258065    0.00000000000000             2
    0.29032258064517   -0.12903225806452    0.00000000000000             2
    0.19354838709678    0.12903225806452    0.00000000000000             2
   -0.12903225806452    0.32258064516130    0.00000000000000             2
   -0.32258064516130    0.19354838709678    0.00000000000000             2
   -0.19354838709678    0.32258064516130    0.00000000000000             2
    0.12903225806452    0.19354838709678    0.00000000000000             2
    0.32258064516130   -0.12903225806452    0.00000000000000             2
    0.22580645161290    0.12903225806452    0.00000000000000             2
   -0.12903225806452    0.35483870967742    0.00000000000000             2
   -0.35483870967742    0.22580645161290    0.00000000000000             2
   -0.22580645161290    0.35483870967742    0.00000000000000             2
    0.12903225806452    0.22580645161290    0.00000000000000             2
    0.35483870967742   -0.12903225806452    0.00000000000000             2
    0.25806451612903    0.12903225806452    0.00000000000000             2
   -0.12903225806452    0.38709677419355    0.00000000000000             2
   -0.38709677419355    0.25806451612903    0.00000000000000             2
   -0.25806451612903    0.38709677419355    0.00000000000000             2
    0.12903225806452    0.25806451612903    0.00000000000000             2
    0.38709677419355   -0.12903225806452    0.00000000000000             2
    0.29032258064516    0.12903225806452    0.00000000000000             2
   -0.12903225806452    0.41935483870968    0.00000000000000             2
   -0.41935483870968    0.29032258064516    0.00000000000000             2
   -0.29032258064516    0.41935483870968    0.00000000000000             2
    0.12903225806452    0.29032258064516    0.00000000000000             2
    0.41935483870968   -0.12903225806452    0.00000000000000             2
    0.32258064516129    0.12903225806452    0.00000000000000             2
   -0.12903225806452    0.45161290322581    0.00000000000000             2
   -0.45161290322581    0.32258064516129    0.00000000000000             2
   -0.32258064516129    0.45161290322581    0.00000000000000             2
    0.12903225806452    0.32258064516129    0.00000000000000             2
    0.45161290322581   -0.12903225806452    0.00000000000000             2
    0.35483870967742    0.12903225806452    0.00000000000000             2
   -0.12903225806452    0.48387096774194    0.00000000000000             2
   -0.48387096774194    0.35483870967742    0.00000000000000             2
   -0.35483870967742    0.48387096774194    0.00000000000000             2
    0.12903225806452    0.35483870967742    0.00000000000000             2
    0.48387096774194   -0.12903225806452    0.00000000000000             2
    0.38709677419355    0.12903225806452    0.00000000000000             2
   -0.12903225806452   -0.48387096774193    0.00000000000000             2
    0.48387096774193    0.38709677419355    0.00000000000000             2
   -0.38709677419355   -0.48387096774193    0.00000000000000             2
    0.12903225806452    0.38709677419355    0.00000000000000             2
   -0.48387096774193   -0.12903225806452    0.00000000000000             2
    0.41935483870968    0.12903225806452    0.00000000000000             2
   -0.12903225806452   -0.45161290322580    0.00000000000000             2
    0.45161290322580    0.41935483870968    0.00000000000000             2
   -0.41935483870968   -0.45161290322580    0.00000000000000             2
    0.12903225806452    0.41935483870968    0.00000000000000             2
   -0.45161290322580   -0.12903225806452    0.00000000000000             2
    0.16129032258065    0.16129032258065    0.00000000000000             2
   -0.16129032258065    0.32258064516130    0.00000000000000             2
   -0.32258064516130    0.16129032258065    0.00000000000000             2
    0.19354838709678    0.16129032258065    0.00000000000000             2
   -0.16129032258065    0.35483870967742    0.00000000000000             2
   -0.35483870967742    0.19354838709678    0.00000000000000             2
   -0.19354838709678    0.35483870967742    0.00000000000000             2
    0.16129032258065    0.19354838709678    0.00000000000000             2
    0.35483870967742   -0.16129032258065    0.00000000000000             2
    0.22580645161290    0.16129032258065    0.00000000000000             2
   -0.16129032258065    0.38709677419355    0.00000000000000             2
   -0.38709677419355    0.22580645161290    0.00000000000000             2
   -0.22580645161290    0.38709677419355    0.00000000000000             2
    0.16129032258065    0.22580645161290    0.00000000000000             2
    0.38709677419355   -0.16129032258065    0.00000000000000             2
    0.25806451612903    0.16129032258065    0.00000000000000             2
   -0.16129032258065    0.41935483870968    0.00000000000000             2
   -0.41935483870968    0.25806451612903    0.00000000000000             2
   -0.25806451612903    0.41935483870968    0.00000000000000             2
    0.16129032258065    0.25806451612903    0.00000000000000             2
    0.41935483870968   -0.16129032258065    0.00000000000000             2
    0.29032258064516    0.16129032258065    0.00000000000000             2
   -0.16129032258065    0.45161290322581    0.00000000000000             2
   -0.45161290322581    0.29032258064516    0.00000000000000             2
   -0.29032258064516    0.45161290322581    0.00000000000000             2
    0.16129032258065    0.29032258064516    0.00000000000000             2
    0.45161290322581   -0.16129032258065    0.00000000000000             2
    0.32258064516129    0.16129032258065    0.00000000000000             2
   -0.16129032258065    0.48387096774194    0.00000000000000             2
   -0.48387096774194    0.32258064516129    0.00000000000000             2
   -0.32258064516129    0.48387096774194    0.00000000000000             2
    0.16129032258065    0.32258064516129    0.00000000000000             2
    0.48387096774194   -0.16129032258065    0.00000000000000             2
    0.35483870967742    0.16129032258065    0.00000000000000             2
   -0.16129032258065   -0.48387096774194    0.00000000000000             2
    0.48387096774194    0.35483870967742    0.00000000000000             2
   -0.35483870967742   -0.48387096774194    0.00000000000000             2
    0.16129032258065    0.35483870967742    0.00000000000000             2
   -0.48387096774194   -0.16129032258065    0.00000000000000             2
    0.38709677419355    0.16129032258065    0.00000000000000             2
   -0.16129032258065   -0.45161290322580    0.00000000000000             2
    0.45161290322580    0.38709677419355    0.00000000000000             2
   -0.38709677419355   -0.45161290322580    0.00000000000000             2
    0.16129032258065    0.38709677419355    0.00000000000000             2
   -0.45161290322580   -0.16129032258065    0.00000000000000             2
    0.41935483870968    0.16129032258065    0.00000000000000             2
   -0.16129032258065   -0.41935483870967    0.00000000000000             2
    0.41935483870967    0.41935483870968    0.00000000000000             2
    0.19354838709678    0.19354838709678    0.00000000000000             2
   -0.19354838709678    0.38709677419355    0.00000000000000             2
   -0.38709677419355    0.19354838709678    0.00000000000000             2
    0.22580645161290    0.19354838709678    0.00000000000000             2
   -0.19354838709678    0.41935483870968    0.00000000000000             2
   -0.41935483870968    0.22580645161290    0.00000000000000             2
   -0.22580645161290    0.41935483870968    0.00000000000000             2
    0.19354838709678    0.22580645161290    0.00000000000000             2
    0.41935483870968   -0.19354838709678    0.00000000000000             2
    0.25806451612903    0.19354838709678    0.00000000000000             2
   -0.19354838709678    0.45161290322581    0.00000000000000             2
   -0.45161290322581    0.25806451612903    0.00000000000000             2
   -0.25806451612903    0.45161290322581    0.00000000000000             2
    0.19354838709678    0.25806451612903    0.00000000000000             2
    0.45161290322581   -0.19354838709678    0.00000000000000             2
    0.29032258064516    0.19354838709678    0.00000000000000             2
   -0.19354838709678    0.48387096774194    0.00000000000000             2
   -0.48387096774194    0.29032258064516    0.00000000000000             2
   -0.29032258064516    0.48387096774194    0.00000000000000             2
    0.19354838709678    0.29032258064516    0.00000000000000             2
    0.48387096774194   -0.19354838709678    0.00000000000000             2
    0.32258064516129    0.19354838709678    0.00000000000000             2
   -0.19354838709678   -0.48387096774194    0.00000000000000             2