<?xml version="1.0" encoding="ISO-8859-1"?>
<modeling>
 <generator>
  <i name="program" type="string">vasp </i>
  <i name="version" type="string">6.3.2  </i>
  <i name="subversion" type="string">27Jun22 (build Dec 22 2022 13:13:19) complex                          parallel </i>
  <i name="platform" type="string">LinuxIFC </i>
  <i name="date" type="string">2023 08 21 </i>
  <i name="time" type="string">16:49:50 </i>
 </generator>
 <incar>
  <i type="string" name="SYSTEM">Lattice</i>
  <i type="int" name="ISTART">     0</i>
  <i type="string" name="PREC">Accurate</i>
  <i type="string" name="ALGO">Normal</i>
  <i type="int" name="ISPIN">     2</i>
  <i type="int" name="ICHARG">     2</i>
  <i type="int" name="NELM">    64</i>
  <i type="int" name="IBRION">     2</i>
  <i name="EDIFF">      0.00000100</i>
  <i name="EDIFFG">     -0.00100000</i>
  <i type="int" name="NSW">   128</i>
  <i type="int" name="ISIF">     2</i>
  <i name="ENCUT">    450.00000000</i>
  <i name="POTIM">      0.50000000</i>
  <i type="int" name="ISMEAR">     0</i>
  <i name="SIGMA">      0.10000000</i>
  <i type="logical" name="LWAVE"> F  </i>
  <i type="logical" name="LCHARG"> F  </i>
  <i type="string" name="GGA">PE</i>
  <i type="int" name="IVDW">    12</i>
 </incar>
 <primitive_cell>
  <structure name="primitive_cell" >
   <crystal>
    <varray name="basis" >
     <v>       4.25218473       2.45500000       0.00000000 </v>
     <v>      -4.25218473       2.45500000       0.00000000 </v>
     <v>       0.00000000       0.00000000      15.00000000 </v>
    </varray>
    <i name="volume">    313.17340555 </i>
    <varray name="rec_basis" >
     <v>       0.11758661       0.20366599       0.00000000 </v>
     <v>      -0.11758661       0.20366599       0.00000000 </v>
     <v>       0.00000000       0.00000000       0.06666667 </v>
    </varray>
   </crystal>
   <varray name="positions" >
    <v>       0.66888689       0.00000000       0.10000000 </v>
    <v>       0.33111211       0.00000000       0.10000000 </v>
    <v>       0.00000000       0.33111211       0.10000000 </v>
    <v>       0.00000000       0.66888689       0.10000000 </v>
    <v>       0.33111211       0.33111211       0.10000000 </v>
    <v>       0.66888689       0.66888689       0.10000000 </v>
    <v>       0.66666600       0.33333300       0.09922189 </v>
    <v>       0.33333300       0.66666600       0.10077811 </v>
    <v>       0.24999933       0.24999967       0.46906667 </v>
    <v>       0.41666633       0.08333267       0.46906667 </v>
    <v>       0.24999933       0.74999967       0.46906667 </v>
    <v>       0.41666633       0.58333267       0.46906667 </v>
    <v>       0.74999933       0.24999967       0.46906667 </v>
    <v>       0.91666633       0.08333267       0.46906667 </v>
    <v>       0.74999933       0.74999967       0.46906667 </v>
    <v>       0.91666633       0.58333267       0.46906667 </v>
   </varray>
  </structure>
  <varray name="primitive_index" >
   <v type="int" >        1 </v>
   <v type="int" >        2 </v>
   <v type="int" >        3 </v>
   <v type="int" >        4 </v>
   <v type="int" >        5 </v>
   <v type="int" >        6 </v>
   <v type="int" >        7 </v>
   <v type="int" >        8 </v>
   <v type="int" >        9 </v>
   <v type="int" >       10 </v>
   <v type="int" >       11 </v>
   <v type="int" >       12 </v>
   <v type="int" >       13 </v>
   <v type="int" >       14 </v>
   <v type="int" >       15 </v>
   <v type="int" >       16 </v>
  </varray>
 </primitive_cell>
 <kpoints>
  <generation param="Gamma">
   <v type="int" name="divisions">      12       12        1 </v>
   <v name="usershift">      0.00000000       0.00000000       0.00000000 </v>
   <v name="genvec1">      0.08333333      -0.00000000       0.00000000 </v>
   <v name="genvec2">     -0.00000000       0.08333333       0.00000000 </v>
   <v name="genvec3">      0.00000000       0.00000000       1.00000000 </v>
   <v name="shift">      0.00000000       0.00000000       0.00000000 </v>
  </generation>
  <varray name="kpointlist" >
   <v>       0.00000000       0.00000000       0.00000000 </v>
   <v>       0.08333333      -0.00000000       0.00000000 </v>
   <v>      -0.08333333       0.08333333       0.00000000 </v>
   <v>       0.16666667      -0.00000000       0.00000000 </v>
   <v>      -0.16666667       0.16666667       0.00000000 </v>
   <v>       0.25000000      -0.00000000       0.00000000 </v>
   <v>      -0.25000000       0.25000000       0.00000000 </v>
   <v>       0.33333333      -0.00000000       0.00000000 </v>
   <v>      -0.33333333       0.33333333       0.00000000 </v>
   <v>       0.41666667      -0.00000000       0.00000000 </v>
   <v>      -0.41666667       0.41666667       0.00000000 </v>
   <v>       0.50000000      -0.00000000       0.00000000 </v>
   <v>       0.50000000       0.50000000       0.00000000 </v>
   <v>       0.08333333       0.08333333       0.00000000 </v>
   <v>      -0.08333333       0.16666667       0.00000000 </v>
   <v>       0.16666667       0.08333333       0.00000000 </v>
   <v>      -0.08333333       0.25000000       0.00000000 </v>
   <v>      -0.25000000       0.16666667       0.00000000 </v>
   <v>       0.25000000       0.08333333       0.00000000 </v>
   <v>      -0.08333333       0.33333333       0.00000000 </v>
   <v>      -0.33333333       0.25000000       0.00000000 </v>
   <v>       0.33333333       0.08333333       0.00000000 </v>
   <v>      -0.08333333       0.41666667       0.00000000 </v>
   <v>      -0.41666667       0.33333333       0.00000000 </v>
   <v>       0.41666667       0.08333333       0.00000000 </v>
   <v>      -0.08333333       0.50000000       0.00000000 </v>
   <v>       0.50000000       0.41666667       0.00000000 </v>
   <v>       0.16666667       0.16666667       0.00000000 </v>
   <v>      -0.16666667       0.33333333       0.00000000 </v>
   <v>       0.25000000       0.16666667       0.00000000 </v>
   <v>      -0.16666667       0.41666667       0.00000000 </v>
   <v>      -0.41666667       0.25000000       0.00000000 </v>
   <v>       0.33333333       0.16666667       0.00000000 </v>
   <v>      -0.16666667       0.50000000       0.00000000 </v>
   <v>       0.50000000       0.33333333       0.00000000 </v>
   <v>       0.41666667       0.16666667       0.00000000 </v>
   <v>       0.41666667       0.41666667       0.00000000 </v>
   <v>       0.25000000       0.25000000       0.00000000 </v>
   <v>      -0.25000000       0.50000000       0.00000000 </v>
   <v>       0.33333333       0.25000000       0.00000000 </v>
   <v>      -0.25000000      -0.41666667       0.00000000 </v>
   <v>       0.41666667       0.33333333       0.00000000 </v>
   <v>       0.33333333       0.33333333       0.00000000 </v>
  </varray>
  <varray name="weights" >
   <v>       0.00694444 </v>
   <v>       0.02777778 </v>
   <v>       0.01388889 </v>
   <v>       0.02777778 </v>
   <v>       0.01388889 </v>
   <v>       0.02777778 </v>
   <v>       0.01388889 </v>
   <v>       0.02777778 </v>
   <v>       0.01388889 </v>
   <v>       0.02777778 </v>
   <v>       0.01388889 </v>
   <v>       0.01388889 </v>
   <v>       0.00694444 </v>
   <v>       0.01388889 </v>
   <v>       0.02777778 </v>
   <v>       0.02777778 </v>
   <v>       0.02777778 </v>
   <v>       0.02777778 </v>
   <v>       0.02777778 </v>
   <v>       0.02777778 </v>
   <v>       0.02777778 </v>
   <v>       0.02777778 </v>
   <v>       0.02777778 </v>
   <v>       0.02777778 </v>
   <v>       0.02777778 </v>
   <v>       0.02777778 </v>
   <v>       0.02777778 </v>
   <v>       0.01388889 </v>
   <v>       0.02777778 </v>
   <v>       0.02777778 </v>
   <v>       0.02777778 </v>
   <v>       0.02777778 </v>
   <v>       0.02777778 </v>
   <v>       0.02777778 </v>
   <v>       0.02777778 </v>
   <v>       0.02777778 </v>
   <v>       0.01388889 </v>
   <v>       0.01388889 </v>
   <v>       0.02777778 </v>
   <v>       0.02777778 </v>
   <v>       0.02777778 </v>
   <v>       0.02777778 </v>
   <v>       0.01388889 </v>
  </varray>
 </kpoints>
 <parameters>
  <separator name="general" >
   <i type="string" name="SYSTEM">Lattice</i>
   <i type="logical" name="LCOMPAT"> F  </i>
  </separator>
  <separator name="electronic" >
   <i type="string" name="PREC">accura</i>
   <i name="ENMAX">    450.00000000</i>
   <i name="ENAUG">    644.87300000</i>
   <i name="EDIFF">      0.00000100</i>
   <i type="int" name="IALGO">    38</i>
   <i type="int" name="IWAVPR">    11</i>
   <i type="int" name="NBANDS">    48</i>
   <i type="int" name="NBANDSLOW">    -1</i>
   <i type="int" name="NBANDSHIGH">    -1</i>
   <i name="NELECT">     56.00000000</i>
   <i type="int" name="TURBO">     0</i>
   <i type="int" name="IRESTART">     0</i>
   <i type="int" name="NREBOOT">     0</i>
   <i type="int" name="NMIN">     0</i>
   <i name="EREF">      0.00000000</i>
   <separator name="electronic smearing" >
    <i type="int" name="ISMEAR">     0</i>
    <i name="SIGMA">      0.10000000</i>
    <i name="KSPACING">      0.50000000</i>
    <i type="logical" name="KGAMMA"> T  </i>
    <i type="logical" name="KBLOWUP"> T  </i>
   </separator>
   <separator name="electronic projectors" >
    <i type="logical" name="LREAL"> F  </i>
    <v name="ROPT">      0.00000000      0.00000000</v>
    <i type="int" name="LMAXPAW">  -100</i>
    <i type="int" name="LMAXMIX">     2</i>
    <i type="logical" name="NLSPLINE"> F  </i>
   </separator>
   <separator name="electronic startup" >
    <i type="int" name="ISTART">     0</i>
    <i type="int" name="ICHARG">     2</i>
    <i type="int" name="INIWAV">     1</i>
   </separator>
   <separator name="electronic spin" >
    <i type="int" name="ISPIN">     2</i>
    <i type="logical" name="LNONCOLLINEAR"> F  </i>
    <v name="MAGMOM">      1.00000000      1.00000000      1.00000000      1.00000000      1.00000000      1.00000000      1.00000000      1.00000000      1.00000000      1.00000000      1.00000000      1.00000000      1.00000000      1.00000000      1.00000000      1.00000000</v>
    <i name="NUPDOWN">     -1.00000000</i>
    <i type="logical" name="LSORBIT"> F  </i>
    <v name="SAXIS">      0.00000000      0.00000000      1.00000000</v>
    <i type="logical" name="LSPIRAL"> F  </i>
    <v name="QSPIRAL">      0.00000000      0.00000000      0.00000000</v>
    <i type="logical" name="LZEROZ"> F  </i>
   </separator>
   <separator name="electronic exchange-correlation" >
    <i type="logical" name="LASPH"> F  </i>
    <i type="logical" name="LMETAGGA"> F  </i>
   </separator>
   <separator name="electronic convergence" >
    <i type="int" name="NELM">    64</i>
    <i type="int" name="NELMDL">    -5</i>
    <i type="int" name="NELMIN">     2</i>
    <i name="ENINI">    450.00000000</i>
    <separator name="electronic convergence detail" >
     <i type="logical" name="LDIAG"> T  </i>
     <i type="logical" name="LSUBROT"> F  </i>
     <i name="WEIMIN">      0.00100000</i>
     <i name="EBREAK">      0.00000001</i>
     <i name="DEPER">      0.30000000</i>
     <i type="int" name="NRMM">     4</i>
     <i name="TIME">      0.40000000</i>
    </separator>
   </separator>
   <separator name="electronic mixer" >
    <i name="AMIX">      0.40000000</i>
    <i name="BMIX">      1.00000000</i>
    <i name="AMIN">      0.10000000</i>
    <i name="AMIX_MAG">      1.60000000</i>
    <i name="BMIX_MAG">      1.00000000</i>
    <separator name="electronic mixer details" >
     <i type="int" name="IMIX">     4</i>
     <i type="logical" name="MIXFIRST"> F  </i>
     <i type="int" name="MAXMIX">   -45</i>
     <i name="WC">    100.00000000</i>
     <i type="int" name="INIMIX">     1</i>
     <i type="int" name="MIXPRE">     1</i>
     <i type="int" name="MREMOVE">     5</i>
    </separator>
   </separator>
   <separator name="electronic dipolcorrection" >
    <i type="logical" name="LDIPOL"> F  </i>
    <i type="logical" name="LMONO"> F  </i>
    <i type="int" name="IDIPOL">     0</i>
    <i name="EPSILON">      1.00000000</i>
    <v name="DIPOL">   -100.00000000   -100.00000000   -100.00000000</v>
    <i name="EFIELD">      0.00000000</i>
   </separator>
  </separator>
  <separator name="grids" >
   <i type="int" name="NGX">    36</i>
   <i type="int" name="NGY">    36</i>
   <i type="int" name="NGZ">   108</i>
   <i type="int" name="NGXF">    72</i>
   <i type="int" name="NGYF">    72</i>
   <i type="int" name="NGZF">   216</i>
   <i type="logical" name="ADDGRID"> F  </i>
  </separator>
  <separator name="ionic" >
   <i type="int" name="NSW">   128</i>
   <i type="int" name="IBRION">     2</i>
   <i type="int" name="MDALGO">     0</i>
   <i type="int" name="ISIF">     2</i>
   <i name="PSTRESS">      0.00000000</i>
   <i name="EDIFFG">     -0.00100000</i>
   <i type="int" name="NFREE">     1</i>
   <i name="POTIM">      0.50000000</i>
   <i name="SMASS">     -3.00000000</i>
   <i name="SCALEE">      1.00000000</i>
  </separator>
  <separator name="ionic md" >
   <i name="TEBEG">      0.00010000</i>
   <i name="TEEND">      0.00010000</i>
   <i type="int" name="NBLOCK">     1</i>
   <i type="int" name="KBLOCK">   128</i>
   <i type="int" name="NPACO">   256</i>
   <i name="APACO">     10.00000000</i>
  </separator>
  <separator name="symmetry" >
   <i type="int" name="ISYM">     2</i>
   <i name="SYMPREC">      0.00001000</i>
  </separator>
  <separator name="dos" >
   <i type="int" name="LORBIT">     0</i>
   <v name="RWIGS">     -1.00000000     -1.00000000</v>
   <i type="int" name="NEDOS">   301</i>
   <i name="EMIN">     10.00000000</i>
   <i name="EMAX">    -10.00000000</i>
   <i name="EFERMI">      0.00000000</i>
  </separator>
  <separator name="writing" >
   <i type="int" name="NWRITE">     2</i>
   <i type="logical" name="LWAVE"> F  </i>
   <i type="logical" name="LDOWNSAMPLE"> F  </i>
   <i type="logical" name="LCHARG"> F  </i>
   <i type="logical" name="LPARD"> F  </i>
   <i type="logical" name="LVTOT"> F  </i>
   <i type="logical" name="LVHAR"> F  </i>
   <i type="logical" name="LELF"> F  </i>
   <i type="logical" name="LOPTICS"> F  </i>
   <v name="STM">      0.00000000      0.00000000      0.00000000      0.00000000      0.00000000      0.00000000      0.00000000</v>
  </separator>
  <separator name="performance" >
   <i type="int" name="NPAR">    48</i>
   <i type="int" name="NSIM">     4</i>
   <i type="int" name="NBLK">    -1</i>
   <i type="logical" name="LPLANE"> T  </i>
   <i type="logical" name="LSCALAPACK"> T  </i>
   <i type="logical" name="LSCAAWARE"> F  </i>
   <i type="logical" name="LSCALU"> F  </i>
   <i type="logical" name="LASYNC"> F  </i>
   <i type="logical" name="LORBITALREAL"> F  </i>
  </separator>
  <separator name="miscellaneous" >
   <i type="int" name="IDIOT">     3</i>
   <i type="int" name="PHON_NSTRUCT">    -1</i>
   <i type="logical" name="LMUSIC"> F  </i>
   <v name="POMASS">     10.81100000     12.01100000</v>
   <v name="DARWINR">      0.00000000      0.00000000</v>
   <v name="DARWINV">      1.00000000      1.00000000</v>
   <i type="logical" name="LCORR"> T  </i>
  </separator>
  <i type="logical" name="GGA_COMPAT"> T  </i>
  <i type="logical" name="LBERRY"> F  </i>
  <i type="int" name="ICORELEVEL">     0</i>
  <i type="logical" name="LDAU"> F  </i>
  <i type="int" name="I_CONSTRAINED_M">     0</i>
  <separator name="electronic exchange-correlation" >
   <i type="string" name="GGA">PE</i>
   <i type="int" name="VOSKOWN">     0</i>
   <i type="logical" name="LHFCALC"> F  </i>
   <i type="string" name="PRECFOCK"></i>
   <i type="logical" name="LSYMGRAD"> F  </i>
   <i type="logical" name="LHFONE"> F  </i>
   <i type="logical" name="LRHFCALC"> F  </i>
   <i type="logical" name="LTHOMAS"> F  </i>
   <i type="logical" name="LMODELHF"> F  </i>
   <i type="logical" name="LFOCKACE"> F  </i>
   <i name="ENCUT4O">     -1.00000000</i>
   <i type="int" name="EXXOEP">     0</i>
   <i type="int" name="FOURORBIT">     0</i>
   <i name="AEXX">      0.00000000</i>
   <i name="HFALPHA">      0.00000000</i>
   <i name="MCALPHA">      0.00000000</i>
   <i name="ALDAX">      1.00000000</i>
   <i name="AGGAX">      1.00000000</i>
   <i name="ALDAC">      1.00000000</i>
   <i name="AGGAC">      1.00000000</i>
   <i type="int" name="NKREDX">     1</i>
   <i type="int" name="NKREDY">     1</i>
   <i type="int" name="NKREDZ">     1</i>
   <i type="logical" name="SHIFTRED"> F  </i>
   <i type="logical" name="ODDONLY"> F  </i>
   <i type="logical" name="EVENONLY"> F  </i>
   <i type="int" name="LMAXFOCK">     0</i>
   <i type="int" name="NMAXFOCKAE">     0</i>
   <i type="logical" name="LFOCKAEDFT"> F  </i>
   <i name="HFSCREEN">      0.00000000</i>
   <i name="HFSCREENC">      0.00000000</i>
   <i type="int" name="NBANDSGWLOW">     0</i>
  </separator>
  <separator name="vdW DFT" >
   <i type="logical" name="LUSE_VDW"> F  </i>
   <i name="Zab_VDW">     -0.84910000</i>
   <i name="PARAM1">      0.12340000</i>
   <i name="PARAM2">      1.00000000</i>
   <i name="PARAM3">      0.00000000</i>
  </separator>
  <separator name="model GW" >
   <i type="int" name="MODEL_GW">     0</i>
   <i name="MODEL_EPS0">     11.74400271</i>
   <i name="MODEL_ALPHA">      1.00000000</i>
  </separator>
  <separator name="linear response parameters" >
   <i type="logical" name="LEPSILON"> F  </i>
   <i type="logical" name="LRPA"> F  </i>
   <i type="logical" name="LNABLA"> F  </i>
   <i type="logical" name="LVEL"> F  </i>
   <i name="CSHIFT">      0.10000000</i>
   <i name="OMEGAMAX">     -1.00000000</i>
   <i name="DEG_THRESHOLD">      0.00200000</i>
   <i name="RTIME">     -0.10000000</i>
   <i name="WPLASMAI">      0.00000000</i>
   <v name="DFIELD">      0.00000000      0.00000000      0.00000000</v>
   <v name="WPLASMA">      0.00000000      0.00000000      0.00000000      0.00000000      0.00000000      0.00000000      0.00000000      0.00000000      0.00000000</v>
  </separator>
  <separator name="orbital magnetization" >
   <i type="logical" name="NUCIND"> F  </i>
   <v name="MAGPOS">      0.00000000      0.00000000      0.00000000</v>
   <i type="logical" name="LNICSALL"> T  </i>
   <i type="logical" name="ORBITALMAG"> F  </i>
   <i type="logical" name="LMAGBLOCH"> F  </i>
   <i type="logical" name="LCHIMAG"> F  </i>
   <i type="logical" name="LGAUGE"> T  </i>
   <i type="int" name="MAGATOM">     0</i>
   <v name="MAGDIPOL">      0.00000000      0.00000000      0.00000000</v>
   <v name="AVECCONST">      0.00000000      0.00000000      0.00000000</v>
  </separator>
  <separator name="response functions" >
   <i type="logical" name="LFINITE_TEMPERATURE"> F  </i>
   <i type="logical" name="LADDER"> F  </i>
   <i type="logical" name="LRPAFORCE"> F  </i>
   <i type="logical" name="LFXC"> F  </i>
   <i type="logical" name="LHARTREE"> T  </i>
   <i type="int" name="IBSE">     0</i>
   <v type="int" name="KPOINT">    -1     0     0     0</v>
   <i type="logical" name="LTCTC"> F  </i>
   <i type="logical" name="LTCTE"> F  </i>
   <i type="logical" name="LTETE"> F  </i>
   <i type="logical" name="LTRIPLET"> F  </i>
   <i type="logical" name="LFXCEPS"> F  </i>
   <i type="logical" name="LFXHEG"> F  </i>
   <i type="int" name="NATURALO">     2</i>
   <i type="logical" name="LHOLEGF"> F  </i>
   <i type="logical" name="L2ORDER"> F  </i>
   <i type="logical" name="LDMP1"> F  </i>
   <i type="logical" name="LMP2LT"> F  </i>
   <i type="logical" name="LSMP2LT"> F  </i>
   <i type="logical" name="LGWLF"> F  </i>
   <i name="ENCUTGW">     -2.00000000</i>
   <i name="ENCUTGWSOFT">     -2.00000000</i>
   <i name="ENCUTLF">     -1.00000000</i>
   <i type="logical" name="LESF_SPLINES"> F  </i>
   <i type="int" name="LMAXMP2">    -1</i>
   <i name="SCISSOR">      0.00000000</i>
   <i type="int" name="NOMEGA">     0</i>
   <i type="int" name="NOMEGAR">     0</i>
   <i type="int" name="NBANDSGW">    -1</i>
   <i type="int" name="NBANDSO">    -1</i>
   <i type="int" name="NBANDSV">    -1</i>
   <i type="int" name="NELMGW">     1</i>
   <i type="int" name="NELMHF">     1</i>
   <i type="int" name="DIM">     3</i>
   <i type="int" name="IESPILON">     4</i>
   <i type="int" name="ANTIRES">     0</i>
   <i name="OMEGAMAX">    -30.00000000</i>
   <i name="OMEGAMIN">    -30.00000000</i>
   <i name="OMEGATL">   -200.00000000</i>
   <i type="int" name="OMEGAGRID">     0</i>
   <i name="CSHIFT">     -0.10000000</i>
   <i type="logical" name="LSELFENERGY"> F  </i>
   <i type="logical" name="LSPECTRAL"> F  </i>
   <i type="logical" name="LSPECTRALGW"> F  </i>
   <i type="logical" name="LSINGLES"> F  </i>
   <i type="logical" name="LFERMIGW"> F  </i>
   <i type="logical" name="ODDONLYGW"> F  </i>
   <i type="logical" name="EVENONLYGW"> F  </i>
   <i type="int" name="NKREDLFX">     1</i>
   <i type="int" name="NKREDLFY">     1</i>
   <i type="int" name="NKREDLFZ">     1</i>
   <i type="int" name="MAXMEM">  2800</i>
   <i type="int" name="TELESCOPE">     0</i>
   <i type="int" name="NTAUPAR">    -1</i>
   <i type="int" name="NOMEGAPAR">    -1</i>
   <i name="DAMP_NEWTON">      0.80000001</i>
   <i name="LAMBDA">      1.00000000</i>
  </separator>
  <separator name="External order field" >
   <i name="OFIELD_KAPPA">      0.00000000</i>
   <v name="OFIELD_K">      0.00000000      0.00000000      0.00000000</v>
   <i name="OFIELD_Q6_NEAR">      0.00000000</i>
   <i name="OFIELD_Q6_FAR">      0.00000000</i>
   <i name="OFIELD_A">      0.00000000</i>
  </separator>
  <separator name="optional k-points parameters" >
   <i type="int" name="KPOINTS_OPT_MODE">     1</i>
   <i type="logical" name="LKPOINTS_OPT"> F  </i>
  </separator>
  <separator name="solvation model" >
   <i type="logical" name="LSOL"> F  </i>
  </separator>
 </parameters>
 <atominfo>
  <atoms>      16 </atoms>
  <types>       2 </types>
  <array name="atoms" >
   <dimension dim="1">ion</dimension>
   <field type="string">element</field>
   <field type="int">atomtype</field>
   <set>
    <rc><c>B </c><c>   1</c></rc>
    <rc><c>B </c><c>   1</c></rc>
    <rc><c>B </c><c>   1</c></rc>
    <rc><c>B </c><c>   1</c></rc>
    <rc><c>B </c><c>   1</c></rc>
    <rc><c>B </c><c>   1</c></rc>
    <rc><c>B </c><c>   1</c></rc>
    <rc><c>B </c><c>   1</c></rc>
    <rc><c>C </c><c>   2</c></rc>
    <rc><c>C </c><c>   2</c></rc>
    <rc><c>C </c><c>   2</c></rc>
    <rc><c>C </c><c>   2</c></rc>
    <rc><c>C </c><c>   2</c></rc>
    <rc><c>C </c><c>   2</c></rc>
    <rc><c>C </c><c>   2</c></rc>
    <rc><c>C </c><c>   2</c></rc>
   </set>
  </array>
  <array name="atomtypes" >
   <dimension dim="1">type</dimension>
   <field type="int">atomspertype</field>
   <field type="string">element</field>
   <field>mass</field>
   <field>valence</field>
   <field type="string">pseudopotential</field>
   <set>
    <rc><c>   8</c><c>B </c><c>     10.81100000</c><c>      3.00000000</c><c>  PAW_PBE B 06Sep2000                   </c></rc>
    <rc><c>   8</c><c>C </c><c>     12.01100000</c><c>      4.00000000</c><c>  PAW_PBE C 08Apr2002                   </c></rc>
   </set>
  </array>
 </atominfo>
 <structure name="initialpos" >
  <crystal>
   <varray name="basis" >
    <v>       4.25218473       2.45500000       0.00000000 </v>
    <v>      -4.25218473       2.45500000       0.00000000 </v>
    <v>       0.00000000       0.00000000      15.00000000 </v>
   </varray>
   <i name="volume">    313.17340555 </i>
   <varray name="rec_basis" >
    <v>       0.11758661       0.20366599       0.00000000 </v>
    <v>      -0.11758661       0.20366599       0.00000000 </v>
    <v>       0.00000000       0.00000000       0.06666667 </v>
   </varray>
  </crystal>
  <varray name="positions" >
   <v>       0.66888689       0.00000000       0.10000000 </v>
   <v>       0.33111211       0.00000000       0.10000000 </v>
   <v>       0.00000000       0.33111211       0.10000000 </v>
   <v>       0.00000000       0.66888689       0.10000000 </v>
   <v>       0.33111211       0.33111211       0.10000000 </v>
   <v>       0.66888689       0.66888689       0.10000000 </v>
   <v>       0.66666600       0.33333300       0.09922189 </v>
   <v>       0.33333300       0.66666600       0.10077811 </v>
   <v>       0.24999933       0.24999967       0.46906667 </v>
   <v>       0.41666633       0.08333267       0.46906667 </v>
   <v>       0.24999933       0.74999967       0.46906667 </v>
   <v>       0.41666633       0.58333267       0.46906667 </v>
   <v>       0.74999933       0.24999967       0.46906667 </v>
   <v>       0.91666633       0.08333267       0.46906667 </v>
   <v>       0.74999933       0.74999967       0.46906667 </v>
   <v>       0.91666633       0.58333267       0.46906667 </v>
  </varray>
 </structure>
 <calculation>
  <scstep>
   <time name="dav">    3.26    3.29</time>
   <time name="total">    3.31    3.34</time>
   <energy>
    <i name="alphaZ">     62.18227026 </i>
    <i name="ewald">   1976.38672045 </i>
    <i name="hartreedc">  -3379.10364335 </i>
    <i name="XCdc">    164.78198577 </i>
    <i name="pawpsdc">   1214.24570090 </i>
    <i name="pawaedc">  -1211.68112031 </i>
    <i name="eentropy">     -0.02051699 </i>
    <i name="bandstr">   -380.88233043 </i>
    <i name="atom">   1746.50554237 </i>
    <i name="e_fr_energy">    192.41460867 </i>
    <i name="e_wo_entrp">    192.43512566 </i>
    <i name="e_0_energy">    192.42486717 </i>
   </energy>
  </scstep>
  <scstep>
   <time name="dav">    5.07    5.11</time>
   <time name="total">    5.07    5.11</time>
   <energy>
    <i name="e_fr_energy">   -119.19382520 </i>
    <i name="e_wo_entrp">   -119.18297631 </i>
    <i name="e_0_energy">   -119.18840075 </i>
   </energy>
  </scstep>
  <scstep>
   <time name="dav">    6.06    6.12</time>
   <time name="total">    6.07    6.12</time>
   <energy>
    <i name="e_fr_energy">   -128.98353617 </i>
    <i name="e_wo_entrp">   -128.97156092 </i>
    <i name="e_0_energy">   -128.97754854 </i>
   </energy>
  </scstep>
  <scstep>
   <time name="dav">    5.12    5.17</time>
   <time name="total">    5.12    5.17</time>
   <energy>
    <i name="e_fr_energy">   -129.00495556 </i>
    <i name="e_wo_entrp">   -128.99298320 </i>
    <i name="e_0_energy">   -128.99896938 </i>
   </energy>
  </scstep>
  <scstep>
   <time name="dav">    5.57    5.61</time>
   <time name="total">    5.75    5.81</time>
   <energy>
    <i name="e_fr_energy">   -129.00499368 </i>
    <i name="e_wo_entrp">   -128.99302123 </i>
    <i name="e_0_energy">   -128.99900745 </i>
   </energy>
  </scstep>
  <scstep>
   <time name="dav">    4.45    4.49</time>
   <time name="total">    4.69    4.76</time>
   <energy>
    <i name="e_fr_energy">    -94.84494984 </i>
    <i name="e_wo_entrp">    -94.83229259 </i>
    <i name="e_0_energy">    -94.83862122 </i>
   </energy>
  </scstep>
  <scstep>
   <time name="dav">    5.19    5.23</time>
   <time name="total">    5.43    5.48</time>
   <energy>
    <i name="e_fr_energy">   -105.63616160 </i>
    <i name="e_wo_entrp">   -105.62747390 </i>
    <i name="e_0_energy">   -105.63181775 </i>
   </energy>
  </scstep>
  <scstep>
   <time name="dav">    5.19    5.24</time>
   <time name="total">    5.43    5.50</time>
   <energy>
    <i name="e_fr_energy">   -111.38284748 </i>
    <i name="e_wo_entrp">   -111.37429488 </i>
    <i name="e_0_energy">   -111.37857118 </i>
   </energy>
  </scstep>
  <scstep>
   <time name="dav">    5.14    5.18</time>
   <time name="total">    5.38    5.43</time>
   <energy>
    <i name="e_fr_energy">   -116.59372231 </i>
    <i name="e_wo_entrp">   -116.59178022 </i>
    <i name="e_0_energy">   -116.59275127 </i>
   </energy>
  </scstep>
  <scstep>
   <time name="dav">    5.05    5.09</time>
   <time name="total">    5.29    5.34</time>
   <energy>
    <i name="e_fr_energy">   -120.75525721 </i>
    <i name="e_wo_entrp">   -120.75019613 </i>
    <i name="e_0_energy">   -120.75272667 </i>
   </energy>
  </scstep>
  <scstep>
   <time name="dav">    4.97    5.00</time>
   <time name="total">    5.20    5.25</time>
   <energy>
    <i name="e_fr_energy">   -122.51630886 </i>
    <i name="e_wo_entrp">   -122.51307174 </i>
    <i name="e_0_energy">   -122.51469030 </i>
   </energy>
  </scstep>
  <scstep>
   <time name="dav">    5.66    5.70</time>
   <time name="total">    5.89    5.95</time>
   <energy>
    <i name="e_fr_energy">   -123.51856520 </i>
    <i name="e_wo_entrp">   -123.51340956 </i>
    <i name="e_0_energy">   -123.51598738 </i>
   </energy>
  </scstep>
  <scstep>
   <time name="dav">    5.34    5.39</time>
   <time name="total">    5.58    5.63</time>
   <energy>
    <i name="e_fr_energy">   -123.82508804 </i>
    <i name="e_wo_entrp">   -123.81908644 </i>
    <i name="e_0_energy">   -123.82208724 </i>
   </energy>
  </scstep>
  <scstep>
   <time name="dav">    4.62    4.67</time>
   <time name="total">    4.86    4.91</time>
   <energy>
    <i name="e_fr_energy">   -123.87821734 </i>
    <i name="e_wo_entrp">   -123.87219881 </i>
    <i name="e_0_energy">   -123.87520807 </i>
   </energy>
  </scstep>
  <scstep>
   <time name="dav">    4.39    4.42</time>
   <time name="total">    4.62    4.66</time>
   <energy>
    <i name="e_fr_energy">   -123.90150251 </i>
    <i name="e_wo_entrp">   -123.89549628 </i>
    <i name="e_0_energy">   -123.89849939 </i>
   </energy>
  </scstep>
  <scstep>
   <time name="dav">    3.74    3.76</time>
   <time name="total">    3.96    4.00</time>
   <energy>
    <i name="e_fr_energy">   -123.90360114 </i>
    <i name="e_wo_entrp">   -123.89758973 </i>
    <i name="e_0_energy">   -123.90059544 </i>
   </energy>
  </scstep>
  <scstep>
   <time name="dav">    3.55    3.58</time>
   <time name="total">    3.78    3.82</time>
   <energy>
    <i name="e_fr_energy">   -123.90371159 </i>
    <i name="e_wo_entrp">   -123.89769708 </i>
    <i name="e_0_energy">   -123.90070434 </i>
   </energy>
  </scstep>
  <scstep>
   <time name="dav">    3.52    3.54</time>
   <time name="total">    3.75    3.79</time>
   <energy>
    <i name="e_fr_energy">   -123.90376129 </i>
    <i name="e_wo_entrp">   -123.89774249 </i>
    <i name="e_0_energy">   -123.90075189 </i>
   </energy>
  </scstep>
  <scstep>
   <time name="dav">    3.60    3.63</time>
   <time name="total">    3.83    3.88</time>
   <energy>
    <i name="e_fr_energy">   -123.90383133 </i>
    <i name="e_wo_entrp">   -123.89781178 </i>
    <i name="e_0_energy">   -123.90082156 </i>
   </energy>
  </scstep>
  <scstep>
   <time name="dav">    3.86    3.89</time>
   <time name="total">    4.09    4.13</time>
   <energy>
    <i name="e_fr_energy">   -123.90386892 </i>
    <i name="e_wo_entrp">   -123.89785184 </i>
    <i name="e_0_energy">   -123.90086038 </i>
   </energy>
  </scstep>
  <scstep>
   <time name="dav">    3.36    3.38</time>
   <time name="total">    3.58    3.62</time>
   <energy>
    <i name="e_fr_energy">   -123.90392118 </i>
    <i name="e_wo_entrp">   -123.89790527 </i>
    <i name="e_0_energy">   -123.90091323 </i>
   </energy>
  </scstep>
  <scstep>
   <time name="dav">    4.10    4.13</time>
   <time name="total">    4.33    4.38</time>
   <energy>
    <i name="e_fr_energy">   -123.90394533 </i>
    <i name="e_wo_entrp">   -123.89792889 </i>
    <i name="e_0_energy">   -123.90093711 </i>
   </energy>
  </scstep>
  <scstep>
   <time name="dav">    4.87    4.90</time>
   <time name="total">    5.10    5.14</time>
   <energy>
    <i name="e_fr_energy">   -123.90394996 </i>
    <i name="e_wo_entrp">   -123.89793330 </i>
    <i name="e_0_energy">   -123.90094163 </i>
   </energy>
  </scstep>
  <scstep>
   <time name="dav">    4.81    4.85</time>
   <time name="total">    5.04    5.09</time>
   <energy>
    <i name="e_fr_energy">   -123.90395268 </i>
    <i name="e_wo_entrp">   -123.89793599 </i>
    <i name="e_0_energy">   -123.90094433 </i>
   </energy>
  </scstep>
  <scstep>
   <time name="dav">    4.46    4.49</time>
   <time name="total">    4.69    4.73</time>
   <energy>
    <i name="e_fr_energy">   -123.90395420 </i>
    <i name="e_wo_entrp">   -123.89793756 </i>
    <i name="e_0_energy">   -123.90094588 </i>
   </energy>
  </scstep>
  <scstep>
   <time name="dav">    5.70    5.73</time>
   <time name="total">    5.73    5.77</time>
   <energy>
    <i name="alphaZ">     62.18227026 </i>
    <i name="ewald">   1976.38672045 </i>
    <i name="hartreedc">  -3589.34792989 </i>
    <i name="XCdc">    170.04247643 </i>
    <i name="pawpsdc">   6226.59107061 </i>
    <i name="pawaedc">  -6226.13446735 </i>
    <i name="eentropy">     -0.00601656 </i>
    <i name="bandstr">   -490.12362085 </i>
    <i name="atom">   1746.50554237 </i>
    <i name="e_fr_energy">   -123.90395453 </i>
    <i name="e_wo_entrp">   -123.89793797 </i>
    <i name="e_0_energy">   -123.90094625 </i>
   </energy>
  </scstep>
  <structure>
   <crystal>
    <varray name="basis" >
     <v>       4.25218473       2.45500000       0.00000000 </v>
     <v>      -4.25218473       2.45500000       0.00000000 </v>
     <v>       0.00000000       0.00000000      15.00000000 </v>
    </varray>
    <i name="volume">    313.17340555 </i>
    <varray name="rec_basis" >
     <v>       0.11758661       0.20366599       0.00000000 </v>
     <v>      -0.11758661       0.20366599       0.00000000 </v>
     <v>       0.00000000       0.00000000       0.06666667 </v>
    </varray>
   </crystal>
   <varray name="positions" >
    <v>       0.66888689       0.00000000       0.10000000 </v>
    <v>       0.33111211       0.00000000       0.10000000 </v>
    <v>       0.00000000       0.33111211       0.10000000 </v>
    <v>       0.00000000       0.66888689       0.10000000 </v>
    <v>       0.33111211       0.33111211       0.10000000 </v>
    <v>       0.66888689       0.66888689       0.10000000 </v>
    <v>       0.66666600       0.33333300       0.09922189 </v>
    <v>       0.33333300       0.66666600       0.10077811 </v>
    <v>       0.24999933       0.24999967       0.46906667 </v>
    <v>       0.41666633       0.08333267       0.46906667 </v>
    <v>       0.24999933       0.74999967       0.46906667 </v>
    <v>       0.41666633       0.58333267       0.46906667 </v>
    <v>       0.74999933       0.24999967       0.46906667 </v>
    <v>       0.91666633       0.08333267       0.46906667 </v>
    <v>       0.74999933       0.74999967       0.46906667 </v>
    <v>       0.91666633       0.58333267       0.46906667 </v>
   </varray>
  </structure>
  <varray name="forces" >
   <v>       0.31530649       0.18204141       0.00834669 </v>
   <v>      -0.31528026      -0.18203566       0.00836392 </v>
   <v>       0.31530649      -0.18204141       0.00834669 </v>
   <v>      -0.31528026       0.18203566       0.00836392 </v>
   <v>       0.00001202      -0.36409980       0.00836745 </v>
   <v>       0.00001202       0.36409980       0.00836745 </v>
   <v>       0.00002556      -0.00000000       0.00040233 </v>
   <v>      -0.00008237      -0.00000000       0.01745888 </v>
   <v>       0.00006342      -0.00048270      -0.00841702 </v>
   <v>      -0.00045759      -0.00010490      -0.00858898 </v>
   <v>      -0.00006656       0.00000000      -0.00870785 </v>
   <v>       0.00011253       0.00000000      -0.00851875 </v>
   <v>       0.00053931      -0.00000000      -0.00847569 </v>
   <v>       0.00018337       0.00000000      -0.00830305 </v>
   <v>       0.00006342       0.00048270      -0.00841702 </v>
   <v>      -0.00045759       0.00010490      -0.00858898 </v>
  </varray>
  <varray name="stress" >
   <v>      72.97650836       0.00000000      -0.00064778 </v>
   <v>       0.00000000      72.97764849       0.00000000 </v>
   <v>      -0.00064778       0.00000000      -3.73680737 </v>
  </varray>
  <energy>
   <i name="e_fr_energy">   -125.42233286 </i>
   <i name="e_wo_entrp">   -125.41631630 </i>
   <i name="e_0_energy">   -125.41932458 </i>
  </energy>
  <time name="totalsc">  128.66  129.91</time>
 </calculation>
 <calculation>
  <scstep>
   <time name="dav">    3.29    3.32</time>
   <time name="total">    3.53    3.57</time>
   <energy>
    <i name="alphaZ">     62.18227026 </i>
    <i name="ewald">   1973.66879496 </i>
    <i name="hartreedc">  -3588.10564692 </i>
    <i name="XCdc">    169.96940521 </i>
    <i name="pawpsdc">   6226.59332085 </i>
    <i name="pawaedc">  -6226.13672101 </i>
    <i name="eentropy">     -0.00553770 </i>
    <i name="bandstr">   -488.58935617 </i>
    <i name="atom">   1746.50554237 </i>
    <i name="e_fr_energy">   -123.91792816 </i>
    <i name="e_wo_entrp">   -123.91239045 </i>
    <i name="e_0_energy">   -123.91515931 </i>
   </energy>
  </scstep>
  <scstep>
   <time name="dav">    5.15    5.19</time>
   <time name="total">    5.39    5.44</time>
   <energy>
    <i name="e_fr_energy">   -123.90219865 </i>
    <i name="e_wo_entrp">   -123.89638723 </i>
    <i name="e_0_energy">   -123.89929294 </i>
   </energy>
  </scstep>
  <scstep>
   <time name="dav">    5.02    5.06</time>
   <time name="total">    5.25    5.30</time>
   <energy>
    <i name="e_fr_energy">   -123.89983148 </i>
    <i name="e_wo_entrp">   -123.89392826 </i>
    <i name="e_0_energy">   -123.89687987 </i>
   </energy>
  </scstep>
  <scstep>
   <time name="dav">    5.31    5.34</time>
   <time name="total">    5.54    5.58</time>
   <energy>
    <i name="e_fr_energy">   -123.89974557 </i>
    <i name="e_wo_entrp">   -123.89387739 </i>
    <i name="e_0_energy">   -123.89681148 </i>
   </energy>
  </scstep>
  <scstep>
   <time name="dav">    5.20    5.23</time>
   <time name="total">    5.43    5.47</time>
   <energy>
    <i name="e_fr_energy">   -123.89974602 </i>
    <i name="e_wo_entrp">   -123.89387012 </i>
    <i name="e_0_energy">   -123.89680807 </i>
   </energy>
  </scstep>
  <scstep>
   <time name="dav">    3.71    3.73</time>
   <time name="total">    3.94    3.98</time>
   <energy>
    <i name="e_fr_energy">   -123.89974906 </i>
    <i name="e_wo_entrp">   -123.89387519 </i>
    <i name="e_0_energy">   -123.89681212 </i>
   </energy>
  </scstep>
  <scstep>
   <time name="dav">    5.01    5.04</time>
   <time name="total">    5.23    5.28</time>
   <energy>
    <i name="e_fr_energy">   -123.89975302 </i>
    <i name="e_wo_entrp">   -123.89387971 </i>
    <i name="e_0_energy">   -123.89681637 </i>
   </energy>
  </scstep>
  <scstep>
   <time name="dav">    3.79    3.82</time>
   <time name="total">    4.01    4.06</time>
   <energy>
    <i name="e_fr_energy">   -123.89975858 </i>
    <i name="e_wo_entrp">   -123.89388553 </i>
    <i name="e_0_energy">   -123.89682206 </i>
   </energy>
  </scstep>
  <scstep>
   <time name="dav">    3.96    3.99</time>
   <time name="total">    4.19    4.23</time>
   <energy>
    <i name="e_fr_energy">   -123.89976429 </i>
    <i name="e_wo_entrp">   -123.89389127 </i>
    <i name="e_0_energy">   -123.89682778 </i>
   </energy>
  </scstep>
  <scstep>
   <time name="dav">    4.02    4.05</time>
   <time name="total">    4.25    4.29</time>
   <energy>
    <i name="e_fr_energy">   -123.89976770 </i>
    <i name="e_wo_entrp">   -123.89389463 </i>
    <i name="e_0_energy">   -123.89683116 </i>
   </energy>
  </scstep>
  <scstep>
   <time name="dav">    4.12    4.15</time>
   <time name="total">    4.34    4.38</time>
   <energy>
    <i name="e_fr_energy">   -123.89976931 </i>
    <i name="e_wo_entrp">   -123.89389621 </i>
    <i name="e_0_energy">   -123.89683276 </i>
   </energy>
  </scstep>
  <scstep>
   <time name="dav">    5.22    5.25</time>
   <time name="total">    5.26    5.29</time>
   <energy>
    <i name="alphaZ">     62.18227026 </i>
    <i name="ewald">   1973.66879496 </i>
    <i name="hartreedc">  -3586.79626400 </i>
    <i name="XCdc">    169.94561709 </i>
    <i name="pawpsdc">   6189.75871447 </i>
    <i name="pawaedc">  -6189.29146051 </i>
    <i name="eentropy">     -0.00587311 </i>
    <i name="bandstr">   -489.86711120 </i>
    <i name="atom">   1746.50554237 </i>
    <i name="e_fr_energy">   -123.89976967 </i>
    <i name="e_wo_entrp">   -123.89389656 </i>
    <i name="e_0_energy">   -123.89683312 </i>
   </energy>
  </scstep>
  <structure>
   <crystal>
    <varray name="basis" >
     <v>       4.25218473       2.45500000       0.00000000 </v>
     <v>      -4.25218473       2.45500000       0.00000000 </v>
     <v>       0.00000000       0.00000000      15.00000000 </v>
    </varray>
    <i name="volume">    313.17340555 </i>
    <varray name="rec_basis" >
     <v>       0.11758661       0.20366599       0.00000000 </v>
     <v>      -0.11758661       0.20366599       0.00000000 </v>
     <v>       0.00000000       0.00000000       0.06666667 </v>
    </varray>
   </crystal>
   <varray name="positions" >
    <v>       0.67246415      -0.00000001       0.10002684 </v>
    <v>       0.32753505      -0.00000008       0.10002690 </v>
    <v>       0.00000001       0.32753485       0.10002684 </v>
    <v>       0.00000008       0.67246395       0.10002690 </v>
    <v>       0.32753476       0.32753462       0.10002691 </v>
    <v>       0.67246438       0.67246424       0.10002691 </v>
    <v>       0.66666615       0.33333285       0.09922318 </v>
    <v>       0.33333253       0.66666647       0.10083426 </v>
    <v>       0.24999495       0.24999456       0.46903960 </v>
    <v>       0.41666271       0.08333423       0.46903904 </v>
    <v>       0.24999896       0.75000004       0.46903866 </v>
    <v>       0.41666697       0.58333203       0.46903927 </v>
    <v>       0.75000239       0.24999661       0.46903941 </v>
    <v>       0.91666737       0.08333163       0.46903996 </v>
    <v>       0.75000444       0.75000405       0.46903960 </v>
    <v>       0.91666477       0.58333629       0.46903904 </v>
   </varray>
  </structure>
  <varray name="forces" >
   <v>      -0.37267310      -0.21516914       0.00846532 </v>
   <v>       0.37266813       0.21517971       0.00848106 </v>
   <v>      -0.37267310       0.21516914       0.00846532 </v>
   <v>       0.37266813      -0.21517971       0.00848106 </v>
   <v>      -0.00001430       0.43038707       0.00848440 </v>
   <v>      -0.00001430      -0.43038707       0.00848440 </v>
   <v>      -0.00003266       0.00000000       0.00467262 </v>
   <v>       0.00009060      -0.00000000       0.01249598 </v>
   <v>      -0.00040343       0.00140062      -0.00845741 </v>
   <v>       0.00149948       0.00034478      -0.00855367 </v>
   <v>       0.00003744      -0.00000000      -0.00861446 </v>
   <v>      -0.00013446      -0.00000000      -0.00850981 </v>
   <v>      -0.00175307      -0.00000000      -0.00848246 </v>
   <v>      -0.00036139       0.00000000      -0.00840127 </v>
   <v>      -0.00040343      -0.00140062      -0.00845741 </v>
   <v>       0.00149948      -0.00034478      -0.00855367 </v>
  </varray>
  <varray name="stress" >
   <v>      70.00404196       0.00000000      -0.00057446 </v>
   <v>       0.00000000      69.99900684       0.00000000 </v>
   <v>      -0.00057447       0.00000000      -3.73770653 </v>
  </varray>
  <energy>
   <i name="e_fr_energy">   -125.41858158 </i>
   <i name="e_wo_entrp">   -125.41270847 </i>
   <i name="e_0_energy">   -125.41564503 </i>
  </energy>
  <time name="totalsc">   59.40   59.95</time>
 </calculation>
 <calculation>
  <scstep>
   <time name="dav">    3.30    3.33</time>
   <time name="total">    3.54    3.58</time>
   <energy>
    <i name="alphaZ">     62.18227026 </i>
    <i name="ewald">   1975.09988708 </i>
    <i name="hartreedc">  -3587.42675640 </i>
    <i name="XCdc">    169.98391315 </i>
    <i name="pawpsdc">   6189.76016275 </i>
    <i name="pawaedc">  -6189.29290813 </i>
    <i name="eentropy">     -0.00586594 </i>
    <i name="bandstr">   -490.72402952 </i>
    <i name="atom">   1746.50554237 </i>
    <i name="e_fr_energy">   -123.91778439 </i>
    <i name="e_wo_entrp">   -123.91191845 </i>
    <i name="e_0_energy">   -123.91485142 </i>
   </energy>
  </scstep>
  <scstep>
   <time name="dav">    4.93    4.96</time>
   <time name="total">    5.15    5.20</time>
   <energy>
    <i name="e_fr_energy">   -123.91315166 </i>
    <i name="e_wo_entrp">   -123.90722115 </i>
    <i name="e_0_energy">   -123.91018641 </i>
   </energy>
  </scstep>
  <scstep>
   <time name="dav">    5.83    5.87</time>
   <time name="total">    6.06    6.11</time>
   <energy>
    <i name="e_fr_energy">   -123.91245301 </i>
    <i name="e_wo_entrp">   -123.90648984 </i>
    <i name="e_0_energy">   -123.90947143 </i>
   </energy>
  </scstep>
  <scstep>
   <time name="dav">    4.73    4.76</time>
   <time name="total">    4.96    5.00</time>
   <energy>
    <i name="e_fr_energy">   -123.91242705 </i>
    <i name="e_wo_entrp">   -123.90645548 </i>
    <i name="e_0_energy">   -123.90944126 </i>
   </energy>
  </scstep>
  <scstep>
   <time name="dav">    6.26    6.30</time>
   <time name="total">    6.49    6.53</time>
   <energy>
    <i name="e_fr_energy">   -123.91242710 </i>
    <i name="e_wo_entrp">   -123.90645732 </i>
    <i name="e_0_energy">   -123.90944221 </i>
   </energy>
  </scstep>
  <scstep>
   <time name="dav">    3.87    3.90</time>
   <time name="total">    3.90    3.94</time>
   <energy>
    <i name="alphaZ">     62.18227026 </i>
    <i name="ewald">   1975.09988708 </i>
    <i name="hartreedc">  -3588.11345180 </i>
    <i name="XCdc">    169.99633681 </i>
    <i name="pawpsdc">   6209.15673921 </i>
    <i name="pawaedc">  -6208.69483266 </i>
    <i name="eentropy">     -0.00596988 </i>
    <i name="bandstr">   -490.03894886 </i>
    <i name="atom">   1746.50554237 </i>
    <i name="e_fr_energy">   -123.91242747 </i>
    <i name="e_wo_entrp">   -123.90645759 </i>
    <i name="e_0_energy">   -123.90944253 </i>
   </energy>
  </scstep>
  <structure>
   <crystal>
    <varray name="basis" >
     <v>       4.25218473       2.45500000       0.00000000 </v>
     <v>      -4.25218473       2.45500000       0.00000000 </v>
     <v>       0.00000000       0.00000000      15.00000000 </v>
    </varray>
    <i name="volume">    313.17340555 </i>
    <varray name="rec_basis" >
     <v>       0.11758661       0.20366599       0.00000000 </v>
     <v>      -0.11758661       0.20366599       0.00000000 </v>
     <v>       0.00000000       0.00000000       0.06666667 </v>
    </varray>
   </crystal>
   <varray name="positions" >
    <v>       0.67050858      -0.00000000       0.10001217 </v>
    <v>       0.32949052      -0.00000004       0.10001219 </v>
    <v>       0.00000000       0.32949042       0.10001217 </v>
    <v>       0.00000004       0.67050848       0.10001219 </v>
    <v>       0.32949038       0.32949032       0.10001220 </v>
    <v>       0.67050868       0.67050862       0.10001220 </v>
    <v>       0.66666607       0.33333293       0.09922247 </v>
    <v>       0.33333279       0.66666621       0.10080357 </v>
    <v>       0.24999735       0.24999735       0.46905439 </v>
    <v>       0.41666469       0.08333338       0.46905414 </v>
    <v>       0.24999916       0.74999984       0.46905397 </v>
    <v>       0.41666662       0.58333238       0.46905425 </v>
    <v>       0.75000072       0.24999828       0.46905431 </v>
    <v>       0.91666680       0.08333220       0.46905456 </v>
    <v>       0.75000165       0.75000165       0.46905439 </v>
    <v>       0.91666562       0.58333431       0.46905414 </v>
   </varray>
  </structure>
  <varray name="forces" >
   <v>      -0.00029708      -0.00017375       0.00838460 </v>
   <v>       0.00030861       0.00018247       0.00840126 </v>
   <v>      -0.00029708       0.00017375       0.00838460 </v>
   <v>       0.00030861      -0.00018247       0.00840126 </v>
   <v>      -0.00000024       0.00036361       0.00840465 </v>
   <v>      -0.00000024      -0.00036361       0.00840465 </v>
   <v>      -0.00000053       0.00000000       0.00229371 </v>
   <v>      -0.00000260       0.00000000       0.01516253 </v>
   <v>      -0.00014824       0.00037049      -0.00841262 </v>
   <v>       0.00042968       0.00009833      -0.00854962 </v>
   <v>      -0.00002048       0.00000000      -0.00864155 </v>
   <v>       0.00000054       0.00000000      -0.00849097 </v>
   <v>      -0.00049985       0.00000000      -0.00845508 </v>
   <v>      -0.00006252       0.00000000      -0.00832517 </v>
   <v>      -0.00014824      -0.00037049      -0.00841262 </v>
   <v>       0.00042968      -0.00009833      -0.00854962 </v>
  </varray>
  <varray name="stress" >
   <v>      71.44749218       0.00000000      -0.00062843 </v>
   <v>       0.00000000      71.44584706       0.00000000 </v>
   <v>      -0.00062842       0.00000000      -3.71114925 </v>
  </varray>
  <energy>
   <i name="e_fr_energy">   -125.43100693 </i>
   <i name="e_wo_entrp">   -125.42503705 </i>
   <i name="e_0_energy">   -125.42802199 </i>
  </energy>
  <time name="totalsc">   33.15   33.42</time>
 </calculation>
 <calculation>
  <scstep>
   <time name="dav">    4.34    4.37</time>
   <time name="total">    4.57    4.62</time>
   <energy>
    <i name="alphaZ">     62.18227026 </i>
    <i name="ewald">   1975.09911231 </i>
    <i name="hartreedc">  -3588.12263254 </i>
    <i name="XCdc">    169.99644477 </i>
    <i name="pawpsdc">   6209.18264561 </i>
    <i name="pawaedc">  -6208.72076525 </i>
    <i name="eentropy">     -0.00597052 </i>
    <i name="bandstr">   -490.02907544 </i>
    <i name="atom">   1746.50554237 </i>
    <i name="e_fr_energy">   -123.91242843 </i>
    <i name="e_wo_entrp">   -123.90645791 </i>
    <i name="e_0_energy">   -123.90944317 </i>
   </energy>
  </scstep>
  <scstep>
   <time name="dav">    4.54    4.57</time>
   <time name="total">    4.57    4.60</time>
   <energy>
    <i name="alphaZ">     62.18227026 </i>
    <i name="ewald">   1975.09911231 </i>
    <i name="hartreedc">  -3588.12526411 </i>
    <i name="XCdc">    169.99648464 </i>
    <i name="pawpsdc">   6209.14449300 </i>
    <i name="pawaedc">  -6208.68260811 </i>
    <i name="eentropy">     -0.00597055 </i>
    <i name="bandstr">   -490.02648871 </i>
    <i name="atom">   1746.50554237 </i>
    <i name="e_fr_energy">   -123.91242889 </i>
    <i name="e_wo_entrp">   -123.90645834 </i>
    <i name="e_0_energy">   -123.90944362 </i>
   </energy>
  </scstep>
  <structure>
   <crystal>
    <varray name="basis" >
     <v>       4.25218473       2.45500000       0.00000000 </v>
     <v>      -4.25218473       2.45500000       0.00000000 </v>
     <v>       0.00000000       0.00000000      15.00000000 </v>
    </varray>
    <i name="volume">    313.17340555 </i>
    <varray name="rec_basis" >
     <v>       0.11758661       0.20366599       0.00000000 </v>
     <v>      -0.11758661       0.20366599       0.00000000 </v>
     <v>       0.00000000       0.00000000       0.06666667 </v>
    </varray>
   </crystal>
   <varray name="positions" >
    <v>       0.67050959      -0.00000000       0.10001218 </v>
    <v>       0.32948950      -0.00000004       0.10001220 </v>
    <v>       0.00000000       0.32948941       0.10001218 </v>
    <v>       0.00000004       0.67050950       0.10001220 </v>
    <v>       0.32948937       0.32948931       0.10001221 </v>
    <v>       0.67050969       0.67050963       0.10001221 </v>
    <v>       0.66666607       0.33333293       0.09922247 </v>
    <v>       0.33333279       0.66666621       0.10080358 </v>
    <v>       0.24999735       0.24999735       0.46905439 </v>
    <v>       0.41666469       0.08333338       0.46905414 </v>
    <v>       0.24999916       0.74999984       0.46905396 </v>
    <v>       0.41666662       0.58333238       0.46905424 </v>
    <v>       0.75000072       0.24999828       0.46905430 </v>
    <v>       0.91666681       0.08333219       0.46905455 </v>
    <v>       0.75000165       0.75000165       0.46905439 </v>
    <v>       0.91666562       0.58333431       0.46905414 </v>
   </varray>
  </structure>
  <varray name="forces" >
   <v>      -0.00058088      -0.00033900       0.00838860 </v>
   <v>       0.00059267       0.00034727       0.00840514 </v>
   <v>      -0.00058088       0.00033900       0.00838860 </v>
   <v>       0.00059267      -0.00034727       0.00840514 </v>
   <v>      -0.00000052       0.00069285       0.00840872 </v>
   <v>      -0.00000052      -0.00069285       0.00840872 </v>
   <v>      -0.00000122      -0.00000000       0.00231650 </v>
   <v>      -0.00000197      -0.00000000       0.01517154 </v>
   <v>      -0.00014874       0.00037077      -0.00841915 </v>
   <v>       0.00042998       0.00009879      -0.00855687 </v>
   <v>      -0.00002026       0.00000000      -0.00864916 </v>
   <v>       0.00000100       0.00000000      -0.00849828 </v>
   <v>      -0.00049997      -0.00000000      -0.00846234 </v>
   <v>      -0.00006258      -0.00000000      -0.00833112 </v>
   <v>      -0.00014874      -0.00037077      -0.00841915 </v>
   <v>       0.00042998      -0.00009879      -0.00855687 </v>
  </varray>
  <varray name="stress" >
   <v>      71.44603309       0.00000000      -0.00062787 </v>
   <v>       0.00000000      71.44440324       0.00000000 </v>
   <v>      -0.00062786       0.00000000      -3.72670206 </v>
  </varray>
  <energy>
   <i name="e_fr_energy">   -125.43100848 </i>
   <i name="e_wo_entrp">   -125.42503793 </i>
   <i name="e_0_energy">   -125.42802320 </i>
  </energy>
  <time name="totalsc">   12.19   12.28</time>
 </calculation>
 <calculation>
  <scstep>
   <time name="dav">    3.30    3.32</time>
   <time name="total">    3.53    3.56</time>
   <energy>
    <i name="alphaZ">     62.18227026 </i>
    <i name="ewald">   1975.73486774 </i>
    <i name="hartreedc">  -3588.76423992 </i>
    <i name="XCdc">    169.99650644 </i>
    <i name="pawpsdc">   6209.11637062 </i>
    <i name="pawaedc">  -6208.65448147 </i>
    <i name="eentropy">     -0.00597068 </i>
    <i name="bandstr">   -490.02330526 </i>
    <i name="atom">   1746.50554237 </i>
    <i name="e_fr_energy">   -123.91243989 </i>
    <i name="e_wo_entrp">   -123.90646921 </i>
    <i name="e_0_energy">   -123.90945455 </i>
   </energy>
  </scstep>
  <scstep>
   <time name="dav">    4.00    4.03</time>
   <time name="total">    4.23    4.27</time>
   <energy>
    <i name="e_fr_energy">   -123.91243852 </i>
    <i name="e_wo_entrp">   -123.90646772 </i>
    <i name="e_0_energy">   -123.90945312 </i>
   </energy>
  </scstep>
  <scstep>
   <time name="dav">    4.68    4.71</time>
   <time name="total">    4.71    4.75</time>
   <energy>
    <i name="alphaZ">     62.18227026 </i>
    <i name="ewald">   1975.73486774 </i>
    <i name="hartreedc">  -3588.77737553 </i>
    <i name="XCdc">    169.99658588 </i>
    <i name="pawpsdc">   6209.07227264 </i>
    <i name="pawaedc">  -6208.61037485 </i>
    <i name="eentropy">     -0.00597073 </i>
    <i name="bandstr">   -490.01025585 </i>
    <i name="atom">   1746.50554237 </i>
    <i name="e_fr_energy">   -123.91243806 </i>
    <i name="e_wo_entrp">   -123.90646733 </i>
    <i name="e_0_energy">   -123.90945269 </i>
   </energy>
  </scstep>
  <structure>
   <crystal>
    <varray name="basis" >
     <v>       4.25218473       2.45500000       0.00000000 </v>
     <v>      -4.25218473       2.45500000       0.00000000 </v>
     <v>       0.00000000       0.00000000      15.00000000 </v>
    </varray>
    <i name="volume">    313.17340555 </i>
    <varray name="rec_basis" >
     <v>       0.11758661       0.20366599       0.00000000 </v>
     <v>      -0.11758661       0.20366599       0.00000000 </v>
     <v>       0.00000000       0.00000000       0.06666667 </v>
    </varray>
   </crystal>
   <varray name="positions" >
    <v>       0.67050957      -0.00000004       0.10003625 </v>
    <v>       0.32948966       0.00000001       0.10003632 </v>
    <v>       0.00000004       0.32948943       0.10003625 </v>
    <v>      -0.00000001       0.67050934       0.10003632 </v>
    <v>       0.32948955       0.32948949       0.10003634 </v>
    <v>       0.67050951       0.67050945       0.10003634 </v>
    <v>       0.66666606       0.33333294       0.09922911 </v>
    <v>       0.33333278       0.66666622       0.10084714 </v>
    <v>       0.24999983       0.25000134       0.46903022 </v>
    <v>       0.41666772       0.08333207       0.46902958 </v>
    <v>       0.24999906       0.74999994       0.46902914 </v>
    <v>       0.41666663       0.58333237       0.46902985 </v>
    <v>       0.74999820       0.25000080       0.46903001 </v>
    <v>       0.91666649       0.08333251       0.46903064 </v>
    <v>       0.74999766       0.74999917       0.46903022 </v>
    <v>       0.91666693       0.58333128       0.46902958 </v>
   </varray>
  </structure>
  <varray name="forces" >
   <v>      -0.00063670      -0.00037425       0.00810394 </v>
   <v>       0.00064421       0.00035801       0.00811940 </v>
   <v>      -0.00063670       0.00037425       0.00810394 </v>
   <v>       0.00064421      -0.00035801       0.00811940 </v>
   <v>      -0.00000039       0.00073267       0.00812300 </v>
   <v>      -0.00000039      -0.00073267       0.00812300 </v>
   <v>       0.00000937      -0.00000000       0.00196708 </v>
   <v>      -0.00000579      -0.00000000       0.01511327 </v>
   <v>       0.00059082      -0.00098559      -0.00818161 </v>
   <v>      -0.00132267      -0.00030065      -0.00826316 </v>
   <v>       0.00019574      -0.00000000      -0.00831340 </v>
   <v>      -0.00021595      -0.00000000      -0.00823135 </v>
   <v>       0.00148097       0.00000000      -0.00820942 </v>
   <v>      -0.00001488      -0.00000000      -0.00812930 </v>
   <v>       0.00059082       0.00098559      -0.00818161 </v>
   <v>      -0.00132267       0.00030065      -0.00826316 </v>
  </varray>
  <varray name="stress" >
   <v>      71.44251098       0.00000000      -0.00062489 </v>
   <v>       0.00000000      71.44699369       0.00000000 </v>
   <v>      -0.00062488       0.00000000      -3.73393148 </v>
  </varray>
  <energy>
   <i name="e_fr_energy">   -125.43106286 </i>
   <i name="e_wo_entrp">   -125.42509214 </i>
   <i name="e_0_energy">   -125.42807750 </i>
  </energy>
  <time name="totalsc">   15.50   15.64</time>
 </calculation>
 <calculation>
  <scstep>
   <time name="dav">    3.28    3.30</time>
   <time name="total">    3.51    3.55</time>
   <energy>
    <i name="alphaZ">     62.18227026 </i>
    <i name="ewald">   1977.64336193 </i>
    <i name="hartreedc">  -3590.68584777 </i>
    <i name="XCdc">    169.99653500 </i>
    <i name="pawpsdc">   6209.07246017 </i>
    <i name="pawaedc">  -6208.61056117 </i>
    <i name="eentropy">     -0.00597107 </i>
    <i name="bandstr">   -490.01027470 </i>
    <i name="atom">   1746.50554237 </i>
    <i name="e_fr_energy">   -123.91248499 </i>
    <i name="e_wo_entrp">   -123.90651392 </i>
    <i name="e_0_energy">   -123.90949945 </i>
   </energy>
  </scstep>
  <scstep>
   <time name="dav">    3.55    3.57</time>
   <time name="total">    3.78    3.81</time>
   <energy>
    <i name="e_fr_energy">   -123.91246855 </i>
    <i name="e_wo_entrp">   -123.90649717 </i>
    <i name="e_0_energy">   -123.90948286 </i>
   </energy>
  </scstep>
  <scstep>
   <time name="dav">    4.62    4.65</time>
   <time name="total">    4.84    4.88</time>
   <energy>
    <i name="e_fr_energy">   -123.91246145 </i>
    <i name="e_wo_entrp">   -123.90649036 </i>
    <i name="e_0_energy">   -123.90947590 </i>
   </energy>
  </scstep>
  <scstep>
   <time name="dav">    4.38    4.41</time>
   <time name="total">    4.42    4.45</time>
   <energy>
    <i name="alphaZ">     62.18227026 </i>
    <i name="ewald">   1977.64336193 </i>
    <i name="hartreedc">  -3590.70442120 </i>
    <i name="XCdc">    169.99661379 </i>
    <i name="pawpsdc">   6209.06356476 </i>
    <i name="pawaedc">  -6208.60165150 </i>
    <i name="eentropy">     -0.00597103 </i>
    <i name="bandstr">   -489.99177136 </i>
    <i name="atom">   1746.50554237 </i>
    <i name="e_fr_energy">   -123.91246198 </i>
    <i name="e_wo_entrp">   -123.90649095 </i>
    <i name="e_0_energy">   -123.90947647 </i>
   </energy>
  </scstep>
  <structure>
   <crystal>
    <varray name="basis" >
     <v>       4.25218473       2.45500000       0.00000000 </v>
     <v>      -4.25218473       2.45500000       0.00000000 </v>
     <v>       0.00000000       0.00000000      15.00000000 </v>
    </varray>
    <i name="volume">    313.17340555 </i>
    <varray name="rec_basis" >
     <v>       0.11758661       0.20366599       0.00000000 </v>
     <v>      -0.11758661       0.20366599       0.00000000 </v>
     <v>       0.00000000       0.00000000       0.06666667 </v>
    </varray>
   </crystal>
   <varray name="positions" >
    <v>       0.67050950      -0.00000013       0.10010848 </v>
    <v>       0.32949012       0.00000014       0.10010869 </v>
    <v>       0.00000013       0.32948950       0.10010848 </v>
    <v>      -0.00000014       0.67050888       0.10010869 </v>
    <v>       0.32949009       0.32949005       0.10010874 </v>
    <v>       0.67050895       0.67050891       0.10010874 </v>
    <v>       0.66666604       0.33333296       0.09924903 </v>
    <v>       0.33333275       0.66666625       0.10097780 </v>
    <v>       0.25000729       0.25001330       0.46895773 </v>
    <v>       0.41667681       0.08332815       0.46895590 </v>
    <v>       0.24999875       0.75000025       0.46895467 </v>
    <v>       0.41666665       0.58333235       0.46895668 </v>
    <v>       0.74999064       0.25000836       0.46895715 </v>
    <v>       0.91666555       0.08333345       0.46895891 </v>
    <v>       0.74998570       0.74999171       0.46895773 </v>
    <v>       0.91667085       0.58332219       0.46895590 </v>
   </varray>
  </structure>
  <varray name="forces" >
   <v>      -0.00067151      -0.00040291       0.00842176 </v>
   <v>       0.00066443       0.00031968       0.00843556 </v>
   <v>      -0.00067151       0.00040291       0.00842176 </v>
   <v>       0.00066443      -0.00031968       0.00843556 </v>
   <v>       0.00000253       0.00070190       0.00843768 </v>
   <v>       0.00000253      -0.00070190       0.00843768 </v>
   <v>       0.00004232      -0.00000000       0.00173831 </v>
   <v>      -0.00001279      -0.00000000       0.01586951 </v>
   <v>       0.00280659      -0.00486099      -0.00856194 </v>
   <v>      -0.00647533      -0.00141360      -0.00848374 </v>
   <v>       0.00096144      -0.00000000      -0.00841662 </v>
   <v>      -0.00092690      -0.00000000      -0.00852890 </v>
   <v>       0.00731240      -0.00000000      -0.00854438 </v>
   <v>      -0.00002991      -0.00000000      -0.00861657 </v>
   <v>       0.00280659       0.00486099      -0.00856194 </v>
   <v>      -0.00647533       0.00141360      -0.00848374 </v>
  </varray>
  <varray name="stress" >
   <v>      71.42950207       0.00000000      -0.00063248 </v>
   <v>       0.00000000      71.45663695       0.00000000 </v>
   <v>      -0.00063251       0.00000000      -3.74185320 </v>
  </varray>
  <energy>
   <i name="e_fr_energy">   -125.43122271 </i>
   <i name="e_wo_entrp">   -125.42525169 </i>
   <i name="e_0_energy">   -125.42823720 </i>
  </energy>
  <time name="totalsc">   19.59   19.77</time>
 </calculation>
 <calculation>
  <scstep>
   <time name="dav">    3.28    3.30</time>
   <time name="total">    3.50    3.54</time>
   <energy>
    <i name="alphaZ">     62.18227026 </i>
    <i name="ewald">   1981.46587587 </i>
    <i name="hartreedc">  -3594.52325846 </i>
    <i name="XCdc">    169.99647860 </i>
    <i name="pawpsdc">   6209.05221706 </i>
    <i name="pawaedc">  -6208.59030517 </i>
    <i name="eentropy">     -0.00597169 </i>
    <i name="bandstr">   -489.99544834 </i>
    <i name="atom">   1746.50554237 </i>
    <i name="e_fr_energy">   -123.91259950 </i>
    <i name="e_wo_entrp">   -123.90662781 </i>
    <i name="e_0_energy">   -123.90961365 </i>
   </energy>
  </scstep>
  <scstep>
   <time name="dav">    3.54    3.57</time>
   <time name="total">    3.76    3.80</time>
   <energy>
    <i name="e_fr_energy">   -123.91253533 </i>
    <i name="e_wo_entrp">   -123.90656306 </i>
    <i name="e_0_energy">   -123.90954919 </i>
   </energy>
  </scstep>
  <scstep>
   <time name="dav">    4.83    4.86</time>
   <time name="total">    5.05    5.09</time>
   <energy>
    <i name="e_fr_energy">   -123.91250402 </i>
    <i name="e_wo_entrp">   -123.90653232 </i>
    <i name="e_0_energy">   -123.90951817 </i>
   </energy>
  </scstep>
  <scstep>
   <time name="dav">    4.53    4.56</time>
   <time name="total">    4.76    4.80</time>
   <energy>
    <i name="e_fr_energy">   -123.91250490 </i>
    <i name="e_wo_entrp">   -123.90653334 </i>
    <i name="e_0_energy">   -123.90951912 </i>
   </energy>
  </scstep>
  <scstep>
   <time name="dav">    3.31    3.33</time>
   <time name="total">    3.35    3.37</time>
   <energy>
    <i name="alphaZ">     62.18227026 </i>
    <i name="ewald">   1981.46587587 </i>
    <i name="hartreedc">  -3594.54251514 </i>
    <i name="XCdc">    169.99657995 </i>
    <i name="pawpsdc">   6209.00958641 </i>
    <i name="pawaedc">  -6208.54765253 </i>
    <i name="eentropy">     -0.00597156 </i>
    <i name="bandstr">   -489.97622112 </i>
    <i name="atom">   1746.50554237 </i>
    <i name="e_fr_energy">   -123.91250549 </i>
    <i name="e_wo_entrp">   -123.90653393 </i>
    <i name="e_0_energy">   -123.90951971 </i>
   </energy>
  </scstep>
  <structure>
   <crystal>
    <varray name="basis" >
     <v>       4.25218473       2.45500000       0.00000000 </v>
     <v>      -4.25218473       2.45500000       0.00000000 </v>
     <v>       0.00000000       0.00000000      15.00000000 </v>
    </varray>
    <i name="volume">    313.17340555 </i>
    <varray name="rec_basis" >
     <v>       0.11758661       0.20366599       0.00000000 </v>
     <v>      -0.11758661       0.20366599       0.00000000 </v>
     <v>       0.00000000       0.00000000       0.06666667 </v>
    </varray>
   </crystal>
   <varray name="positions" >
    <v>       0.67050937      -0.00000032       0.10025293 </v>
    <v>       0.32949105       0.00000041       0.10025343 </v>
    <v>       0.00000032       0.32948963       0.10025293 </v>
    <v>      -0.00000041       0.67050795       0.10025343 </v>
    <v>       0.32949118       0.32949117       0.10025354 </v>
    <v>       0.67050783       0.67050782       0.10025354 </v>
    <v>       0.66666601       0.33333299       0.09928886 </v>
    <v>       0.33333268       0.66666632       0.10123913 </v>
    <v>       0.25002221       0.25003723       0.46881276 </v>
    <v>       0.41669500       0.08332032       0.46880855 </v>
    <v>       0.24999813       0.75000087       0.46880573 </v>
    <v>       0.41666668       0.58333232       0.46881034 </v>
    <v>       0.74997551       0.25002349       0.46881143 </v>
    <v>       0.91666366       0.08333534       0.46881545 </v>
    <v>       0.74996177       0.74997679       0.46881276 </v>
    <v>       0.91667868       0.58330400       0.46880855 </v>
   </varray>
  </structure>
  <varray name="forces" >
   <v>      -0.00076827      -0.00045831       0.00836193 </v>
   <v>       0.00071564       0.00026382       0.00837221 </v>
   <v>      -0.00076827       0.00045831       0.00836193 </v>
   <v>       0.00071564      -0.00026382       0.00837221 </v>
   <v>       0.00002262       0.00065904       0.00837116 </v>
   <v>       0.00002262      -0.00065904       0.00837116 </v>
   <v>       0.00010883       0.00000000       0.00073739 </v>
   <v>      -0.00002903       0.00000000       0.01645204 </v>
   <v>       0.00727763      -0.01268788      -0.00861782 </v>
   <v>      -0.01685059      -0.00368481      -0.00821362 </v>
   <v>       0.00247394       0.00000000      -0.00791215 </v>
   <v>      -0.00236677       0.00000000      -0.00842193 </v>
   <v>       0.01905094       0.00000000      -0.00850761 </v>
   <v>      -0.00003195       0.00000000      -0.00889546 </v>
   <v>       0.00727763       0.01268788      -0.00861782 </v>
   <v>      -0.01685059       0.00368481      -0.00821362 </v>
  </varray>
  <varray name="stress" >
   <v>      71.40162393       0.00000000      -0.00063583 </v>
   <v>       0.00000000      71.47554793       0.00000000 </v>
   <v>      -0.00063584       0.00000000      -3.75367967 </v>
  </varray>
  <energy>
   <i name="e_fr_energy">   -125.43153866 </i>
   <i name="e_wo_entrp">   -125.42556710 </i>
   <i name="e_0_energy">   -125.42855288 </i>
  </energy>
  <time name="totalsc">   23.45   23.66</time>
 </calculation>
 <calculation>
  <scstep>
   <time name="dav">    3.28    3.31</time>
   <time name="total">    3.50    3.55</time>
   <energy>
    <i name="alphaZ">     62.18227026 </i>
    <i name="ewald">   1989.13300639 </i>
    <i name="hartreedc">  -3602.20673458 </i>
    <i name="XCdc">    169.99620774 </i>
    <i name="pawpsdc">   6208.99939005 </i>
    <i name="pawaedc">  -6208.53745721 </i>
    <i name="eentropy">     -0.00597274 </i>
    <i name="bandstr">   -489.97920818 </i>
    <i name="atom">   1746.50554237 </i>
    <i name="e_fr_energy">   -123.91295590 </i>
    <i name="e_wo_entrp">   -123.90698316 </i>
    <i name="e_0_energy">   -123.90996953 </i>
   </energy>
  </scstep>
  <scstep>
   <time name="dav">    3.37    3.39</time>
   <time name="total">    3.59    3.63</time>
   <energy>
    <i name="e_fr_energy">   -123.91271684 </i>
    <i name="e_wo_entrp">   -123.90674302 </i>
    <i name="e_0_energy">   -123.90972993 </i>
   </energy>
  </scstep>
  <scstep>
   <time name="dav">    4.42    4.45</time>
   <time name="total">    4.64    4.68</time>
   <energy>
    <i name="e_fr_energy">   -123.91258069 </i>
    <i name="e_wo_entrp">   -123.90660797 </i>
    <i name="e_0_energy">   -123.90959433 </i>
   </energy>
  </scstep>
  <scstep>
   <time name="dav">    5.90    5.93</time>
   <time name="total">    6.12    6.17</time>
   <energy>
    <i name="e_fr_energy">   -123.91258297 </i>
    <i name="e_wo_entrp">   -123.90661052 </i>
    <i name="e_0_energy">   -123.90959674 </i>
   </energy>
  </scstep>
  <scstep>
   <time name="dav">    3.71    3.74</time>
   <time name="total">    3.94    3.98</time>
   <energy>
    <i name="e_fr_energy">   -123.91258174 </i>
    <i name="e_wo_entrp">   -123.90660931 </i>
    <i name="e_0_energy">   -123.90959553 </i>
   </energy>
  </scstep>
  <scstep>
   <time name="dav">    4.37    4.41</time>
   <time name="total">    4.40    4.44</time>
   <energy>
    <i name="alphaZ">     62.18227026 </i>
    <i name="ewald">   1989.13300639 </i>
    <i name="hartreedc">  -3602.23425269 </i>
    <i name="XCdc">    169.99638631 </i>
    <i name="pawpsdc">   6208.84972197 </i>
    <i name="pawaedc">  -6208.38774327 </i>
    <i name="eentropy">     -0.00597245 </i>
    <i name="bandstr">   -489.95154075 </i>
    <i name="atom">   1746.50554237 </i>
    <i name="e_fr_energy">   -123.91258185 </i>
    <i name="e_wo_entrp">   -123.90660939 </i>
    <i name="e_0_energy">   -123.90959562 </i>
   </energy>
  </scstep>
  <structure>
   <crystal>
    <varray name="basis" >
     <v>       4.25218473       2.45500000       0.00000000 </v>
     <v>      -4.25218473       2.45500000       0.00000000 </v>
     <v>       0.00000000       0.00000000      15.00000000 </v>
    </varray>
    <i name="volume">    313.17340555 </i>
    <varray name="rec_basis" >
     <v>       0.11758661       0.20366599       0.00000000 </v>
     <v>      -0.11758661       0.20366599       0.00000000 </v>
     <v>       0.00000000       0.00000000       0.06666667 </v>
    </varray>
   </crystal>
   <varray name="positions" >
    <v>       0.67050910      -0.00000070       0.10054183 </v>
    <v>       0.32949290       0.00000094       0.10054290 </v>
    <v>       0.00000070       0.32948990       0.10054183 </v>
    <v>      -0.00000094       0.67050610       0.10054290 </v>
    <v>       0.32949336       0.32949340       0.10054313 </v>
    <v>       0.67050560       0.67050564       0.10054313 </v>
    <v>       0.66666594       0.33333306       0.09936852 </v>
    <v>       0.33333255       0.66666645       0.10176178 </v>
    <v>       0.25005204       0.25008509       0.46852280 </v>
    <v>       0.41673137       0.08330466       0.46851385 </v>
    <v>       0.24999690       0.75000210       0.46850785 </v>
    <v>       0.41666676       0.58333224       0.46851765 </v>
    <v>       0.74994525       0.25005375       0.46851999 </v>
    <v>       0.91665989       0.08333911       0.46852853 </v>
    <v>       0.74991391       0.74994696       0.46852280 </v>
    <v>       0.91669434       0.58326763       0.46851385 </v>
   </varray>
  </structure>
  <varray name="forces" >
   <v>      -0.00101168      -0.00061850       0.00862149 </v>
   <v>       0.00088821       0.00017018       0.00862362 </v>
   <v>      -0.00101168       0.00061850       0.00862149 </v>
   <v>       0.00088821      -0.00017018       0.00862362 </v>
   <v>       0.00004409       0.00064265       0.00861669 </v>
   <v>       0.00004409      -0.00064265       0.00861669 </v>
   <v>       0.00024209       0.00000000      -0.00102447 </v>
   <v>      -0.00006253       0.00000000       0.01820665 </v>
   <v>       0.01617705      -0.02838674      -0.00911698 </v>
   <v>      -0.03757955      -0.00825221      -0.00806526 </v>
   <v>       0.00544258       0.00000000      -0.00728961 </v>
   <v>      -0.00520791       0.00000000      -0.00859138 </v>
   <v>       0.04250995       0.00000000      -0.00882364 </v>
   <v>       0.00003957       0.00000000      -0.00983666 </v>
   <v>       0.01617705       0.02838674      -0.00911698 </v>
   <v>      -0.03757955       0.00825221      -0.00806526 </v>
  </varray>
  <varray name="stress" >
   <v>      71.34584177       0.00000000      -0.00063316 </v>
   <v>       0.00000000      71.50993621       0.00000000 </v>
   <v>      -0.00063315       0.00000000      -3.77445261 </v>
  </varray>
  <energy>
   <i name="e_fr_energy">   -125.43216316 </i>
   <i name="e_wo_entrp">   -125.42619071 </i>
   <i name="e_0_energy">   -125.42917693 </i>
  </energy>
  <time name="totalsc">   29.27   29.55</time>
 </calculation>
 <calculation>
  <scstep>
   <time name="dav">    3.28    3.31</time>
   <time name="total">    3.51    3.55</time>
   <energy>
    <i name="alphaZ">     62.18227026 </i>
    <i name="ewald">   2004.55568172 </i>
    <i name="hartreedc">  -3617.64385562 </i>
    <i name="XCdc">    169.99531114 </i>
    <i name="pawpsdc">   6208.85134407 </i>
    <i name="pawaedc">  -6208.38936370 </i>
    <i name="eentropy">     -0.00597427 </i>
    <i name="bandstr">   -489.96518802 </i>
    <i name="atom">   1746.50554237 </i>
    <i name="e_fr_energy">   -123.91423204 </i>
    <i name="e_wo_entrp">   -123.90825777 </i>
    <i name="e_0_energy">   -123.91124490 </i>
   </energy>
  </scstep>
  <scstep>
   <time name="dav">    3.89    3.91</time>
   <time name="total">    4.11    4.15</time>
   <energy>
    <i name="e_fr_energy">   -123.91324004 </i>
    <i name="e_wo_entrp">   -123.90726402 </i>
    <i name="e_0_energy">   -123.91025203 </i>
   </energy>
  </scstep>
  <scstep>
   <time name="dav">    3.70    3.73</time>
   <time name="total">    3.92    3.96</time>
   <energy>
    <i name="e_fr_energy">   -123.91270666 </i>
    <i name="e_wo_entrp">   -123.90673246 </i>
    <i name="e_0_energy">   -123.90971956 </i>
   </energy>
  </scstep>
  <scstep>
   <time name="dav">    5.40    5.43</time>
   <time name="total">    5.62    5.66</time>
   <energy>
    <i name="e_fr_energy">   -123.91271241 </i>
    <i name="e_wo_entrp">   -123.90673885 </i>
    <i name="e_0_energy">   -123.90972563 </i>
   </energy>
  </scstep>
  <scstep>
   <time name="dav">    3.93    3.96</time>
   <time name="total">    4.16    4.20</time>
   <energy>
    <i name="e_fr_energy">   -123.91270702 </i>
    <i name="e_wo_entrp">   -123.90673346 </i>
    <i name="e_0_energy">   -123.90972024 </i>
   </energy>
  </scstep>
  <scstep>
   <time name="dav">    4.84    4.88</time>
   <time name="total">    4.88    4.91</time>
   <energy>
    <i name="alphaZ">     62.18227026 </i>
    <i name="ewald">   2004.55568172 </i>
    <i name="hartreedc">  -3617.71276902 </i>
    <i name="XCdc">    169.99571706 </i>
    <i name="pawpsdc">   6208.45262986 </i>
    <i name="pawaedc">  -6207.99053495 </i>
    <i name="eentropy">     -0.00597360 </i>
    <i name="bandstr">   -489.89527094 </i>
    <i name="atom">   1746.50554237 </i>
    <i name="e_fr_energy">   -123.91270724 </i>
    <i name="e_wo_entrp">   -123.90673364 </i>
    <i name="e_0_energy">   -123.90972044 </i>
   </energy>
  </scstep>
  <structure>
   <crystal>
    <varray name="basis" >
     <v>       4.25218473       2.45500000       0.00000000 </v>
     <v>      -4.25218473       2.45500000       0.00000000 </v>
     <v>       0.00000000       0.00000000      15.00000000 </v>
    </varray>
    <i name="volume">    313.17340555 </i>
    <varray name="rec_basis" >
     <v>       0.11758661       0.20366599       0.00000000 </v>
     <v>      -0.11758661       0.20366599       0.00000000 </v>
     <v>       0.00000000       0.00000000       0.06666667 </v>
    </varray>
   </crystal>
   <varray name="positions" >
    <v>       0.67050857      -0.00000146       0.10111963 </v>
    <v>       0.32949661       0.00000201       0.10112184 </v>
    <v>       0.00000146       0.32949043       0.10111963 </v>
    <v>      -0.00000201       0.67050239       0.10112184 </v>
    <v>       0.32949770       0.32949787       0.10112232 </v>
    <v>       0.67050113       0.67050130       0.10112232 </v>
    <v>       0.66666579       0.33333321       0.09952783 </v>
    <v>       0.33333229       0.66666671       0.10280709 </v>
    <v>       0.25011170       0.25018080       0.46794289 </v>
    <v>       0.41680412       0.08327332       0.46792445 </v>
    <v>       0.24999442       0.75000458       0.46791208 </v>
    <v>       0.41666690       0.58333210       0.46793229 </v>
    <v>       0.74988475       0.25011425       0.46793710 </v>
    <v>       0.91665234       0.08334666       0.46795468 </v>
    <v>       0.74981820       0.74988730       0.46794289 </v>
    <v>       0.91672568       0.58319488       0.46792445 </v>
   </varray>
  </structure>
  <varray name="forces" >
   <v>      -0.00169995      -0.00111142       0.00894449 </v>
   <v>       0.00148271       0.00007142       0.00893209 </v>
   <v>      -0.00169995       0.00111142       0.00894449 </v>
   <v>       0.00148271      -0.00007142       0.00893209 </v>
   <v>       0.00003912       0.00087104       0.00891280 </v>
   <v>       0.00003912      -0.00087104       0.00891280 </v>
   <v>       0.00050640      -0.00000000      -0.00458323 </v>
   <v>      -0.00012861      -0.00000000       0.02148554 </v>
   <v>       0.03395252      -0.05977600      -0.00993710 </v>
   <v>      -0.07899969      -0.01740676      -0.00758681 </v>
   <v>       0.01140778      -0.00000000      -0.00586981 </v>
   <v>      -0.01092961      -0.00000000      -0.00875536 </v>
   <v>       0.08942916      -0.00000000      -0.00927171 </v>
   <v>       0.00016545      -0.00000000      -0.01153638 </v>
   <v>       0.03395252       0.05977600      -0.00993710 </v>
   <v>      -0.07899969       0.01740676      -0.00758681 </v>
  </varray>
  <varray name="stress" >
   <v>      71.22821892       0.00000000      -0.00058676 </v>
   <v>       0.00000000      71.57281152       0.00000000 </v>
   <v>      -0.00058677       0.00000000      -3.81206762 </v>
  </varray>
  <energy>
   <i name="e_fr_energy">   -125.43339828 </i>
   <i name="e_wo_entrp">   -125.42742468 </i>
   <i name="e_0_energy">   -125.43041148 </i>
  </energy>
  <time name="totalsc">   29.24   29.50</time>
 </calculation>
 <calculation>
  <scstep>
   <time name="dav">    3.28    3.31</time>
   <time name="total">    3.51    3.54</time>
   <energy>
    <i name="alphaZ">     62.18227026 </i>
    <i name="ewald">   2035.75472372 </i>
    <i name="hartreedc">  -3648.87393537 </i>
    <i name="XCdc">    169.99233758 </i>
[...]
       <r>     2.8918     1.1590    31.4726 </r>
       <r>     2.9971     1.0646    31.5848 </r>
       <r>     3.1024     1.4761    31.7402 </r>
       <r>     3.2077     1.6709    31.9162 </r>
       <r>     3.3131     1.6707    32.0922 </r>
       <r>     3.4184     2.8885    32.3964 </r>
       <r>     3.5237     2.5340    32.6633 </r>
       <r>     3.6290     1.2151    32.7913 </r>
       <r>     3.7344     1.2294    32.9208 </r>
       <r>     3.8397     1.9940    33.1308 </r>
       <r>     3.9450     3.0208    33.4490 </r>
       <r>     4.0503     3.3473    33.8015 </r>
       <r>     4.1557     2.5181    34.0667 </r>
       <r>     4.2610     2.2206    34.3006 </r>
       <r>     4.3663     2.1819    34.5304 </r>
       <r>     4.4716     2.1420    34.7560 </r>
       <r>     4.5770     2.6997    35.0404 </r>
       <r>     4.6823     2.8503    35.3406 </r>
       <r>     4.7876     3.4458    35.7035 </r>
       <r>     4.8929     3.7152    36.0948 </r>
       <r>     4.9983     3.5138    36.4649 </r>
       <r>     5.1036     3.4874    36.8322 </r>
       <r>     5.2089     3.4401    37.1946 </r>
       <r>     5.3142     3.4530    37.5582 </r>
       <r>     5.4196     3.4642    37.9231 </r>
       <r>     5.5249     2.9809    38.2371 </r>
       <r>     5.6302     3.3714    38.5922 </r>
       <r>     5.7355     3.6694    38.9786 </r>
       <r>     5.8409     3.0970    39.3048 </r>
       <r>     5.9462     2.6288    39.5817 </r>
       <r>     6.0515     2.6150    39.8571 </r>
       <r>     6.1568     2.8231    40.1545 </r>
       <r>     6.2622     3.0714    40.4780 </r>
       <r>     6.3675     2.0613    40.6951 </r>
       <r>     6.4728     2.2874    40.9360 </r>
       <r>     6.5781     2.4970    41.1990 </r>
       <r>     6.6835     2.7268    41.4862 </r>
       <r>     6.7888     2.0100    41.6979 </r>
       <r>     6.8941     2.4569    41.9567 </r>
       <r>     6.9994     3.6499    42.3411 </r>
       <r>     7.1047     4.4850    42.8135 </r>
       <r>     7.2101     3.6507    43.1980 </r>
       <r>     7.3154     3.0244    43.5165 </r>
       <r>     7.4207     3.3712    43.8716 </r>
       <r>     7.5260     4.3007    44.3246 </r>
       <r>     7.6314     4.3489    44.7826 </r>
       <r>     7.7367     3.8688    45.1901 </r>
       <r>     7.8420     3.7000    45.5798 </r>
       <r>     7.9473     5.0303    46.1096 </r>
       <r>     8.0527     5.1753    46.6547 </r>
       <r>     8.1580     4.2729    47.1047 </r>
       <r>     8.2633     3.6577    47.4900 </r>
       <r>     8.3686     2.7607    47.7807 </r>
       <r>     8.4740     1.1496    47.9018 </r>
       <r>     8.5793     0.3969    47.9436 </r>
       <r>     8.6846     0.3727    47.9829 </r>
       <r>     8.7899     0.1118    47.9947 </r>
       <r>     8.8953     0.0393    47.9988 </r>
       <r>     9.0006     0.0108    47.9999 </r>
       <r>     9.1059     0.0005    48.0000 </r>
       <r>     9.2112     0.0000    48.0000 </r>
       <r>     9.3166     0.0000    48.0000 </r>
       <r>     9.4219     0.0000    48.0000 </r>
       <r>     9.5272     0.0000    48.0000 </r>
       <r>     9.6325     0.0000    48.0000 </r>
       <r>     9.7379     0.0000    48.0000 </r>
       <r>     9.8432     0.0000    48.0000 </r>
       <r>     9.9485     0.0000    48.0000 </r>
       <r>    10.0538     0.0000    48.0000 </r>
       <r>    10.1592     0.0000    48.0000 </r>
       <r>    10.2645     0.0000    48.0000 </r>
      </set>
      <set comment="spin 2">
       <r>   -21.3330     0.0000     0.0000 </r>
       <r>   -21.2276     0.0000     0.0000 </r>
       <r>   -21.1223     0.0000     0.0000 </r>
       <r>   -21.0170     0.0000     0.0000 </r>
       <r>   -20.9117     0.0000     0.0000 </r>
       <r>   -20.8063     0.0000     0.0000 </r>
       <r>   -20.7010     0.0000     0.0000 </r>
       <r>   -20.5957     0.0000     0.0000 </r>
       <r>   -20.4904     0.0000     0.0000 </r>
       <r>   -20.3850     0.0000     0.0000 </r>
       <r>   -20.2797     0.0000     0.0000 </r>
       <r>   -20.1744     0.0000     0.0000 </r>
       <r>   -20.0691     0.0010     0.0001 </r>
       <r>   -19.9637     0.0367     0.0040 </r>
       <r>   -19.8584     0.2587     0.0312 </r>
       <r>   -19.7531     0.5409     0.0882 </r>
       <r>   -19.6478     0.5934     0.1507 </r>
       <r>   -19.5424     0.6416     0.2183 </r>
       <r>   -19.4371     0.5495     0.2761 </r>
       <r>   -19.3318     0.7022     0.3501 </r>
       <r>   -19.2265     0.5428     0.4073 </r>
       <r>   -19.1211     0.5771     0.4680 </r>
       <r>   -19.0158     0.7749     0.5496 </r>
       <r>   -18.9105     0.4802     0.6002 </r>
       <r>   -18.8052     0.5411     0.6572 </r>
       <r>   -18.6998     0.8004     0.7415 </r>
       <r>   -18.5945     0.6525     0.8102 </r>
       <r>   -18.4892     0.3736     0.8496 </r>
       <r>   -18.3839     0.6418     0.9172 </r>
       <r>   -18.2785     0.8781     1.0097 </r>
       <r>   -18.1732     0.5679     1.0695 </r>
       <r>   -18.0679     0.4747     1.1195 </r>
       <r>   -17.9626     0.4386     1.1657 </r>
       <r>   -17.8572     0.9261     1.2632 </r>
       <r>   -17.7519     0.7907     1.3465 </r>
       <r>   -17.6466     0.4157     1.3903 </r>
       <r>   -17.5413     0.4672     1.4395 </r>
       <r>   -17.4359     0.5685     1.4994 </r>
       <r>   -17.3306     0.8805     1.5921 </r>
       <r>   -17.2253     0.8173     1.6782 </r>
       <r>   -17.1200     0.5582     1.7370 </r>
       <r>   -17.0146     0.2801     1.7665 </r>
       <r>   -16.9093     0.5619     1.8257 </r>
       <r>   -16.8040     0.9064     1.9211 </r>
       <r>   -16.6987     0.8056     2.0060 </r>
       <r>   -16.5933     0.6645     2.0760 </r>
       <r>   -16.4880     0.5642     2.1354 </r>
       <r>   -16.3827     0.3446     2.1717 </r>
       <r>   -16.2774     0.4190     2.2158 </r>
       <r>   -16.1720     1.1344     2.3353 </r>
       <r>   -16.0667     0.8697     2.4269 </r>
       <r>   -15.9614     0.8070     2.5119 </r>
       <r>   -15.8561     1.1272     2.6307 </r>
       <r>   -15.7507     1.3052     2.7681 </r>
       <r>   -15.6454     1.2066     2.8952 </r>
       <r>   -15.5401     1.5770     3.0613 </r>
       <r>   -15.4348     1.9963     3.2716 </r>
       <r>   -15.3294     1.7141     3.4521 </r>
       <r>   -15.2241     1.4334     3.6031 </r>
       <r>   -15.1188     1.7196     3.7842 </r>
       <r>   -15.0135     1.6075     3.9535 </r>
       <r>   -14.9082     1.3442     4.0951 </r>
       <r>   -14.8028     1.3687     4.2392 </r>
       <r>   -14.6975     1.3307     4.3794 </r>
       <r>   -14.5922     1.0561     4.4906 </r>
       <r>   -14.4869     0.9889     4.5948 </r>
       <r>   -14.3815     1.0545     4.7058 </r>
       <r>   -14.2762     0.9760     4.8086 </r>
       <r>   -14.1709     1.7282     4.9907 </r>
       <r>   -14.0656     2.0345     5.2049 </r>
       <r>   -13.9602     0.9404     5.3040 </r>
       <r>   -13.8549     0.6774     5.3753 </r>
       <r>   -13.7496     0.6228     5.4409 </r>
       <r>   -13.6443     0.5584     5.4997 </r>
       <r>   -13.5389     0.8607     5.5904 </r>
       <r>   -13.4336     1.4310     5.7411 </r>
       <r>   -13.3283     1.0567     5.8524 </r>
       <r>   -13.2230     0.7083     5.9270 </r>
       <r>   -13.1176     0.9421     6.0262 </r>
       <r>   -13.0123     0.9060     6.1217 </r>
       <r>   -12.9070     0.9547     6.2222 </r>
       <r>   -12.8017     1.0309     6.3308 </r>
       <r>   -12.6963     0.9582     6.4317 </r>
       <r>   -12.5910     1.1179     6.5495 </r>
       <r>   -12.4857     1.7015     6.7287 </r>
       <r>   -12.3804     1.3532     6.8712 </r>
       <r>   -12.2750     1.5645     7.0360 </r>
       <r>   -12.1697     1.5402     7.1982 </r>
       <r>   -12.0644     1.4601     7.3520 </r>
       <r>   -11.9591     2.3321     7.5976 </r>
       <r>   -11.8537     2.1071     7.8195 </r>
       <r>   -11.7484     1.6394     7.9922 </r>
       <r>   -11.6431     1.5294     8.1533 </r>
       <r>   -11.5378     1.4300     8.3039 </r>
       <r>   -11.4324     1.3285     8.4438 </r>
       <r>   -11.3271     0.6808     8.5156 </r>
       <r>   -11.2218     0.3205     8.5493 </r>
       <r>   -11.1165     0.5417     8.6064 </r>
       <r>   -11.0111     0.8246     8.6932 </r>
       <r>   -10.9058     0.8141     8.7790 </r>
       <r>   -10.8005     0.7926     8.8624 </r>
       <r>   -10.6952     1.2615     8.9953 </r>
       <r>   -10.5898     1.4641     9.1495 </r>
       <r>   -10.4845     1.3988     9.2968 </r>
       <r>   -10.3792     2.3533     9.5447 </r>
       <r>   -10.2739     2.2452     9.7812 </r>
       <r>   -10.1685     0.8226     9.8678 </r>
       <r>   -10.0632     0.6180     9.9329 </r>
       <r>    -9.9579     1.5189    10.0929 </r>
       <r>    -9.8526     2.1222    10.3164 </r>
       <r>    -9.7472     1.4352    10.4676 </r>
       <r>    -9.6419     0.5960    10.5303 </r>
       <r>    -9.5366     0.3987    10.5723 </r>
       <r>    -9.4313     1.5511    10.7357 </r>
       <r>    -9.3259     2.8444    11.0353 </r>
       <r>    -9.2206     2.4303    11.2913 </r>
       <r>    -9.1153     1.9904    11.5009 </r>
       <r>    -9.0100     1.5701    11.6663 </r>
       <r>    -8.9046     1.4889    11.8231 </r>
       <r>    -8.7993     1.6491    11.9968 </r>
       <r>    -8.6940     2.1101    12.2190 </r>
       <r>    -8.5887     2.2924    12.4605 </r>
       <r>    -8.4833     1.5095    12.6194 </r>
       <r>    -8.3780     1.3649    12.7632 </r>
       <r>    -8.2727     2.4940    13.0259 </r>
       <r>    -8.1674     2.0767    13.2446 </r>
       <r>    -8.0620     1.4971    13.4023 </r>
       <r>    -7.9567     1.8904    13.6014 </r>
       <r>    -7.8514     1.9722    13.8091 </r>
       <r>    -7.7461     2.7572    14.0995 </r>
       <r>    -7.6407     3.0098    14.4165 </r>
       <r>    -7.5354     2.0296    14.6303 </r>
       <r>    -7.4301     1.8081    14.8207 </r>
       <r>    -7.3248     2.1031    15.0422 </r>
       <r>    -7.2194     2.7860    15.3357 </r>
       <r>    -7.1141     2.4167    15.5902 </r>
       <r>    -7.0088     1.7323    15.7727 </r>
       <r>    -6.9035     1.8267    15.9651 </r>
       <r>    -6.7981     2.7260    16.2522 </r>
       <r>    -6.6928     3.3051    16.6003 </r>
       <r>    -6.5875     3.6062    16.9801 </r>
       <r>    -6.4822     3.5186    17.3507 </r>
       <r>    -6.3768     3.2458    17.6926 </r>
       <r>    -6.2715     3.8659    18.0997 </r>
       <r>    -6.1662     2.6948    18.3836 </r>
       <r>    -6.0609     2.1922    18.6145 </r>
       <r>    -5.9555     2.2673    18.8533 </r>
       <r>    -5.8502     1.3881    18.9995 </r>
       <r>    -5.7449     2.3658    19.2486 </r>
       <r>    -5.6396     2.7837    19.5418 </r>
       <r>    -5.5342     1.4335    19.6928 </r>
       <r>    -5.4289     0.7879    19.7758 </r>
       <r>    -5.3236     1.8427    19.9699 </r>
       <r>    -5.2183     2.6933    20.2536 </r>
       <r>    -5.1129     2.1434    20.4793 </r>
       <r>    -5.0076     1.4156    20.6284 </r>
       <r>    -4.9023     1.7135    20.8089 </r>
       <r>    -4.7970     1.7070    20.9887 </r>
       <r>    -4.6916     1.3325    21.1290 </r>
       <r>    -4.5863     1.6548    21.3033 </r>
       <r>    -4.4810     1.5797    21.4697 </r>
       <r>    -4.3757     1.7125    21.6501 </r>
       <r>    -4.2703     2.8536    21.9506 </r>
       <r>    -4.1650     2.8277    22.2484 </r>
       <r>    -4.0597     1.5520    22.4119 </r>
       <r>    -3.9544     1.8495    22.6067 </r>
       <r>    -3.8490     3.3453    22.9590 </r>
       <r>    -3.7437     3.0285    23.2780 </r>
       <r>    -3.6384     2.7793    23.5708 </r>
       <r>    -3.5331     3.6527    23.9555 </r>
       <r>    -3.4277     3.3672    24.3101 </r>
       <r>    -3.3224     2.4062    24.5636 </r>
       <r>    -3.2171     1.8888    24.7625 </r>
       <r>    -3.1118     1.6892    24.9404 </r>
       <r>    -3.0064     1.7680    25.1266 </r>
       <r>    -2.9011     1.5866    25.2937 </r>
       <r>    -2.7958     1.8702    25.4907 </r>
       <r>    -2.6905     1.5779    25.6569 </r>
       <r>    -2.5851     0.9395    25.7559 </r>
       <r>    -2.4798     1.2972    25.8925 </r>
       <r>    -2.3745     2.4250    26.1479 </r>
       <r>    -2.2692     1.9087    26.3489 </r>
       <r>    -2.1638     0.9126    26.4451 </r>
       <r>    -2.0585     1.2744    26.5793 </r>
       <r>    -1.9532     1.0143    26.6861 </r>
       <r>    -1.8479     0.7536    26.7655 </r>
       <r>    -1.7425     1.0945    26.8808 </r>
       <r>    -1.6372     1.2771    27.0153 </r>
       <r>    -1.5319     1.1062    27.1318 </r>
       <r>    -1.4266     1.0792    27.2454 </r>
       <r>    -1.3212     1.1528    27.3668 </r>
       <r>    -1.2159     0.7217    27.4429 </r>
       <r>    -1.1106     0.7471    27.5215 </r>
       <r>    -1.0053     0.7400    27.5995 </r>
       <r>    -0.8999     0.9646    27.7011 </r>
       <r>    -0.7946     0.8404    27.7896 </r>
       <r>    -0.6893     0.4151    27.8333 </r>
       <r>    -0.5840     0.1549    27.8496 </r>
       <r>    -0.4786     0.3123    27.8825 </r>
       <r>    -0.3733     0.5562    27.9411 </r>
       <r>    -0.2680     0.4713    27.9907 </r>
       <r>    -0.1627     0.2734    28.0195 </r>
       <r>    -0.0573     0.3279    28.0541 </r>
       <r>     0.0480     0.4362    28.1000 </r>
       <r>     0.1533     0.3354    28.1353 </r>
       <r>     0.2586     0.4835    28.1863 </r>
       <r>     0.3640     1.1156    28.3038 </r>
       <r>     0.4693     1.5312    28.4651 </r>
       <r>     0.5746     1.4105    28.6136 </r>
       <r>     0.6799     1.0216    28.7212 </r>
       <r>     0.7853     0.3159    28.7545 </r>
       <r>     0.8906     0.6326    28.8211 </r>
       <r>     0.9959     1.5581    28.9852 </r>
       <r>     1.1012     1.0830    29.0993 </r>
       <r>     1.2066     0.6151    29.1641 </r>
       <r>     1.3119     1.3747    29.3089 </r>
       <r>     1.4172     1.9052    29.5095 </r>
       <r>     1.5225     1.7232    29.6910 </r>
       <r>     1.6279     1.4764    29.8465 </r>
       <r>     1.7332     1.3047    29.9839 </r>
       <r>     1.8385     1.2641    30.1171 </r>
       <r>     1.9438     1.3280    30.2570 </r>
       <r>     2.0492     1.1295    30.3759 </r>
       <r>     2.1545     1.4875    30.5326 </r>
       <r>     2.2598     1.3232    30.6720 </r>
       <r>     2.3651     0.5984    30.7350 </r>
       <r>     2.4705     1.0913    30.8499 </r>
       <r>     2.5758     1.8237    31.0420 </r>
       <r>     2.6811     1.5563    31.2059 </r>
       <r>     2.7864     1.3732    31.3506 </r>
       <r>     2.8918     1.1589    31.4726 </r>
       <r>     2.9971     1.0645    31.5847 </r>
       <r>     3.1024     1.4758    31.7402 </r>
       <r>     3.2077     1.6710    31.9162 </r>
       <r>     3.3131     1.6706    32.0921 </r>
       <r>     3.4184     2.8883    32.3963 </r>
       <r>     3.5237     2.5342    32.6633 </r>
       <r>     3.6290     1.2150    32.7912 </r>
       <r>     3.7344     1.2289    32.9207 </r>
       <r>     3.8397     1.9940    33.1307 </r>
       <r>     3.9450     3.0203    33.4488 </r>
       <r>     4.0503     3.3476    33.8014 </r>
       <r>     4.1557     2.5186    34.0667 </r>
       <r>     4.2610     2.2197    34.3004 </r>
       <r>     4.3663     2.1819    34.5303 </r>
       <r>     4.4716     2.1426    34.7559 </r>
       <r>     4.5770     2.6997    35.0403 </r>
       <r>     4.6823     2.8499    35.3404 </r>
       <r>     4.7876     3.4454    35.7033 </r>
       <r>     4.8929     3.7150    36.0946 </r>
       <r>     4.9983     3.5143    36.4648 </r>
       <r>     5.1036     3.4876    36.8321 </r>
       <r>     5.2089     3.4398    37.1944 </r>
       <r>     5.3142     3.4529    37.5581 </r>
       <r>     5.4196     3.4643    37.9229 </r>
       <r>     5.5249     2.9814    38.2369 </r>
       <r>     5.6302     3.3709    38.5920 </r>
       <r>     5.7355     3.6690    38.9784 </r>
       <r>     5.8409     3.0974    39.3047 </r>
       <r>     5.9462     2.6293    39.5816 </r>
       <r>     6.0515     2.6148    39.8570 </r>
       <r>     6.1568     2.8212    40.1541 </r>
       <r>     6.2622     3.0710    40.4776 </r>
       <r>     6.3675     2.0623    40.6948 </r>
       <r>     6.4728     2.2876    40.9357 </r>
       <r>     6.5781     2.4959    41.1986 </r>
       <r>     6.6835     2.7275    41.4859 </r>
       <r>     6.7888     2.0114    41.6978 </r>
       <r>     6.8941     2.4564    41.9565 </r>
       <r>     6.9994     3.6510    42.3410 </r>
       <r>     7.1047     4.4871    42.8136 </r>
       <r>     7.2101     3.6501    43.1981 </r>
       <r>     7.3154     3.0229    43.5165 </r>
       <r>     7.4207     3.3704    43.8714 </r>
       <r>     7.5260     4.3011    44.3245 </r>
       <r>     7.6314     4.3506    44.7827 </r>
       <r>     7.7367     3.8671    45.1900 </r>
       <r>     7.8420     3.6969    45.5793 </r>
       <r>     7.9473     5.0312    46.1093 </r>
       <r>     8.0527     5.1755    46.6544 </r>
       <r>     8.1580     4.2713    47.1042 </r>
       <r>     8.2633     3.6592    47.4896 </r>
       <r>     8.3686     2.7614    47.7805 </r>
       <r>     8.4740     1.1514    47.9018 </r>
       <r>     8.5793     0.3975    47.9436 </r>
       <r>     8.6846     0.3728    47.9829 </r>
       <r>     8.7899     0.1118    47.9947 </r>
       <r>     8.8953     0.0393    47.9988 </r>
       <r>     9.0006     0.0109    47.9999 </r>
       <r>     9.1059     0.0005    48.0000 </r>
       <r>     9.2112     0.0000    48.0000 </r>
       <r>     9.3166     0.0000    48.0000 </r>
       <r>     9.4219     0.0000    48.0000 </r>
       <r>     9.5272     0.0000    48.0000 </r>
       <r>     9.6325     0.0000    48.0000 </r>
       <r>     9.7379     0.0000    48.0000 </r>
       <r>     9.8432     0.0000    48.0000 </r>
       <r>     9.9485     0.0000    48.0000 </r>
       <r>    10.0538     0.0000    48.0000 </r>
       <r>    10.1592     0.0000    48.0000 </r>
       <r>    10.2645     0.0000    48.0000 </r>
      </set>
     </set>
    </array>
   </total>
  </dos>
 </calculation>
 <structure name="finalpos" >
  <crystal>
   <varray name="basis" >
    <v>       4.25218473       2.45500000       0.00000000 </v>
    <v>      -4.25218473       2.45500000       0.00000000 </v>
    <v>       0.00000000       0.00000000      15.00000000 </v>
   </varray>
   <i name="volume">    313.17340555 </i>
   <varray name="rec_basis" >
    <v>       0.11758661       0.20366599       0.00000000 </v>
    <v>      -0.11758661       0.20366599       0.00000000 </v>
    <v>       0.00000000       0.00000000       0.06666667 </v>
   </varray>
  </crystal>
  <varray name="positions" >
   <v>       0.67048819      -0.00112626       0.16462041 </v>
   <v>       0.33241617      -0.00118550       0.16574752 </v>
   <v>       0.00112626       0.32951081       0.16462041 </v>
   <v>       0.00118550       0.66758283       0.16574752 </v>
   <v>       0.33168351       0.32965383       0.16827464 </v>
   <v>       0.67034517       0.66831549       0.16827464 </v>
   <v>       0.66733732       0.33266168       0.18207613 </v>
   <v>       0.33402213       0.66597687       0.14956381 </v>
   <v>       0.24890536       0.25107938       0.40293467 </v>
   <v>       0.41559215       0.08439450       0.40301547 </v>
   <v>       0.24893062       0.75106838       0.40298105 </v>
   <v>       0.41560008       0.58439892       0.40288567 </v>
   <v>       0.74893608       0.25106292       0.40303284 </v>
   <v>       0.91556700       0.08443200       0.40280843 </v>
   <v>       0.74891962       0.75109364       0.40293467 </v>
   <v>       0.91560450       0.58440685       0.40301547 </v>
  </varray>
 </structure>
</modeling>
