   16   16    1    1
  0.2012733E+02  0.4979000E-09  0.4979000E-09  0.1500000E-08  0.5000000E-15
  1.000000000000000E-004
  CAR 
 PDoS                                    
     56    289     48
 
  0.0000000E+00  0.0000000E+00  0.0000000E+00  0.9182736E-03
      1        -19.768271   1.000000
      2        -15.896658   1.000000
      3        -14.656147   1.000000
      4        -14.651464   1.000000
      5        -14.651435   1.000000
      6        -13.528345   1.000000
      7        -13.528336   1.000000
      8        -13.525805   1.000000
      9        -11.706223   1.000000
     10        -11.520900   1.000000
     11        -11.520894   1.000000
     12         -9.320238   1.000000
     13         -9.320229   1.000000
     14         -8.083765   1.000000
     15         -7.323096   1.000000
     16         -6.805940   1.000000
     17         -6.805914   1.000000
     18         -6.805401   1.000000
     19         -6.547853   1.000000
     20         -3.517010   1.000000
     21         -3.516944   1.000000
     22         -2.855077   1.000000
     23         -2.821370   1.000000
     24         -2.821362   1.000000
     25         -1.529516   1.000000
     26         -1.529513   1.000000
     27         -0.368204   0.927374
     28         -0.368197   0.927362
     29         -0.235834   0.338897
     30          0.949826   0.000000
     31          0.949831   0.000000
     32          1.127754   0.000000
     33          1.127777   0.000000
     34          1.130535   0.000000
     35          1.763195   0.000000
     36          1.763197   0.000000
     37          2.991189   0.000000
     38          3.597738   0.000000
     39          4.496042   0.000000
     40          4.810038   0.000000
     41          6.614760   0.000000
     42          6.617639   0.000000
     43          6.617640   0.000000
     44          7.071165   0.000000
     45          7.662105   0.000000
     46          7.662202   0.000000
     47          7.677909   0.000000
     48          8.405353   0.000000
 
  0.3030303E-01 -0.3326373E-17  0.0000000E+00  0.3673095E-02
      1        -19.762946   1.000000
      2        -15.892375   1.000000
      3        -14.738238   1.000000
      4        -14.673557   1.000000
      5        -14.670584   1.000000
      6        -13.500426   1.000000
      7        -13.498847   1.000000
      8        -13.434359   1.000000
      9        -11.830973   1.000000
     10        -11.525373   1.000000
     11        -11.399178   1.000000
     12         -9.329695   1.000000
     13         -9.308909   1.000000
     14         -8.076944   1.000000
     15         -7.301157   1.000000
     16         -6.822848   1.000000
     17         -6.822494   1.000000
     18         -6.800460   1.000000
     19         -6.541340   1.000000
     20         -3.539469   1.000000
     21         -3.528611   1.000000
     22         -2.877830   1.000000
     23         -2.838888   1.000000
     24         -2.825889   1.000000
     25         -1.595471   1.000000
     26         -1.586849   1.000000
     27         -0.518975   0.999834
     28         -0.347533   0.877824
     29         -0.078123   0.004074
     30          0.925548   0.000000
     31          0.949747   0.000000
     32          1.140940   0.000000
     33          1.148732   0.000000
     34          1.174838   0.000000
     35          1.815056   0.000000
     36          1.830031   0.000000
     37          2.999777   0.000000
     38          3.606482   0.000000
     39          4.515903   0.000000
     40          4.818442   0.000000
     41          6.619513   0.000000
     42          6.641074   0.000000
     43          6.642900   0.000000
     44          7.076994   0.000000
     45          7.659387   0.000000
     46          7.685253   0.000000
     47          7.689897   0.000000
     48          8.363631   0.000000
 
 -0.3030303E-01  0.3030303E-01  0.0000000E+00  0.1836547E-02
      1        -19.762946   1.000000
      2        -15.892375   1.000000
      3        -14.738238   1.000000
      4        -14.673537   1.000000
      5        -14.670605   1.000000
      6        -13.500420   1.000000
      7        -13.498864   1.000000
      8        -13.434348   1.000000
      9        -11.830975   1.000000
     10        -11.525368   1.000000
     11        -11.399181   1.000000
     12         -9.329688   1.000000
     13         -9.308915   1.000000
     14         -8.076944   1.000000
     15         -7.301157   1.000000
     16         -6.822829   1.000000
     17         -6.822492   1.000000
     18         -6.800481   1.000000
     19         -6.541340   1.000000
     20         -3.539419   1.000000
     21         -3.528661   1.000000
     22         -2.877851   1.000000
     23         -2.838862   1.000000
     24         -2.825894   1.000000
     25         -1.595472   1.000000
     26         -1.586848   1.000000
     27         -0.518979   0.999834
     28         -0.347528   0.877811
     29         -0.078124   0.004074
     30          0.925552   0.000000
     31          0.949744   0.000000
     32          1.140928   0.000000
     33          1.148714   0.000000
     34          1.174867   0.000000
     35          1.815055   0.000000
     36          1.830033   0.000000
     37          2.999777   0.000000
     38          3.606482   0.000000
     39          4.515903   0.000000
     40          4.818442   0.000000
     41          6.619513   0.000000
     42          6.641075   0.000000
     43          6.642900   0.000000
     44          7.076994   0.000000
     45          7.659329   0.000000
     46          7.685325   0.000000
     47          7.689882   0.000000
     48          8.363632   0.000000
 
  0.6060606E-01 -0.6652746E-17  0.0000000E+00  0.3673095E-02
      1        -19.746931   1.000000
      2        -15.879537   1.000000
      3        -14.940043   1.000000
      4        -14.725609   1.000000
      5        -14.722811   1.000000
      6        -13.421916   1.000000
      7        -13.420541   1.000000
      8        -13.208677   1.000000
      9        -12.018783   1.000000
     10        -11.538429   1.000000
     11        -11.221220   1.000000
     12         -9.355040   1.000000
     13         -9.275353   1.000000
     14         -8.056459   1.000000
     15         -7.237810   1.000000
     16         -6.873003   1.000000
     17         -6.872644   1.000000
     18         -6.784706   1.000000
     19         -6.521771   1.000000
     20         -3.606477   1.000000
     21         -3.563248   1.000000
     22         -2.975606   1.000000
     23         -2.857487   1.000000
     24         -2.839424   1.000000
     25         -1.767473   1.000000
     26         -1.739440   1.000000
     27         -0.729937   1.000000
     28         -0.315706   0.762410
     29          0.132532   0.000000
     30          0.886995   0.000000
     31          0.974343   0.000000
     32          1.178907   0.000000
     33          1.204486   0.000000
     34          1.301087   0.000000
     35          1.956787   0.000000
     36          2.000834   0.000000
     37          3.025984   0.000000
     38          3.632553   0.000000
     39          4.574196   0.000000
     40          4.844145   0.000000
     41          6.628263   0.000000
     42          6.716400   0.000000
     43          6.718272   0.000000
     44          7.094578   0.000000
     45          7.660179   0.000000
     46          7.714757   0.000000
     47          7.754181   0.000000
     48          8.238031   0.000000
 
 -0.6060606E-01  0.6060606E-01  0.0000000E+00  0.1836547E-02
      1        -19.746931   1.000000
      2        -15.879537   1.000000
      3        -14.940041   1.000000
      4        -14.725591   1.000000
      5        -14.722831   1.000000
      6        -13.421911   1.000000
      7        -13.420556   1.000000
      8        -13.208667   1.000000
      9        -12.018785   1.000000
     10        -11.538424   1.000000
     11        -11.221222   1.000000
     12         -9.355034   1.000000
     13         -9.275360   1.000000
     14         -8.056459   1.000000
     15         -7.237810   1.000000
     16         -6.872984   1.000000
     17         -6.872642   1.000000
     18         -6.784728   1.000000
     19         -6.521771   1.000000
     20         -3.606428   1.000000
     21         -3.563297   1.000000
     22         -2.975629   1.000000
     23         -2.857457   1.000000
     24         -2.839429   1.000000
     25         -1.767474   1.000000
     26         -1.739439   1.000000
     27         -0.729941   1.000000
     28         -0.315702   0.762394
     29          0.132533   0.000000
     30          0.886997   0.000000
     31          0.974340   0.000000
     32          1.178894   0.000000
     33          1.204468   0.000000
     34          1.301117   0.000000
     35          1.956787   0.000000
     36          2.000833   0.000000
     37          3.025984   0.000000
     38          3.632553   0.000000
     39          4.574196   0.000000
     40          4.844145   0.000000
     41          6.628262   0.000000
     42          6.716401   0.000000
     43          6.718272   0.000000
     44          7.094578   0.000000
     45          7.660127   0.000000
     46          7.714739   0.000000
     47          7.754253   0.000000
     48          8.238033   0.000000
 
  0.9090909E-01  0.1646766E-17  0.0000000E+00  0.3673095E-02
      1        -19.720230   1.000000
      2        -15.858198   1.000000
      3        -15.189835   1.000000
      4        -14.799482   1.000000
      5        -14.796937   1.000000
      6        -13.304134   1.000000
      7        -13.303006   1.000000
      8        -12.919218   1.000000
      9        -12.213037   1.000000
     10        -11.559065   1.000000
     11        -11.046079   1.000000
     12         -9.388035   1.000000
     13         -9.220735   1.000000
     14         -8.022777   1.000000
     15         -7.139648   1.000000
     16         -6.955094   1.000000
     17         -6.954740   1.000000
     18         -6.758419   1.000000
     19         -6.489196   1.000000
     20         -3.716126   1.000000
     21         -3.619626   1.000000
     22         -3.133923   1.000000
     23         -2.878620   1.000000
     24         -2.861459   1.000000
     25         -2.001309   1.000000
     26         -1.949888   1.000000
     27         -0.966478   1.000000
     28         -0.317831   0.771602
     29          0.305606   0.000000
     30          0.899301   0.000000
     31          1.049082   0.000000
     32          1.243123   0.000000
     33          1.295645   0.000000
     34          1.495845   0.000000
     35          2.162040   0.000000
     36          2.228058   0.000000
     37          3.071306   0.000000
     38          3.675460   0.000000
     39          4.666461   0.000000
     40          4.889133   0.000000
     41          6.642689   0.000000
     42          6.840362   0.000000
     43          6.842240   0.000000
     44          7.123046   0.000000
     45          7.668067   0.000000
     46          7.742262   0.000000
     47          7.868471   0.000000
     48          8.036165   0.000000
 
 -0.9090909E-01  0.9090909E-01  0.0000000E+00  0.1836547E-02
      1        -19.720230   1.000000
      2        -15.858198   1.000000
      3        -15.189833   1.000000
      4        -14.799466   1.000000
      5        -14.796955   1.000000
      6        -13.304131   1.000000
      7        -13.303019   1.000000
      8        -12.919209   1.000000
      9        -12.213040   1.000000
     10        -11.559061   1.000000
     11        -11.046079   1.000000
     12         -9.388030   1.000000
     13         -9.220741   1.000000
     14         -8.022777   1.000000
     15         -7.139647   1.000000
     16         -6.955075   1.000000
     17         -6.954738   1.000000
     18         -6.758441   1.000000
     19         -6.489196   1.000000
     20         -3.716079   1.000000
     21         -3.619674   1.000000
     22         -3.133943   1.000000
     23         -2.878591   1.000000
     24         -2.861465   1.000000
     25         -2.001309   1.000000
     26         -1.949888   1.000000
     27         -0.966482   1.000000
     28         -0.317829   0.771591
     29          0.305610   0.000000
     30          0.899299   0.000000
     31          1.049077   0.000000
     32          1.243110   0.000000
     33          1.295628   0.000000
     34          1.495873   0.000000
     35          2.162041   0.000000
     36          2.228057   0.000000
     37          3.071306   0.000000
     38          3.675460   0.000000
     39          4.666461   0.000000
     40          4.889133   0.000000
     41          6.642687   0.000000
     42          6.840363   0.000000
     43          6.842241   0.000000
     44          7.123046   0.000000
     45          7.668018   0.000000
     46          7.742243   0.000000
     47          7.868542   0.000000
     48          8.036168   0.000000
 
  0.1212121E+00 -0.1330549E-16  0.0000000E+00  0.3673095E-02
      1        -19.682870   1.000000
      2        -15.828483   1.000000
      3        -15.455724   1.000000
      4        -14.884717   1.000000
      5        -14.882409   1.000000
      6        -13.157846   1.000000
      7        -13.156941   1.000000
      8        -12.598070   1.000000
      9        -12.407870   1.000000
     10        -11.585827   1.000000
     11        -10.884122   1.000000
     12         -9.417017   1.000000
     13         -9.146827   1.000000
     14         -7.976311   1.000000
     15         -7.067276   1.000000
     16         -7.066767   1.000000
     17         -7.015404   1.000000
     18         -6.721733   1.000000
     19         -6.443718   1.000000
     20         -3.866571   1.000000
     21         -3.696605   1.000000
     22         -3.334098   1.000000
     23         -2.905697   1.000000
     24         -2.891606   1.000000
     25         -2.266138   1.000000
     26         -2.188090   1.000000
     27         -1.226467   1.000000
     28         -0.365633   0.922219
     29          0.377500   0.000000
     30          1.017136   0.000000
     31          1.158455   0.000000
     32          1.340610   0.000000
     33          1.438317   0.000000
     34          1.745197   0.000000
     35          2.409666   0.000000
     36          2.478603   0.000000
     37          3.138999   0.000000
     38          3.734767   0.000000
     39          4.782552   0.000000
     40          4.959231   0.000000
     41          6.662604   0.000000
     42          7.010374   0.000000
     43          7.012491   0.000000
     44          7.159288   0.000000
     45          7.653613   0.000000
     46          7.701833   0.000000
     47          7.866225   0.000000
     48          8.025698   0.000000
 
 -0.1212121E+00  0.1212121E+00  0.0000000E+00  0.1836547E-02
      1        -19.682870   1.000000
      2        -15.828483   1.000000
      3        -15.455722   1.000000
      4        -14.884703   1.000000
      5        -14.882426   1.000000
      6        -13.157844   1.000000
      7        -13.156953   1.000000
      8        -12.598060   1.000000
      9        -12.407873   1.000000
     10        -11.585823   1.000000
     11        -10.884121   1.000000
     12         -9.417013   1.000000
     13         -9.146833   1.000000
     14         -7.976311   1.000000
     15         -7.067258   1.000000
     16         -7.066765   1.000000
     17         -7.015404   1.000000
     18         -6.721755   1.000000
     19         -6.443717   1.000000
     20         -3.866525   1.000000
     21         -3.696652   1.000000
     22         -3.334116   1.000000
     23         -2.905669   1.000000
     24         -2.891611   1.000000
     25         -2.266138   1.000000
     26         -2.188090   1.000000
     27         -1.226472   1.000000
     28         -0.365631   0.922215
     29          0.377507   0.000000
     30          1.017131   0.000000
     31          1.158444   0.000000
     32          1.340600   0.000000
     33          1.438306   0.000000
     34          1.745224   0.000000
     35          2.409667   0.000000
     36          2.478601   0.000000
     37          3.138999   0.000000
     38          3.734768   0.000000
     39          4.782552   0.000000
     40          4.959232   0.000000
     41          6.662602   0.000000
     42          7.010376   0.000000
     43          7.012492   0.000000
     44          7.159288   0.000000
     45          7.653604   0.000000
     46          7.701787   0.000000
     47          7.866221   0.000000
     48          8.025768   0.000000
 
  0.1515152E+00  0.3042515E-17  0.0000000E+00  0.3673095E-02
      1        -19.634862   1.000000
      2        -15.791262   1.000000
      3        -15.724197   1.000000
      4        -14.973872   1.000000
      5        -14.971768   1.000000
      6        -12.990838   1.000000
      7        -12.990125   1.000000
      8        -12.602062   1.000000
      9        -12.257471   1.000000
     10        -11.617044   1.000000
     11        -10.744318   1.000000
     12         -9.428314   1.000000
     13         -9.055766   1.000000
     14         -7.917278   1.000000
     15         -7.206339   1.000000
     16         -7.205908   1.000000
     17         -6.875188   1.000000
     18         -6.674736   1.000000
     19         -6.385473   1.000000
     20         -4.054841   1.000000
     21         -3.791817   1.000000
     22         -3.562208   1.000000
     23         -2.938413   1.000000
     24         -2.931134   1.000000
     25         -2.542352   1.000000
     26         -2.434644   1.000000
     27         -1.502928   1.000000
     28         -0.445664   0.994644
     29          0.363132   0.000000
     30          1.194790   0.000000
     31          1.273039   0.000000
     32          1.493675   0.000000
     33          1.642310   0.000000
     34          2.036410   0.000000
     35          2.686035   0.000000
     36          2.728835   0.000000
     37          3.235645   0.000000
     38          3.810469   0.000000
     39          4.903141   0.000000
     40          5.067350   0.000000
     41          6.687856   0.000000
     42          7.171653   0.000000
     43          7.225978   0.000000
     44          7.227745   0.000000
     45          7.398672   0.000000
     46          7.698606   0.000000
     47          7.886170   0.000000
     48          8.220189   0.000000
 
 -0.1515152E+00  0.1515152E+00  0.0000000E+00  0.1836547E-02
      1        -19.634862   1.000000
      2        -15.791261   1.000000
      3        -15.724194   1.000000
      4        -14.973860   1.000000
      5        -14.971783   1.000000
      6        -12.990837   1.000000
      7        -12.990135   1.000000
      8        -12.602066   1.000000
      9        -12.257461   1.000000
     10        -11.617040   1.000000
     11        -10.744315   1.000000
     12         -9.428311   1.000000
     13         -9.055773   1.000000
     14         -7.917278   1.000000
     15         -7.206321   1.000000
     16         -7.205906   1.000000
     17         -6.875188   1.000000
     18         -6.674758   1.000000
     19         -6.385472   1.000000
     20         -4.054797   1.000000
     21         -3.791863   1.000000
     22         -3.562223   1.000000
     23         -2.938386   1.000000
     24         -2.931139   1.000000
     25         -2.542351   1.000000
     26         -2.434645   1.000000
     27         -1.502933   1.000000
     28         -0.445663   0.994644
     29          0.363141   0.000000
     30          1.194780   0.000000
     31          1.273023   0.000000
     32          1.493668   0.000000
     33          1.642303   0.000000
     34          2.036435   0.000000
     35          2.686037   0.000000
     36          2.728832   0.000000
     37          3.235645   0.000000
     38          3.810470   0.000000
     39          4.903140   0.000000
     40          5.067352   0.000000
     41          6.687855   0.000000
     42          7.171654   0.000000
     43          7.225979   0.000000
     44          7.227747   0.000000
     45          7.398676   0.000000
     46          7.698553   0.000000
     47          7.886164   0.000000
     48          8.220190   0.000000
 
  0.1818182E+00 -0.1776637E-16  0.0000000E+00  0.3673095E-02
      1        -19.576214   1.000000
      2        -15.992635   1.000000
      3        -15.743676   1.000000
      4        -15.062189   1.000000
      5        -15.060258   1.000000
      6        -12.808924   1.000000
      7        -12.808318   1.000000
      8        -12.792243   1.000000
      9        -11.904287   1.000000
     10        -11.650991   1.000000
     11        -10.636196   1.000000
     12         -9.408166   1.000000
     13         -8.949902   1.000000
     14         -7.845766   1.000000
     15         -7.369275   1.000000
     16         -7.368833   1.000000
     17         -6.728587   1.000000
     18         -6.617550   1.000000
     19         -6.314678   1.000000
     20         -4.277336   1.000000
     21         -3.902920   1.000000
     22         -3.807593   1.000000
     23         -2.995304   1.000000
     24         -2.976663   1.000000
     25         -2.803393   1.000000
     26         -2.676095   1.000000
     27         -1.788205   1.000000
     28         -0.541505   0.999953
     29          0.313574   0.000000
     30          1.351425   0.000000
     31          1.385306   0.000000
     32          1.723633   0.000000
     33          1.894966   0.000000
     34          2.359014   0.000000
     35          2.957389   0.000000
     36          2.982144   0.000000
     37          3.372059   0.000000
     38          3.903261   0.000000
     39          5.013932   0.000000
     40          5.218795   0.000000
     41          6.717999   0.000000
     42          6.949026   0.000000
     43          7.320600   0.000000
     44          7.479025   0.000000
     45          7.479812   0.000000
     46          7.708187   0.000000
     47          7.897598   0.000000
     48          8.032184   0.000000
 
 -0.1818182E+00  0.1818182E+00  0.0000000E+00  0.1836547E-02
      1        -19.576214   1.000000
      2        -15.992633   1.000000
      3        -15.743676   1.000000
      4        -15.062178   1.000000
      5        -15.060273   1.000000
      6        -12.808933   1.000000
      7        -12.808318   1.000000
      8        -12.792248   1.000000
      9        -11.904277   1.000000
     10        -11.650987   1.000000
     11        -10.636190   1.000000
     12         -9.408165   1.000000
     13         -8.949909   1.000000
     14         -7.845766   1.000000
     15         -7.369257   1.000000
     16         -7.368831   1.000000
     17         -6.728587   1.000000
     18         -6.617572   1.000000
     19         -6.314678   1.000000
     20         -4.277294   1.000000
     21         -3.902964   1.000000
     22         -3.807606   1.000000
     23         -2.995308   1.000000
     24         -2.976637   1.000000
     25         -2.803393   1.000000
     26         -2.676096   1.000000
     27         -1.788209   1.000000
     28         -0.541504   0.999953
     29          0.313583   0.000000
     30          1.351413   0.000000
     31          1.385286   0.000000
     32          1.723628   0.000000
     33          1.894962   0.000000
     34          2.359038   0.000000
     35          2.957387   0.000000
     36          2.982147   0.000000
     37          3.372057   0.000000
     38          3.903262   0.000000
     39          5.013931   0.000000
     40          5.218797   0.000000
     41          6.717997   0.000000
     42          6.949032   0.000000
     43          7.320600   0.000000
     44          7.479028   0.000000
     45          7.479815   0.000000
     46          7.708138   0.000000
     47          7.897596   0.000000
     48          8.032181   0.000000
 
  0.2121212E+00 -0.2577974E-16  0.0000000E+00  0.3673095E-02
      1        -19.506963   1.000000
      2        -16.254456   1.000000
      3        -15.689729   1.000000
      4        -15.146671   1.000000
      5        -15.144895   1.000000
      6        -12.981661   1.000000
      7        -12.613907   1.000000
      8        -12.613278   1.000000
      9        -11.686088   1.000000
     10        -11.541131   1.000000
     11        -10.566410   1.000000
     12         -9.346881   1.000000
     13         -8.831754   1.000000
     14         -7.761870   1.000000
     15         -7.552534   1.000000
     16         -7.552075   1.000000
     17         -6.585830   1.000000
     18         -6.550365   1.000000
     19         -6.231720   1.000000
     20         -4.530652   1.000000
     21         -4.062272   1.000000
     22         -4.027865   1.000000
     23         -3.174633   1.000000
     24         -3.025249   1.000000
     25         -2.950799   1.000000
     26         -2.897131   1.000000
     27         -2.075581   1.000000
     28         -0.641776   1.000000
     29          0.252838   0.000000
     30          1.481264   0.000000
     31          1.497432   0.000000
     32          2.004116   0.000000
     33          2.178837   0.000000
     34          2.705026   0.000000
     35          3.151450   0.000000
     36          3.291334   0.000000
     37          3.553814   0.000000
     38          4.014835   0.000000
     39          5.122471   0.000000
     40          5.393379   0.000000
     41          6.584712   0.000000
     42          6.752462   0.000000
     43          7.370591   0.000000
     44          7.688301   0.000000
     45          7.717143   0.000000
     46          7.769289   0.000000
     47          7.771234   0.000000
     48          8.060893   0.000000
 
 -0.2121212E+00  0.2121212E+00  0.0000000E+00  0.1836547E-02
      1        -19.506963   1.000000
      2        -16.254454   1.000000
      3        -15.689729   1.000000
      4        -15.146660   1.000000
      5        -15.144909   1.000000
      6        -12.981666   1.000000
      7        -12.613908   1.000000
      8        -12.613287   1.000000
      9        -11.686084   1.000000
     10        -11.541120   1.000000
     11        -10.566404   1.000000
     12         -9.346882   1.000000
     13         -8.831760   1.000000
     14         -7.761871   1.000000
     15         -7.552516   1.000000
     16         -7.552073   1.000000
     17         -6.585830   1.000000
     18         -6.550387   1.000000
     19         -6.231720   1.000000
     20         -4.530612   1.000000
     21         -4.062283   1.000000
     22         -4.027908   1.000000
     23         -3.174633   1.000000
     24         -3.025226   1.000000
     25         -2.950802   1.000000
     26         -2.897129   1.000000
     27         -2.075585   1.000000
     28         -0.641775   1.000000
     29          0.252847   0.000000
     30          1.481251   0.000000
     31          1.497410   0.000000
     32          2.004113   0.000000
     33          2.178835   0.000000
     34          2.705048   0.000000
     35          3.151448   0.000000
     36          3.291337   0.000000
     37          3.553811   0.000000
     38          4.014837   0.000000
     39          5.122470   0.000000
     40          5.393381   0.000000
     41          6.584719   0.000000
     42          6.752459   0.000000
     43          7.370590   0.000000
     44          7.688294   0.000000
     45          7.717106   0.000000
     46          7.769293   0.000000
     47          7.771235   0.000000
     48          8.060902   0.000000
 
  0.2424242E+00 -0.1775079E-16  0.0000000E+00  0.3673095E-02
      1        -19.427127   1.000000
      2        -16.509694   1.000000
      3        -15.628152   1.000000
      4        -15.225411   1.000000
      5        -15.223792   1.000000
      6        -13.165492   1.000000
      7        -12.410401   1.000000
      8        -12.409807   1.000000
      9        -11.720912   1.000000
     10        -11.169950   1.000000
     11        -10.533925   1.000000
     12         -9.243645   1.000000
     13         -8.703961   1.000000
     14         -7.752379   1.000000
     15         -7.751897   1.000000
     16         -7.665659   1.000000
     17         -6.473406   1.000000
     18         -6.457534   1.000000
     19         -6.137133   1.000000
     20         -4.811307   1.000000
     21         -4.320284   1.000000
     22         -4.163904   1.000000
     23         -3.438591   1.000000
     24         -3.140053   1.000000
     25         -3.033328   1.000000
     26         -3.009018   1.000000
     27         -2.358815   1.000000
     28         -0.739654   1.000000
     29          0.189998   0.000000
     30          1.600642   0.000000
     31          1.610043   0.000000
     32          2.302660   0.000000
     33          2.483070   0.000000
     34          3.065787   0.000000
     35          3.323007   0.000000
     36          3.608191   0.000000
     37          3.764641   0.000000
     38          4.148215   0.000000
     39          5.237009   0.000000
     40          5.563481   0.000000
     41          6.215158   0.000000
     42          6.789756   0.000000
     43          7.350882   0.000000
     44          7.526414   0.000000
     45          7.706642   0.000000
     46          7.904522   0.000000
     47          8.099320   0.000000
     48          8.133574   0.000000
 
 -0.2424242E+00  0.2424242E+00  0.0000000E+00  0.1836547E-02
      1        -19.427126   1.000000
      2        -16.509692   1.000000
      3        -15.628151   1.000000
      4        -15.225401   1.000000
      5        -15.223806   1.000000
      6        -13.165497   1.000000
      7        -12.410402   1.000000
      8        -12.409815   1.000000