 ----------------------------------------------------
    OOO  PPPP  EEEEE N   N M   M PPPP
   O   O P   P E     NN  N MM MM P   P
   O   O PPPP  EEEEE N N N M M M PPPP   -- VERSION
   O   O P     E     N  NN M   M P
    OOO  P     EEEEE N   N M   M P
 ----------------------------------------------------
 running   48 mpi-ranks, with    1 threads/rank
 distrk:  each k-point on   48 cores,    1 groups
 distr:  one band on    1 cores,   48 groups
 vasp.6.3.2 27Jun22 (build Dec 22 2022 13:13:19) complex                        
  
 POSCAR found type information on POSCAR B C 
 POSCAR found :  2 types and      16 ions
 Reading from existing POTCAR
 scaLAPACK will be used
 Reading from existing POTCAR
 LDA part: xc-table for Pade appr. of Perdew
 POSCAR found type information on POSCAR B C 
 POSCAR found :  2 types and      16 ions
 found WAVECAR, reading the header
  number of k-points has changed, file:    81 present:   289
  trying to continue reading WAVECAR, but it might fail
 WARNING: stress and forces are not correct
 POSCAR, INCAR and KPOINTS ok, starting setup
 FFT: planning ... GRIDC
 FFT: planning ... GRID_SOFT
 FFT: planning ... GRID
 reading WAVECAR
 the WAVECAR file was read successfully
 charge-density read from file: SC                                      
 entering main loop
       N       E                     dE             d eps       ncg     rms          rms(c)
DAV:   1    -0.123168434657E+03   -0.12317E+03   -0.13548E+03 48048   0.708E+01
DAV:   2    -0.124056095260E+03   -0.88766E+00   -0.88733E+00 34800   0.107E+01
DAV:   3    -0.124058330083E+03   -0.22348E-02   -0.22348E-02 49440   0.512E-01
DAV:   4    -0.124058332650E+03   -0.25671E-05   -0.25672E-05 39840   0.138E-02
DAV:   5    -0.124058332672E+03   -0.21947E-07   -0.21935E-07 50064   0.984E-04
   1 F= -.12405833E+03 E0= -.12405697E+03  d E =-.273287E-02
