Automatically generated mesh
    4225
Reciprocal lattice
    0.00000000000000    0.00000000000000    0.00000000000000             1
    0.00775193798449   -0.00000000000000    0.00000000000000             4
   -0.00775193798449    0.00775193798449    0.00000000000000             2
    0.01550387596899   -0.00000000000000    0.00000000000000             4
   -0.01550387596899    0.01550387596899    0.00000000000000             2
    0.02325581395349   -0.00000000000000    0.00000000000000             4
   -0.02325581395349    0.02325581395349    0.00000000000000             2
    0.03100775193798    0.00000000000000    0.00000000000000             4
   -0.03100775193798    0.03100775193798    0.00000000000000             2
    0.03875968992248   -0.00000000000000    0.00000000000000             4
   -0.03875968992248    0.03875968992248    0.00000000000000             2
    0.04651162790697   -0.00000000000000    0.00000000000000             4
   -0.04651162790697    0.04651162790697    0.00000000000000             2
    0.05426356589147   -0.00000000000000    0.00000000000000             4
   -0.05426356589147    0.05426356589147    0.00000000000000             2
    0.06201550387597    0.00000000000000    0.00000000000000             4
   -0.06201550387597    0.06201550387597    0.00000000000000             2
    0.06976744186046   -0.00000000000000    0.00000000000000             4
   -0.06976744186046    0.06976744186046    0.00000000000000             2
    0.07751937984496   -0.00000000000000    0.00000000000000             4
   -0.07751937984496    0.07751937984496    0.00000000000000             2
    0.08527131782946   -0.00000000000000    0.00000000000000             4
   -0.08527131782946    0.08527131782946    0.00000000000000             2
    0.09302325581395   -0.00000000000000    0.00000000000000             4
   -0.09302325581395    0.09302325581395    0.00000000000000             2
    0.10077519379845   -0.00000000000000    0.00000000000000             4
   -0.10077519379845    0.10077519379845    0.00000000000000             2
    0.10852713178294   -0.00000000000000    0.00000000000000             4
   -0.10852713178294    0.10852713178294    0.00000000000000             2
    0.11627906976744   -0.00000000000000    0.00000000000000             4
   -0.11627906976744    0.11627906976744    0.00000000000000             2
    0.12403100775194    0.00000000000000    0.00000000000000             4
   -0.12403100775194    0.12403100775194    0.00000000000000             2
    0.13178294573643   -0.00000000000000    0.00000000000000             4
   -0.13178294573643    0.13178294573643    0.00000000000000             2
    0.13953488372093   -0.00000000000000    0.00000000000000             4
   -0.13953488372093    0.13953488372093    0.00000000000000             2
    0.14728682170543   -0.00000000000000    0.00000000000000             4
   -0.14728682170543    0.14728682170543    0.00000000000000             2
    0.15503875968992   -0.00000000000000    0.00000000000000             4
   -0.15503875968992    0.15503875968992    0.00000000000000             2
    0.16279069767442   -0.00000000000000    0.00000000000000             4
   -0.16279069767442    0.16279069767442    0.00000000000000             2
    0.17054263565891   -0.00000000000000    0.00000000000000             4
   -0.17054263565891    0.17054263565891    0.00000000000000             2
    0.17829457364341   -0.00000000000000    0.00000000000000             4
   -0.17829457364341    0.17829457364341    0.00000000000000             2
    0.18604651162791   -0.00000000000000    0.00000000000000             4
   -0.18604651162791    0.18604651162791    0.00000000000000             2
    0.19379844961240   -0.00000000000000    0.00000000000000             4
   -0.19379844961240    0.19379844961240    0.00000000000000             2
    0.20155038759690   -0.00000000000000    0.00000000000000             4
   -0.20155038759690    0.20155038759690    0.00000000000000             2
    0.20930232558140    0.00000000000000    0.00000000000000             4
   -0.20930232558140    0.20930232558140    0.00000000000000             2
    0.21705426356589   -0.00000000000000    0.00000000000000             4
   -0.21705426356589    0.21705426356589    0.00000000000000             2
    0.22480620155039   -0.00000000000000    0.00000000000000             4
   -0.22480620155039    0.22480620155039    0.00000000000000             2
    0.23255813953488   -0.00000000000000    0.00000000000000             4
   -0.23255813953488    0.23255813953488    0.00000000000000             2
    0.24031007751938   -0.00000000000000    0.00000000000000             4
   -0.24031007751938    0.24031007751938    0.00000000000000             2
    0.24806201550388    0.00000000000000    0.00000000000000             4
   -0.24806201550388    0.24806201550388    0.00000000000000             2
    0.25581395348837    0.00000000000000    0.00000000000000             4
   -0.25581395348837    0.25581395348837    0.00000000000000             2
    0.26356589147287   -0.00000000000000    0.00000000000000             4
   -0.26356589147287    0.26356589147287    0.00000000000000             2
    0.27131782945737   -0.00000000000000    0.00000000000000             4
   -0.27131782945737    0.27131782945737    0.00000000000000             2
    0.27906976744186   -0.00000000000000    0.00000000000000             4
   -0.27906976744186    0.27906976744186    0.00000000000000             2
    0.28682170542636   -0.00000000000000    0.00000000000000             4
   -0.28682170542636    0.28682170542636    0.00000000000000             2
    0.29457364341085   -0.00000000000000    0.00000000000000             4
   -0.29457364341085    0.29457364341085    0.00000000000000             2
    0.30232558139535   -0.00000000000000    0.00000000000000             4
   -0.30232558139535    0.30232558139535    0.00000000000000             2
    0.31007751937985   -0.00000000000000    0.00000000000000             4
   -0.31007751937985    0.31007751937985    0.00000000000000             2
    0.31782945736434   -0.00000000000000    0.00000000000000             4
   -0.31782945736434    0.31782945736434    0.00000000000000             2
    0.32558139534883   -0.00000000000000    0.00000000000000             4
   -0.32558139534883    0.32558139534883    0.00000000000000             2
    0.33333333333334   -0.00000000000000    0.00000000000000             4
   -0.33333333333334    0.33333333333334    0.00000000000000             2
    0.34108527131783   -0.00000000000000    0.00000000000000             4
   -0.34108527131783    0.34108527131783    0.00000000000000             2
    0.34883720930232   -0.00000000000000    0.00000000000000             4
   -0.34883720930232    0.34883720930232    0.00000000000000             2
    0.35658914728682   -0.00000000000000    0.00000000000000             4
   -0.35658914728682    0.35658914728682    0.00000000000000             2
    0.36434108527132   -0.00000000000000    0.00000000000000             4
   -0.36434108527132    0.36434108527132    0.00000000000000             2
    0.37209302325581   -0.00000000000000    0.00000000000000             4
   -0.37209302325581    0.37209302325581    0.00000000000000             2
    0.37984496124031   -0.00000000000000    0.00000000000000             4
   -0.37984496124031    0.37984496124031    0.00000000000000             2
    0.38759689922480   -0.00000000000000    0.00000000000000             4
   -0.38759689922480    0.38759689922480    0.00000000000000             2
    0.39534883720930   -0.00000000000000    0.00000000000000             4
   -0.39534883720930    0.39534883720930    0.00000000000000             2
    0.40310077519380   -0.00000000000000    0.00000000000000             4
   -0.40310077519380    0.40310077519380    0.00000000000000             2
    0.41085271317829   -0.00000000000000    0.00000000000000             4
   -0.41085271317829    0.41085271317829    0.00000000000000             2
    0.41860465116279   -0.00000000000000    0.00000000000000             4
   -0.41860465116279    0.41860465116279    0.00000000000000             2
    0.42635658914729   -0.00000000000000    0.00000000000000             4
   -0.42635658914729    0.42635658914729    0.00000000000000             2
    0.43410852713178   -0.00000000000000    0.00000000000000             4
   -0.43410852713178    0.43410852713178    0.00000000000000             2
    0.44186046511628   -0.00000000000000    0.00000000000000             4
   -0.44186046511628    0.44186046511628    0.00000000000000             2
    0.44961240310077   -0.00000000000000    0.00000000000000             4
   -0.44961240310077    0.44961240310077    0.00000000000000             2
    0.45736434108527   -0.00000000000000    0.00000000000000             4
   -0.45736434108527    0.45736434108527    0.00000000000000             2
    0.46511627906977   -0.00000000000000    0.00000000000000             4
   -0.46511627906977    0.46511627906977    0.00000000000000             2
    0.47286821705426   -0.00000000000000    0.00000000000000             4
   -0.47286821705426    0.47286821705426    0.00000000000000             2
    0.48062015503876   -0.00000000000000    0.00000000000000             4
   -0.48062015503876    0.48062015503876    0.00000000000000             2
    0.48837209302326   -0.00000000000000    0.00000000000000             4
   -0.48837209302326    0.48837209302326    0.00000000000000             2
    0.49612403100775    0.00000000000000    0.00000000000000             4
   -0.49612403100775    0.49612403100775    0.00000000000000             2
    0.00775193798449    0.00775193798449    0.00000000000000             2
   -0.00775193798449    0.01550387596899    0.00000000000000             4
    0.01550387596899    0.00775193798449    0.00000000000000             4
   -0.00775193798449    0.02325581395348    0.00000000000000             4
   -0.02325581395348    0.01550387596899    0.00000000000000             4
    0.02325581395349    0.00775193798449    0.00000000000000             4
   -0.00775193798449    0.03100775193798    0.00000000000000             4
   -0.03100775193798    0.02325581395349    0.00000000000000             4
    0.03100775193798    0.00775193798449    0.00000000000000             4
   -0.00775193798449    0.03875968992248    0.00000000000000             4
   -0.03875968992248    0.03100775193798    0.00000000000000             4
    0.03875968992248    0.00775193798449    0.00000000000000             4
   -0.00775193798449    0.04651162790697    0.00000000000000             4
   -0.04651162790697    0.03875968992248    0.00000000000000             4
    0.04651162790697    0.00775193798449    0.00000000000000             4
   -0.00775193798449    0.05426356589147    0.00000000000000             4
   -0.05426356589147    0.04651162790697    0.00000000000000             4
    0.05426356589147    0.00775193798449    0.00000000000000             4
   -0.00775193798449    0.06201550387597    0.00000000000000             4
   -0.06201550387597    0.05426356589147    0.00000000000000             4
    0.06201550387597    0.00775193798449    0.00000000000000             4
   -0.00775193798449    0.06976744186046    0.00000000000000             4
   -0.06976744186046    0.06201550387597    0.00000000000000             4
    0.06976744186046    0.00775193798449    0.00000000000000             4
   -0.00775193798449    0.07751937984496    0.00000000000000             4
   -0.07751937984496    0.06976744186046    0.00000000000000             4
    0.07751937984496    0.00775193798449    0.00000000000000             4
   -0.00775193798449    0.08527131782945    0.00000000000000             4
   -0.08527131782945    0.07751937984496    0.00000000000000             4
    0.08527131782946    0.00775193798449    0.00000000000000             4
   -0.00775193798449    0.09302325581395    0.00000000000000             4
   -0.09302325581395    0.08527131782946    0.00000000000000             4
    0.09302325581395    0.00775193798449    0.00000000000000             4
   -0.00775193798449    0.10077519379845    0.00000000000000             4
   -0.10077519379845    0.09302325581395    0.00000000000000             4
    0.10077519379845    0.00775193798449    0.00000000000000             4
   -0.00775193798449    0.10852713178294    0.00000000000000             4
   -0.10852713178294    0.10077519379845    0.00000000000000             4
    0.10852713178294    0.00775193798449    0.00000000000000             4
   -0.00775193798449    0.11627906976744    0.00000000000000             4
   -0.11627906976744    0.10852713178294    0.00000000000000             4
    0.11627906976744    0.00775193798449    0.00000000000000             4
   -0.00775193798449    0.12403100775194    0.00000000000000             4
   -0.12403100775194    0.11627906976744    0.00000000000000             4
    0.12403100775194    0.00775193798449    0.00000000000000             4
   -0.00775193798449    0.13178294573643    0.00000000000000             4
   -0.13178294573643    0.12403100775194    0.00000000000000             4
    0.13178294573643    0.00775193798449    0.00000000000000             4
   -0.00775193798449    0.13953488372093    0.00000000000000             4
   -0.13953488372093    0.13178294573643    0.00000000000000             4
    0.13953488372093    0.00775193798449    0.00000000000000             4
   -0.00775193798449    0.14728682170542    0.00000000000000             4
   -0.14728682170542    0.13953488372093    0.00000000000000             4
    0.14728682170543    0.00775193798449    0.00000000000000             4
   -0.00775193798449    0.15503875968992    0.00000000000000             4
   -0.15503875968992    0.14728682170543    0.00000000000000             4
    0.15503875968992    0.00775193798449    0.00000000000000             4
   -0.00775193798449    0.16279069767442    0.00000000000000             4
   -0.16279069767442    0.15503875968992    0.00000000000000             4
    0.16279069767442    0.00775193798449    0.00000000000000             4
   -0.00775193798449    0.17054263565891    0.00000000000000             4
   -0.17054263565891    0.16279069767442    0.00000000000000             4
    0.17054263565891    0.00775193798449    0.00000000000000             4
   -0.00775193798449    0.17829457364341    0.00000000000000             4
   -0.17829457364341    0.17054263565891    0.00000000000000             4
    0.17829457364341    0.00775193798449    0.00000000000000             4
   -0.00775193798449    0.18604651162791    0.00000000000000             4
   -0.18604651162791    0.17829457364341    0.00000000000000             4
    0.18604651162791    0.00775193798449    0.00000000000000             4
   -0.00775193798449    0.19379844961240    0.00000000000000             4
   -0.19379844961240    0.18604651162791    0.00000000000000             4
    0.19379844961240    0.00775193798449    0.00000000000000             4
   -0.00775193798449    0.20155038759690    0.00000000000000             4
   -0.20155038759690    0.19379844961240    0.00000000000000             4
    0.20155038759690    0.00775193798449    0.00000000000000             4
   -0.00775193798449    0.20930232558139    0.00000000000000             4
   -0.20930232558139    0.20155038759690    0.00000000000000             4
    0.20930232558140    0.00775193798449    0.00000000000000             4
   -0.00775193798449    0.21705426356589    0.00000000000000             4
   -0.21705426356589    0.20930232558140    0.00000000000000             4
    0.21705426356589    0.00775193798449    0.00000000000000             4
   -0.00775193798449    0.22480620155039    0.00000000000000             4
   -0.22480620155039    0.21705426356589    0.00000000000000             4
    0.22480620155039    0.00775193798449    0.00000000000000             4
   -0.00775193798449    0.23255813953488    0.00000000000000             4
   -0.23255813953488    0.22480620155039    0.00000000000000             4
    0.23255813953488    0.00775193798449    0.00000000000000             4
   -0.00775193798449    0.24031007751937    0.00000000000000             4
   -0.24031007751937    0.23255813953488    0.00000000000000             4
    0.24031007751938    0.00775193798449    0.00000000000000             4
   -0.00775193798449    0.24806201550388    0.00000000000000             4
   -0.24806201550388    0.24031007751938    0.00000000000000             4
    0.24806201550388    0.00775193798449    0.00000000000000             4
   -0.00775193798449    0.25581395348837    0.00000000000000             4
   -0.25581395348837    0.24806201550388    0.00000000000000             4
    0.25581395348837    0.00775193798449    0.00000000000000             4
   -0.00775193798449    0.26356589147287    0.00000000000000             4
   -0.26356589147287    0.25581395348837    0.00000000000000             4
    0.26356589147287    0.00775193798449    0.00000000000000             4
   -0.00775193798449    0.27131782945736    0.00000000000000             4
   -0.27131782945736    0.26356589147287    0.00000000000000             4
    0.27131782945737    0.00775193798449    0.00000000000000             4
   -0.00775193798449    0.27906976744186    0.00000000000000             4
   -0.27906976744186    0.27131782945737    0.00000000000000             4
    0.27906976744186    0.00775193798449    0.00000000000000             4
   -0.00775193798449    0.28682170542636    0.00000000000000             4
   -0.28682170542636    0.27906976744186    0.00000000000000             4
    0.28682170542636    0.00775193798449    0.00000000000000             4
   -0.00775193798449    0.29457364341085    0.00000000000000             4
   -0.29457364341085    0.28682170542636    0.00000000000000             4
    0.29457364341085    0.00775193798449    0.00000000000000             4
   -0.00775193798449    0.30232558139534    0.00000000000000             4
   -0.30232558139534    0.29457364341085    0.00000000000000             4
    0.30232558139535    0.00775193798449    0.00000000000000             4
   -0.00775193798449    0.31007751937985    0.00000000000000             4
   -0.31007751937985    0.30232558139535    0.00000000000000             4
    0.31007751937985    0.00775193798449    0.00000000000000             4
   -0.00775193798449    0.31782945736434    0.00000000000000             4
   -0.31782945736434    0.31007751937985    0.00000000000000             4
    0.31782945736434    0.00775193798449    0.00000000000000             4
   -0.00775193798449    0.32558139534883    0.00000000000000             4
   -0.32558139534883    0.31782945736434    0.00000000000000             4
    0.32558139534883    0.00775193798449    0.00000000000000             4
   -0.00775193798449    0.33333333333333    0.00000000000000             4
   -0.33333333333333    0.32558139534883    0.00000000000000             4
    0.33333333333334    0.00775193798449    0.00000000000000             4
   -0.00775193798449    0.34108527131783    0.00000000000000             4
   -0.34108527131783    0.33333333333334    0.00000000000000             4
    0.34108527131783    0.00775193798449    0.00000000000000             4
   -0.00775193798449    0.34883720930232    0.00000000000000             4
   -0.34883720930232    0.34108527131783    0.00000000000000             4
    0.34883720930232    0.00775193798449    0.00000000000000             4
   -0.00775193798449    0.35658914728682    0.00000000000000             4
   -0.35658914728682    0.34883720930232    0.00000000000000             4
    0.35658914728682    0.00775193798449    0.00000000000000             4
   -0.00775193798449    0.36434108527131    0.00000000000000             4
   -0.36434108527131    0.35658914728682    0.00000000000000             4
    0.36434108527132    0.00775193798449    0.00000000000000             4
   -0.00775193798449    0.37209302325581    0.00000000000000             4
   -0.37209302325581    0.36434108527132    0.00000000000000             4
    0.37209302325581    0.00775193798449    0.00000000000000             4
   -0.00775193798449    0.37984496124031    0.00000000000000             4
   -0.37984496124031    0.37209302325581    0.00000000000000             4
    0.37984496124031    0.00775193798449    0.00000000000000             4
   -0.00775193798449    0.38759689922480    0.00000000000000             4
   -0.38759689922480    0.37984496124031    0.00000000000000             4
    0.38759689922480    0.00775193798449    0.00000000000000             4
   -0.00775193798449    0.39534883720930    0.00000000000000             4
   -0.39534883720930    0.38759689922480    0.00000000000000             4
    0.39534883720930    0.00775193798449    0.00000000000000             4
   -0.00775193798449    0.40310077519380    0.00000000000000             4
   -0.40310077519380    0.39534883720930    0.00000000000000             4
    0.40310077519380    0.00775193798449    0.00000000000000             4
   -0.00775193798449    0.41085271317829    0.00000000000000             4
   -0.41085271317829    0.40310077519380    0.00000000000000             4
    0.41085271317829    0.00775193798449    0.00000000000000             4
   -0.00775193798449    0.41860465116279    0.00000000000000             4
   -0.41860465116279    0.41085271317829    0.00000000000000             4
    0.41860465116279    0.00775193798449    0.00000000000000             4
   -0.00775193798449    0.42635658914728    0.00000000000000             4
   -0.42635658914728    0.41860465116279    0.00000000000000             4
    0.42635658914729    0.00775193798449    0.00000000000000             4
   -0.00775193798449    0.43410852713178    0.00000000000000             4
   -0.43410852713178    0.42635658914729    0.00000000000000             4
    0.43410852713178    0.00775193798449    0.00000000000000             4
   -0.00775193798449    0.44186046511628    0.00000000000000             4
   -0.44186046511628    0.43410852713178    0.00000000000000             4
    0.44186046511628    0.00775193798449    0.00000000000000             4
   -0.00775193798449    0.44961240310077    0.00000000000000             4
   -0.44961240310077    0.44186046511628    0.00000000000000             4
    0.44961240310077    0.00775193798449    0.00000000000000             4
   -0.00775193798449    0.45736434108527    0.00000000000000             4
   -0.45736434108527    0.44961240310077    0.00000000000000             4
    0.45736434108527    0.00775193798449    0.00000000000000             4
   -0.00775193798449    0.46511627906977    0.00000000000000             4
   -0.46511627906977    0.45736434108527    0.00000000000000             4
    0.46511627906977    0.00775193798449    0.00000000000000             4
   -0.00775193798449    0.47286821705426    0.00000000000000             4
   -0.47286821705426    0.46511627906977    0.00000000000000             4
    0.47286821705426    0.00775193798449    0.00000000000000             4
   -0.00775193798449    0.48062015503876    0.00000000000000             4
   -0.48062015503876    0.47286821705426    0.00000000000000             4
    0.48062015503876    0.00775193798449    0.00000000000000             4
   -0.00775193798449    0.48837209302325    0.00000000000000             4
   -0.48837209302325    0.48062015503876    0.00000000000000             4
    0.48837209302326    0.00775193798449    0.00000000000000             4
   -0.00775193798449    0.49612403100775    0.00000000000000             4
   -0.49612403100775    0.48837209302326    0.00000000000000             4
    0.49612403100775    0.00775193798449    0.00000000000000             4
    0.49612403100775    0.49612403100775    0.00000000000000             2
    0.01550387596899    0.01550387596899    0.00000000000000             2
   -0.01550387596899    0.03100775193798    0.00000000000000             4
    0.02325581395349    0.01550387596899    0.00000000000000             4
   -0.01550387596899    0.03875968992248    0.00000000000000             4
   -0.03875968992248    0.02325581395349    0.00000000000000             4
    0.03100775193798    0.01550387596899    0.00000000000000             4
   -0.01550387596899    0.04651162790697    0.00000000000000             4
   -0.04651162790697    0.03100775193798    0.00000000000000             4
    0.03875968992248    0.01550387596899    0.00000000000000             4
   -0.01550387596899    0.05426356589147    0.00000000000000             4
   -0.05426356589147    0.03875968992248    0.00000000000000             4
    0.04651162790697    0.01550387596899    0.00000000000000             4
   -0.01550387596899    0.06201550387596    0.00000000000000             4
   -0.06201550387596    0.04651162790697    0.00000000000000             4
    0.05426356589147    0.01550387596899    0.00000000000000             4
   -0.01550387596899    0.06976744186046    0.00000000000000             4
   -0.06976744186046    0.05426356589147    0.00000000000000             4
    0.06201550387597    0.01550387596899    0.00000000000000             4
   -0.01550387596899    0.07751937984496    0.00000000000000             4
   -0.07751937984496    0.06201550387597    0.00000000000000             4
    0.06976744186046    0.01550387596899    0.00000000000000             4
   -0.01550387596899    0.08527131782945    0.00000000000000             4
   -0.08527131782945    0.06976744186046    0.00000000000000             4
    0.07751937984496    0.01550387596899    0.00000000000000             4
   -0.01550387596899    0.09302325581395    0.00000000000000             4
   -0.09302325581395    0.07751937984496    0.00000000000000             4
    0.08527131782946    0.01550387596899    0.00000000000000             4
   -0.01550387596899    0.10077519379845    0.00000000000000             4
   -0.10077519379845    0.08527131782946    0.00000000000000             4
    0.09302325581395    0.01550387596899    0.00000000000000             4
   -0.01550387596899    0.10852713178294    0.00000000000000             4
   -0.10852713178294    0.09302325581395    0.00000000000000             4
    0.10077519379845    0.01550387596899    0.00000000000000             4
   -0.01550387596899    0.11627906976744    0.00000000000000             4
   -0.11627906976744    0.10077519379845    0.00000000000000             4
    0.10852713178294    0.01550387596899    0.00000000000000             4
   -0.01550387596899    0.12403100775193    0.00000000000000             4
   -0.12403100775193    0.10852713178294    0.00000000000000             4
    0.11627906976744    0.01550387596899    0.00000000000000             4
   -0.01550387596899    0.13178294573643    0.00000000000000             4
   -0.13178294573643    0.11627906976744    0.00000000000000             4
    0.12403100775194    0.01550387596899    0.00000000000000             4
   -0.01550387596899    0.13953488372093    0.00000000000000             4
   -0.13953488372093    0.12403100775194    0.00000000000000             4
    0.13178294573643    0.01550387596899    0.00000000000000             4
   -0.01550387596899    0.14728682170542    0.00000000000000             4
   -0.14728682170542    0.13178294573643    0.00000000000000             4
    0.13953488372093    0.01550387596899    0.00000000000000             4
   -0.01550387596899    0.15503875968992    0.00000000000000             4
   -0.15503875968992    0.13953488372093    0.00000000000000             4
    0.14728682170543    0.01550387596899    0.00000000000000             4
   -0.01550387596899    0.16279069767442    0.00000000000000             4
   -0.16279069767442    0.14728682170543    0.00000000000000             4
    0.15503875968992    0.01550387596899    0.00000000000000             4
   -0.01550387596899    0.17054263565891    0.00000000000000             4
   -0.17054263565891    0.15503875968992    0.00000000000000             4
    0.16279069767442    0.01550387596899    0.00000000000000             4
   -0.01550387596899    0.17829457364341    0.00000000000000             4
   -0.17829457364341    0.16279069767442    0.00000000000000             4
    0.17054263565891    0.01550387596899    0.00000000000000             4
   -0.01550387596899    0.18604651162790    0.00000000000000             4
   -0.18604651162790    0.17054263565891    0.00000000000000             4
    0.17829457364341    0.01550387596899    0.00000000000000             4
   -0.01550387596899    0.19379844961240    0.00000000000000             4
   -0.19379844961240    0.17829457364341    0.00000000000000             4
    0.18604651162791    0.01550387596899    0.00000000000000             4
   -0.01550387596899    0.20155038759690    0.00000000000000             4
   -0.20155038759690    0.18604651162791    0.00000000000000             4
    0.19379844961240    0.01550387596899    0.00000000000000             4
   -0.01550387596899    0.20930232558139    0.00000000000000             4
   -0.20930232558139    0.19379844961240    0.00000000000000             4
    0.20155038759690    0.01550387596899    0.00000000000000             4
   -0.01550387596899    0.21705426356588    0.00000000000000             4
   -0.21705426356588    0.20155038759690    0.00000000000000             4
    0.20930232558140    0.01550387596899    0.00000000000000             4
   -0.01550387596899    0.22480620155039    0.00000000000000             4
   -0.22480620155039    0.20930232558140    0.00000000000000             4
    0.21705426356589    0.01550387596899    0.00000000000000             4
   -0.01550387596899    0.23255813953488    0.00000000000000             4
   -0.23255813953488    0.21705426356589    0.00000000000000             4