<?xml version="1.0" encoding="ISO-8859-1"?>
<modeling>
 <generator>
  <i name="program" type="string">vasp </i>
  <i name="version" type="string">6.3.2  </i>
  <i name="subversion" type="string">27Jun22 (build Dec 22 2022 13:13:19) complex                          parallel </i>
  <i name="platform" type="string">LinuxIFC </i>
  <i name="date" type="string">2023 10 17 </i>
  <i name="time" type="string">15:05:17 </i>
 </generator>
 <incar>
  <i type="string" name="SYSTEM">SC</i>
  <i type="int" name="ISTART">     0</i>
  <i type="string" name="PREC">Accurate</i>
  <i type="string" name="ALGO">Normal</i>
  <i type="int" name="ICHARG">     2</i>
  <i type="int" name="NELM">    64</i>
  <i type="int" name="IBRION">    -1</i>
  <i name="EDIFF">      0.00000100</i>
  <i name="EDIFFG">     -0.00100000</i>
  <i name="SYMPREC">      0.00000100</i>
  <i name="ENCUT">    450.00000000</i>
  <i type="int" name="ISMEAR">     0</i>
  <i name="SIGMA">      0.10000000</i>
  <i type="logical" name="LWAVE"> T  </i>
  <i type="logical" name="LCHARG"> T  </i>
  <i type="string" name="GGA">PE</i>
  <i type="int" name="IVDW">    12</i>
 </incar>
 <primitive_cell>
  <structure name="primitive_cell" >
   <crystal>
    <varray name="basis" >
     <v>       4.19675911       2.42300000       0.00000000 </v>
     <v>      -4.19675911       2.42300000       0.00000000 </v>
     <v>       0.00000000       0.00000000      15.00000000 </v>
    </varray>
    <i name="volume">    305.06241947 </i>
    <varray name="rec_basis" >
     <v>       0.11913955       0.20635576       0.00000000 </v>
     <v>      -0.11913955       0.20635576       0.00000000 </v>
     <v>       0.00000000       0.00000000       0.06666667 </v>
    </varray>
   </crystal>
   <varray name="positions" >
    <v>       0.00405653       0.00269734       0.10150106 </v>
    <v>       0.35924549       0.00297870       0.10071141 </v>
    <v>       0.00376783       0.35759951       0.10071217 </v>
    <v>       0.64914818       0.64750627       0.10070860 </v>
    <v>       0.32778476       0.32614414       0.10073086 </v>
    <v>       0.68060188       0.00297489       0.10073054 </v>
    <v>       0.00377056       0.67895921       0.10072786 </v>
    <v>       0.00013259       0.50006304       0.33511533 </v>
    <v>       0.16678386       0.33345284       0.33515001 </v>
    <v>       0.00011539       0.00007104       0.33507593 </v>
    <v>       0.16682595       0.83340270       0.33515391 </v>
    <v>       0.50012588       0.50009985       0.33511811 </v>
    <v>       0.66678116       0.33340594       0.33501310 </v>
    <v>       0.50008744       0.00005365       0.33511368 </v>
    <v>       0.66673317       0.83335819       0.33515010 </v>
   </varray>
  </structure>
  <varray name="primitive_index" >
   <v type="int" >        1 </v>
   <v type="int" >        2 </v>
   <v type="int" >        3 </v>
   <v type="int" >        4 </v>
   <v type="int" >        5 </v>
   <v type="int" >        6 </v>
   <v type="int" >        7 </v>
   <v type="int" >        8 </v>
   <v type="int" >        9 </v>
   <v type="int" >       10 </v>
   <v type="int" >       11 </v>
   <v type="int" >       12 </v>
   <v type="int" >       13 </v>
   <v type="int" >       14 </v>
   <v type="int" >       15 </v>
  </varray>
 </primitive_cell>
 <kpoints>
  <generation param="Gamma">
   <v type="int" name="divisions">      31       31        1 </v>
   <v name="usershift">      0.00000000       0.00000000       0.00000000 </v>
   <v name="genvec1">      0.03225806      -0.00000000       0.00000000 </v>
   <v name="genvec2">     -0.00000000       0.03225806       0.00000000 </v>
   <v name="genvec3">      0.00000000       0.00000000       1.00000000 </v>
   <v name="shift">      0.00000000       0.00000000       0.00000000 </v>
  </generation>
  <varray name="kpointlist" >
   <v>       0.00000000       0.00000000       0.00000000 </v>
   <v>       0.03225806       0.00000000       0.00000000 </v>
   <v>       0.00000000       0.03225806       0.00000000 </v>
   <v>      -0.03225806       0.03225806       0.00000000 </v>
   <v>       0.06451613       0.00000000       0.00000000 </v>
   <v>       0.00000000       0.06451613       0.00000000 </v>
   <v>      -0.06451613       0.06451613       0.00000000 </v>
   <v>       0.09677419       0.00000000       0.00000000 </v>
   <v>      -0.00000000       0.09677419       0.00000000 </v>
   <v>      -0.09677419       0.09677419       0.00000000 </v>
   <v>       0.12903226       0.00000000       0.00000000 </v>
   <v>       0.00000000       0.12903226       0.00000000 </v>
   <v>      -0.12903226       0.12903226       0.00000000 </v>
   <v>       0.16129032       0.00000000       0.00000000 </v>
   <v>       0.00000000       0.16129032       0.00000000 </v>
   <v>      -0.16129032       0.16129032       0.00000000 </v>
   <v>       0.19354839       0.00000000       0.00000000 </v>
   <v>       0.00000000       0.19354839       0.00000000 </v>
   <v>      -0.19354839       0.19354839       0.00000000 </v>
   <v>       0.22580645       0.00000000       0.00000000 </v>
   <v>       0.00000000       0.22580645       0.00000000 </v>
   <v>      -0.22580645       0.22580645       0.00000000 </v>
   <v>       0.25806452       0.00000000       0.00000000 </v>
   <v>       0.00000000       0.25806452       0.00000000 </v>
   <v>      -0.25806452       0.25806452       0.00000000 </v>
   <v>       0.29032258       0.00000000       0.00000000 </v>
   <v>       0.00000000       0.29032258       0.00000000 </v>
   <v>      -0.29032258       0.29032258       0.00000000 </v>
   <v>       0.32258065       0.00000000       0.00000000 </v>
   <v>       0.00000000       0.32258065       0.00000000 </v>
   <v>      -0.32258065       0.32258065       0.00000000 </v>
   <v>       0.35483871       0.00000000       0.00000000 </v>
   <v>       0.00000000       0.35483871       0.00000000 </v>
   <v>      -0.35483871       0.35483871       0.00000000 </v>
   <v>       0.38709677       0.00000000       0.00000000 </v>
   <v>       0.00000000       0.38709677       0.00000000 </v>
   <v>      -0.38709677       0.38709677       0.00000000 </v>
   <v>       0.41935484       0.00000000       0.00000000 </v>
   <v>       0.00000000       0.41935484       0.00000000 </v>
   <v>      -0.41935484       0.41935484       0.00000000 </v>
   <v>       0.45161290       0.00000000       0.00000000 </v>
   <v>       0.00000000       0.45161290       0.00000000 </v>
   <v>      -0.45161290       0.45161290       0.00000000 </v>
   <v>       0.48387097       0.00000000       0.00000000 </v>
   <v>       0.00000000       0.48387097       0.00000000 </v>
   <v>      -0.48387097       0.48387097       0.00000000 </v>
   <v>       0.03225806       0.03225806       0.00000000 </v>
   <v>      -0.03225806       0.06451613       0.00000000 </v>
   <v>      -0.06451613       0.03225806       0.00000000 </v>
   <v>       0.06451613       0.03225806       0.00000000 </v>
   <v>      -0.03225806       0.09677419       0.00000000 </v>
   <v>      -0.09677419       0.06451613       0.00000000 </v>
   <v>      -0.06451613       0.09677419       0.00000000 </v>
   <v>       0.03225806       0.06451613       0.00000000 </v>
   <v>       0.09677419      -0.03225806       0.00000000 </v>
   <v>       0.09677419       0.03225806       0.00000000 </v>
   <v>      -0.03225806       0.12903226       0.00000000 </v>
   <v>      -0.12903226       0.09677419       0.00000000 </v>
   <v>      -0.09677419       0.12903226       0.00000000 </v>
   <v>       0.03225806       0.09677419       0.00000000 </v>
   <v>       0.12903226      -0.03225806       0.00000000 </v>
   <v>       0.12903226       0.03225806       0.00000000 </v>
   <v>      -0.03225806       0.16129032       0.00000000 </v>
   <v>      -0.16129032       0.12903226       0.00000000 </v>
   <v>      -0.12903226       0.16129032       0.00000000 </v>
   <v>       0.03225806       0.12903226       0.00000000 </v>
   <v>       0.16129032      -0.03225806       0.00000000 </v>
   <v>       0.16129032       0.03225806       0.00000000 </v>
   <v>      -0.03225806       0.19354839       0.00000000 </v>
   <v>      -0.19354839       0.16129032       0.00000000 </v>
   <v>      -0.16129032       0.19354839       0.00000000 </v>
   <v>       0.03225806       0.16129032       0.00000000 </v>
   <v>       0.19354839      -0.03225806       0.00000000 </v>
   <v>       0.19354839       0.03225806       0.00000000 </v>
   <v>      -0.03225806       0.22580645       0.00000000 </v>
   <v>      -0.22580645       0.19354839       0.00000000 </v>
   <v>      -0.19354839       0.22580645       0.00000000 </v>
   <v>       0.03225806       0.19354839       0.00000000 </v>
   <v>       0.22580645      -0.03225806       0.00000000 </v>
   <v>       0.22580645       0.03225806       0.00000000 </v>
   <v>      -0.03225806       0.25806452       0.00000000 </v>
   <v>      -0.25806452       0.22580645       0.00000000 </v>
   <v>      -0.22580645       0.25806452       0.00000000 </v>
   <v>       0.03225806       0.22580645       0.00000000 </v>
   <v>       0.25806452      -0.03225806       0.00000000 </v>
   <v>       0.25806452       0.03225806       0.00000000 </v>
   <v>      -0.03225806       0.29032258       0.00000000 </v>
   <v>      -0.29032258       0.25806452       0.00000000 </v>
   <v>      -0.25806452       0.29032258       0.00000000 </v>
   <v>       0.03225806       0.25806452       0.00000000 </v>
   <v>       0.29032258      -0.03225806       0.00000000 </v>
   <v>       0.29032258       0.03225806       0.00000000 </v>
   <v>      -0.03225806       0.32258065       0.00000000 </v>
   <v>      -0.32258065       0.29032258       0.00000000 </v>
   <v>      -0.29032258       0.32258065       0.00000000 </v>
   <v>       0.03225806       0.29032258       0.00000000 </v>
   <v>       0.32258065      -0.03225806       0.00000000 </v>
   <v>       0.32258065       0.03225806       0.00000000 </v>
   <v>      -0.03225806       0.35483871       0.00000000 </v>
   <v>      -0.35483871       0.32258065       0.00000000 </v>
   <v>      -0.32258065       0.35483871       0.00000000 </v>
   <v>       0.03225806       0.32258065       0.00000000 </v>
   <v>       0.35483871      -0.03225806       0.00000000 </v>
   <v>       0.35483871       0.03225806       0.00000000 </v>
   <v>      -0.03225806       0.38709677       0.00000000 </v>
   <v>      -0.38709677       0.35483871       0.00000000 </v>
   <v>      -0.35483871       0.38709677       0.00000000 </v>
   <v>       0.03225806       0.35483871       0.00000000 </v>
   <v>       0.38709677      -0.03225806       0.00000000 </v>
   <v>       0.38709677       0.03225806       0.00000000 </v>
   <v>      -0.03225806       0.41935484       0.00000000 </v>
   <v>      -0.41935484       0.38709677       0.00000000 </v>
   <v>      -0.38709677       0.41935484       0.00000000 </v>
   <v>       0.03225806       0.38709677       0.00000000 </v>
   <v>       0.41935484      -0.03225806       0.00000000 </v>
   <v>       0.41935484       0.03225806       0.00000000 </v>
   <v>      -0.03225806       0.45161290       0.00000000 </v>
   <v>      -0.45161290       0.41935484       0.00000000 </v>
   <v>      -0.41935484       0.45161290       0.00000000 </v>
   <v>       0.03225806       0.41935484       0.00000000 </v>
   <v>       0.45161290      -0.03225806       0.00000000 </v>
   <v>       0.45161290       0.03225806       0.00000000 </v>
   <v>      -0.03225806       0.48387097       0.00000000 </v>
   <v>      -0.48387097       0.45161290       0.00000000 </v>
   <v>      -0.45161290       0.48387097       0.00000000 </v>
   <v>       0.03225806       0.45161290       0.00000000 </v>
   <v>       0.48387097      -0.03225806       0.00000000 </v>
   <v>       0.48387097       0.03225806       0.00000000 </v>
   <v>      -0.03225806      -0.48387097       0.00000000 </v>
   <v>       0.48387097       0.48387097       0.00000000 </v>
   <v>       0.06451613       0.06451613       0.00000000 </v>
   <v>      -0.06451613       0.12903226       0.00000000 </v>
   <v>      -0.12903226       0.06451613       0.00000000 </v>
   <v>       0.09677419       0.06451613       0.00000000 </v>
   <v>      -0.06451613       0.16129032       0.00000000 </v>
   <v>      -0.16129032       0.09677419       0.00000000 </v>
   <v>      -0.09677419       0.16129032       0.00000000 </v>
   <v>       0.06451613       0.09677419       0.00000000 </v>
   <v>       0.16129032      -0.06451613       0.00000000 </v>
   <v>       0.12903226       0.06451613       0.00000000 </v>
   <v>      -0.06451613       0.19354839       0.00000000 </v>
   <v>      -0.19354839       0.12903226       0.00000000 </v>
   <v>      -0.12903226       0.19354839       0.00000000 </v>
   <v>       0.06451613       0.12903226       0.00000000 </v>
   <v>       0.19354839      -0.06451613       0.00000000 </v>
   <v>       0.16129032       0.06451613       0.00000000 </v>
   <v>      -0.06451613       0.22580645       0.00000000 </v>
   <v>      -0.22580645       0.16129032       0.00000000 </v>
   <v>      -0.16129032       0.22580645       0.00000000 </v>
   <v>       0.06451613       0.16129032       0.00000000 </v>
   <v>       0.22580645      -0.06451613       0.00000000 </v>
   <v>       0.19354839       0.06451613       0.00000000 </v>
   <v>      -0.06451613       0.25806452       0.00000000 </v>
   <v>      -0.25806452       0.19354839       0.00000000 </v>
   <v>      -0.19354839       0.25806452       0.00000000 </v>
   <v>       0.06451613       0.19354839       0.00000000 </v>
   <v>       0.25806452      -0.06451613       0.00000000 </v>
   <v>       0.22580645       0.06451613       0.00000000 </v>
   <v>      -0.06451613       0.29032258       0.00000000 </v>
   <v>      -0.29032258       0.22580645       0.00000000 </v>
   <v>      -0.22580645       0.29032258       0.00000000 </v>
   <v>       0.06451613       0.22580645       0.00000000 </v>
   <v>       0.29032258      -0.06451613       0.00000000 </v>
   <v>       0.25806452       0.06451613       0.00000000 </v>
   <v>      -0.06451613       0.32258065       0.00000000 </v>
   <v>      -0.32258065       0.25806452       0.00000000 </v>
   <v>      -0.25806452       0.32258065       0.00000000 </v>
   <v>       0.06451613       0.25806452       0.00000000 </v>
   <v>       0.32258065      -0.06451613       0.00000000 </v>
   <v>       0.29032258       0.06451613       0.00000000 </v>
   <v>      -0.06451613       0.35483871       0.00000000 </v>
   <v>      -0.35483871       0.29032258       0.00000000 </v>
   <v>      -0.29032258       0.35483871       0.00000000 </v>
   <v>       0.06451613       0.29032258       0.00000000 </v>
   <v>       0.35483871      -0.06451613       0.00000000 </v>
   <v>       0.32258065       0.06451613       0.00000000 </v>
   <v>      -0.06451613       0.38709677       0.00000000 </v>
   <v>      -0.38709677       0.32258065       0.00000000 </v>
   <v>      -0.32258065       0.38709677       0.00000000 </v>
   <v>       0.06451613       0.32258065       0.00000000 </v>
   <v>       0.38709677      -0.06451613       0.00000000 </v>
   <v>       0.35483871       0.06451613       0.00000000 </v>
   <v>      -0.06451613       0.41935484       0.00000000 </v>
   <v>      -0.41935484       0.35483871       0.00000000 </v>
   <v>      -0.35483871       0.41935484       0.00000000 </v>
   <v>       0.06451613       0.35483871       0.00000000 </v>
   <v>       0.41935484      -0.06451613       0.00000000 </v>
   <v>       0.38709677       0.06451613       0.00000000 </v>
   <v>      -0.06451613       0.45161290       0.00000000 </v>
   <v>      -0.45161290       0.38709677       0.00000000 </v>
   <v>      -0.38709677       0.45161290       0.00000000 </v>
   <v>       0.06451613       0.38709677       0.00000000 </v>
   <v>       0.45161290      -0.06451613       0.00000000 </v>
   <v>       0.41935484       0.06451613       0.00000000 </v>
   <v>      -0.06451613       0.48387097       0.00000000 </v>
   <v>      -0.48387097       0.41935484       0.00000000 </v>
   <v>      -0.41935484       0.48387097       0.00000000 </v>
   <v>       0.06451613       0.41935484       0.00000000 </v>
   <v>       0.48387097      -0.06451613       0.00000000 </v>
   <v>       0.45161290       0.06451613       0.00000000 </v>
   <v>      -0.06451613      -0.48387097       0.00000000 </v>
   <v>       0.48387097       0.45161290       0.00000000 </v>
   <v>      -0.45161290      -0.48387097       0.00000000 </v>
   <v>       0.06451613       0.45161290       0.00000000 </v>
   <v>      -0.48387097      -0.06451613       0.00000000 </v>
   <v>       0.09677419       0.09677419       0.00000000 </v>
   <v>      -0.09677419       0.19354839       0.00000000 </v>
   <v>      -0.19354839       0.09677419       0.00000000 </v>
   <v>       0.12903226       0.09677419       0.00000000 </v>
   <v>      -0.09677419       0.22580645       0.00000000 </v>
   <v>      -0.22580645       0.12903226       0.00000000 </v>
   <v>      -0.12903226       0.22580645       0.00000000 </v>
   <v>       0.09677419       0.12903226       0.00000000 </v>
   <v>       0.22580645      -0.09677419       0.00000000 </v>
   <v>       0.16129032       0.09677419       0.00000000 </v>
   <v>      -0.09677419       0.25806452       0.00000000 </v>
   <v>      -0.25806452       0.16129032       0.00000000 </v>
   <v>      -0.16129032       0.25806452       0.00000000 </v>
   <v>       0.09677419       0.16129032       0.00000000 </v>
   <v>       0.25806452      -0.09677419       0.00000000 </v>
   <v>       0.19354839       0.09677419       0.00000000 </v>
   <v>      -0.09677419       0.29032258       0.00000000 </v>
   <v>      -0.29032258       0.19354839       0.00000000 </v>
   <v>      -0.19354839       0.29032258       0.00000000 </v>
   <v>       0.09677419       0.19354839       0.00000000 </v>
   <v>       0.29032258      -0.09677419       0.00000000 </v>
   <v>       0.22580645       0.09677419       0.00000000 </v>
   <v>      -0.09677419       0.32258065       0.00000000 </v>
   <v>      -0.32258065       0.22580645       0.00000000 </v>
   <v>      -0.22580645       0.32258065       0.00000000 </v>
   <v>       0.09677419       0.22580645       0.00000000 </v>
   <v>       0.32258065      -0.09677419       0.00000000 </v>
   <v>       0.25806452       0.09677419       0.00000000 </v>
   <v>      -0.09677419       0.35483871       0.00000000 </v>
   <v>      -0.35483871       0.25806452       0.00000000 </v>
   <v>      -0.25806452       0.35483871       0.00000000 </v>
   <v>       0.09677419       0.25806452       0.00000000 </v>
   <v>       0.35483871      -0.09677419       0.00000000 </v>
   <v>       0.29032258       0.09677419       0.00000000 </v>
   <v>      -0.09677419       0.38709677       0.00000000 </v>
   <v>      -0.38709677       0.29032258       0.00000000 </v>
   <v>      -0.29032258       0.38709677       0.00000000 </v>
   <v>       0.09677419       0.29032258       0.00000000 </v>
   <v>       0.38709677      -0.09677419       0.00000000 </v>
   <v>       0.32258065       0.09677419       0.00000000 </v>
   <v>      -0.09677419       0.41935484       0.00000000 </v>
   <v>      -0.41935484       0.32258065       0.00000000 </v>
   <v>      -0.32258065       0.41935484       0.00000000 </v>
   <v>       0.09677419       0.32258065       0.00000000 </v>
   <v>       0.41935484      -0.09677419       0.00000000 </v>
   <v>       0.35483871       0.09677419       0.00000000 </v>
   <v>      -0.09677419       0.45161290       0.00000000 </v>
   <v>      -0.45161290       0.35483871       0.00000000 </v>
   <v>      -0.35483871       0.45161290       0.00000000 </v>
   <v>       0.09677419       0.35483871       0.00000000 </v>
   <v>       0.45161290      -0.09677419       0.00000000 </v>
   <v>       0.38709677       0.09677419       0.00000000 </v>
   <v>      -0.09677419       0.48387097       0.00000000 </v>
   <v>      -0.48387097       0.38709677       0.00000000 </v>
   <v>      -0.38709677       0.48387097       0.00000000 </v>
   <v>       0.09677419       0.38709677       0.00000000 </v>
   <v>       0.48387097      -0.09677419       0.00000000 </v>
   <v>       0.41935484       0.09677419       0.00000000 </v>
   <v>      -0.09677419      -0.48387097       0.00000000 </v>
   <v>       0.48387097       0.41935484       0.00000000 </v>
   <v>      -0.41935484      -0.48387097       0.00000000 </v>
   <v>       0.09677419       0.41935484       0.00000000 </v>
   <v>      -0.48387097      -0.09677419       0.00000000 </v>
   <v>       0.45161290       0.09677419       0.00000000 </v>
   <v>      -0.09677419      -0.45161290       0.00000000 </v>
   <v>       0.45161290       0.45161290       0.00000000 </v>
   <v>       0.12903226       0.12903226       0.00000000 </v>
   <v>      -0.12903226       0.25806452       0.00000000 </v>
   <v>      -0.25806452       0.12903226       0.00000000 </v>
   <v>       0.16129032       0.12903226       0.00000000 </v>
   <v>      -0.12903226       0.29032258       0.00000000 </v>
   <v>      -0.29032258       0.16129032       0.00000000 </v>
   <v>      -0.16129032       0.29032258       0.00000000 </v>
   <v>       0.12903226       0.16129032       0.00000000 </v>
   <v>       0.29032258      -0.12903226       0.00000000 </v>
   <v>       0.19354839       0.12903226       0.00000000 </v>
   <v>      -0.12903226       0.32258065       0.00000000 </v>
   <v>      -0.32258065       0.19354839       0.00000000 </v>
   <v>      -0.19354839       0.32258065       0.00000000 </v>
   <v>       0.12903226       0.19354839       0.00000000 </v>
   <v>       0.32258065      -0.12903226       0.00000000 </v>
   <v>       0.22580645       0.12903226       0.00000000 </v>
   <v>      -0.12903226       0.35483871       0.00000000 </v>
   <v>      -0.35483871       0.22580645       0.00000000 </v>
   <v>      -0.22580645       0.35483871       0.00000000 </v>
   <v>       0.12903226       0.22580645       0.00000000 </v>
   <v>       0.35483871      -0.12903226       0.00000000 </v>
   <v>       0.25806452       0.12903226       0.00000000 </v>
   <v>      -0.12903226       0.38709677       0.00000000 </v>
   <v>      -0.38709677       0.25806452       0.00000000 </v>
   <v>      -0.25806452       0.38709677       0.00000000 </v>
   <v>       0.12903226       0.25806452       0.00000000 </v>
   <v>       0.38709677      -0.12903226       0.00000000 </v>
   <v>       0.29032258       0.12903226       0.00000000 </v>
   <v>      -0.12903226       0.41935484       0.00000000 </v>
   <v>      -0.41935484       0.29032258       0.00000000 </v>
   <v>      -0.29032258       0.41935484       0.00000000 </v>
   <v>       0.12903226       0.29032258       0.00000000 </v>
   <v>       0.41935484      -0.12903226       0.00000000 </v>
   <v>       0.32258065       0.12903226       0.00000000 </v>
   <v>      -0.12903226       0.45161290       0.00000000 </v>
   <v>      -0.45161290       0.32258065       0.00000000 </v>
   <v>      -0.32258065       0.45161290       0.00000000 </v>
   <v>       0.12903226       0.32258065       0.00000000 </v>
   <v>       0.45161290      -0.12903226       0.00000000 </v>
   <v>       0.35483871       0.12903226       0.00000000 </v>
   <v>      -0.12903226       0.48387097       0.00000000 </v>
   <v>      -0.48387097       0.35483871       0.00000000 </v>
   <v>      -0.35483871       0.48387097       0.00000000 </v>
   <v>       0.12903226       0.35483871       0.00000000 </v>
   <v>       0.48387097      -0.12903226       0.00000000 </v>
   <v>       0.38709677       0.12903226       0.00000000 </v>
   <v>      -0.12903226      -0.48387097       0.00000000 </v>
   <v>       0.48387097       0.38709677       0.00000000 </v>
   <v>      -0.38709677      -0.48387097       0.00000000 </v>
   <v>       0.12903226       0.38709677       0.00000000 </v>
   <v>      -0.48387097      -0.12903226       0.00000000 </v>
   <v>       0.41935484       0.12903226       0.00000000 </v>
   <v>      -0.12903226      -0.45161290       0.00000000 </v>
   <v>       0.45161290       0.41935484       0.00000000 </v>
   <v>      -0.41935484      -0.45161290       0.00000000 </v>
   <v>       0.12903226       0.41935484       0.00000000 </v>
   <v>      -0.45161290      -0.12903226       0.00000000 </v>
   <v>       0.16129032       0.16129032       0.00000000 </v>
   <v>      -0.16129032       0.32258065       0.00000000 </v>
   <v>      -0.32258065       0.16129032       0.00000000 </v>
   <v>       0.19354839       0.16129032       0.00000000 </v>
   <v>      -0.16129032       0.35483871       0.00000000 </v>
   <v>      -0.35483871       0.19354839       0.00000000 </v>
   <v>      -0.19354839       0.35483871       0.00000000 </v>
   <v>       0.16129032       0.19354839       0.00000000 </v>
   <v>       0.35483871      -0.16129032       0.00000000 </v>
   <v>       0.22580645       0.16129032       0.00000000 </v>
   <v>      -0.16129032       0.38709677       0.00000000 </v>
   <v>      -0.38709677       0.22580645       0.00000000 </v>
   <v>      -0.22580645       0.38709677       0.00000000 </v>
   <v>       0.16129032       0.22580645       0.00000000 </v>
   <v>       0.38709677      -0.16129032       0.00000000 </v>
   <v>       0.25806452       0.16129032       0.00000000 </v>
   <v>      -0.16129032       0.41935484       0.00000000 </v>
   <v>      -0.41935484       0.25806452       0.00000000 </v>
   <v>      -0.25806452       0.41935484       0.00000000 </v>
   <v>       0.16129032       0.25806452       0.00000000 </v>
   <v>       0.41935484      -0.16129032       0.00000000 </v>
   <v>       0.29032258       0.16129032       0.00000000 </v>
   <v>      -0.16129032       0.45161290       0.00000000 </v>
   <v>      -0.45161290       0.29032258       0.00000000 </v>
   <v>      -0.29032258       0.45161290       0.00000000 </v>
   <v>       0.16129032       0.29032258       0.00000000 </v>
   <v>       0.45161290      -0.16129032       0.00000000 </v>
   <v>       0.32258065       0.16129032       0.00000000 </v>
   <v>      -0.16129032       0.48387097       0.00000000 </v>
   <v>      -0.48387097       0.32258065       0.00000000 </v>
   <v>      -0.32258065       0.48387097       0.00000000 </v>
   <v>       0.16129032       0.32258065       0.00000000 </v>
   <v>       0.48387097      -0.16129032       0.00000000 </v>
   <v>       0.35483871       0.16129032       0.00000000 </v>
   <v>      -0.16129032      -0.48387097       0.00000000 </v>
   <v>       0.48387097       0.35483871       0.00000000 </v>
   <v>      -0.35483871      -0.48387097       0.00000000 </v>
   <v>       0.16129032       0.35483871       0.00000000 </v>
   <v>      -0.48387097      -0.16129032       0.00000000 </v>
   <v>       0.38709677       0.16129032       0.00000000 </v>
   <v>      -0.16129032      -0.45161290       0.00000000 </v>
   <v>       0.45161290       0.38709677       0.00000000 </v>
   <v>      -0.38709677      -0.45161290       0.00000000 </v>
   <v>       0.16129032       0.38709677       0.00000000 </v>
   <v>      -0.45161290      -0.16129032       0.00000000 </v>
   <v>       0.41935484       0.16129032       0.00000000 </v>
   <v>      -0.16129032      -0.41935484       0.00000000 </v>
   <v>       0.41935484       0.41935484       0.00000000 </v>
   <v>       0.19354839       0.19354839       0.00000000 </v>
   <v>      -0.19354839       0.38709677       0.00000000 </v>
   <v>      -0.38709677       0.19354839       0.00000000 </v>
   <v>       0.22580645       0.19354839       0.00000000 </v>
   <v>      -0.19354839       0.41935484       0.00000000 </v>
   <v>      -0.41935484       0.22580645       0.00000000 </v>
   <v>      -0.22580645       0.41935484       0.00000000 </v>
   <v>       0.19354839       0.22580645       0.00000000 </v>
   <v>       0.41935484      -0.19354839       0.00000000 </v>
   <v>       0.25806452       0.19354839       0.00000000 </v>
   <v>      -0.19354839       0.45161290       0.00000000 </v>
   <v>      -0.45161290       0.25806452       0.00000000 </v>
   <v>      -0.25806452       0.45161290       0.00000000 </v>
   <v>       0.19354839       0.25806452       0.00000000 </v>
   <v>       0.45161290      -0.19354839       0.00000000 </v>
   <v>       0.29032258       0.19354839       0.00000000 </v>
   <v>      -0.19354839       0.48387097       0.00000000 </v>
   <v>      -0.48387097       0.29032258       0.00000000 </v>
   <v>      -0.29032258       0.48387097       0.00000000 </v>
   <v>       0.19354839       0.29032258       0.00000000 </v>
   <v>       0.48387097      -0.19354839       0.00000000 </v>
   <v>       0.32258065       0.19354839       0.00000000 </v>
   <v>      -0.19354839      -0.48387097       0.00000000 </v>
   <v>       0.48387097       0.32258065       0.00000000 </v>
   <v>      -0.32258065      -0.48387097       0.00000000 </v>
   <v>       0.19354839       0.32258065       0.00000000 </v>
   <v>      -0.48387097      -0.19354839       0.00000000 </v>
   <v>       0.35483871       0.19354839       0.00000000 </v>
   <v>      -0.19354839      -0.45161290       0.00000000 </v>
   <v>       0.45161290       0.35483871       0.00000000 </v>
   <v>      -0.35483871      -0.45161290       0.00000000 </v>
   <v>       0.19354839       0.35483871       0.00000000 </v>
   <v>      -0.45161290      -0.19354839       0.00000000 </v>
   <v>       0.38709677       0.19354839       0.00000000 </v>
   <v>      -0.19354839      -0.41935484       0.00000000 </v>
   <v>       0.41935484       0.38709677       0.00000000 </v>
   <v>      -0.38709677      -0.41935484       0.00000000 </v>
   <v>       0.19354839       0.38709677       0.00000000 </v>
   <v>      -0.41935484      -0.19354839       0.00000000 </v>
   <v>       0.22580645       0.22580645       0.00000000 </v>
   <v>      -0.22580645       0.45161290       0.00000000 </v>
   <v>      -0.45161290       0.22580645       0.00000000 </v>
   <v>       0.25806452       0.22580645       0.00000000 </v>
   <v>      -0.22580645       0.48387097       0.00000000 </v>
   <v>      -0.48387097       0.25806452       0.00000000 </v>
   <v>      -0.25806452       0.48387097       0.00000000 </v>
   <v>       0.22580645       0.25806452       0.00000000 </v>
   <v>       0.48387097      -0.22580645       0.00000000 </v>
   <v>       0.29032258       0.22580645       0.00000000 </v>
   <v>      -0.22580645      -0.48387097       0.00000000 </v>
   <v>       0.48387097       0.29032258       0.00000000 </v>
   <v>      -0.29032258      -0.48387097       0.00000000 </v>
   <v>       0.22580645       0.29032258       0.00000000 </v>
   <v>      -0.48387097      -0.22580645       0.00000000 </v>
   <v>       0.32258065       0.22580645       0.00000000 </v>
   <v>      -0.22580645      -0.45161290       0.00000000 </v>
   <v>       0.45161290       0.32258065       0.00000000 </v>
   <v>      -0.32258065      -0.45161290       0.00000000 </v>
   <v>       0.22580645       0.32258065       0.00000000 </v>
   <v>      -0.45161290      -0.22580645       0.00000000 </v>
   <v>       0.35483871       0.22580645       0.00000000 </v>
   <v>      -0.22580645      -0.41935484       0.00000000 </v>
   <v>       0.41935484       0.35483871       0.00000000 </v>
   <v>      -0.35483871      -0.41935484       0.00000000 </v>
   <v>       0.22580645       0.35483871       0.00000000 </v>
   <v>      -0.41935484      -0.22580645       0.00000000 </v>
   <v>       0.38709677       0.22580645       0.00000000 </v>
   <v>      -0.22580645      -0.38709677       0.00000000 </v>
   <v>       0.38709677       0.38709677       0.00000000 </v>
   <v>       0.25806452       0.25806452       0.00000000 </v>
   <v>      -0.25806452      -0.48387097       0.00000000 </v>
   <v>       0.48387097       0.25806452       0.00000000 </v>
   <v>       0.29032258       0.25806452       0.00000000 </v>
   <v>      -0.25806452      -0.45161290       0.00000000 </v>
   <v>       0.45161290       0.29032258       0.00000000 </v>
   <v>      -0.29032258      -0.45161290       0.00000000 </v>
   <v>       0.25806452       0.29032258       0.00000000 </v>
   <v>      -0.45161290      -0.25806452       0.00000000 </v>
   <v>       0.32258065       0.25806452       0.00000000 </v>
   <v>      -0.25806452      -0.41935484       0.00000000 </v>
   <v>       0.41935484       0.32258065       0.00000000 </v>
   <v>      -0.32258065      -0.41935484       0.00000000 </v>
   <v>       0.25806452       0.32258065       0.00000000 </v>
   <v>      -0.41935484      -0.25806452       0.00000000 </v>
   <v>       0.35483871       0.25806452       0.00000000 </v>
   <v>      -0.25806452      -0.38709677       0.00000000 </v>
   <v>       0.38709677       0.35483871       0.00000000 </v>
   <v>      -0.35483871      -0.38709677       0.00000000 </v>
   <v>       0.25806452       0.35483871       0.00000000 </v>
   <v>      -0.38709677      -0.25806452       0.00000000 </v>
   <v>       0.29032258       0.29032258       0.00000000 </v>
   <v>      -0.29032258      -0.41935484       0.00000000 </v>
   <v>       0.41935484       0.29032258       0.00000000 </v>
   <v>       0.32258065       0.29032258       0.00000000 </v>
   <v>      -0.29032258      -0.38709677       0.00000000 </v>
   <v>       0.38709677       0.32258065       0.00000000 </v>
   <v>      -0.32258065      -0.38709677       0.00000000 </v>
   <v>       0.29032258       0.32258065       0.00000000 </v>
   <v>      -0.38709677      -0.29032258       0.00000000 </v>
   <v>       0.35483871       0.29032258       0.00000000 </v>
   <v>      -0.29032258      -0.35483871       0.00000000 </v>
   <v>       0.35483871       0.35483871       0.00000000 </v>
   <v>       0.32258065       0.32258065       0.00000000 </v>
   <v>      -0.32258065      -0.35483871       0.00000000 </v>
   <v>       0.35483871       0.32258065       0.00000000 </v>
  </varray>
  <varray name="weights" >
   <v>       0.00104058 </v>
   <v>       0.00208117 </v>
   <v>       0.00208117 </v>
   <v>       0.00208117 </v>
   <v>       0.00208117 </v>
   <v>       0.00208117 </v>
   <v>       0.00208117 </v>
   <v>       0.00208117 </v>
   <v>       0.00208117 </v>
   <v>       0.00208117 </v>
   <v>       0.00208117 </v>
   <v>       0.00208117 </v>
   <v>       0.00208117 </v>
   <v>       0.00208117 </v>
   <v>       0.00208117 </v>
   <v>       0.00208117 </v>
   <v>       0.00208117 </v>
   <v>       0.00208117 </v>
   <v>       0.00208117 </v>
   <v>       0.00208117 </v>
   <v>       0.00208117 </v>
   <v>       0.00208117 </v>
   <v>       0.00208117 </v>
   <v>       0.00208117 </v>
   <v>       0.00208117 </v>
   <v>       0.00208117 </v>
   <v>       0.00208117 </v>
   <v>       0.00208117 </v>
   <v>       0.00208117 </v>
   <v>       0.00208117 </v>
   <v>       0.00208117 </v>
   <v>       0.00208117 </v>
   <v>       0.00208117 </v>
   <v>       0.00208117 </v>
   <v>       0.00208117 </v>
   <v>       0.00208117 </v>
   <v>       0.00208117 </v>
   <v>       0.00208117 </v>
   <v>       0.00208117 </v>
   <v>       0.00208117 </v>
   <v>       0.00208117 </v>
   <v>       0.00208117 </v>
   <v>       0.00208117 </v>
   <v>       0.00208117 </v>
   <v>       0.00208117 </v>
   <v>       0.00208117 </v>
   <v>       0.00208117 </v>
   <v>       0.00208117 </v>
   <v>       0.00208117 </v>
   <v>       0.00208117 </v>
   <v>       0.00208117 </v>
   <v>       0.00208117 </v>
   <v>       0.00208117 </v>
   <v>       0.00208117 </v>
   <v>       0.00208117 </v>
   <v>       0.00208117 </v>
   <v>       0.00208117 </v>
   <v>       0.00208117 </v>
   <v>       0.00208117 </v>
   <v>       0.00208117 </v>
   <v>       0.00208117 </v>
   <v>       0.00208117 </v>
   <v>       0.00208117 </v>
   <v>       0.00208117 </v>
   <v>       0.00208117 </v>
   <v>       0.00208117 </v>
   <v>       0.00208117 </v>
   <v>       0.00208117 </v>
   <v>       0.00208117 </v>
   <v>       0.00208117 </v>
   <v>       0.00208117 </v>
   <v>       0.00208117 </v>
   <v>       0.00208117 </v>
   <v>       0.00208117 </v>
   <v>       0.00208117 </v>
   <v>       0.00208117 </v>
   <v>       0.00208117 </v>
   <v>       0.00208117 </v>
   <v>       0.00208117 </v>
   <v>       0.00208117 </v>
   <v>       0.00208117 </v>
   <v>       0.00208117 </v>
   <v>       0.00208117 </v>
   <v>       0.00208117 </v>
   <v>       0.00208117 </v>
   <v>       0.00208117 </v>
   <v>       0.00208117 </v>
   <v>       0.00208117 </v>
   <v>       0.00208117 </v>
   <v>       0.00208117 </v>
   <v>       0.00208117 </v>
   <v>       0.00208117 </v>
   <v>       0.00208117 </v>
   <v>       0.00208117 </v>
   <v>       0.00208117 </v>
   <v>       0.00208117 </v>
   <v>       0.00208117 </v>
   <v>       0.00208117 </v>
   <v>       0.00208117 </v>
   <v>       0.00208117 </v>
   <v>       0.00208117 </v>
   <v>       0.00208117 </v>
   <v>       0.00208117 </v>
   <v>       0.00208117 </v>
   <v>       0.00208117 </v>
   <v>       0.00208117 </v>
   <v>       0.00208117 </v>
   <v>       0.00208117 </v>
   <v>       0.00208117 </v>
   <v>       0.00208117 </v>
   <v>       0.00208117 </v>
   <v>       0.00208117 </v>
   <v>       0.00208117 </v>
   <v>       0.00208117 </v>
   <v>       0.00208117 </v>
   <v>       0.00208117 </v>
   <v>       0.00208117 </v>
   <v>       0.00208117 </v>
   <v>       0.00208117 </v>
   <v>       0.00208117 </v>
   <v>       0.00208117 </v>
   <v>       0.00208117 </v>
   <v>       0.00208117 </v>
   <v>       0.00208117 </v>
   <v>       0.00208117 </v>
   <v>       0.00208117 </v>
   <v>       0.00208117 </v>
   <v>       0.00208117 </v>
   <v>       0.00208117 </v>
   <v>       0.00208117 </v>
   <v>       0.00208117 </v>
   <v>       0.00208117 </v>
   <v>       0.00208117 </v>
   <v>       0.00208117 </v>
   <v>       0.00208117 </v>
   <v>       0.00208117 </v>
   <v>       0.00208117 </v>
   <v>       0.00208117 </v>
   <v>       0.00208117 </v>
   <v>       0.00208117 </v>
   <v>       0.00208117 </v>
   <v>       0.00208117 </v>
   <v>       0.00208117 </v>
   <v>       0.00208117 </v>
   <v>       0.00208117 </v>
   <v>       0.00208117 </v>
   <v>       0.00208117 </v>
   <v>       0.00208117 </v>
   <v>       0.00208117 </v>
   <v>       0.00208117 </v>
   <v>       0.00208117 </v>
   <v>       0.00208117 </v>
   <v>       0.00208117 </v>
   <v>       0.00208117 </v>
   <v>       0.00208117 </v>
   <v>       0.00208117 </v>
   <v>       0.00208117 </v>
   <v>       0.00208117 </v>
   <v>       0.00208117 </v>
   <v>       0.00208117 </v>
   <v>       0.00208117 </v>
   <v>       0.00208117 </v>
   <v>       0.00208117 </v>
   <v>       0.00208117 </v>
   <v>       0.00208117 </v>
   <v>       0.00208117 </v>
   <v>       0.00208117 </v>
   <v>       0.00208117 </v>
   <v>       0.00208117 </v>
   <v>       0.00208117 </v>
   <v>       0.00208117 </v>
   <v>       0.00208117 </v>
   <v>       0.00208117 </v>
   <v>       0.00208117 </v>
   <v>       0.00208117 </v>
   <v>       0.00208117 </v>
   <v>       0.00208117 </v>
   <v>       0.00208117 </v>
   <v>       0.00208117 </v>
   <v>       0.00208117 </v>
   <v>       0.00208117 </v>
   <v>       0.00208117 </v>
   <v>       0.00208117 </v>
   <v>       0.00208117 </v>
   <v>       0.00208117 </v>
   <v>       0.00208117 </v>
   <v>       0.00208117 </v>
   <v>       0.00208117 </v>
   <v>       0.00208117 </v>
   <v>       0.00208117 </v>
   <v>       0.00208117 </v>
   <v>       0.00208117 </v>
   <v>       0.00208117 </v>
   <v>       0.00208117 </v>
   <v>       0.00208117 </v>
   <v>       0.00208117 </v>
   <v>       0.00208117 </v>
   <v>       0.00208117 </v>
   <v>       0.00208117 </v>
   <v>       0.00208117 </v>
   <v>       0.00208117 </v>
   <v>       0.00208117 </v>
   <v>       0.00208117 </v>
   <v>       0.00208117 </v>
   <v>       0.00208117 </v>
   <v>       0.00208117 </v>
   <v>       0.00208117 </v>
   <v>       0.00208117 </v>
   <v>       0.00208117 </v>
   <v>       0.00208117 </v>
   <v>       0.00208117 </v>
   <v>       0.00208117 </v>
   <v>       0.00208117 </v>
   <v>       0.00208117 </v>
   <v>       0.00208117 </v>
   <v>       0.00208117 </v>
   <v>       0.00208117 </v>
   <v>       0.00208117 </v>
   <v>       0.00208117 </v>
   <v>       0.00208117 </v>
   <v>       0.00208117 </v>
   <v>       0.00208117 </v>
   <v>       0.00208117 </v>
   <v>       0.00208117 </v>
   <v>       0.00208117 </v>
   <v>       0.00208117 </v>
   <v>       0.00208117 </v>
   <v>       0.00208117 </v>
   <v>       0.00208117 </v>
   <v>       0.00208117 </v>
   <v>       0.00208117 </v>
   <v>       0.00208117 </v>
   <v>       0.00208117 </v>
   <v>       0.00208117 </v>
   <v>       0.00208117 </v>
   <v>       0.00208117 </v>
   <v>       0.00208117 </v>
   <v>       0.00208117 </v>
   <v>       0.00208117 </v>
   <v>       0.00208117 </v>
   <v>       0.00208117 </v>
   <v>       0.00208117 </v>
   <v>       0.00208117 </v>
   <v>       0.00208117 </v>
   <v>       0.00208117 </v>
   <v>       0.00208117 </v>
   <v>       0.00208117 </v>
   <v>       0.00208117 </v>
   <v>       0.00208117 </v>
   <v>       0.00208117 </v>
   <v>       0.00208117 </v>
   <v>       0.00208117 </v>
   <v>       0.00208117 </v>
   <v>       0.00208117 </v>
   <v>       0.00208117 </v>
   <v>       0.00208117 </v>
   <v>       0.00208117 </v>
   <v>       0.00208117 </v>
   <v>       0.00208117 </v>
   <v>       0.00208117 </v>
   <v>       0.00208117 </v>
   <v>       0.00208117 </v>
   <v>       0.00208117 </v>
   <v>       0.00208117 </v>
   <v>       0.00208117 </v>
   <v>       0.00208117 </v>
   <v>       0.00208117 </v>
   <v>       0.00208117 </v>
   <v>       0.00208117 </v>
   <v>       0.00208117 </v>
   <v>       0.00208117 </v>
   <v>       0.00208117 </v>
   <v>       0.00208117 </v>
   <v>       0.00208117 </v>
   <v>       0.00208117 </v>
   <v>       0.00208117 </v>
   <v>       0.00208117 </v>
   <v>       0.00208117 </v>
   <v>       0.00208117 </v>
   <v>       0.00208117 </v>
   <v>       0.00208117 </v>
   <v>       0.00208117 </v>
   <v>       0.00208117 </v>
   <v>       0.00208117 </v>
   <v>       0.00208117 </v>
   <v>       0.00208117 </v>
   <v>       0.00208117 </v>
   <v>       0.00208117 </v>
   <v>       0.00208117 </v>
   <v>       0.00208117 </v>
   <v>       0.00208117 </v>
   <v>       0.00208117 </v>
   <v>       0.00208117 </v>
   <v>       0.00208117 </v>
   <v>       0.00208117 </v>
   <v>       0.00208117 </v>
   <v>       0.00208117 </v>
   <v>       0.00208117 </v>
   <v>       0.00208117 </v>
   <v>       0.00208117 </v>
   <v>       0.00208117 </v>
   <v>       0.00208117 </v>
   <v>       0.00208117 </v>
   <v>       0.00208117 </v>
   <v>       0.00208117 </v>
   <v>       0.00208117 </v>
   <v>       0.00208117 </v>
   <v>       0.00208117 </v>
   <v>       0.00208117 </v>
   <v>       0.00208117 </v>
   <v>       0.00208117 </v>
   <v>       0.00208117 </v>
   <v>       0.00208117 </v>
   <v>       0.00208117 </v>
   <v>       0.00208117 </v>
   <v>       0.00208117 </v>
   <v>       0.00208117 </v>
   <v>       0.00208117 </v>
   <v>       0.00208117 </v>
   <v>       0.00208117 </v>
   <v>       0.00208117 </v>
   <v>       0.00208117 </v>
   <v>       0.00208117 </v>
   <v>       0.00208117 </v>
   <v>       0.00208117 </v>
   <v>       0.00208117 </v>
   <v>       0.00208117 </v>
   <v>       0.00208117 </v>
   <v>       0.00208117 </v>
   <v>       0.00208117 </v>
   <v>       0.00208117 </v>
   <v>       0.00208117 </v>
   <v>       0.00208117 </v>
   <v>       0.00208117 </v>
   <v>       0.00208117 </v>
   <v>       0.00208117 </v>
   <v>       0.00208117 </v>
   <v>       0.00208117 </v>
   <v>       0.00208117 </v>
   <v>       0.00208117 </v>
   <v>       0.00208117 </v>
   <v>       0.00208117 </v>
   <v>       0.00208117 </v>
   <v>       0.00208117 </v>
   <v>       0.00208117 </v>
   <v>       0.00208117 </v>
   <v>       0.00208117 </v>
   <v>       0.00208117 </v>
   <v>       0.00208117 </v>
   <v>       0.00208117 </v>
   <v>       0.00208117 </v>
   <v>       0.00208117 </v>
   <v>       0.00208117 </v>
   <v>       0.00208117 </v>
   <v>       0.00208117 </v>
   <v>       0.00208117 </v>
   <v>       0.00208117 </v>
   <v>       0.00208117 </v>
   <v>       0.00208117 </v>
   <v>       0.00208117 </v>
   <v>       0.00208117 </v>
   <v>       0.00208117 </v>
   <v>       0.00208117 </v>
   <v>       0.00208117 </v>
   <v>       0.00208117 </v>
   <v>       0.00208117 </v>
   <v>       0.00208117 </v>
   <v>       0.00208117 </v>
   <v>       0.00208117 </v>
   <v>       0.00208117 </v>
   <v>       0.00208117 </v>
   <v>       0.00208117 </v>
   <v>       0.00208117 </v>
   <v>       0.00208117 </v>
   <v>       0.00208117 </v>
   <v>       0.00208117 </v>
   <v>       0.00208117 </v>
   <v>       0.00208117 </v>
   <v>       0.00208117 </v>
   <v>       0.00208117 </v>
   <v>       0.00208117 </v>
   <v>       0.00208117 </v>
   <v>       0.00208117 </v>
   <v>       0.00208117 </v>
   <v>       0.00208117 </v>
   <v>       0.00208117 </v>
   <v>       0.00208117 </v>
   <v>       0.00208117 </v>
   <v>       0.00208117 </v>
   <v>       0.00208117 </v>
   <v>       0.00208117 </v>
   <v>       0.00208117 </v>
   <v>       0.00208117 </v>
   <v>       0.00208117 </v>
   <v>       0.00208117 </v>
   <v>       0.00208117 </v>
   <v>       0.00208117 </v>
   <v>       0.00208117 </v>
   <v>       0.00208117 </v>
   <v>       0.00208117 </v>
   <v>       0.00208117 </v>
   <v>       0.00208117 </v>
   <v>       0.00208117 </v>
   <v>       0.00208117 </v>
   <v>       0.00208117 </v>
   <v>       0.00208117 </v>
   <v>       0.00208117 </v>
   <v>       0.00208117 </v>
   <v>       0.00208117 </v>
   <v>       0.00208117 </v>
   <v>       0.00208117 </v>
   <v>       0.00208117 </v>
   <v>       0.00208117 </v>
   <v>       0.00208117 </v>
   <v>       0.00208117 </v>
   <v>       0.00208117 </v>
   <v>       0.00208117 </v>
   <v>       0.00208117 </v>
   <v>       0.00208117 </v>
   <v>       0.00208117 </v>
   <v>       0.00208117 </v>
   <v>       0.00208117 </v>
   <v>       0.00208117 </v>
   <v>       0.00208117 </v>
   <v>       0.00208117 </v>
   <v>       0.00208117 </v>
   <v>       0.00208117 </v>
   <v>       0.00208117 </v>
   <v>       0.00208117 </v>
   <v>       0.00208117 </v>
   <v>       0.00208117 </v>
   <v>       0.00208117 </v>
   <v>       0.00208117 </v>
   <v>       0.00208117 </v>
   <v>       0.00208117 </v>
   <v>       0.00208117 </v>
   <v>       0.00208117 </v>
   <v>       0.00208117 </v>
   <v>       0.00208117 </v>
   <v>       0.00208117 </v>
   <v>       0.00208117 </v>
   <v>       0.00208117 </v>
   <v>       0.00208117 </v>
   <v>       0.00208117 </v>
   <v>       0.00208117 </v>
   <v>       0.00208117 </v>
   <v>       0.00208117 </v>
   <v>       0.00208117 </v>
   <v>       0.00208117 </v>
   <v>       0.00208117 </v>
   <v>       0.00208117 </v>
   <v>       0.00208117 </v>
   <v>       0.00208117 </v>
   <v>       0.00208117 </v>
   <v>       0.00208117 </v>
   <v>       0.00208117 </v>
   <v>       0.00208117 </v>
   <v>       0.00208117 </v>
   <v>       0.00208117 </v>
   <v>       0.00208117 </v>
   <v>       0.00208117 </v>
   <v>       0.00208117 </v>
   <v>       0.00208117 </v>
   <v>       0.00208117 </v>
   <v>       0.00208117 </v>
   <v>       0.00208117 </v>
   <v>       0.00208117 </v>
   <v>       0.00208117 </v>
   <v>       0.00208117 </v>
   <v>       0.00208117 </v>
   <v>       0.00208117 </v>
   <v>       0.00208117 </v>
   <v>       0.00208117 </v>
   <v>       0.00208117 </v>
   <v>       0.00208117 </v>
   <v>       0.00208117 </v>
   <v>       0.00208117 </v>
   <v>       0.00208117 </v>
   <v>       0.00208117 </v>
   <v>       0.00208117 </v>
   <v>       0.00208117 </v>
  </varray>
 </kpoints>
 <parameters>
  <separator name="general" >
   <i type="string" name="SYSTEM">SC</i>
   <i type="logical" name="LCOMPAT"> F  </i>
  </separator>
  <separator name="electronic" >
   <i type="string" name="PREC">accura</i>
   <i name="ENMAX">    450.00000000</i>
   <i name="ENAUG">    644.87300000</i>
   <i name="EDIFF">      0.00000100</i>
   <i type="int" name="IALGO">    38</i>
   <i type="int" name="IWAVPR">    10</i>
   <i type="int" name="NBANDS">    48</i>
   <i type="int" name="NBANDSLOW">    -1</i>
   <i type="int" name="NBANDSHIGH">    -1</i>
   <i name="NELECT">     56.00000000</i>
   <i type="int" name="TURBO">     0</i>
   <i type="int" name="IRESTART">     0</i>
   <i type="int" name="NREBOOT">     0</i>
   <i type="int" name="NMIN">     0</i>
   <i name="EREF">      0.00000000</i>
   <separator name="electronic smearing" >
    <i type="int" name="ISMEAR">     0</i>
    <i name="SIGMA">      0.10000000</i>
    <i name="KSPACING">      0.50000000</i>
    <i type="logical" name="KGAMMA"> T  </i>
    <i type="logical" name="KBLOWUP"> T  </i>
   </separator>
   <separator name="electronic projectors" >
    <i type="logical" name="LREAL"> F  </i>
    <v name="ROPT">      0.00000000      0.00000000</v>
    <i type="int" name="LMAXPAW">  -100</i>
    <i type="int" name="LMAXMIX">     2</i>
    <i type="logical" name="NLSPLINE"> F  </i>
   </separator>
   <separator name="electronic startup" >
    <i type="int" name="ISTART">     0</i>
    <i type="int" name="ICHARG">     2</i>
    <i type="int" name="INIWAV">     1</i>
   </separator>
   <separator name="electronic spin" >
    <i type="int" name="ISPIN">     1</i>
    <i type="logical" name="LNONCOLLINEAR"> F  </i>
    <v name="MAGMOM">      1.00000000      1.00000000      1.00000000      1.00000000      1.00000000      1.00000000      1.00000000      1.00000000      1.00000000      1.00000000      1.00000000      1.00000000      1.00000000      1.00000000      1.00000000</v>
    <i name="NUPDOWN">     -1.00000000</i>
    <i type="logical" name="LSORBIT"> F  </i>
    <v name="SAXIS">      0.00000000      0.00000000      1.00000000</v>
    <i type="logical" name="LSPIRAL"> F  </i>
    <v name="QSPIRAL">      0.00000000      0.00000000      0.00000000</v>
    <i type="logical" name="LZEROZ"> F  </i>
   </separator>
   <separator name="electronic exchange-correlation" >
    <i type="logical" name="LASPH"> F  </i>
    <i type="logical" name="LMETAGGA"> F  </i>
   </separator>
   <separator name="electronic convergence" >
    <i type="int" name="NELM">    64</i>
    <i type="int" name="NELMDL">    -5</i>
    <i type="int" name="NELMIN">     2</i>
    <i name="ENINI">    450.00000000</i>
    <separator name="electronic convergence detail" >
     <i type="logical" name="LDIAG"> T  </i>
     <i type="logical" name="LSUBROT"> F  </i>
     <i name="WEIMIN">      0.00000000</i>
     <i name="EBREAK">      0.00000001</i>
     <i name="DEPER">      0.30000000</i>
     <i type="int" name="NRMM">     4</i>
     <i name="TIME">      0.40000000</i>
    </separator>
   </separator>
   <separator name="electronic mixer" >
    <i name="AMIX">      0.40000000</i>
    <i name="BMIX">      1.00000000</i>
    <i name="AMIN">      0.10000000</i>
    <i name="AMIX_MAG">      1.60000000</i>
    <i name="BMIX_MAG">      1.00000000</i>
    <separator name="electronic mixer details" >
     <i type="int" name="IMIX">     4</i>
     <i type="logical" name="MIXFIRST"> F  </i>
     <i type="int" name="MAXMIX">   -45</i>
     <i name="WC">    100.00000000</i>
     <i type="int" name="INIMIX">     1</i>
     <i type="int" name="MIXPRE">     1</i>
     <i type="int" name="MREMOVE">     5</i>
    </separator>
   </separator>
   <separator name="electronic dipolcorrection" >
    <i type="logical" name="LDIPOL"> F  </i>
    <i type="logical" name="LMONO"> F  </i>
    <i type="int" name="IDIPOL">     0</i>
    <i name="EPSILON">      1.00000000</i>
    <v name="DIPOL">   -100.00000000   -100.00000000   -100.00000000</v>
    <i name="EFIELD">      0.00000000</i>
   </separator>
  </separator>
  <separator name="grids" >
   <i type="int" name="NGX">    36</i>
   <i type="int" name="NGY">    36</i>
   <i type="int" name="NGZ">   108</i>
   <i type="int" name="NGXF">    72</i>
   <i type="int" name="NGYF">    72</i>
   <i type="int" name="NGZF">   216</i>
   <i type="logical" name="ADDGRID"> F  </i>
  </separator>
  <separator name="ionic" >
   <i type="int" name="NSW">     0</i>
   <i type="int" name="IBRION">    -1</i>
   <i type="int" name="MDALGO">     0</i>
   <i type="int" name="ISIF">     2</i>
   <i name="PSTRESS">      0.00000000</i>
   <i name="EDIFFG">     -0.00100000</i>
   <i type="int" name="NFREE">     0</i>
   <i name="POTIM">      0.50000000</i>
   <i name="SMASS">     -3.00000000</i>
   <i name="SCALEE">      1.00000000</i>
  </separator>
  <separator name="ionic md" >
   <i name="TEBEG">      0.00010000</i>
   <i name="TEEND">      0.00010000</i>
   <i type="int" name="NBLOCK">     1</i>
   <i type="int" name="KBLOCK">     1</i>
   <i type="int" name="NPACO">   256</i>
   <i name="APACO">     10.00000000</i>
  </separator>
  <separator name="symmetry" >
   <i type="int" name="ISYM">     2</i>
   <i name="SYMPREC">      0.00000100</i>
  </separator>
  <separator name="dos" >
   <i type="int" name="LORBIT">     0</i>
   <v name="RWIGS">     -1.00000000     -1.00000000</v>
   <i type="int" name="NEDOS">   301</i>
   <i name="EMIN">     10.00000000</i>
   <i name="EMAX">    -10.00000000</i>
   <i name="EFERMI">      0.00000000</i>
  </separator>
  <separator name="writing" >
   <i type="int" name="NWRITE">     2</i>
   <i type="logical" name="LWAVE"> T  </i>
   <i type="logical" name="LDOWNSAMPLE"> F  </i>
   <i type="logical" name="LCHARG"> T  </i>
   <i type="logical" name="LPARD"> F  </i>
   <i type="logical" name="LVTOT"> F  </i>
   <i type="logical" name="LVHAR"> F  </i>
   <i type="logical" name="LELF"> F  </i>
   <i type="logical" name="LOPTICS"> F  </i>
   <v name="STM">      0.00000000      0.00000000      0.00000000      0.00000000      0.00000000      0.00000000      0.00000000</v>
  </separator>
  <separator name="performance" >
   <i type="int" name="NPAR">    48</i>
   <i type="int" name="NSIM">     4</i>
   <i type="int" name="NBLK">    -1</i>
   <i type="logical" name="LPLANE"> T  </i>
   <i type="logical" name="LSCALAPACK"> T  </i>
   <i type="logical" name="LSCAAWARE"> F  </i>
   <i type="logical" name="LSCALU"> F  </i>
   <i type="logical" name="LASYNC"> F  </i>
   <i type="logical" name="LORBITALREAL"> F  </i>
  </separator>
  <separator name="miscellaneous" >
   <i type="int" name="IDIOT">     3</i>
   <i type="int" name="PHON_NSTRUCT">    -1</i>
   <i type="logical" name="LMUSIC"> F  </i>
   <v name="POMASS">     10.81100000     12.01100000</v>
   <v name="DARWINR">      0.00000000      0.00000000</v>
   <v name="DARWINV">      1.00000000      1.00000000</v>
   <i type="logical" name="LCORR"> T  </i>
  </separator>
  <i type="logical" name="GGA_COMPAT"> T  </i>
  <i type="logical" name="LBERRY"> F  </i>
  <i type="int" name="ICORELEVEL">     0</i>
  <i type="logical" name="LDAU"> F  </i>
  <i type="int" name="I_CONSTRAINED_M">     0</i>
  <separator name="electronic exchange-correlation" >
   <i type="string" name="GGA">PE</i>
   <i type="int" name="VOSKOWN">     0</i>
   <i type="logical" name="LHFCALC"> F  </i>
   <i type="string" name="PRECFOCK"></i>
   <i type="logical" name="LSYMGRAD"> F  </i>
   <i type="logical" name="LHFONE"> F  </i>
   <i type="logical" name="LRHFCALC"> F  </i>
   <i type="logical" name="LTHOMAS"> F  </i>
   <i type="logical" name="LMODELHF"> F  </i>
   <i type="logical" name="LFOCKACE"> F  </i>
   <i name="ENCUT4O">     -1.00000000</i>
   <i type="int" name="EXXOEP">     0</i>
   <i type="int" name="FOURORBIT">     0</i>
   <i name="AEXX">      0.00000000</i>
   <i name="HFALPHA">      0.00000000</i>
   <i name="MCALPHA">      0.00000000</i>
   <i name="ALDAX">      1.00000000</i>
   <i name="AGGAX">      1.00000000</i>
   <i name="ALDAC">      1.00000000</i>
   <i name="AGGAC">      1.00000000</i>
   <i type="int" name="NKREDX">     1</i>
   <i type="int" name="NKREDY">     1</i>
   <i type="int" name="NKREDZ">     1</i>
   <i type="logical" name="SHIFTRED"> F  </i>
   <i type="logical" name="ODDONLY"> F  </i>
   <i type="logical" name="EVENONLY"> F  </i>
   <i type="int" name="LMAXFOCK">     0</i>
   <i type="int" name="NMAXFOCKAE">     0</i>
   <i type="logical" name="LFOCKAEDFT"> F  </i>
   <i name="HFSCREEN">      0.00000000</i>
   <i name="HFSCREENC">      0.00000000</i>
   <i type="int" name="NBANDSGWLOW">     0</i>
  </separator>
  <separator name="vdW DFT" >
   <i type="logical" name="LUSE_VDW"> F  </i>
   <i name="Zab_VDW">     -0.84910000</i>
   <i name="PARAM1">      0.12340000</i>
   <i name="PARAM2">      1.00000000</i>
   <i name="PARAM3">      0.00000000</i>
  </separator>
  <separator name="model GW" >
   <i type="int" name="MODEL_GW">     0</i>
   <i name="MODEL_EPS0">     12.20249678</i>
   <i name="MODEL_ALPHA">      1.00000000</i>
  </separator>
  <separator name="linear response parameters" >
   <i type="logical" name="LEPSILON"> F  </i>
   <i type="logical" name="LRPA"> F  </i>
   <i type="logical" name="LNABLA"> F  </i>
   <i type="logical" name="LVEL"> F  </i>
   <i name="CSHIFT">      0.10000000</i>
   <i name="OMEGAMAX">     -1.00000000</i>
   <i name="DEG_THRESHOLD">      0.00200000</i>
   <i name="RTIME">     -0.10000000</i>
   <i name="WPLASMAI">      0.00000000</i>
   <v name="DFIELD">      0.00000000      0.00000000      0.00000000</v>
   <v name="WPLASMA">      0.00000000      0.00000000      0.00000000      0.00000000      0.00000000      0.00000000      0.00000000      0.00000000      0.00000000</v>
  </separator>
  <separator name="orbital magnetization" >
   <i type="logical" name="NUCIND"> F  </i>
   <v name="MAGPOS">      0.00000000      0.00000000      0.00000000</v>
   <i type="logical" name="LNICSALL"> T  </i>
   <i type="logical" name="ORBITALMAG"> F  </i>
   <i type="logical" name="LMAGBLOCH"> F  </i>
   <i type="logical" name="LCHIMAG"> F  </i>
   <i type="logical" name="LGAUGE"> T  </i>
   <i type="int" name="MAGATOM">     0</i>
   <v name="MAGDIPOL">      0.00000000      0.00000000      0.00000000</v>
   <v name="AVECCONST">      0.00000000      0.00000000      0.00000000</v>
  </separator>
  <separator name="response functions" >
   <i type="logical" name="LFINITE_TEMPERATURE"> F  </i>
   <i type="logical" name="LADDER"> F  </i>
   <i type="logical" name="LRPAFORCE"> F  </i>
   <i type="logical" name="LFXC"> F  </i>
   <i type="logical" name="LHARTREE"> T  </i>
   <i type="int" name="IBSE">     0</i>
   <v type="int" name="KPOINT">    -1     0     0     0</v>
   <i type="logical" name="LTCTC"> F  </i>
   <i type="logical" name="LTCTE"> F  </i>
   <i type="logical" name="LTETE"> F  </i>
   <i type="logical" name="LTRIPLET"> F  </i>
   <i type="logical" name="LFXCEPS"> F  </i>
   <i type="logical" name="LFXHEG"> F  </i>
   <i type="int" name="NATURALO">     2</i>
   <i type="logical" name="LHOLEGF"> F  </i>
   <i type="logical" name="L2ORDER"> F  </i>
   <i type="logical" name="LDMP1"> F  </i>
   <i type="logical" name="LMP2LT"> F  </i>
   <i type="logical" name="LSMP2LT"> F  </i>
   <i type="logical" name="LGWLF"> F  </i>
   <i name="ENCUTGW">     -2.00000000</i>
   <i name="ENCUTGWSOFT">     -2.00000000</i>
   <i name="ENCUTLF">     -1.00000000</i>
   <i type="logical" name="LESF_SPLINES"> F  </i>
   <i type="int" name="LMAXMP2">    -1</i>
   <i name="SCISSOR">      0.00000000</i>
   <i type="int" name="NOMEGA">     0</i>
   <i type="int" name="NOMEGAR">     0</i>
   <i type="int" name="NBANDSGW">    -1</i>
   <i type="int" name="NBANDSO">    -1</i>
   <i type="int" name="NBANDSV">    -1</i>
   <i type="int" name="NELMGW">     1</i>
   <i type="int" name="NELMHF">     1</i>
   <i type="int" name="DIM">     3</i>
   <i type="int" name="IESPILON">     4</i>
   <i type="int" name="ANTIRES">     0</i>
   <i name="OMEGAMAX">    -30.00000000</i>
   <i name="OMEGAMIN">    -30.00000000</i>
   <i name="OMEGATL">   -200.00000000</i>
   <i type="int" name="OMEGAGRID">     0</i>
   <i name="CSHIFT">     -0.10000000</i>
   <i type="logical" name="LSELFENERGY"> F  </i>
   <i type="logical" name="LSPECTRAL"> F  </i>
   <i type="logical" name="LSPECTRALGW"> F  </i>
   <i type="logical" name="LSINGLES"> F  </i>
   <i type="logical" name="LFERMIGW"> F  </i>
   <i type="logical" name="ODDONLYGW"> F  </i>
   <i type="logical" name="EVENONLYGW"> F  </i>
   <i type="int" name="NKREDLFX">     1</i>
   <i type="int" name="NKREDLFY">     1</i>
   <i type="int" name="NKREDLFZ">     1</i>
   <i type="int" name="MAXMEM">  2800</i>
   <i type="int" name="TELESCOPE">     0</i>
   <i type="int" name="NTAUPAR">    -1</i>
   <i type="int" name="NOMEGAPAR">    -1</i>
   <i name="DAMP_NEWTON">      0.80000001</i>
   <i name="LAMBDA">      1.00000000</i>
  </separator>
  <separator name="External order field" >
   <i name="OFIELD_KAPPA">      0.00000000</i>
   <v name="OFIELD_K">      0.00000000      0.00000000      0.00000000</v>
   <i name="OFIELD_Q6_NEAR">      0.00000000</i>
   <i name="OFIELD_Q6_FAR">      0.00000000</i>
   <i name="OFIELD_A">      0.00000000</i>
  </separator>
  <separator name="optional k-points parameters" >
   <i type="int" name="KPOINTS_OPT_MODE">     1</i>
   <i type="logical" name="LKPOINTS_OPT"> F  </i>
  </separator>
  <separator name="solvation model" >
   <i type="logical" name="LSOL"> F  </i>
  </separator>
 </parameters>
 <atominfo>
  <atoms>      15 </atoms>
  <types>       2 </types>
  <array name="atoms" >
   <dimension dim="1">ion</dimension>
   <field type="string">element</field>
   <field type="int">atomtype</field>
   <set>
    <rc><c>B </c><c>   1</c></rc>
    <rc><c>B </c><c>   1</c></rc>
    <rc><c>B </c><c>   1</c></rc>
    <rc><c>B </c><c>   1</c></rc>
    <rc><c>C </c><c>   2</c></rc>
    <rc><c>C </c><c>   2</c></rc>
    <rc><c>C </c><c>   2</c></rc>
    <rc><c>C </c><c>   2</c></rc>
    <rc><c>C </c><c>   2</c></rc>
    <rc><c>C </c><c>   2</c></rc>
    <rc><c>C </c><c>   2</c></rc>
    <rc><c>C </c><c>   2</c></rc>
    <rc><c>C </c><c>   2</c></rc>
    <rc><c>C </c><c>   2</c></rc>
    <rc><c>C </c><c>   2</c></rc>
   </set>
  </array>
  <array name="atomtypes" >
   <dimension dim="1">type</dimension>
   <field type="int">atomspertype</field>
   <field type="string">element</field>
   <field>mass</field>
   <field>valence</field>
   <field type="string">pseudopotential</field>
   <set>
    <rc><c>   4</c><c>B </c><c>     10.81100000</c><c>      3.00000000</c><c>  PAW_PBE B 06Sep2000                   </c></rc>
    <rc><c>  11</c><c>C </c><c>     12.01100000</c><c>      4.00000000</c><c>  PAW_PBE C 08Apr2002                   </c></rc>
   </set>
  </array>
 </atominfo>
 <structure name="initialpos" >
  <crystal>
   <varray name="basis" >
    <v>       4.19675911       2.42300000       0.00000000 </v>
    <v>      -4.19675911       2.42300000       0.00000000 </v>
    <v>       0.00000000       0.00000000      15.00000000 </v>
   </varray>
   <i name="volume">    305.06241947 </i>
   <varray name="rec_basis" >
    <v>       0.11913955       0.20635576       0.00000000 </v>
    <v>      -0.11913955       0.20635576       0.00000000 </v>
    <v>       0.00000000       0.00000000       0.06666667 </v>
   </varray>
  </crystal>
  <varray name="positions" >
   <v>       0.00405653       0.00269734       0.10150106 </v>
   <v>       0.35924549       0.00297870       0.10071141 </v>
   <v>       0.00376783       0.35759951       0.10071217 </v>
   <v>       0.64914818       0.64750627       0.10070860 </v>
   <v>       0.32778476       0.32614414       0.10073086 </v>
   <v>       0.68060188       0.00297489       0.10073054 </v>
   <v>       0.00377056       0.67895921       0.10072786 </v>
   <v>       0.00013259       0.50006304       0.33511533 </v>
   <v>       0.16678386       0.33345284       0.33515001 </v>
   <v>       0.00011539       0.00007104       0.33507593 </v>
   <v>       0.16682595       0.83340270       0.33515391 </v>
   <v>       0.50012588       0.50009985       0.33511811 </v>
   <v>       0.66678116       0.33340594       0.33501310 </v>
   <v>       0.50008744       0.00005365       0.33511368 </v>
   <v>       0.66673317       0.83335819       0.33515010 </v>
  </varray>
 </structure>
 <calculation>
  <scstep>
   <time name="dav">   17.76   17.88</time>
   <time name="total">   17.79   17.91</time>
   <energy>
    <i name="alphaZ">     58.30706670 </i>
    <i name="ewald">   4730.33489792 </i>
    <i name="hartreedc">  -6283.17716923 </i>
    <i name="XCdc">    172.78395958 </i>
    <i name="pawpsdc">   1367.74197220 </i>
    <i name="pawaedc">  -1370.58415631 </i>
    <i name="eentropy">     -0.01850312 </i>
    <i name="bandstr">   -381.37829058 </i>
    <i name="atom">   1903.26342058 </i>
    <i name="e_fr_energy">    197.27319774 </i>
    <i name="e_wo_entrp">    197.29170086 </i>
    <i name="e_0_energy">    197.28244930 </i>
   </energy>
  </scstep>
  <scstep>
   <time name="dav">   25.92   26.09</time>
   <time name="total">   25.92   26.10</time>
   <energy>
    <i name="e_fr_energy">   -122.81781420 </i>
    <i name="e_wo_entrp">   -122.81742866 </i>
    <i name="e_0_energy">   -122.81762143 </i>
   </energy>
  </scstep>
  <scstep>
   <time name="dav">   36.61   36.82</time>
   <time name="total">   36.61   36.82</time>
   <energy>
    <i name="e_fr_energy">   -135.62698081 </i>
    <i name="e_wo_entrp">   -135.62690445 </i>
    <i name="e_0_energy">   -135.62694263 </i>
   </energy>
  </scstep>
  <scstep>
   <time name="dav">   25.84   26.01</time>
   <time name="total">   25.84   26.01</time>
   <energy>
    <i name="e_fr_energy">   -135.64918874 </i>
    <i name="e_wo_entrp">   -135.64911250 </i>
    <i name="e_0_energy">   -135.64915062 </i>
   </energy>
  </scstep>
  <scstep>
   <time name="dav">   35.25   35.45</time>
   <time name="total">   36.06   36.26</time>
   <energy>
    <i name="e_fr_energy">   -135.64924750 </i>
    <i name="e_wo_entrp">   -135.64917126 </i>
    <i name="e_0_energy">   -135.64920938 </i>
   </energy>
  </scstep>
  <scstep>
   <time name="dav">   35.86   36.07</time>
   <time name="total">   36.68   36.90</time>
   <energy>
    <i name="e_fr_energy">   -127.87823034 </i>
    <i name="e_wo_entrp">   -127.87815125 </i>
    <i name="e_0_energy">   -127.87819080 </i>
   </energy>
  </scstep>
  <scstep>
   <time name="dav">   39.08   39.30</time>
   <time name="total">   39.90   40.13</time>
   <energy>
    <i name="e_fr_energy">   -125.76724298 </i>
    <i name="e_wo_entrp">   -125.76717509 </i>
    <i name="e_0_energy">   -125.76720903 </i>
   </energy>
  </scstep>
  <scstep>
   <time name="dav">   37.11   37.32</time>
   <time name="total">   37.92   38.15</time>
   <energy>
    <i name="e_fr_energy">   -125.58507977 </i>
    <i name="e_wo_entrp">   -125.58501312 </i>
    <i name="e_0_energy">   -125.58504644 </i>
   </energy>
  </scstep>
  <scstep>
   <time name="dav">   29.25   29.42</time>
   <time name="total">   30.06   30.24</time>
   <energy>
    <i name="e_fr_energy">   -125.56074831 </i>
    <i name="e_wo_entrp">   -125.56068144 </i>
    <i name="e_0_energy">   -125.56071488 </i>
   </energy>
  </scstep>
  <scstep>
   <time name="dav">   36.78   36.99</time>
   <time name="total">   37.59   37.81</time>
   <energy>
    <i name="e_fr_energy">   -125.55075535 </i>
    <i name="e_wo_entrp">   -125.55068852 </i>
    <i name="e_0_energy">   -125.55072194 </i>
   </energy>
  </scstep>
  <scstep>
   <time name="dav">   32.33   32.53</time>
   <time name="total">   33.14   33.35</time>
   <energy>
    <i name="e_fr_energy">   -125.54306368 </i>
    <i name="e_wo_entrp">   -125.54299694 </i>
    <i name="e_0_energy">   -125.54303031 </i>
   </energy>
  </scstep>
  <scstep>
   <time name="dav">   20.51   20.64</time>
   <time name="total">   21.32   21.46</time>
   <energy>
    <i name="e_fr_energy">   -125.54425463 </i>
    <i name="e_wo_entrp">   -125.54418788 </i>
    <i name="e_0_energy">   -125.54422125 </i>
   </energy>
  </scstep>
  <scstep>
   <time name="dav">   31.55   31.73</time>
   <time name="total">   32.36   32.56</time>
   <energy>
    <i name="e_fr_energy">   -125.54645352 </i>
    <i name="e_wo_entrp">   -125.54638677 </i>
    <i name="e_0_energy">   -125.54642014 </i>
   </energy>
  </scstep>
  <scstep>
   <time name="dav">   32.29   32.47</time>
   <time name="total">   33.10   33.28</time>
   <energy>
    <i name="e_fr_energy">   -125.54803717 </i>
    <i name="e_wo_entrp">   -125.54797042 </i>
    <i name="e_0_energy">   -125.54800379 </i>
   </energy>
  </scstep>
  <scstep>
   <time name="dav">   28.71   28.88</time>
   <time name="total">   29.52   29.70</time>
   <energy>
    <i name="e_fr_energy">   -125.54910354 </i>
    <i name="e_wo_entrp">   -125.54903679 </i>
    <i name="e_0_energy">   -125.54907016 </i>
   </energy>
  </scstep>
  <scstep>
   <time name="dav">   28.26   28.42</time>
   <time name="total">   29.07   29.24</time>
   <energy>
    <i name="e_fr_energy">   -125.54926191 </i>
    <i name="e_wo_entrp">   -125.54919516 </i>
    <i name="e_0_energy">   -125.54922853 </i>
   </energy>
  </scstep>
  <scstep>
   <time name="dav">   28.37   28.54</time>
   <time name="total">   29.18   29.36</time>
   <energy>
    <i name="e_fr_energy">   -125.54928531 </i>
    <i name="e_wo_entrp">   -125.54921856 </i>
    <i name="e_0_energy">   -125.54925194 </i>
   </energy>
  </scstep>
  <scstep>
   <time name="dav">   29.44   29.60</time>
   <time name="total">   30.25   30.44</time>
   <energy>
    <i name="e_fr_energy">   -125.54928895 </i>
    <i name="e_wo_entrp">   -125.54922220 </i>
    <i name="e_0_energy">   -125.54925558 </i>
   </energy>
  </scstep>
  <scstep>
   <time name="dav">   31.48   31.67</time>
   <time name="total">   31.50   31.69</time>
   <energy>
    <i name="alphaZ">     58.30706670 </i>
    <i name="ewald">   4730.33489792 </i>
    <i name="hartreedc">  -6487.02076479 </i>
    <i name="XCdc">    180.67206662 </i>
    <i name="pawpsdc">   5796.19448784 </i>
    <i name="pawaedc">  -5800.62589274 </i>
    <i name="eentropy">     -0.00006675 </i>
    <i name="bandstr">   -506.67450462 </i>
    <i name="atom">   1903.26342058 </i>
    <i name="e_fr_energy">   -125.54928924 </i>
    <i name="e_wo_entrp">   -125.54922249 </i>
    <i name="e_0_energy">   -125.54925587 </i>
   </energy>
  </scstep>
  <structure>
   <crystal>
    <varray name="basis" >
     <v>       4.19675911       2.42300000       0.00000000 </v>
     <v>      -4.19675911       2.42300000       0.00000000 </v>
     <v>       0.00000000       0.00000000      15.00000000 </v>
    </varray>
    <i name="volume">    305.06241947 </i>
    <varray name="rec_basis" >
     <v>       0.11913955       0.20635576       0.00000000 </v>
     <v>      -0.11913955       0.20635576       0.00000000 </v>
     <v>       0.00000000       0.00000000       0.06666667 </v>
    </varray>
   </crystal>
   <varray name="positions" >
    <v>       0.00405653       0.00269734       0.10150106 </v>
    <v>       0.35924549       0.00297870       0.10071141 </v>
    <v>       0.00376783       0.35759951       0.10071217 </v>
    <v>       0.64914818       0.64750627       0.10070860 </v>
    <v>       0.32778476       0.32614414       0.10073086 </v>
    <v>       0.68060188       0.00297489       0.10073054 </v>
    <v>       0.00377056       0.67895921       0.10072786 </v>
    <v>       0.00013259       0.50006304       0.33511533 </v>
    <v>       0.16678386       0.33345284       0.33515001 </v>
    <v>       0.00011539       0.00007104       0.33507593 </v>
    <v>       0.16682595       0.83340270       0.33515391 </v>
    <v>       0.50012588       0.50009985       0.33511811 </v>
    <v>       0.66678116       0.33340594       0.33501310 </v>
    <v>       0.50008744       0.00005365       0.33511368 </v>
    <v>       0.66673317       0.83335819       0.33515010 </v>
   </varray>
  </structure>
  <varray name="forces" >
   <v>       0.00001130      -0.00011406       0.00035702 </v>
   <v>      -0.00039119      -0.00034768      -0.00037865 </v>
   <v>       0.00031702      -0.00026501      -0.00038007 </v>
   <v>      -0.00000686       0.00035371      -0.00037796 </v>
   <v>       0.00002472      -0.00087388      -0.00007807 </v>
   <v>       0.00082634       0.00042343      -0.00010537 </v>
   <v>      -0.00093930       0.00043440      -0.00011517 </v>
   <v>       0.00024183       0.00013642       0.00004096 </v>
   <v>       0.00020403      -0.00023267       0.00017516 </v>
   <v>      -0.00014415      -0.00015873       0.00017965 </v>
   <v>      -0.00023704       0.00041921       0.00016880 </v>
   <v>      -0.00058401       0.00002954       0.00003687 </v>
   <v>       0.00022921       0.00022202       0.00024728 </v>
   <v>      -0.00007748      -0.00058428       0.00004906 </v>
   <v>       0.00052558       0.00055759       0.00018049 </v>
  </varray>
  <varray name="stress" >
   <v>      -1.78260936       0.00127484       0.00282937 </v>
   <v>       0.00127483      -1.77910339       0.00763286 </v>
   <v>       0.00282935       0.00763282      -2.12713315 </v>
  </varray>
  <energy>
   <i name="e_fr_energy">   -127.14058108 </i>
   <i name="e_wo_entrp">   -127.14051433 </i>
   <i name="e_0_energy">   -127.14054770 </i>
  </energy>
  <time name="totalsc">  622.01  627.49</time>
  <eigenvalues>
   <array>
    <dimension dim="1">band</dimension>
    <dimension dim="2">kpoint</dimension>
    <dimension dim="3">spin</dimension>
    <field>eigene</field>
    <field>occ</field>
    <set>
     <set comment="spin 1">
      <set comment="kpoint 1">
       <r>  -20.2408    1.0000 </r>
       <r>  -17.3877    1.0000 </r>
       <r>  -14.7533    1.0000 </r>
       <r>  -14.7516    1.0000 </r>
       <r>  -14.7516    1.0000 </r>
       <r>  -13.8695    1.0000 </r>
       <r>  -13.8694    1.0000 </r>
       <r>  -13.8676    1.0000 </r>
       <r>  -13.4991    1.0000 </r>
       <r>  -13.4990    1.0000 </r>
       <r>  -10.4224    1.0000 </r>
       <r>   -9.4334    1.0000 </r>
       <r>   -9.4333    1.0000 </r>
       <r>   -8.3806    1.0000 </r>
       <r>   -7.6459    1.0000 </r>
       <r>   -6.8494    1.0000 </r>
       <r>   -6.8493    1.0000 </r>
       <r>   -6.8492    1.0000 </r>
       <r>   -6.7214    1.0000 </r>
       <r>   -3.2998    1.0000 </r>
       <r>   -3.2997    1.0000 </r>
       <r>   -2.9030    1.0000 </r>
       <r>   -2.9029    1.0000 </r>
       <r>   -2.7963    1.0000 </r>
       <r>   -2.7960    1.0000 </r>
       <r>   -2.7878    1.0000 </r>
       <r>   -0.8764    1.0000 </r>
       <r>   -0.8742    1.0000 </r>
       <r>    0.9829    0.0000 </r>
       <r>    0.9903    0.0000 </r>
       <r>    1.3197    0.0000 </r>
       <r>    1.5840    0.0000 </r>
       <r>    1.5893    0.0000 </r>
       <r>    2.0895    0.0000 </r>
       <r>    2.8849    0.0000 </r>
       <r>    3.5049    0.0000 </r>
       <r>    3.5051    0.0000 </r>
       <r>    3.6094    0.0000 </r>
       <r>    4.6128    0.0000 </r>
       <r>    6.7228    0.0000 </r>
       <r>    7.4693    0.0000 </r>
       <r>    7.5942    0.0000 </r>
       <r>    7.6036    0.0000 </r>
       <r>    7.6038    0.0000 </r>
       <r>    7.8779    0.0000 </r>
       <r>    8.3814    0.0000 </r>
       <r>    8.3816    0.0000 </r>
       <r>    8.7902    0.0000 </r>
      </set>
      <set comment="kpoint 2">
       <r>  -20.2345    1.0000 </r>
       <r>  -17.3833    1.0000 </r>
       <r>  -14.8796    1.0000 </r>
       <r>  -14.7841    1.0000 </r>
       <r>  -14.7827    1.0000 </r>
       <r>  -13.8279    1.0000 </r>
       <r>  -13.8265    1.0000 </r>
       <r>  -13.7327    1.0000 </r>
       <r>  -13.5152    1.0000 </r>
       <r>  -13.5028    1.0000 </r>
       <r>  -10.4061    1.0000 </r>
       <r>   -9.4547    1.0000 </r>
       <r>   -9.4205    1.0000 </r>
       <r>   -8.3729    1.0000 </r>
       <r>   -7.6077    1.0000 </r>
       <r>   -6.8692    1.0000 </r>
       <r>   -6.8690    1.0000 </r>
       <r>   -6.8429    1.0000 </r>
       <r>   -6.7144    1.0000 </r>
       <r>   -3.3260    1.0000 </r>
       <r>   -3.3145    1.0000 </r>
       <r>   -2.9358    1.0000 </r>
       <r>   -2.9217    1.0000 </r>
       <r>   -2.8379    1.0000 </r>
       <r>   -2.8020    1.0000 </r>
       <r>   -2.7950    1.0000 </r>
       <r>   -0.9150    1.0000 </r>
       <r>   -0.8976    1.0000 </r>
       <r>    0.9852    0.0000 </r>
       <r>    1.0135    0.0000 </r>
       <r>    1.3470    0.0000 </r>
       <r>    1.5956    0.0000 </r>
       <r>    1.6062    0.0000 </r>
       <r>    2.1657    0.0000 </r>
       <r>    2.8938    0.0000 </r>
       <r>    3.5203    0.0000 </r>
       <r>    3.5364    0.0000 </r>
       <r>    3.6186    0.0000 </r>
       <r>    4.6214    0.0000 </r>
       <r>    6.7301    0.0000 </r>
       <r>    7.4768    0.0000 </r>
       <r>    7.6022    0.0000 </r>
       <r>    7.6272    0.0000 </r>
       <r>    7.6331    0.0000 </r>
       <r>    7.8614    0.0000 </r>
       <r>    8.3851    0.0000 </r>
       <r>    8.4097    0.0000 </r>
       <r>    8.8060    0.0000 </r>
      </set>
      <set comment="kpoint 3">
       <r>  -20.2345    1.0000 </r>
       <r>  -17.3833    1.0000 </r>
       <r>  -14.8795    1.0000 </r>
       <r>  -14.7841    1.0000 </r>
       <r>  -14.7827    1.0000 </r>
       <r>  -13.8279    1.0000 </r>
       <r>  -13.8265    1.0000 </r>
       <r>  -13.7327    1.0000 </r>
       <r>  -13.5152    1.0000 </r>
       <r>  -13.5028    1.0000 </r>
       <r>  -10.4061    1.0000 </r>
       <r>   -9.4547    1.0000 </r>
       <r>   -9.4206    1.0000 </r>
       <r>   -8.3729    1.0000 </r>
       <r>   -7.6077    1.0000 </r>
       <r>   -6.8692    1.0000 </r>
       <r>   -6.8690    1.0000 </r>
       <r>   -6.8429    1.0000 </r>
       <r>   -6.7144    1.0000 </r>
       <r>   -3.3261    1.0000 </r>
       <r>   -3.3144    1.0000 </r>
       <r>   -2.9359    1.0000 </r>
       <r>   -2.9216    1.0000 </r>
       <r>   -2.8379    1.0000 </r>
       <r>   -2.8018    1.0000 </r>
       <r>   -2.7951    1.0000 </r>
       <r>   -0.9134    1.0000 </r>
       <r>   -0.8993    1.0000 </r>
       <r>    0.9908    0.0000 </r>
       <r>    1.0080    0.0000 </r>
       <r>    1.3473    0.0000 </r>
       <r>    1.5909    0.0000 </r>
       <r>    1.6103    0.0000 </r>
       <r>    2.1659    0.0000 </r>
       <r>    2.8938    0.0000 </r>
       <r>    3.5201    0.0000 </r>
       <r>    3.5366    0.0000 </r>
       <r>    3.6186    0.0000 </r>
       <r>    4.6214    0.0000 </r>
       <r>    6.7301    0.0000 </r>
       <r>    7.4768    0.0000 </r>
       <r>    7.6023    0.0000 </r>
       <r>    7.6270    0.0000 </r>
       <r>    7.6332    0.0000 </r>
       <r>    7.8614    0.0000 </r>
       <r>    8.3852    0.0000 </r>
       <r>    8.4096    0.0000 </r>
       <r>    8.8058    0.0000 </r>
      </set>
      <set comment="kpoint 4">
       <r>  -20.2345    1.0000 </r>
       <r>  -17.3833    1.0000 </r>
       <r>  -14.8795    1.0000 </r>
       <r>  -14.7841    1.0000 </r>
       <r>  -14.7827    1.0000 </r>
       <r>  -13.8279    1.0000 </r>
       <r>  -13.8264    1.0000 </r>
       <r>  -13.7327    1.0000 </r>
       <r>  -13.5151    1.0000 </r>
       <r>  -13.5029    1.0000 </r>
       <r>  -10.4061    1.0000 </r>
       <r>   -9.4547    1.0000 </r>
       <r>   -9.4206    1.0000 </r>
       <r>   -8.3729    1.0000 </r>
       <r>   -7.6077    1.0000 </r>
       <r>   -6.8692    1.0000 </r>
       <r>   -6.8690    1.0000 </r>
       <r>   -6.8429    1.0000 </r>
[...]
       <r>   -8.2352    1.0000 </r>
       <r>   -8.2349    1.0000 </r>
       <r>   -8.1767    1.0000 </r>
       <r>   -7.9244    1.0000 </r>
       <r>   -6.9320    1.0000 </r>
       <r>   -6.9314    1.0000 </r>
       <r>   -6.6757    1.0000 </r>
       <r>   -6.1840    1.0000 </r>
       <r>   -5.9621    1.0000 </r>
       <r>   -5.8703    1.0000 </r>
       <r>   -5.7849    1.0000 </r>
       <r>   -5.6708    1.0000 </r>
       <r>   -5.2272    1.0000 </r>
       <r>   -3.8994    1.0000 </r>
       <r>   -3.5025    1.0000 </r>
       <r>   -3.3787    1.0000 </r>
       <r>   -0.4770    0.9852 </r>
       <r>   -0.1695    0.0148 </r>
       <r>    2.6808    0.0000 </r>
       <r>    3.7273    0.0000 </r>
       <r>    3.9256    0.0000 </r>
       <r>    4.1741    0.0000 </r>
       <r>    4.5923    0.0000 </r>
       <r>    4.6657    0.0000 </r>
       <r>    5.4372    0.0000 </r>
       <r>    5.7320    0.0000 </r>
       <r>    5.8477    0.0000 </r>
       <r>    6.1719    0.0000 </r>
       <r>    6.2438    0.0000 </r>
       <r>    6.2616    0.0000 </r>
       <r>    6.4379    0.0000 </r>
       <r>    6.5273    0.0000 </r>
       <r>    6.6341    0.0000 </r>
       <r>    7.0469    0.0000 </r>
       <r>    7.2549    0.0000 </r>
       <r>    7.4552    0.0000 </r>
       <r>    7.5360    0.0000 </r>
      </set>
      <set comment="kpoint 481">
       <r>  -18.3570    1.0000 </r>
       <r>  -18.1667    1.0000 </r>
       <r>  -18.1632    1.0000 </r>
       <r>  -16.6974    1.0000 </r>
       <r>  -14.6557    1.0000 </r>
       <r>  -14.5714    1.0000 </r>
       <r>  -13.1508    1.0000 </r>
       <r>  -12.9481    1.0000 </r>
       <r>  -11.2171    1.0000 </r>
       <r>   -9.2534    1.0000 </r>
       <r>   -9.1024    1.0000 </r>
       <r>   -8.2352    1.0000 </r>
       <r>   -8.2349    1.0000 </r>
       <r>   -8.1767    1.0000 </r>
       <r>   -7.9243    1.0000 </r>
       <r>   -6.9319    1.0000 </r>
       <r>   -6.9313    1.0000 </r>
       <r>   -6.6758    1.0000 </r>
       <r>   -6.1840    1.0000 </r>
       <r>   -5.9621    1.0000 </r>
       <r>   -5.8703    1.0000 </r>
       <r>   -5.7848    1.0000 </r>
       <r>   -5.6709    1.0000 </r>
       <r>   -5.2272    1.0000 </r>
       <r>   -3.8994    1.0000 </r>
       <r>   -3.5026    1.0000 </r>
       <r>   -3.3786    1.0000 </r>
       <r>   -0.4766    0.9850 </r>
       <r>   -0.1699    0.0151 </r>
       <r>    2.6807    0.0000 </r>
       <r>    3.7273    0.0000 </r>
       <r>    3.9265    0.0000 </r>
       <r>    4.1734    0.0000 </r>
       <r>    4.5923    0.0000 </r>
       <r>    4.6658    0.0000 </r>
       <r>    5.4372    0.0000 </r>
       <r>    5.7320    0.0000 </r>
       <r>    5.8476    0.0000 </r>
       <r>    6.1717    0.0000 </r>
       <r>    6.2439    0.0000 </r>
       <r>    6.2614    0.0000 </r>
       <r>    6.4376    0.0000 </r>
       <r>    6.5273    0.0000 </r>
       <r>    6.6349    0.0000 </r>
       <r>    7.0467    0.0000 </r>
       <r>    7.2550    0.0000 </r>
       <r>    7.4552    0.0000 </r>
       <r>    7.5360    0.0000 </r>
      </set>
     </set>
    </set>
   </array>
  </eigenvalues>
  <separator name="orbital magnetization" >
   <v name="MAGDIPOLOUT">      0.00000000      0.00000000      0.00000000</v>
  </separator>
  <dos>
   <i name="efermi">     -0.32327618 </i>
   <total>
    <array>
     <dimension dim="1">gridpoints</dimension>
     <dimension dim="2">spin</dimension>
     <field>energy</field>
     <field>total</field>
     <field>integrated</field>
     <set>
      <set comment="spin 1">
       <r>   -21.7006     0.0000     0.0000 </r>
       <r>   -21.5935     0.0000     0.0000 </r>
       <r>   -21.4865     0.0000     0.0000 </r>
       <r>   -21.3794     0.0000     0.0000 </r>
       <r>   -21.2724     0.0000     0.0000 </r>
       <r>   -21.1653     0.0000     0.0000 </r>
       <r>   -21.0583     0.0000     0.0000 </r>
       <r>   -20.9512     0.0000     0.0000 </r>
       <r>   -20.8442     0.0000     0.0000 </r>
       <r>   -20.7371     0.0000     0.0000 </r>
       <r>   -20.6301     0.0000     0.0000 </r>
       <r>   -20.5230     0.0000     0.0000 </r>
       <r>   -20.4160     0.0017     0.0002 </r>
       <r>   -20.3089     0.0685     0.0075 </r>
       <r>   -20.2019     0.5063     0.0617 </r>
       <r>   -20.0949     1.0529     0.1744 </r>
       <r>   -19.9878     1.1864     0.3014 </r>
       <r>   -19.8808     1.1932     0.4291 </r>
       <r>   -19.7737     1.1946     0.5570 </r>
       <r>   -19.6667     1.1959     0.6850 </r>
       <r>   -19.5596     1.1973     0.8132 </r>
       <r>   -19.4526     1.1986     0.9415 </r>
       <r>   -19.3455     1.1999     1.0700 </r>
       <r>   -19.2385     1.2020     1.1987 </r>
       <r>   -19.1314     1.2045     1.3276 </r>
       <r>   -19.0244     1.2033     1.4564 </r>
       <r>   -18.9173     1.2047     1.5854 </r>
       <r>   -18.8103     1.2132     1.7152 </r>
       <r>   -18.7032     1.2054     1.8443 </r>
       <r>   -18.5962     1.2100     1.9738 </r>
       <r>   -18.4891     1.2217     2.1046 </r>
       <r>   -18.3821     1.2010     2.2332 </r>
       <r>   -18.2750     1.2333     2.3652 </r>
       <r>   -18.1680     1.2032     2.4940 </r>
       <r>   -18.0609     1.2339     2.6261 </r>
       <r>   -17.9539     1.2132     2.7560 </r>
       <r>   -17.8468     1.2319     2.8878 </r>
       <r>   -17.7398     1.2222     3.0187 </r>
       <r>   -17.6327     1.2349     3.1509 </r>
       <r>   -17.5257     1.2360     3.2832 </r>
       <r>   -17.4186     1.4915     3.4428 </r>
       <r>   -17.3116     2.3304     3.6923 </r>
       <r>   -17.2045     3.0815     4.0222 </r>
       <r>   -17.0975     3.2584     4.3710 </r>
       <r>   -16.9904     3.6518     4.7619 </r>
       <r>   -16.8834     4.2936     5.2215 </r>
       <r>   -16.7763     5.5421     5.8148 </r>
       <r>   -16.6693     4.2651     6.2714 </r>
       <r>   -16.5622     1.9348     6.4785 </r>
       <r>   -16.4552     1.3043     6.6181 </r>
       <r>   -16.3481     1.2222     6.7489 </r>
       <r>   -16.2411     1.3419     6.8926 </r>
       <r>   -16.1340     1.1993     7.0210 </r>
       <r>   -16.0270     1.3414     7.1646 </r>
       <r>   -15.9199     1.2716     7.3007 </r>
       <r>   -15.8129     1.2546     7.4350 </r>
       <r>   -15.7058     1.3860     7.5834 </r>
       <r>   -15.5988     1.2211     7.7141 </r>
       <r>   -15.4917     1.3762     7.8614 </r>
       <r>   -15.3847     1.3493     8.0058 </r>
       <r>   -15.2777     1.2763     8.1425 </r>
       <r>   -15.1706     1.4776     8.3006 </r>
       <r>   -15.0636     1.4236     8.4530 </r>
       <r>   -14.9565     2.3261     8.7020 </r>
       <r>   -14.8495     4.0318     9.1336 </r>
       <r>   -14.7424     4.8870     9.6568 </r>
       <r>   -14.6354     4.5836    10.1474 </r>
       <r>   -14.5283     3.2849    10.4991 </r>
       <r>   -14.4213     2.7868    10.7974 </r>
       <r>   -14.3142     2.9621    11.1145 </r>
       <r>   -14.2072     2.7593    11.4099 </r>
       <r>   -14.1001     2.9791    11.7288 </r>
       <r>   -13.9931     3.3345    12.0858 </r>
       <r>   -13.8860     3.9865    12.5125 </r>
       <r>   -13.7790     5.2894    13.0787 </r>
       <r>   -13.6719     4.6945    13.5813 </r>
       <r>   -13.5649     3.8609    13.9946 </r>
       <r>   -13.4578     2.6602    14.2793 </r>
       <r>   -13.3508     1.5355    14.4437 </r>
       <r>   -13.2437     1.3198    14.5850 </r>
       <r>   -13.1367     1.2869    14.7228 </r>
       <r>   -13.0296     1.3253    14.8646 </r>
       <r>   -12.9226     1.4854    15.0236 </r>
       <r>   -12.8155     1.7271    15.2085 </r>
       <r>   -12.7085     1.6882    15.3893 </r>
       <r>   -12.6014     1.5537    15.5556 </r>
       <r>   -12.4944     1.4506    15.7109 </r>
       <r>   -12.3873     1.4034    15.8611 </r>
       <r>   -12.2803     1.3583    16.0065 </r>
       <r>   -12.1732     1.3068    16.1464 </r>
       <r>   -12.0662     1.2961    16.2852 </r>
       <r>   -11.9591     1.2309    16.4169 </r>
       <r>   -11.8521     1.2421    16.5499 </r>
       <r>   -11.7450     1.1663    16.6747 </r>
       <r>   -11.6380     1.1942    16.8026 </r>
       <r>   -11.5309     1.1146    16.9219 </r>
       <r>   -11.4239     1.1450    17.0445 </r>
       <r>   -11.3168     1.0800    17.1601 </r>
       <r>   -11.2098     1.2126    17.2899 </r>
       <r>   -11.1027     1.3101    17.4301 </r>
       <r>   -10.9957     1.3869    17.5786 </r>
       <r>   -10.8886     1.4024    17.7287 </r>
       <r>   -10.7816     1.3772    17.8762 </r>
       <r>   -10.6746     1.6527    18.0531 </r>
       <r>   -10.5675     2.4429    18.3146 </r>
       <r>   -10.4605     3.1018    18.6466 </r>
       <r>   -10.3534     3.6932    19.0420 </r>
       <r>   -10.2464     3.9477    19.4646 </r>
       <r>   -10.1393     4.4233    19.9381 </r>
       <r>   -10.0323     3.9205    20.3578 </r>
       <r>    -9.9252     3.3598    20.7174 </r>
       <r>    -9.8182     3.0796    21.0471 </r>
       <r>    -9.7111     3.4555    21.4170 </r>
       <r>    -9.6041     3.6209    21.8046 </r>
       <r>    -9.4970     3.5896    22.1889 </r>
       <r>    -9.3900     3.3827    22.5510 </r>
       <r>    -9.2829     3.2284    22.8966 </r>
       <r>    -9.1759     3.4540    23.2663 </r>
       <r>    -9.0688     3.6112    23.6529 </r>
       <r>    -8.9618     3.5677    24.0348 </r>
       <r>    -8.8547     3.7080    24.4318 </r>
       <r>    -8.7477     3.4326    24.7992 </r>
       <r>    -8.6406     3.3800    25.1611 </r>
       <r>    -8.5336     3.4549    25.5309 </r>
       <r>    -8.4265     3.5480    25.9107 </r>
       <r>    -8.3195     3.8556    26.3235 </r>
       <r>    -8.2124     4.5843    26.8142 </r>
       <r>    -8.1054     4.2874    27.2732 </r>
       <r>    -7.9983     4.8248    27.7896 </r>
       <r>    -7.8913     5.6070    28.3899 </r>
       <r>    -7.7842     5.7222    29.0024 </r>
       <r>    -7.6772     4.4272    29.4763 </r>
       <r>    -7.5701     3.4800    29.8489 </r>
       <r>    -7.4631     3.2543    30.1972 </r>
       <r>    -7.3560     3.4511    30.5667 </r>
       <r>    -7.2490     3.4840    30.9396 </r>
       <r>    -7.1419     3.6794    31.3335 </r>
       <r>    -7.0349     3.9092    31.7520 </r>
       <r>    -6.9278     4.3208    32.2145 </r>
       <r>    -6.8208     4.7961    32.7279 </r>
       <r>    -6.7137     4.9396    33.2567 </r>
       <r>    -6.6067     4.9500    33.7866 </r>
       <r>    -6.4996     4.8346    34.3041 </r>
       <r>    -6.3926     4.7969    34.8176 </r>
       <r>    -6.2855     4.9500    35.3475 </r>
       <r>    -6.1785     5.4126    35.9269 </r>
       <r>    -6.0714     6.3646    36.6083 </r>
       <r>    -5.9644     7.0479    37.3627 </r>
       <r>    -5.8574     7.1337    38.1264 </r>
       <r>    -5.7503     5.6148    38.7275 </r>
       <r>    -5.6433     4.9324    39.2555 </r>
       <r>    -5.5362     6.5538    39.9570 </r>
       <r>    -5.4292     8.3066    40.8462 </r>
       <r>    -5.3221     8.2266    41.7269 </r>
       <r>    -5.2151     5.3398    42.2985 </r>
       <r>    -5.1080     3.4426    42.6670 </r>
       <r>    -5.0010     3.0911    42.9979 </r>
       <r>    -4.8939     2.8455    43.3025 </r>
       <r>    -4.7869     2.8104    43.6034 </r>
       <r>    -4.6798     2.7632    43.8992 </r>
       <r>    -4.5728     2.6678    44.1848 </r>
       <r>    -4.4657     2.9007    44.4953 </r>
       <r>    -4.3587     3.9222    44.9152 </r>
       <r>    -4.2516     5.3640    45.4894 </r>
       <r>    -4.1446     5.8159    46.1119 </r>
       <r>    -4.0375     5.5246    46.7034 </r>
       <r>    -3.9305     5.1947    47.2594 </r>
       <r>    -3.8234     4.9273    47.7869 </r>
       <r>    -3.7164     4.9413    48.3159 </r>
       <r>    -3.6093     4.8213    48.8320 </r>
       <r>    -3.5023     4.8297    49.3490 </r>
       <r>    -3.3952     4.4528    49.8257 </r>
       <r>    -3.2882     3.8072    50.2332 </r>
       <r>    -3.1811     3.5710    50.6155 </r>
       <r>    -3.0741     3.4308    50.9827 </r>
       <r>    -2.9670     3.3656    51.3430 </r>
       <r>    -2.8600     3.6687    51.7358 </r>
       <r>    -2.7529     3.4350    52.1035 </r>
       <r>    -2.6459     3.2101    52.4471 </r>
       <r>    -2.5388     3.0579    52.7744 </r>
       <r>    -2.4318     2.6776    53.0611 </r>
       <r>    -2.3247     2.7912    53.3599 </r>
       <r>    -2.2177     1.8868    53.5618 </r>
       <r>    -2.1106     1.6669    53.7403 </r>
       <r>    -2.0036     2.7467    54.0343 </r>
       <r>    -1.8965     3.2005    54.3769 </r>
       <r>    -1.7895     2.7762    54.6741 </r>
       <r>    -1.6824     2.3045    54.9208 </r>
       <r>    -1.5754     1.7812    55.1115 </r>
       <r>    -1.4683     1.6652    55.2897 </r>
       <r>    -1.3613     1.4201    55.4418 </r>
       <r>    -1.2542     1.2248    55.5729 </r>
       <r>    -1.1472     1.1523    55.6962 </r>
       <r>    -1.0402     0.9465    55.7976 </r>
       <r>    -0.9331     0.8297    55.8864 </r>
       <r>    -0.8261     0.5255    55.9426 </r>
       <r>    -0.7190     0.2145    55.9656 </r>
       <r>    -0.6120     0.1608    55.9828 </r>
       <r>    -0.5049     0.0815    55.9915 </r>
       <r>    -0.3979     0.0637    55.9984 </r>
       <r>    -0.2908     0.0199    56.0005 </r>
       <r>    -0.1838     0.0452    56.0053 </r>
       <r>    -0.0767     0.0762    56.0135 </r>
       <r>     0.0303     0.1304    56.0274 </r>
       <r>     0.1374     0.1815    56.0469 </r>
       <r>     0.2444     0.2110    56.0695 </r>
       <r>     0.3515     0.3143    56.1031 </r>
       <r>     0.4585     0.3002    56.1352 </r>
       <r>     0.5656     0.4532    56.1838 </r>
       <r>     0.6726     0.5614    56.2438 </r>
       <r>     0.7797     1.3397    56.3873 </r>
       <r>     0.8867     2.7236    56.6788 </r>
       <r>     0.9938     4.0347    57.1107 </r>
       <r>     1.1008     4.7748    57.6219 </r>
       <r>     1.2079     3.1610    57.9602 </r>
       <r>     1.3149     1.8253    58.1556 </r>
       <r>     1.4220     2.5007    58.4233 </r>
       <r>     1.5290     3.2528    58.7715 </r>
       <r>     1.6361     3.4552    59.1414 </r>
       <r>     1.7431     3.0450    59.4674 </r>
       <r>     1.8502     2.5878    59.7444 </r>
       <r>     1.9572     2.6383    60.0268 </r>
       <r>     2.0643     2.2472    60.2674 </r>
       <r>     2.1713     2.2805    60.5115 </r>
       <r>     2.2784     2.2436    60.7517 </r>
       <r>     2.3854     2.1822    60.9853 </r>
       <r>     2.4925     2.0301    61.2026 </r>
       <r>     2.5995     2.0955    61.4269 </r>
       <r>     2.7066     2.0120    61.6423 </r>
       <r>     2.8136     1.7540    61.8301 </r>
       <r>     2.9207     2.2204    62.0678 </r>
       <r>     3.0277     2.5987    62.3460 </r>
       <r>     3.1348     2.5745    62.6216 </r>
       <r>     3.2418     2.7486    62.9158 </r>
       <r>     3.3489     2.8180    63.2175 </r>
       <r>     3.4559     2.7400    63.5108 </r>
       <r>     3.5629     3.2947    63.8635 </r>
       <r>     3.6700     4.4145    64.3360 </r>
       <r>     3.7770     5.4227    64.9165 </r>
       <r>     3.8841     6.7498    65.6391 </r>
       <r>     3.9911     6.7865    66.3656 </r>
       <r>     4.0982     5.9891    67.0067 </r>
       <r>     4.2052     6.4078    67.6926 </r>
       <r>     4.3123     5.9977    68.3347 </r>
       <r>     4.4193     5.6986    68.9447 </r>
       <r>     4.5264     6.0339    69.5906 </r>
       <r>     4.6334     6.0523    70.2385 </r>
       <r>     4.7405     5.6259    70.8408 </r>
       <r>     4.8475     6.3610    71.5217 </r>
       <r>     4.9546     6.0543    72.1698 </r>
       <r>     5.0616     6.7295    72.8902 </r>
       <r>     5.1687     7.0013    73.6397 </r>
       <r>     5.2757     6.1993    74.3033 </r>
       <r>     5.3828     5.0352    74.8423 </r>
       <r>     5.4898     5.0628    75.3843 </r>
       <r>     5.5969     6.6123    76.0921 </r>
       <r>     5.7039     6.7193    76.8114 </r>
       <r>     5.8110     5.5666    77.4073 </r>
       <r>     5.9180     5.2077    77.9648 </r>
       <r>     6.0251     5.4551    78.5488 </r>
       <r>     6.1321     5.1529    79.1004 </r>
       <r>     6.2392     4.6875    79.6022 </r>
       <r>     6.3462     4.7431    80.1099 </r>
       <r>     6.4533     5.2970    80.6770 </r>
       <r>     6.5603     6.6033    81.3838 </r>
       <r>     6.6674     6.9157    82.1241 </r>
       <r>     6.7744     6.9818    82.8715 </r>
       <r>     6.8815     7.5805    83.6830 </r>
       <r>     6.9885     8.2559    84.5668 </r>
       <r>     7.0956     7.2433    85.3422 </r>
       <r>     7.2026     5.3905    85.9193 </r>
       <r>     7.3097     4.4360    86.3941 </r>
       <r>     7.4167     4.4805    86.8738 </r>
       <r>     7.5238     5.2040    87.4308 </r>
       <r>     7.6308     6.2771    88.1028 </r>
       <r>     7.7379     8.0100    88.9603 </r>
       <r>     7.8449     8.3225    89.8512 </r>
       <r>     7.9520     8.1022    90.7185 </r>
       <r>     8.0590     8.1461    91.5905 </r>
       <r>     8.1661     8.0579    92.4531 </r>
       <r>     8.2731     7.4780    93.2536 </r>
       <r>     8.3801     8.6257    94.1770 </r>
       <r>     8.4872     7.7139    95.0028 </r>
       <r>     8.5942     4.6757    95.5033 </r>
       <r>     8.7013     2.4348    95.7639 </r>
       <r>     8.8083     1.2017    95.8926 </r>
       <r>     8.9154     0.7311    95.9708 </r>
       <r>     9.0224     0.2430    95.9968 </r>
       <r>     9.1295     0.0287    95.9999 </r>
       <r>     9.2365     0.0008    96.0000 </r>
       <r>     9.3436     0.0000    96.0000 </r>
       <r>     9.4506     0.0000    96.0000 </r>
       <r>     9.5577     0.0000    96.0000 </r>
       <r>     9.6647     0.0000    96.0000 </r>
       <r>     9.7718     0.0000    96.0000 </r>
       <r>     9.8788     0.0000    96.0000 </r>
       <r>     9.9859     0.0000    96.0000 </r>
       <r>    10.0929     0.0000    96.0000 </r>
       <r>    10.2000     0.0000    96.0000 </r>
       <r>    10.3070     0.0000    96.0000 </r>
       <r>    10.4141     0.0000    96.0000 </r>
      </set>
     </set>
    </array>
   </total>
  </dos>
 </calculation>
 <structure name="finalpos" >
  <crystal>
   <varray name="basis" >
    <v>       4.19675911       2.42300000       0.00000000 </v>
    <v>      -4.19675911       2.42300000       0.00000000 </v>
    <v>       0.00000000       0.00000000      15.00000000 </v>
   </varray>
   <i name="volume">    305.06241947 </i>
   <varray name="rec_basis" >
    <v>       0.11913955       0.20635576       0.00000000 </v>
    <v>      -0.11913955       0.20635576       0.00000000 </v>
    <v>       0.00000000       0.00000000       0.06666667 </v>
   </varray>
  </crystal>
  <varray name="positions" >
   <v>       0.00405653       0.00269734       0.10150106 </v>
   <v>       0.35924549       0.00297870       0.10071141 </v>
   <v>       0.00376783       0.35759951       0.10071217 </v>
   <v>       0.64914818       0.64750627       0.10070860 </v>
   <v>       0.32778476       0.32614414       0.10073086 </v>
   <v>       0.68060188       0.00297489       0.10073054 </v>
   <v>       0.00377056       0.67895921       0.10072786 </v>
   <v>       0.00013259       0.50006304       0.33511533 </v>
   <v>       0.16678386       0.33345284       0.33515001 </v>
   <v>       0.00011539       0.00007104       0.33507593 </v>
   <v>       0.16682595       0.83340270       0.33515391 </v>
   <v>       0.50012588       0.50009985       0.33511811 </v>
   <v>       0.66678116       0.33340594       0.33501310 </v>
   <v>       0.50008744       0.00005365       0.33511368 </v>
   <v>       0.66673317       0.83335819       0.33515010 </v>
  </varray>
 </structure>
</modeling>
