  15  15   0   4
  0.1987017E+02  0.4790000E-09  0.4790000E-09  0.1500000E-08  0.5000000E-15
  1.000000000000000E-004
  CAR 
 Lattice                                 
     10.53702475    -21.81549955  301     -0.13887084      1.00000000
    -21.815  0.0000E+00  0.0000E+00  0.0000E+00  0.0000E+00
    -21.708  0.0000E+00  0.0000E+00  0.0000E+00  0.0000E+00
    -21.600  0.0000E+00  0.0000E+00  0.0000E+00  0.0000E+00
    -21.492  0.0000E+00  0.0000E+00  0.0000E+00  0.0000E+00
    -21.384  0.0000E+00  0.0000E+00  0.0000E+00  0.0000E+00
    -21.276  0.0000E+00  0.0000E+00  0.0000E+00  0.0000E+00
    -21.168  0.0000E+00  0.0000E+00  0.0000E+00  0.0000E+00
    -21.061  0.0000E+00  0.0000E+00  0.0000E+00  0.0000E+00
    -20.953  0.0000E+00  0.0000E+00  0.0000E+00  0.0000E+00
    -20.845  0.4106E-15  0.4106E-15  0.4428E-16  0.4428E-16
    -20.737  0.8477E-11  0.8477E-11  0.9142E-12  0.9142E-12
    -20.629  0.2006E-07  0.2006E-07  0.2164E-08  0.2164E-08
    -20.521  0.6022E-05  0.6022E-05  0.6516E-06  0.6516E-06
    -20.414  0.2577E-03  0.2577E-03  0.2844E-04  0.2844E-04
    -20.306  0.1929E-02  0.1929E-02  0.2364E-03  0.2364E-03
    -20.198  0.4078E-02  0.4078E-02  0.6762E-03  0.6762E-03
    -20.090  0.4413E-02  0.4413E-02  0.1152E-02  0.1152E-02
    -19.982  0.4865E-02  0.4865E-02  0.1677E-02  0.1677E-02
    -19.874  0.4036E-02  0.4036E-02  0.2112E-02  0.2112E-02
    -19.767  0.5264E-02  0.5264E-02  0.2680E-02  0.2680E-02
    -19.659  0.4228E-02  0.4228E-02  0.3136E-02  0.3136E-02
    -19.551  0.3999E-02  0.3999E-02  0.3567E-02  0.3567E-02
    -19.443  0.5932E-02  0.5932E-02  0.4207E-02  0.4207E-02
    -19.335  0.3948E-02  0.3948E-02  0.4632E-02  0.4632E-02
    -19.227  0.3530E-02  0.3530E-02  0.5013E-02  0.5013E-02
    -19.119  0.5929E-02  0.5929E-02  0.5652E-02  0.5652E-02
    -19.012  0.5321E-02  0.5321E-02  0.6226E-02  0.6226E-02
    -18.904  0.3130E-02  0.3130E-02  0.6564E-02  0.6564E-02
    -18.796  0.3686E-02  0.3686E-02  0.6961E-02  0.6961E-02
    -18.688  0.6843E-02  0.6843E-02  0.7699E-02  0.7699E-02
    -18.580  0.4836E-02  0.4836E-02  0.8221E-02  0.8221E-02
    -18.472  0.3821E-02  0.3821E-02  0.8633E-02  0.8633E-02
    -18.365  0.2779E-02  0.2779E-02  0.8933E-02  0.8933E-02
    -18.257  0.5711E-02  0.5711E-02  0.9548E-02  0.9548E-02
    -18.149  0.7012E-02  0.7012E-02  0.1030E-01  0.1030E-01
    -18.041  0.4047E-02  0.4047E-02  0.1074E-01  0.1074E-01
    -17.933  0.2886E-02  0.2886E-02  0.1105E-01  0.1105E-01
    -17.825  0.3918E-02  0.3918E-02  0.1147E-01  0.1147E-01
    -17.718  0.5343E-02  0.5343E-02  0.1205E-01  0.1205E-01
    -17.610  0.7052E-02  0.7052E-02  0.1281E-01  0.1281E-01
    -17.502  0.6329E-02  0.6329E-02  0.1349E-01  0.1349E-01
    -17.394  0.7815E-02  0.7815E-02  0.1434E-01  0.1434E-01
    -17.286  0.9321E-02  0.9321E-02  0.1534E-01  0.1534E-01
    -17.178  0.1364E-01  0.1364E-01  0.1681E-01  0.1681E-01
    -17.070  0.1590E-01  0.1590E-01  0.1853E-01  0.1853E-01
    -16.963  0.1756E-01  0.1756E-01  0.2042E-01  0.2042E-01
    -16.855  0.2088E-01  0.2088E-01  0.2267E-01  0.2267E-01
    -16.747  0.1556E-01  0.1556E-01  0.2435E-01  0.2435E-01
    -16.639  0.4250E-02  0.4249E-02  0.2481E-01  0.2481E-01
    -16.531  0.4479E-02  0.4479E-02  0.2529E-01  0.2529E-01
    -16.423  0.9022E-02  0.9022E-02  0.2627E-01  0.2627E-01
    -16.316  0.5359E-02  0.5359E-02  0.2684E-01  0.2684E-01
    -16.208  0.4228E-02  0.4228E-02  0.2730E-01  0.2730E-01
    -16.100  0.3641E-02  0.3641E-02  0.2769E-01  0.2769E-01
    -15.992  0.4073E-02  0.4073E-02  0.2813E-01  0.2813E-01
    -15.884  0.3065E-02  0.3065E-02  0.2846E-01  0.2846E-01
    -15.776  0.5597E-02  0.5597E-02  0.2907E-01  0.2907E-01
    -15.669  0.8889E-02  0.8889E-02  0.3002E-01  0.3002E-01
    -15.561  0.5644E-02  0.5644E-02  0.3063E-01  0.3063E-01
    -15.453  0.3541E-02  0.3541E-02  0.3101E-01  0.3101E-01
    -15.345  0.3394E-02  0.3394E-02  0.3138E-01  0.3138E-01
    -15.237  0.3517E-02  0.3517E-02  0.3176E-01  0.3176E-01
    -15.129  0.5364E-02  0.5364E-02  0.3234E-01  0.3234E-01
    -15.021  0.9282E-02  0.9282E-02  0.3334E-01  0.3334E-01
    -14.914  0.1582E-01  0.1582E-01  0.3505E-01  0.3505E-01
    -14.806  0.1966E-01  0.1966E-01  0.3717E-01  0.3717E-01
    -14.698  0.1629E-01  0.1629E-01  0.3892E-01  0.3892E-01
    -14.590  0.1356E-01  0.1356E-01  0.4038E-01  0.4038E-01
    -14.482  0.8657E-02  0.8657E-02  0.4132E-01  0.4132E-01
    -14.374  0.9879E-02  0.9879E-02  0.4238E-01  0.4238E-01
    -14.267  0.1408E-01  0.1408E-01  0.4390E-01  0.4390E-01
    -14.159  0.1554E-01  0.1554E-01  0.4558E-01  0.4558E-01
    -14.051  0.1206E-01  0.1206E-01  0.4688E-01  0.4688E-01
    -13.943  0.1099E-01  0.1099E-01  0.4806E-01  0.4806E-01
    -13.835  0.1743E-01  0.1743E-01  0.4994E-01  0.4994E-01
    -13.727  0.1873E-01  0.1873E-01  0.5196E-01  0.5196E-01
    -13.620  0.1771E-01  0.1771E-01  0.5387E-01  0.5387E-01
    -13.512  0.1456E-01  0.1456E-01  0.5544E-01  0.5544E-01
    -13.404  0.8526E-02  0.8526E-02  0.5636E-01  0.5636E-01
    -13.296  0.3453E-02  0.3453E-02  0.5674E-01  0.5674E-01
    -13.188  0.2998E-02  0.2998E-02  0.5706E-01  0.5706E-01
    -13.080  0.5318E-02  0.5318E-02  0.5763E-01  0.5763E-01
    -12.972  0.7034E-02  0.7034E-02  0.5839E-01  0.5839E-01
    -12.865  0.5472E-02  0.5472E-02  0.5898E-01  0.5898E-01
    -12.757  0.5345E-02  0.5345E-02  0.5956E-01  0.5956E-01
    -12.649  0.6099E-02  0.6099E-02  0.6021E-01  0.6021E-01
    -12.541  0.6389E-02  0.6389E-02  0.6090E-01  0.6090E-01
    -12.433  0.5707E-02  0.5707E-02  0.6152E-01  0.6152E-01
    -12.325  0.4445E-02  0.4445E-02  0.6200E-01  0.6200E-01
    -12.218  0.3906E-02  0.3906E-02  0.6242E-01  0.6242E-01
    -12.110  0.7647E-02  0.7647E-02  0.6324E-01  0.6324E-01
    -12.002  0.5764E-02  0.5764E-02  0.6387E-01  0.6387E-01
    -11.894  0.3198E-02  0.3198E-02  0.6421E-01  0.6421E-01
    -11.786  0.3739E-02  0.3739E-02  0.6461E-01  0.6461E-01
    -11.678  0.3448E-02  0.3448E-02  0.6499E-01  0.6499E-01
    -11.571  0.5996E-02  0.5996E-02  0.6563E-01  0.6563E-01
    -11.463  0.6639E-02  0.6639E-02  0.6635E-01  0.6635E-01
    -11.355  0.3176E-02  0.3176E-02  0.6669E-01  0.6669E-01
    -11.247  0.2340E-02  0.2340E-02  0.6694E-01  0.6694E-01
    -11.139  0.5245E-02  0.5245E-02  0.6751E-01  0.6751E-01
    -11.031  0.6899E-02  0.6899E-02  0.6825E-01  0.6825E-01
    -10.923  0.6823E-02  0.6823E-02  0.6899E-01  0.6899E-01
    -10.816  0.5955E-02  0.5955E-02  0.6963E-01  0.6963E-01
    -10.708  0.5014E-02  0.5014E-02  0.7017E-01  0.7017E-01
    -10.600  0.6562E-02  0.6562E-02  0.7088E-01  0.7088E-01
    -10.492  0.1160E-01  0.1160E-01  0.7213E-01  0.7213E-01
    -10.384  0.1438E-01  0.1438E-01  0.7368E-01  0.7368E-01
    -10.276  0.1666E-01  0.1666E-01  0.7548E-01  0.7548E-01
    -10.169  0.1659E-01  0.1659E-01  0.7727E-01  0.7727E-01
    -10.061  0.1556E-01  0.1556E-01  0.7895E-01  0.7895E-01
     -9.953  0.1576E-01  0.1576E-01  0.8064E-01  0.8064E-01
     -9.845  0.1025E-01  0.1025E-01  0.8175E-01  0.8175E-01
     -9.737  0.9516E-02  0.9516E-02  0.8278E-01  0.8278E-01
     -9.629  0.1365E-01  0.1365E-01  0.8425E-01  0.8425E-01
     -9.522  0.1107E-01  0.1107E-01  0.8544E-01  0.8544E-01
     -9.414  0.1398E-01  0.1398E-01  0.8695E-01  0.8695E-01
     -9.306  0.1895E-01  0.1895E-01  0.8899E-01  0.8899E-01
     -9.198  0.1637E-01  0.1637E-01  0.9076E-01  0.9076E-01
     -9.090  0.1011E-01  0.1011E-01  0.9185E-01  0.9185E-01
     -8.982  0.5823E-02  0.5823E-02  0.9248E-01  0.9248E-01
     -8.874  0.1034E-01  0.1034E-01  0.9359E-01  0.9359E-01
     -8.767  0.2329E-01  0.2329E-01  0.9610E-01  0.9610E-01
     -8.659  0.1809E-01  0.1809E-01  0.9805E-01  0.9805E-01
     -8.551  0.8720E-02  0.8720E-02  0.9900E-01  0.9900E-01
     -8.443  0.9566E-02  0.9566E-02  0.1000E+00  0.1000E+00
     -8.335  0.1729E-01  0.1729E-01  0.1019E+00  0.1019E+00
     -8.227  0.2128E-01  0.2128E-01  0.1042E+00  0.1042E+00
     -8.120  0.1412E-01  0.1412E-01  0.1057E+00  0.1057E+00
     -8.012  0.1262E-01  0.1262E-01  0.1071E+00  0.1071E+00
     -7.904  0.2145E-01  0.2145E-01  0.1094E+00  0.1094E+00
     -7.796  0.2394E-01  0.2394E-01  0.1120E+00  0.1120E+00
     -7.688  0.2234E-01  0.2234E-01  0.1144E+00  0.1144E+00
     -7.580  0.1482E-01  0.1482E-01  0.1160E+00  0.1160E+00
     -7.473  0.8428E-02  0.8428E-02  0.1169E+00  0.1169E+00
     -7.365  0.1466E-01  0.1466E-01  0.1185E+00  0.1185E+00
     -7.257  0.1617E-01  0.1617E-01  0.1202E+00  0.1202E+00
     -7.149  0.1244E-01  0.1244E-01  0.1215E+00  0.1215E+00
     -7.041  0.1449E-01  0.1449E-01  0.1231E+00  0.1231E+00
     -6.933  0.1607E-01  0.1607E-01  0.1248E+00  0.1248E+00
     -6.825  0.1715E-01  0.1715E-01  0.1267E+00  0.1267E+00
     -6.718  0.1604E-01  0.1604E-01  0.1284E+00  0.1284E+00
     -6.610  0.2142E-01  0.2142E-01  0.1307E+00  0.1307E+00
     -6.502  0.2523E-01  0.2523E-01  0.1335E+00  0.1335E+00
     -6.394  0.2052E-01  0.2052E-01  0.1357E+00  0.1357E+00
     -6.286  0.1690E-01  0.1690E-01  0.1375E+00  0.1375E+00
     -6.178  0.1646E-01  0.1646E-01  0.1393E+00  0.1393E+00
     -6.071  0.1923E-01  0.1923E-01  0.1413E+00  0.1413E+00
     -5.963  0.3039E-01  0.3039E-01  0.1446E+00  0.1446E+00
     -5.855  0.2877E-01  0.2877E-01  0.1477E+00  0.1477E+00
     -5.747  0.2280E-01  0.2280E-01  0.1502E+00  0.1502E+00
     -5.639  0.1974E-01  0.1974E-01  0.1523E+00  0.1523E+00
     -5.531  0.2468E-01  0.2468E-01  0.1550E+00  0.1550E+00
     -5.424  0.2762E-01  0.2762E-01  0.1579E+00  0.1579E+00
     -5.316  0.2888E-01  0.2887E-01  0.1611E+00  0.1611E+00
     -5.208  0.2781E-01  0.2781E-01  0.1641E+00  0.1641E+00
     -5.100  0.1737E-01  0.1737E-01  0.1659E+00  0.1659E+00
     -4.992  0.1072E-01  0.1072E-01  0.1671E+00  0.1671E+00
     -4.884  0.6502E-02  0.6502E-02  0.1678E+00  0.1678E+00
     -4.777  0.1169E-01  0.1169E-01  0.1690E+00  0.1690E+00
     -4.669  0.1577E-01  0.1577E-01  0.1707E+00  0.1707E+00
     -4.561  0.1098E-01  0.1098E-01  0.1719E+00  0.1719E+00
     -4.453  0.8580E-02  0.8580E-02  0.1729E+00  0.1729E+00
     -4.345  0.9273E-02  0.9273E-02  0.1739E+00  0.1739E+00
     -4.237  0.1918E-01  0.1918E-01  0.1759E+00  0.1759E+00
     -4.129  0.2336E-01  0.2336E-01  0.1784E+00  0.1784E+00
     -4.022  0.2007E-01  0.2007E-01  0.1806E+00  0.1806E+00
     -3.914  0.2106E-01  0.2106E-01  0.1829E+00  0.1829E+00
     -3.806  0.2451E-01  0.2451E-01  0.1855E+00  0.1855E+00
     -3.698  0.2055E-01  0.2055E-01  0.1877E+00  0.1877E+00
     -3.590  0.1916E-01  0.1916E-01  0.1898E+00  0.1898E+00
     -3.482  0.1741E-01  0.1741E-01  0.1917E+00  0.1917E+00
     -3.375  0.1722E-01  0.1722E-01  0.1935E+00  0.1935E+00
     -3.267  0.1146E-01  0.1146E-01  0.1948E+00  0.1948E+00
     -3.159  0.1504E-01  0.1504E-01  0.1964E+00  0.1964E+00
     -3.051  0.1963E-01  0.1964E-01  0.1985E+00  0.1985E+00
     -2.943  0.1625E-01  0.1625E-01  0.2003E+00  0.2003E+00
     -2.835  0.1267E-01  0.1267E-01  0.2016E+00  0.2016E+00
     -2.728  0.1263E-01  0.1263E-01  0.2030E+00  0.2030E+00
     -2.620  0.8340E-02  0.8340E-02  0.2039E+00  0.2039E+00
     -2.512  0.1015E-01  0.1015E-01  0.2050E+00  0.2050E+00
     -2.404  0.1653E-01  0.1653E-01  0.2068E+00  0.2068E+00
     -2.296  0.1632E-01  0.1632E-01  0.2085E+00  0.2085E+00
     -2.188  0.4367E-02  0.4367E-02  0.2090E+00  0.2090E+00
     -2.080  0.5751E-02  0.5752E-02  0.2096E+00  0.2096E+00
     -1.973  0.1033E-01  0.1033E-01  0.2107E+00  0.2107E+00
     -1.865  0.8889E-02  0.8889E-02  0.2117E+00  0.2117E+00
     -1.757  0.1024E-01  0.1024E-01  0.2128E+00  0.2128E+00
     -1.649  0.1042E-01  0.1042E-01  0.2139E+00  0.2139E+00
     -1.541  0.1025E-01  0.1025E-01  0.2150E+00  0.2150E+00
     -1.433  0.8571E-02  0.8571E-02  0.2160E+00  0.2160E+00
     -1.326  0.3205E-02  0.3205E-02  0.2163E+00  0.2163E+00
     -1.218  0.4105E-02  0.4105E-02  0.2167E+00  0.2167E+00
     -1.110  0.4648E-02  0.4648E-02  0.2172E+00  0.2172E+00
     -1.002  0.2939E-02  0.2939E-02  0.2176E+00  0.2176E+00
     -0.894  0.4299E-02  0.4299E-02  0.2180E+00  0.2180E+00
     -0.786  0.4470E-02  0.4470E-02  0.2185E+00  0.2185E+00
     -0.679  0.1188E-02  0.1188E-02  0.2186E+00  0.2186E+00
     -0.571  0.8005E-04  0.8004E-04  0.2186E+00  0.2186E+00
     -0.463  0.1309E-05  0.1308E-05  0.2186E+00  0.2186E+00
     -0.355  0.2293E-05  0.2293E-05  0.2186E+00  0.2186E+00
     -0.247  0.1249E-03  0.1249E-03  0.2187E+00  0.2187E+00
     -0.139  0.8741E-03  0.8741E-03  0.2187E+00  0.2187E+00
     -0.031  0.8809E-03  0.8809E-03  0.2188E+00  0.2188E+00
      0.076  0.1279E-03  0.1279E-03  0.2189E+00  0.2189E+00
      0.184  0.2386E-05  0.2386E-05  0.2189E+00  0.2189E+00
      0.292  0.3167E-06  0.3167E-06  0.2189E+00  0.2189E+00
      0.400  0.5498E-04  0.5498E-04  0.2189E+00  0.2189E+00
      0.508  0.1162E-02  0.1162E-02  0.2190E+00  0.2190E+00
      0.616  0.3340E-02  0.3340E-02  0.2193E+00  0.2193E+00
      0.723  0.1689E-02  0.1689E-02  0.2195E+00  0.2195E+00
      0.831  0.3193E-02  0.3193E-02  0.2199E+00  0.2199E+00
      0.939  0.6648E-02  0.6648E-02  0.2206E+00  0.2206E+00
      1.047  0.8904E-02  0.8904E-02  0.2216E+00  0.2216E+00
      1.155  0.1805E-01  0.1805E-01  0.2235E+00  0.2235E+00
      1.263  0.2152E-01  0.2151E-01  0.2258E+00  0.2258E+00
      1.370  0.9840E-02  0.9839E-02  0.2269E+00  0.2269E+00
      1.478  0.2630E-02  0.2630E-02  0.2272E+00  0.2272E+00
      1.586  0.4541E-02  0.4541E-02  0.2277E+00  0.2277E+00
      1.694  0.1107E-01  0.1107E-01  0.2288E+00  0.2288E+00
      1.802  0.1830E-01  0.1830E-01  0.2308E+00  0.2308E+00
      1.910  0.1456E-01  0.1456E-01  0.2324E+00  0.2324E+00
      2.018  0.9612E-02  0.9612E-02  0.2334E+00  0.2334E+00
      2.125  0.8059E-02  0.8059E-02  0.2343E+00  0.2343E+00
      2.233  0.1010E-01  0.1010E-01  0.2354E+00  0.2354E+00
      2.341  0.8507E-02  0.8507E-02  0.2363E+00  0.2363E+00
      2.449  0.7835E-02  0.7835E-02  0.2371E+00  0.2371E+00
      2.557  0.9249E-02  0.9249E-02  0.2381E+00  0.2381E+00
      2.665  0.4595E-02  0.4595E-02  0.2386E+00  0.2386E+00
      2.772  0.8292E-02  0.8292E-02  0.2395E+00  0.2395E+00
      2.880  0.1287E-01  0.1287E-01  0.2409E+00  0.2409E+00
      2.988  0.9656E-02  0.9656E-02  0.2420E+00  0.2420E+00
      3.096  0.8637E-02  0.8637E-02  0.2429E+00  0.2429E+00
      3.204  0.7171E-02  0.7171E-02  0.2437E+00  0.2437E+00
      3.312  0.1150E-01  0.1150E-01  0.2449E+00  0.2449E+00
      3.419  0.1061E-01  0.1061E-01  0.2461E+00  0.2461E+00
      3.527  0.9099E-02  0.9099E-02  0.2470E+00  0.2470E+00
      3.635  0.1098E-01  0.1098E-01  0.2482E+00  0.2482E+00
      3.743  0.1134E-01  0.1134E-01  0.2494E+00  0.2494E+00
      3.851  0.2065E-01  0.2065E-01  0.2517E+00  0.2517E+00
      3.959  0.2217E-01  0.2217E-01  0.2541E+00  0.2541E+00
      4.067  0.1795E-01  0.1795E-01  0.2560E+00  0.2560E+00
      4.174  0.1584E-01  0.1584E-01  0.2577E+00  0.2577E+00
      4.282  0.2120E-01  0.2120E-01  0.2600E+00  0.2600E+00
      4.390  0.2500E-01  0.2500E-01  0.2627E+00  0.2627E+00
      4.498  0.2367E-01  0.2367E-01  0.2652E+00  0.2652E+00
      4.606  0.2420E-01  0.2420E-01  0.2679E+00  0.2679E+00
      4.714  0.2888E-01  0.2888E-01  0.2710E+00  0.2710E+00
      4.821  0.2691E-01  0.2692E-01  0.2739E+00  0.2739E+00
      4.929  0.2062E-01  0.2062E-01  0.2761E+00  0.2761E+00
      5.037  0.2438E-01  0.2438E-01  0.2787E+00  0.2787E+00
      5.145  0.2868E-01  0.2867E-01  0.2818E+00  0.2818E+00
      5.253  0.2632E-01  0.2632E-01  0.2847E+00  0.2847E+00
      5.361  0.2138E-01  0.2138E-01  0.2870E+00  0.2870E+00
      5.468  0.2046E-01  0.2046E-01  0.2892E+00  0.2892E+00
      5.576  0.2104E-01  0.2104E-01  0.2914E+00  0.2914E+00
      5.684  0.2003E-01  0.2003E-01  0.2936E+00  0.2936E+00
      5.792  0.2890E-01  0.2890E-01  0.2967E+00  0.2967E+00
      5.900  0.3062E-01  0.3062E-01  0.3000E+00  0.3000E+00
      6.008  0.1836E-01  0.1837E-01  0.3020E+00  0.3020E+00
      6.116  0.1742E-01  0.1743E-01  0.3039E+00  0.3039E+00
      6.223  0.1813E-01  0.1813E-01  0.3058E+00  0.3058E+00
      6.331  0.2086E-01  0.2086E-01  0.3081E+00  0.3081E+00
      6.439  0.2053E-01  0.2053E-01  0.3103E+00  0.3103E+00
      6.547  0.1475E-01  0.1475E-01  0.3119E+00  0.3119E+00
      6.655  0.2119E-01  0.2119E-01  0.3142E+00  0.3142E+00
      6.763  0.2772E-01  0.2772E-01  0.3172E+00  0.3172E+00
      6.870  0.2470E-01  0.2470E-01  0.3198E+00  0.3198E+00
      6.978  0.2134E-01  0.2133E-01  0.3221E+00  0.3221E+00
      7.086  0.2901E-01  0.2902E-01  0.3252E+00  0.3252E+00
      7.194  0.3234E-01  0.3234E-01  0.3287E+00  0.3287E+00
      7.302  0.2595E-01  0.2595E-01  0.3315E+00  0.3315E+00
      7.410  0.2565E-01  0.2565E-01  0.3343E+00  0.3343E+00
      7.517  0.1788E-01  0.1788E-01  0.3362E+00  0.3362E+00
      7.625  0.2115E-01  0.2115E-01  0.3385E+00  0.3385E+00
      7.733  0.2660E-01  0.2659E-01  0.3414E+00  0.3414E+00
      7.841  0.2048E-01  0.2047E-01  0.3436E+00  0.3436E+00
      7.949  0.2241E-01  0.2241E-01  0.3460E+00  0.3460E+00
      8.057  0.2262E-01  0.2262E-01  0.3484E+00  0.3484E+00
      8.165  0.2177E-01  0.2178E-01  0.3508E+00  0.3508E+00
      8.272  0.3559E-01  0.3559E-01  0.3546E+00  0.3546E+00
      8.380  0.3481E-01  0.3481E-01  0.3584E+00  0.3584E+00
      8.488  0.2826E-01  0.2827E-01  0.3614E+00  0.3614E+00
      8.596  0.3552E-01  0.3552E-01  0.3653E+00  0.3653E+00
      8.704  0.2468E-01  0.2468E-01  0.3679E+00  0.3679E+00
      8.812  0.2052E-01  0.2052E-01  0.3701E+00  0.3701E+00
      8.919  0.2250E-01  0.2250E-01  0.3726E+00  0.3726E+00
      9.027  0.1559E-01  0.1559E-01  0.3742E+00  0.3742E+00
      9.135  0.6061E-02  0.6061E-02  0.3749E+00  0.3749E+00
      9.243  0.9329E-03  0.9327E-03  0.3750E+00  0.3750E+00
      9.351  0.2739E-04  0.2738E-04  0.3750E+00  0.3750E+00
      9.459  0.1053E-06  0.1052E-06  0.3750E+00  0.3750E+00
      9.566  0.4576E-10  0.4572E-10  0.3750E+00  0.3750E+00
      9.674  0.2120E-14  0.2117E-14  0.3750E+00  0.3750E+00
      9.782  0.0000E+00  0.0000E+00  0.3750E+00  0.3750E+00
      9.890  0.0000E+00  0.0000E+00  0.3750E+00  0.3750E+00
      9.998  0.0000E+00  0.0000E+00  0.3750E+00  0.3750E+00
     10.106  0.0000E+00  0.0000E+00  0.3750E+00  0.3750E+00
     10.213  0.0000E+00  0.0000E+00  0.3750E+00  0.3750E+00
     10.321  0.0000E+00  0.0000E+00  0.3750E+00  0.3750E+00
     10.429  0.0000E+00  0.0000E+00  0.3750E+00  0.3750E+00
     10.537  0.0000E+00  0.0000E+00  0.3750E+00  0.3750E+00
