  16  16   0  16
  0.2029747E+02  0.5000000E-09  0.5000000E-09  0.1500000E-08  0.5000000E-15
  1.000000000000000E-004
  CAR 
 Lattice                                 
      9.86205241    -21.42559376  301     -0.89888747      1.00000000
    -21.426  0.0000E+00  0.0000E+00  0.0000E+00  0.0000E+00
    -21.321  0.0000E+00  0.0000E+00  0.0000E+00  0.0000E+00
    -21.217  0.0000E+00  0.0000E+00  0.0000E+00  0.0000E+00
    -21.113  0.0000E+00  0.0000E+00  0.0000E+00  0.0000E+00
    -21.008  0.0000E+00  0.0000E+00  0.0000E+00  0.0000E+00
    -20.904  0.0000E+00  0.0000E+00  0.0000E+00  0.0000E+00
    -20.800  0.0000E+00  0.0000E+00  0.0000E+00  0.0000E+00
    -20.696  0.0000E+00  0.0000E+00  0.0000E+00  0.0000E+00
    -20.591  0.2888E-19  0.2888E-19  0.3012E-20  0.3012E-20
    -20.487  0.2290E-14  0.2290E-14  0.2388E-15  0.2388E-15
    -20.383  0.2598E-10  0.2598E-10  0.2709E-11  0.2709E-11
    -20.278  0.3934E-07  0.3934E-07  0.4105E-08  0.4105E-08
    -20.174  0.8630E-05  0.8630E-05  0.9041E-06  0.9041E-06
    -20.070  0.3033E-03  0.3033E-03  0.3254E-04  0.3254E-04
    -19.966  0.2092E-02  0.2092E-02  0.2507E-03  0.2507E-03
    -19.861  0.4347E-02  0.4347E-02  0.7041E-03  0.7041E-03
    -19.757  0.4817E-02  0.4817E-02  0.1206E-02  0.1206E-02
    -19.653  0.5114E-02  0.5114E-02  0.1740E-02  0.1740E-02
    -19.548  0.4529E-02  0.4529E-02  0.2212E-02  0.2212E-02
    -19.444  0.5625E-02  0.5625E-02  0.2799E-02  0.2799E-02
    -19.340  0.4232E-02  0.4232E-02  0.3240E-02  0.3240E-02
    -19.235  0.5046E-02  0.5046E-02  0.3766E-02  0.3766E-02
    -19.131  0.5962E-02  0.5962E-02  0.4388E-02  0.4388E-02
    -19.027  0.3622E-02  0.3622E-02  0.4766E-02  0.4766E-02
    -18.923  0.5022E-02  0.5022E-02  0.5290E-02  0.5290E-02
    -18.818  0.6351E-02  0.6351E-02  0.5952E-02  0.5952E-02
    -18.714  0.4612E-02  0.4612E-02  0.6433E-02  0.6433E-02
    -18.610  0.3128E-02  0.3128E-02  0.6759E-02  0.6759E-02
    -18.505  0.6364E-02  0.6364E-02  0.7423E-02  0.7423E-02
    -18.401  0.6260E-02  0.6260E-02  0.8076E-02  0.8076E-02
    -18.297  0.4248E-02  0.4248E-02  0.8519E-02  0.8519E-02
    -18.193  0.3389E-02  0.3389E-02  0.8872E-02  0.8872E-02
    -18.088  0.5898E-02  0.5898E-02  0.9488E-02  0.9488E-02
    -17.984  0.1127E-01  0.1127E-01  0.1066E-01  0.1066E-01
    -17.880  0.1121E-01  0.1121E-01  0.1183E-01  0.1183E-01
    -17.775  0.1056E-01  0.1056E-01  0.1293E-01  0.1293E-01
    -17.671  0.1234E-01  0.1234E-01  0.1422E-01  0.1422E-01
    -17.567  0.1512E-01  0.1512E-01  0.1580E-01  0.1580E-01
    -17.462  0.1921E-01  0.1921E-01  0.1780E-01  0.1780E-01
    -17.358  0.2053E-01  0.2053E-01  0.1994E-01  0.1994E-01
    -17.254  0.1302E-01  0.1302E-01  0.2130E-01  0.2130E-01
    -17.150  0.5384E-02  0.5384E-02  0.2186E-01  0.2186E-01
    -17.045  0.6844E-02  0.6844E-02  0.2257E-01  0.2257E-01
    -16.941  0.6951E-02  0.6951E-02  0.2330E-01  0.2330E-01
    -16.837  0.5772E-02  0.5772E-02  0.2390E-01  0.2390E-01
    -16.732  0.4714E-02  0.4714E-02  0.2439E-01  0.2439E-01
    -16.628  0.3334E-02  0.3334E-02  0.2474E-01  0.2474E-01
    -16.524  0.2808E-02  0.2808E-02  0.2503E-01  0.2503E-01
    -16.420  0.8392E-02  0.8392E-02  0.2591E-01  0.2591E-01
    -16.315  0.7507E-02  0.7507E-02  0.2669E-01  0.2669E-01
    -16.211  0.4818E-02  0.4818E-02  0.2719E-01  0.2719E-01
    -16.107  0.4295E-02  0.4295E-02  0.2764E-01  0.2764E-01
    -16.002  0.4321E-02  0.4321E-02  0.2809E-01  0.2809E-01
    -15.898  0.3435E-02  0.3435E-02  0.2845E-01  0.2845E-01
    -15.794  0.6381E-02  0.6381E-02  0.2912E-01  0.2912E-01
    -15.690  0.1189E-01  0.1189E-01  0.3036E-01  0.3036E-01
    -15.585  0.1308E-01  0.1308E-01  0.3172E-01  0.3172E-01
    -15.481  0.1486E-01  0.1486E-01  0.3327E-01  0.3327E-01
    -15.377  0.1537E-01  0.1537E-01  0.3487E-01  0.3487E-01
    -15.272  0.1242E-01  0.1242E-01  0.3617E-01  0.3617E-01
    -15.168  0.1223E-01  0.1223E-01  0.3744E-01  0.3744E-01
    -15.064  0.1624E-01  0.1624E-01  0.3914E-01  0.3914E-01
    -14.959  0.1685E-01  0.1685E-01  0.4090E-01  0.4090E-01
    -14.855  0.1359E-01  0.1359E-01  0.4231E-01  0.4231E-01
    -14.751  0.1212E-01  0.1212E-01  0.4358E-01  0.4358E-01
    -14.647  0.8879E-02  0.8879E-02  0.4450E-01  0.4450E-01
    -14.542  0.1159E-01  0.1159E-01  0.4571E-01  0.4571E-01
    -14.438  0.1821E-01  0.1821E-01  0.4761E-01  0.4761E-01
    -14.334  0.1826E-01  0.1826E-01  0.4952E-01  0.4952E-01
    -14.229  0.1189E-01  0.1189E-01  0.5076E-01  0.5076E-01
    -14.125  0.8613E-02  0.8613E-02  0.5166E-01  0.5166E-01
    -14.021  0.7305E-02  0.7305E-02  0.5242E-01  0.5242E-01
    -13.917  0.8117E-02  0.8117E-02  0.5326E-01  0.5326E-01
    -13.812  0.8552E-02  0.8552E-02  0.5416E-01  0.5416E-01
    -13.708  0.6172E-02  0.6172E-02  0.5480E-01  0.5480E-01
    -13.604  0.4959E-02  0.4959E-02  0.5532E-01  0.5532E-01
    -13.499  0.4278E-02  0.4278E-02  0.5576E-01  0.5576E-01
    -13.395  0.5299E-02  0.5299E-02  0.5632E-01  0.5632E-01
    -13.291  0.5599E-02  0.5599E-02  0.5690E-01  0.5690E-01
    -13.187  0.5898E-02  0.5898E-02  0.5751E-01  0.5751E-01
    -13.082  0.7605E-02  0.7605E-02  0.5831E-01  0.5831E-01
    -12.978  0.6515E-02  0.6515E-02  0.5899E-01  0.5899E-01
    -12.874  0.8166E-02  0.8166E-02  0.5984E-01  0.5984E-01
    -12.769  0.7533E-02  0.7533E-02  0.6062E-01  0.6062E-01
    -12.665  0.5412E-02  0.5412E-02  0.6119E-01  0.6119E-01
    -12.561  0.6710E-02  0.6710E-02  0.6189E-01  0.6189E-01
    -12.456  0.3197E-02  0.3197E-02  0.6222E-01  0.6222E-01
    -12.352  0.6724E-02  0.6724E-02  0.6292E-01  0.6292E-01
    -12.248  0.8773E-02  0.8773E-02  0.6384E-01  0.6384E-01
    -12.144  0.5810E-02  0.5810E-02  0.6444E-01  0.6444E-01
    -12.039  0.8781E-02  0.8781E-02  0.6536E-01  0.6536E-01
    -11.935  0.1405E-01  0.1405E-01  0.6683E-01  0.6683E-01
    -11.831  0.1672E-01  0.1672E-01  0.6857E-01  0.6857E-01
    -11.726  0.1481E-01  0.1481E-01  0.7011E-01  0.7011E-01
    -11.622  0.1380E-01  0.1380E-01  0.7155E-01  0.7155E-01
    -11.518  0.1590E-01  0.1590E-01  0.7321E-01  0.7321E-01
    -11.414  0.1294E-01  0.1294E-01  0.7456E-01  0.7456E-01
    -11.309  0.7946E-02  0.7946E-02  0.7539E-01  0.7539E-01
    -11.205  0.9580E-02  0.9580E-02  0.7639E-01  0.7639E-01
    -11.101  0.1248E-01  0.1248E-01  0.7769E-01  0.7769E-01
    -10.996  0.1043E-01  0.1043E-01  0.7878E-01  0.7878E-01
    -10.892  0.5553E-02  0.5553E-02  0.7936E-01  0.7936E-01
    -10.788  0.1024E-01  0.1024E-01  0.8042E-01  0.8042E-01
    -10.684  0.1576E-01  0.1576E-01  0.8207E-01  0.8207E-01
    -10.579  0.1481E-01  0.1481E-01  0.8361E-01  0.8361E-01
    -10.475  0.7314E-02  0.7314E-02  0.8437E-01  0.8437E-01
    -10.371  0.5927E-02  0.5927E-02  0.8499E-01  0.8499E-01
    -10.266  0.1572E-01  0.1572E-01  0.8663E-01  0.8663E-01
    -10.162  0.1964E-01  0.1964E-01  0.8868E-01  0.8868E-01
    -10.058  0.1215E-01  0.1215E-01  0.8995E-01  0.8995E-01
     -9.953  0.8637E-02  0.8637E-02  0.9085E-01  0.9085E-01
     -9.849  0.6527E-02  0.6527E-02  0.9153E-01  0.9153E-01
     -9.745  0.1004E-01  0.1004E-01  0.9258E-01  0.9258E-01
     -9.641  0.1303E-01  0.1303E-01  0.9393E-01  0.9393E-01
     -9.536  0.1226E-01  0.1226E-01  0.9521E-01  0.9521E-01
     -9.432  0.9041E-02  0.9041E-02  0.9616E-01  0.9616E-01
     -9.328  0.7541E-02  0.7541E-02  0.9694E-01  0.9694E-01
     -9.223  0.1096E-01  0.1096E-01  0.9808E-01  0.9808E-01
     -9.119  0.5805E-02  0.5805E-02  0.9869E-01  0.9869E-01
     -9.015  0.2707E-02  0.2707E-02  0.9897E-01  0.9897E-01
     -8.911  0.1013E-01  0.1013E-01  0.1000E+00  0.1000E+00
     -8.806  0.1673E-01  0.1673E-01  0.1018E+00  0.1018E+00
     -8.702  0.1826E-01  0.1826E-01  0.1037E+00  0.1037E+00
     -8.598  0.1071E-01  0.1071E-01  0.1048E+00  0.1048E+00
     -8.493  0.8158E-02  0.8158E-02  0.1056E+00  0.1056E+00
     -8.389  0.9353E-02  0.9353E-02  0.1066E+00  0.1066E+00
     -8.285  0.1332E-01  0.1332E-01  0.1080E+00  0.1080E+00
     -8.180  0.2469E-01  0.2469E-01  0.1106E+00  0.1106E+00
     -8.076  0.2494E-01  0.2494E-01  0.1132E+00  0.1132E+00
     -7.972  0.1794E-01  0.1794E-01  0.1151E+00  0.1151E+00
     -7.868  0.1383E-01  0.1383E-01  0.1165E+00  0.1165E+00
     -7.763  0.1211E-01  0.1211E-01  0.1178E+00  0.1178E+00
     -7.659  0.2193E-01  0.2193E-01  0.1201E+00  0.1201E+00
     -7.555  0.2612E-01  0.2612E-01  0.1228E+00  0.1228E+00
     -7.450  0.2145E-01  0.2145E-01  0.1250E+00  0.1250E+00
     -7.346  0.2223E-01  0.2223E-01  0.1273E+00  0.1273E+00
     -7.242  0.2342E-01  0.2342E-01  0.1298E+00  0.1298E+00
     -7.138  0.2207E-01  0.2207E-01  0.1321E+00  0.1321E+00
     -7.033  0.2589E-01  0.2589E-01  0.1348E+00  0.1348E+00
     -6.929  0.2732E-01  0.2732E-01  0.1376E+00  0.1376E+00
     -6.825  0.1721E-01  0.1721E-01  0.1394E+00  0.1394E+00
     -6.720  0.1966E-01  0.1966E-01  0.1415E+00  0.1415E+00
     -6.616  0.2792E-01  0.2792E-01  0.1444E+00  0.1444E+00
     -6.512  0.2740E-01  0.2740E-01  0.1472E+00  0.1472E+00
     -6.408  0.2387E-01  0.2387E-01  0.1497E+00  0.1497E+00
     -6.303  0.2132E-01  0.2132E-01  0.1520E+00  0.1520E+00
     -6.199  0.2384E-01  0.2384E-01  0.1544E+00  0.1544E+00
     -6.095  0.2211E-01  0.2211E-01  0.1567E+00  0.1567E+00
     -5.990  0.1851E-01  0.1851E-01  0.1587E+00  0.1587E+00
     -5.886  0.1786E-01  0.1786E-01  0.1605E+00  0.1605E+00
     -5.782  0.2241E-01  0.2241E-01  0.1629E+00  0.1629E+00
     -5.677  0.2106E-01  0.2106E-01  0.1651E+00  0.1651E+00
     -5.573  0.2086E-01  0.2086E-01  0.1672E+00  0.1672E+00
     -5.469  0.2232E-01  0.2232E-01  0.1696E+00  0.1696E+00
     -5.365  0.2481E-01  0.2481E-01  0.1722E+00  0.1722E+00
     -5.260  0.2671E-01  0.2671E-01  0.1749E+00  0.1749E+00
     -5.156  0.2228E-01  0.2228E-01  0.1773E+00  0.1773E+00
     -5.052  0.1053E-01  0.1053E-01  0.1784E+00  0.1784E+00
     -4.947  0.1156E-01  0.1156E-01  0.1796E+00  0.1796E+00
     -4.843  0.1887E-01  0.1887E-01  0.1815E+00  0.1815E+00
     -4.739  0.1982E-01  0.1982E-01  0.1836E+00  0.1836E+00
     -4.635  0.1568E-01  0.1568E-01  0.1852E+00  0.1852E+00
     -4.530  0.1523E-01  0.1523E-01  0.1868E+00  0.1868E+00
     -4.426  0.1829E-01  0.1829E-01  0.1887E+00  0.1887E+00
     -4.322  0.2093E-01  0.2093E-01  0.1909E+00  0.1909E+00
     -4.217  0.2329E-01  0.2329E-01  0.1934E+00  0.1934E+00
     -4.113  0.3157E-01  0.3157E-01  0.1966E+00  0.1966E+00
     -4.009  0.3812E-01  0.3812E-01  0.2006E+00  0.2006E+00
     -3.905  0.3350E-01  0.3350E-01  0.2041E+00  0.2041E+00
     -3.800  0.2117E-01  0.2117E-01  0.2063E+00  0.2063E+00
     -3.696  0.1565E-01  0.1565E-01  0.2080E+00  0.2080E+00
     -3.592  0.1698E-01  0.1698E-01  0.2097E+00  0.2097E+00
     -3.487  0.1547E-01  0.1547E-01  0.2113E+00  0.2113E+00
     -3.383  0.1939E-01  0.1939E-01  0.2134E+00  0.2134E+00
     -3.279  0.1832E-01  0.1832E-01  0.2153E+00  0.2153E+00
     -3.174  0.1554E-01  0.1554E-01  0.2169E+00  0.2169E+00
     -3.070  0.1533E-01  0.1533E-01  0.2185E+00  0.2185E+00
     -2.966  0.1525E-01  0.1525E-01  0.2201E+00  0.2201E+00
     -2.862  0.2398E-01  0.2398E-01  0.2226E+00  0.2226E+00
     -2.757  0.2076E-01  0.2076E-01  0.2247E+00  0.2247E+00
     -2.653  0.1204E-01  0.1204E-01  0.2260E+00  0.2260E+00
     -2.549  0.1719E-01  0.1719E-01  0.2278E+00  0.2278E+00
     -2.444  0.2197E-01  0.2197E-01  0.2301E+00  0.2301E+00
     -2.340  0.2124E-01  0.2124E-01  0.2323E+00  0.2323E+00
     -2.236  0.1870E-01  0.1870E-01  0.2343E+00  0.2343E+00
     -2.132  0.1814E-01  0.1814E-01  0.2361E+00  0.2361E+00
     -2.027  0.1441E-01  0.1441E-01  0.2376E+00  0.2376E+00
     -1.923  0.4181E-02  0.4181E-02  0.2381E+00  0.2381E+00
     -1.819  0.3664E-02  0.3664E-02  0.2385E+00  0.2385E+00
     -1.714  0.7363E-02  0.7363E-02  0.2392E+00  0.2392E+00
     -1.610  0.5874E-02  0.5874E-02  0.2398E+00  0.2398E+00
     -1.506  0.5639E-02  0.5639E-02  0.2404E+00  0.2404E+00
     -1.402  0.6881E-02  0.6881E-02  0.2412E+00  0.2412E+00
     -1.297  0.4687E-02  0.4687E-02  0.2416E+00  0.2416E+00
     -1.193  0.3065E-02  0.3065E-02  0.2420E+00  0.2420E+00
     -1.089  0.1024E-02  0.1024E-02  0.2421E+00  0.2421E+00
     -0.984  0.2110E-03  0.2110E-03  0.2421E+00  0.2421E+00
     -0.880  0.1400E-02  0.1400E-02  0.2422E+00  0.2422E+00
     -0.776  0.3856E-02  0.3856E-02  0.2426E+00  0.2426E+00
     -0.671  0.3975E-02  0.3975E-02  0.2431E+00  0.2431E+00
     -0.567  0.7401E-02  0.7401E-02  0.2438E+00  0.2438E+00
     -0.463  0.1118E-01  0.1118E-01  0.2450E+00  0.2450E+00
     -0.359  0.8749E-02  0.8749E-02  0.2459E+00  0.2459E+00
     -0.254  0.1034E-01  0.1034E-01  0.2470E+00  0.2470E+00
     -0.150  0.1247E-01  0.1247E-01  0.2483E+00  0.2483E+00
     -0.046  0.9722E-02  0.9722E-02  0.2493E+00  0.2493E+00
      0.059  0.4733E-02  0.4733E-02  0.2498E+00  0.2498E+00
      0.163  0.1634E-02  0.1634E-02  0.2500E+00  0.2500E+00
      0.267  0.4555E-03  0.4555E-03  0.2500E+00  0.2500E+00
      0.371  0.1778E-02  0.1778E-02  0.2502E+00  0.2502E+00
      0.476  0.7141E-02  0.7141E-02  0.2509E+00  0.2509E+00
      0.580  0.1043E-01  0.1043E-01  0.2520E+00  0.2520E+00
      0.684  0.6340E-02  0.6340E-02  0.2527E+00  0.2527E+00
      0.789  0.3298E-02  0.3298E-02  0.2530E+00  0.2530E+00
      0.893  0.7799E-02  0.7799E-02  0.2538E+00  0.2538E+00
      0.997  0.1212E-01  0.1212E-01  0.2551E+00  0.2551E+00
      1.102  0.1275E-01  0.1275E-01  0.2564E+00  0.2564E+00
      1.206  0.1055E-01  0.1055E-01  0.2575E+00  0.2575E+00
      1.310  0.4442E-02  0.4442E-02  0.2580E+00  0.2580E+00
      1.414  0.4902E-02  0.4902E-02  0.2585E+00  0.2585E+00
      1.519  0.5230E-02  0.5230E-02  0.2591E+00  0.2591E+00
      1.623  0.4769E-02  0.4769E-02  0.2596E+00  0.2596E+00
      1.727  0.6601E-02  0.6601E-02  0.2602E+00  0.2602E+00
      1.832  0.1047E-01  0.1047E-01  0.2613E+00  0.2613E+00
      1.936  0.9504E-02  0.9504E-02  0.2623E+00  0.2623E+00
      2.040  0.3635E-02  0.3635E-02  0.2627E+00  0.2627E+00
      2.144  0.2359E-02  0.2359E-02  0.2630E+00  0.2630E+00
      2.249  0.8473E-02  0.8473E-02  0.2638E+00  0.2638E+00
      2.353  0.1708E-01  0.1708E-01  0.2656E+00  0.2656E+00
      2.457  0.1367E-01  0.1367E-01  0.2670E+00  0.2670E+00
      2.562  0.1088E-01  0.1088E-01  0.2682E+00  0.2682E+00
      2.666  0.1100E-01  0.1100E-01  0.2693E+00  0.2693E+00
      2.770  0.1151E-01  0.1151E-01  0.2705E+00  0.2705E+00
      2.874  0.1191E-01  0.1191E-01  0.2718E+00  0.2718E+00
      2.979  0.9595E-02  0.9597E-02  0.2728E+00  0.2728E+00
      3.083  0.8947E-02  0.8948E-02  0.2737E+00  0.2737E+00
      3.187  0.1271E-01  0.1271E-01  0.2750E+00  0.2750E+00
      3.292  0.1285E-01  0.1285E-01  0.2764E+00  0.2764E+00
      3.396  0.1303E-01  0.1303E-01  0.2777E+00  0.2777E+00
      3.500  0.1126E-01  0.1126E-01  0.2789E+00  0.2789E+00
      3.605  0.1117E-01  0.1117E-01  0.2801E+00  0.2801E+00
      3.709  0.1038E-01  0.1038E-01  0.2811E+00  0.2811E+00
      3.813  0.1041E-01  0.1041E-01  0.2822E+00  0.2822E+00
      3.917  0.1239E-01  0.1239E-01  0.2835E+00  0.2835E+00
      4.022  0.1551E-01  0.1551E-01  0.2851E+00  0.2851E+00
      4.126  0.1527E-01  0.1526E-01  0.2867E+00  0.2867E+00
      4.230  0.1257E-01  0.1257E-01  0.2880E+00  0.2880E+00
      4.335  0.1074E-01  0.1074E-01  0.2892E+00  0.2892E+00
      4.439  0.2012E-01  0.2012E-01  0.2913E+00  0.2913E+00
      4.543  0.2042E-01  0.2041E-01  0.2934E+00  0.2934E+00
      4.647  0.1062E-01  0.1062E-01  0.2945E+00  0.2945E+00
      4.752  0.8174E-02  0.8180E-02  0.2954E+00  0.2954E+00
      4.856  0.1792E-01  0.1793E-01  0.2972E+00  0.2972E+00
      4.960  0.2251E-01  0.2251E-01  0.2996E+00  0.2996E+00
      5.065  0.1790E-01  0.1790E-01  0.3014E+00  0.3014E+00
      5.169  0.1414E-01  0.1415E-01  0.3029E+00  0.3029E+00
      5.273  0.1649E-01  0.1648E-01  0.3046E+00  0.3046E+00
      5.377  0.1581E-01  0.1581E-01  0.3063E+00  0.3063E+00
      5.482  0.1707E-01  0.1707E-01  0.3081E+00  0.3081E+00
      5.586  0.2374E-01  0.2374E-01  0.3105E+00  0.3105E+00
      5.690  0.1601E-01  0.1601E-01  0.3122E+00  0.3122E+00
      5.795  0.1074E-01  0.1074E-01  0.3133E+00  0.3133E+00
      5.899  0.1354E-01  0.1354E-01  0.3147E+00  0.3147E+00
      6.003  0.1703E-01  0.1702E-01  0.3165E+00  0.3165E+00
      6.108  0.1575E-01  0.1575E-01  0.3182E+00  0.3182E+00
      6.212  0.2535E-01  0.2536E-01  0.3208E+00  0.3208E+00
      6.316  0.2757E-01  0.2757E-01  0.3237E+00  0.3237E+00
      6.420  0.2684E-01  0.2683E-01  0.3265E+00  0.3265E+00
      6.525  0.2194E-01  0.2194E-01  0.3288E+00  0.3288E+00
      6.629  0.1882E-01  0.1883E-01  0.3307E+00  0.3307E+00
      6.733  0.1753E-01  0.1754E-01  0.3326E+00  0.3326E+00
      6.838  0.2370E-01  0.2371E-01  0.3350E+00  0.3350E+00
      6.942  0.3278E-01  0.3277E-01  0.3384E+00  0.3384E+00
      7.046  0.3118E-01  0.3117E-01  0.3417E+00  0.3417E+00
      7.150  0.2897E-01  0.2897E-01  0.3447E+00  0.3447E+00
      7.255  0.3244E-01  0.3245E-01  0.3481E+00  0.3481E+00
      7.359  0.3790E-01  0.3791E-01  0.3521E+00  0.3521E+00
      7.463  0.2995E-01  0.2994E-01  0.3552E+00  0.3552E+00
      7.568  0.2845E-01  0.2846E-01  0.3581E+00  0.3581E+00
      7.672  0.3551E-01  0.3551E-01  0.3618E+00  0.3619E+00
      7.776  0.3777E-01  0.3778E-01  0.3658E+00  0.3658E+00
      7.881  0.3427E-01  0.3427E-01  0.3694E+00  0.3694E+00
      7.985  0.2421E-01  0.2420E-01  0.3719E+00  0.3719E+00
      8.089  0.1406E-01  0.1405E-01  0.3734E+00  0.3734E+00
      8.193  0.8353E-02  0.8346E-02  0.3742E+00  0.3742E+00
      8.298  0.2663E-02  0.2658E-02  0.3745E+00  0.3745E+00
      8.402  0.1542E-02  0.1544E-02  0.3747E+00  0.3747E+00
      8.506  0.2461E-02  0.2460E-02  0.3749E+00  0.3749E+00
      8.611  0.7258E-03  0.7238E-03  0.3750E+00  0.3750E+00
      8.715  0.3228E-04  0.3212E-04  0.3750E+00  0.3750E+00
      8.819  0.1950E-06  0.1936E-06  0.3750E+00  0.3750E+00
      8.923  0.1487E-09  0.1473E-09  0.3750E+00  0.3750E+00
      9.028  0.1376E-13  0.1361E-13  0.3750E+00  0.3750E+00
      9.132  0.0000E+00  0.0000E+00  0.3750E+00  0.3750E+00
      9.236  0.0000E+00  0.0000E+00  0.3750E+00  0.3750E+00
      9.341  0.0000E+00  0.0000E+00  0.3750E+00  0.3750E+00
      9.445  0.0000E+00  0.0000E+00  0.3750E+00  0.3750E+00
      9.549  0.0000E+00  0.0000E+00  0.3750E+00  0.3750E+00
      9.653  0.0000E+00  0.0000E+00  0.3750E+00  0.3750E+00
      9.758  0.0000E+00  0.0000E+00  0.3750E+00  0.3750E+00
      9.862  0.0000E+00  0.0000E+00  0.3750E+00  0.3750E+00
