  15  15   0   4
  0.1995323E+02  0.4800000E-09  0.4800000E-09  0.1500000E-08  0.5000000E-15
  1.000000000000000E-004
  CAR 
 Lattice                                 
     10.76233437    -21.31679080  301      0.06103066      1.00000000
    -21.317  0.0000E+00  0.0000E+00  0.0000E+00  0.0000E+00
    -21.210  0.0000E+00  0.0000E+00  0.0000E+00  0.0000E+00
    -21.103  0.0000E+00  0.0000E+00  0.0000E+00  0.0000E+00
    -20.996  0.0000E+00  0.0000E+00  0.0000E+00  0.0000E+00
    -20.889  0.0000E+00  0.0000E+00  0.0000E+00  0.0000E+00
    -20.782  0.0000E+00  0.0000E+00  0.0000E+00  0.0000E+00
    -20.675  0.0000E+00  0.0000E+00  0.0000E+00  0.0000E+00
    -20.568  0.0000E+00  0.0000E+00  0.0000E+00  0.0000E+00
    -20.461  0.0000E+00  0.0000E+00  0.0000E+00  0.0000E+00
    -20.354  0.6409E-15  0.6409E-15  0.6853E-16  0.6853E-16
    -20.247  0.1132E-10  0.1132E-10  0.1211E-11  0.1211E-11
    -20.141  0.2387E-07  0.2387E-07  0.2553E-08  0.2553E-08
    -20.034  0.6609E-05  0.6609E-05  0.7092E-06  0.7092E-06
    -19.927  0.2688E-03  0.2688E-03  0.2945E-04  0.2945E-04
    -19.820  0.1970E-02  0.1970E-02  0.2401E-03  0.2401E-03
    -19.713  0.4147E-02  0.4147E-02  0.6835E-03  0.6835E-03
    -19.606  0.4514E-02  0.4514E-02  0.1166E-02  0.1166E-02
    -19.499  0.4931E-02  0.4931E-02  0.1694E-02  0.1694E-02
    -19.392  0.4148E-02  0.4148E-02  0.2137E-02  0.2137E-02
    -19.285  0.5380E-02  0.5380E-02  0.2712E-02  0.2712E-02
    -19.178  0.4201E-02  0.4201E-02  0.3162E-02  0.3162E-02
    -19.071  0.4258E-02  0.4258E-02  0.3617E-02  0.3617E-02
    -18.964  0.6002E-02  0.6002E-02  0.4259E-02  0.4259E-02
    -18.857  0.3790E-02  0.3790E-02  0.4664E-02  0.4664E-02
    -18.750  0.3893E-02  0.3893E-02  0.5080E-02  0.5080E-02
    -18.644  0.6114E-02  0.6114E-02  0.5734E-02  0.5734E-02
    -18.537  0.5185E-02  0.5185E-02  0.6288E-02  0.6288E-02
    -18.430  0.2938E-02  0.2938E-02  0.6603E-02  0.6603E-02
    -18.323  0.4410E-02  0.4410E-02  0.7074E-02  0.7074E-02
    -18.216  0.6899E-02  0.6899E-02  0.7812E-02  0.7812E-02
    -18.109  0.4530E-02  0.4530E-02  0.8296E-02  0.8296E-02
    -18.002  0.3781E-02  0.3781E-02  0.8701E-02  0.8701E-02
    -17.895  0.2988E-02  0.2988E-02  0.9020E-02  0.9020E-02
    -17.788  0.6671E-02  0.6671E-02  0.9733E-02  0.9733E-02
    -17.681  0.6557E-02  0.6557E-02  0.1043E-01  0.1043E-01
    -17.574  0.3489E-02  0.3489E-02  0.1081E-01  0.1081E-01
    -17.467  0.3308E-02  0.3308E-02  0.1116E-01  0.1116E-01
    -17.360  0.4107E-02  0.4107E-02  0.1160E-01  0.1160E-01
    -17.253  0.6259E-02  0.6259E-02  0.1227E-01  0.1227E-01
    -17.147  0.6695E-02  0.6695E-02  0.1299E-01  0.1299E-01
    -17.040  0.5015E-02  0.5015E-02  0.1352E-01  0.1352E-01
    -16.933  0.5032E-02  0.5032E-02  0.1406E-01  0.1406E-01
    -16.826  0.9496E-02  0.9496E-02  0.1508E-01  0.1508E-01
    -16.719  0.1432E-01  0.1432E-01  0.1661E-01  0.1661E-01
    -16.612  0.1502E-01  0.1502E-01  0.1821E-01  0.1821E-01
    -16.505  0.1564E-01  0.1564E-01  0.1989E-01  0.1989E-01
    -16.398  0.1914E-01  0.1914E-01  0.2193E-01  0.2193E-01
    -16.291  0.1921E-01  0.1921E-01  0.2399E-01  0.2399E-01
    -16.184  0.8257E-02  0.8257E-02  0.2487E-01  0.2487E-01
    -16.077  0.7847E-02  0.7847E-02  0.2571E-01  0.2571E-01
    -15.970  0.8047E-02  0.8047E-02  0.2657E-01  0.2657E-01
    -15.863  0.4530E-02  0.4530E-02  0.2705E-01  0.2705E-01
    -15.756  0.4122E-02  0.4122E-02  0.2749E-01  0.2749E-01
    -15.649  0.3883E-02  0.3883E-02  0.2791E-01  0.2791E-01
    -15.543  0.3762E-02  0.3762E-02  0.2831E-01  0.2831E-01
    -15.436  0.3745E-02  0.3745E-02  0.2871E-01  0.2871E-01
    -15.329  0.8172E-02  0.8172E-02  0.2959E-01  0.2959E-01
    -15.222  0.7931E-02  0.7931E-02  0.3043E-01  0.3043E-01
    -15.115  0.3872E-02  0.3872E-02  0.3085E-01  0.3085E-01
    -15.008  0.3849E-02  0.3849E-02  0.3126E-01  0.3126E-01
    -14.901  0.3373E-02  0.3373E-02  0.3162E-01  0.3162E-01
    -14.794  0.4662E-02  0.4662E-02  0.3212E-01  0.3212E-01
    -14.687  0.6091E-02  0.6091E-02  0.3277E-01  0.3277E-01
    -14.580  0.9347E-02  0.9347E-02  0.3377E-01  0.3377E-01
    -14.473  0.1480E-01  0.1480E-01  0.3535E-01  0.3535E-01
    -14.366  0.1710E-01  0.1710E-01  0.3718E-01  0.3718E-01
    -14.259  0.1830E-01  0.1830E-01  0.3914E-01  0.3914E-01
    -14.152  0.1202E-01  0.1202E-01  0.4042E-01  0.4042E-01
    -14.046  0.7816E-02  0.7816E-02  0.4126E-01  0.4126E-01
    -13.939  0.1463E-01  0.1463E-01  0.4282E-01  0.4282E-01
    -13.832  0.1573E-01  0.1573E-01  0.4451E-01  0.4451E-01
    -13.725  0.9653E-02  0.9653E-02  0.4554E-01  0.4554E-01
    -13.618  0.1070E-01  0.1070E-01  0.4668E-01  0.4668E-01
    -13.511  0.1124E-01  0.1124E-01  0.4788E-01  0.4788E-01
    -13.404  0.1839E-01  0.1839E-01  0.4985E-01  0.4985E-01
    -13.297  0.2161E-01  0.2161E-01  0.5216E-01  0.5216E-01
    -13.190  0.1904E-01  0.1904E-01  0.5420E-01  0.5420E-01
    -13.083  0.1299E-01  0.1299E-01  0.5558E-01  0.5558E-01
    -12.976  0.8285E-02  0.8285E-02  0.5647E-01  0.5647E-01
    -12.869  0.3412E-02  0.3412E-02  0.5684E-01  0.5684E-01
    -12.762  0.4221E-02  0.4221E-02  0.5729E-01  0.5729E-01
    -12.655  0.6961E-02  0.6961E-02  0.5803E-01  0.5803E-01
    -12.548  0.6731E-02  0.6731E-02  0.5875E-01  0.5875E-01
    -12.442  0.4851E-02  0.4851E-02  0.5927E-01  0.5927E-01
    -12.335  0.6837E-02  0.6837E-02  0.6000E-01  0.6000E-01
    -12.228  0.6920E-02  0.6920E-02  0.6074E-01  0.6074E-01
    -12.121  0.5597E-02  0.5597E-02  0.6134E-01  0.6134E-01
    -12.014  0.5261E-02  0.5261E-02  0.6190E-01  0.6190E-01
    -11.907  0.3326E-02  0.3326E-02  0.6226E-01  0.6226E-01
    -11.800  0.6687E-02  0.6687E-02  0.6297E-01  0.6297E-01
    -11.693  0.7754E-02  0.7754E-02  0.6380E-01  0.6380E-01
    -11.586  0.3195E-02  0.3195E-02  0.6414E-01  0.6414E-01
    -11.479  0.3439E-02  0.3439E-02  0.6451E-01  0.6451E-01
    -11.372  0.3408E-02  0.3408E-02  0.6488E-01  0.6488E-01
    -11.265  0.6174E-02  0.6174E-02  0.6554E-01  0.6554E-01
    -11.158  0.6622E-02  0.6622E-02  0.6624E-01  0.6624E-01
    -11.051  0.3571E-02  0.3571E-02  0.6663E-01  0.6663E-01
    -10.945  0.1949E-02  0.1949E-02  0.6683E-01  0.6683E-01
    -10.838  0.4940E-02  0.4940E-02  0.6736E-01  0.6736E-01
    -10.731  0.5785E-02  0.5785E-02  0.6798E-01  0.6798E-01
    -10.624  0.5204E-02  0.5204E-02  0.6854E-01  0.6854E-01
    -10.517  0.8022E-02  0.8022E-02  0.6939E-01  0.6939E-01
    -10.410  0.5474E-02  0.5474E-02  0.6998E-01  0.6998E-01
    -10.303  0.2305E-02  0.2305E-02  0.7023E-01  0.7023E-01
    -10.196  0.7564E-02  0.7564E-02  0.7104E-01  0.7104E-01
    -10.089  0.1161E-01  0.1161E-01  0.7228E-01  0.7228E-01
     -9.982  0.1523E-01  0.1523E-01  0.7391E-01  0.7391E-01
     -9.875  0.1491E-01  0.1491E-01  0.7550E-01  0.7550E-01
     -9.768  0.1388E-01  0.1388E-01  0.7698E-01  0.7698E-01
     -9.661  0.1772E-01  0.1772E-01  0.7888E-01  0.7888E-01
     -9.554  0.2017E-01  0.2017E-01  0.8103E-01  0.8103E-01
     -9.448  0.1012E-01  0.1012E-01  0.8212E-01  0.8212E-01
     -9.341  0.5139E-02  0.5139E-02  0.8267E-01  0.8267E-01
     -9.234  0.1350E-01  0.1350E-01  0.8411E-01  0.8411E-01
     -9.127  0.1811E-01  0.1811E-01  0.8605E-01  0.8605E-01
     -9.020  0.1653E-01  0.1653E-01  0.8781E-01  0.8781E-01
     -8.913  0.1301E-01  0.1301E-01  0.8921E-01  0.8921E-01
     -8.806  0.1429E-01  0.1429E-01  0.9073E-01  0.9073E-01
     -8.699  0.1169E-01  0.1169E-01  0.9198E-01  0.9198E-01
     -8.592  0.8398E-02  0.8398E-02  0.9288E-01  0.9288E-01
     -8.485  0.1394E-01  0.1394E-01  0.9437E-01  0.9437E-01
     -8.378  0.1967E-01  0.1967E-01  0.9648E-01  0.9648E-01
     -8.271  0.1743E-01  0.1743E-01  0.9834E-01  0.9834E-01
     -8.164  0.7987E-02  0.7987E-02  0.9919E-01  0.9919E-01
     -8.057  0.9705E-02  0.9705E-02  0.1002E+00  0.1002E+00
     -7.950  0.2092E-01  0.2092E-01  0.1025E+00  0.1025E+00
     -7.844  0.2032E-01  0.2032E-01  0.1046E+00  0.1046E+00
     -7.737  0.1128E-01  0.1128E-01  0.1058E+00  0.1058E+00
     -7.630  0.1530E-01  0.1530E-01  0.1075E+00  0.1075E+00
     -7.523  0.2541E-01  0.2541E-01  0.1102E+00  0.1102E+00
     -7.416  0.2457E-01  0.2457E-01  0.1128E+00  0.1128E+00
     -7.309  0.2100E-01  0.2100E-01  0.1151E+00  0.1151E+00
     -7.202  0.9968E-02  0.9968E-02  0.1161E+00  0.1161E+00
     -7.095  0.9675E-02  0.9675E-02  0.1172E+00  0.1172E+00
     -6.988  0.1957E-01  0.1957E-01  0.1193E+00  0.1193E+00
     -6.881  0.1707E-01  0.1707E-01  0.1211E+00  0.1211E+00
     -6.774  0.1115E-01  0.1115E-01  0.1223E+00  0.1223E+00
     -6.667  0.1178E-01  0.1178E-01  0.1235E+00  0.1235E+00
     -6.560  0.1741E-01  0.1741E-01  0.1254E+00  0.1254E+00
     -6.453  0.1785E-01  0.1785E-01  0.1273E+00  0.1273E+00
     -6.347  0.1975E-01  0.1975E-01  0.1294E+00  0.1294E+00
     -6.240  0.1989E-01  0.1989E-01  0.1316E+00  0.1316E+00
     -6.133  0.1827E-01  0.1827E-01  0.1335E+00  0.1335E+00
     -6.026  0.1880E-01  0.1880E-01  0.1355E+00  0.1355E+00
     -5.919  0.1696E-01  0.1696E-01  0.1373E+00  0.1373E+00
     -5.812  0.1856E-01  0.1856E-01  0.1393E+00  0.1393E+00
     -5.705  0.2493E-01  0.2493E-01  0.1420E+00  0.1420E+00
     -5.598  0.2260E-01  0.2260E-01  0.1444E+00  0.1444E+00
     -5.491  0.3082E-01  0.3082E-01  0.1477E+00  0.1477E+00
     -5.384  0.3022E-01  0.3022E-01  0.1509E+00  0.1509E+00
     -5.277  0.1501E-01  0.1501E-01  0.1525E+00  0.1525E+00
     -5.170  0.1616E-01  0.1616E-01  0.1543E+00  0.1543E+00
     -5.063  0.3165E-01  0.3165E-01  0.1576E+00  0.1576E+00
     -4.956  0.3738E-01  0.3738E-01  0.1616E+00  0.1616E+00
     -4.850  0.2609E-01  0.2609E-01  0.1644E+00  0.1644E+00
     -4.743  0.1742E-01  0.1742E-01  0.1663E+00  0.1663E+00
     -4.636  0.1147E-01  0.1147E-01  0.1675E+00  0.1675E+00
     -4.529  0.1012E-01  0.1012E-01  0.1686E+00  0.1686E+00
     -4.422  0.1443E-01  0.1443E-01  0.1701E+00  0.1701E+00
     -4.315  0.1141E-01  0.1141E-01  0.1714E+00  0.1714E+00
     -4.208  0.8438E-02  0.8438E-02  0.1723E+00  0.1723E+00
     -4.101  0.9267E-02  0.9267E-02  0.1733E+00  0.1733E+00
     -3.994  0.1536E-01  0.1536E-01  0.1749E+00  0.1749E+00
     -3.887  0.2007E-01  0.2007E-01  0.1770E+00  0.1770E+00
     -3.780  0.1650E-01  0.1650E-01  0.1788E+00  0.1788E+00
     -3.673  0.2083E-01  0.2083E-01  0.1810E+00  0.1810E+00
     -3.566  0.2392E-01  0.2392E-01  0.1836E+00  0.1836E+00
     -3.459  0.2341E-01  0.2341E-01  0.1861E+00  0.1861E+00
     -3.352  0.1845E-01  0.1845E-01  0.1881E+00  0.1881E+00
     -3.246  0.1699E-01  0.1699E-01  0.1899E+00  0.1899E+00
     -3.139  0.2033E-01  0.2033E-01  0.1921E+00  0.1921E+00
     -3.032  0.1585E-01  0.1585E-01  0.1938E+00  0.1938E+00
     -2.925  0.1514E-01  0.1514E-01  0.1954E+00  0.1954E+00
     -2.818  0.1377E-01  0.1377E-01  0.1968E+00  0.1968E+00
     -2.711  0.1615E-01  0.1615E-01  0.1986E+00  0.1986E+00
     -2.604  0.1842E-01  0.1842E-01  0.2005E+00  0.2005E+00
     -2.497  0.1237E-01  0.1237E-01  0.2019E+00  0.2019E+00
     -2.390  0.1110E-01  0.1110E-01  0.2031E+00  0.2031E+00
     -2.283  0.7491E-02  0.7491E-02  0.2039E+00  0.2039E+00
     -2.176  0.1103E-01  0.1103E-01  0.2050E+00  0.2050E+00
     -2.069  0.2061E-01  0.2061E-01  0.2072E+00  0.2072E+00
     -1.962  0.1212E-01  0.1212E-01  0.2085E+00  0.2085E+00
     -1.855  0.4090E-02  0.4090E-02  0.2090E+00  0.2090E+00
     -1.749  0.4093E-02  0.4093E-02  0.2094E+00  0.2094E+00
     -1.642  0.9473E-02  0.9473E-02  0.2104E+00  0.2104E+00
     -1.535  0.1130E-01  0.1130E-01  0.2116E+00  0.2116E+00
     -1.428  0.1136E-01  0.1136E-01  0.2128E+00  0.2128E+00
     -1.321  0.1208E-01  0.1208E-01  0.2141E+00  0.2141E+00
     -1.214  0.8812E-02  0.8812E-02  0.2151E+00  0.2151E+00
     -1.107  0.6850E-02  0.6850E-02  0.2158E+00  0.2158E+00
     -1.000  0.5309E-02  0.5309E-02  0.2164E+00  0.2164E+00
     -0.893  0.3546E-02  0.3546E-02  0.2168E+00  0.2168E+00
     -0.786  0.4001E-02  0.4001E-02  0.2172E+00  0.2172E+00
     -0.679  0.4659E-02  0.4659E-02  0.2177E+00  0.2177E+00
     -0.572  0.5823E-02  0.5823E-02  0.2183E+00  0.2183E+00
     -0.465  0.2448E-02  0.2448E-02  0.2186E+00  0.2186E+00
     -0.358  0.6052E-03  0.6052E-03  0.2186E+00  0.2186E+00
     -0.251  0.7771E-04  0.7771E-04  0.2186E+00  0.2186E+00
     -0.145  0.5663E-05  0.5663E-05  0.2186E+00  0.2186E+00
     -0.038  0.1651E-03  0.1651E-03  0.2187E+00  0.2187E+00
      0.069  0.9392E-03  0.9392E-03  0.2188E+00  0.2188E+00
      0.176  0.8133E-03  0.8133E-03  0.2188E+00  0.2188E+00
      0.283  0.1061E-03  0.1061E-03  0.2189E+00  0.2189E+00
      0.390  0.1868E-05  0.1868E-05  0.2189E+00  0.2189E+00
      0.497  0.1253E-05  0.1253E-05  0.2189E+00  0.2189E+00
      0.604  0.1303E-03  0.1303E-03  0.2189E+00  0.2189E+00
      0.711  0.1725E-02  0.1725E-02  0.2191E+00  0.2191E+00
      0.818  0.3271E-02  0.3271E-02  0.2194E+00  0.2194E+00
      0.925  0.1127E-02  0.1127E-02  0.2195E+00  0.2195E+00
      1.032  0.1477E-02  0.1477E-02  0.2197E+00  0.2197E+00
      1.139  0.2923E-02  0.2923E-02  0.2200E+00  0.2200E+00
      1.246  0.5209E-02  0.5209E-02  0.2206E+00  0.2206E+00
      1.352  0.1198E-01  0.1198E-01  0.2218E+00  0.2218E+00
      1.459  0.2696E-01  0.2696E-01  0.2247E+00  0.2247E+00
      1.566  0.1792E-01  0.1792E-01  0.2266E+00  0.2266E+00
      1.673  0.4238E-02  0.4238E-02  0.2271E+00  0.2271E+00
      1.780  0.4673E-02  0.4673E-02  0.2276E+00  0.2276E+00
      1.887  0.9124E-02  0.9124E-02  0.2286E+00  0.2286E+00
      1.994  0.1193E-01  0.1193E-01  0.2298E+00  0.2298E+00
      2.101  0.1973E-01  0.1973E-01  0.2319E+00  0.2319E+00
      2.208  0.1547E-01  0.1547E-01  0.2336E+00  0.2336E+00
      2.315  0.6013E-02  0.6013E-02  0.2342E+00  0.2342E+00
      2.422  0.6815E-02  0.6815E-02  0.2350E+00  0.2350E+00
      2.529  0.9533E-02  0.9533E-02  0.2360E+00  0.2360E+00
      2.636  0.7453E-02  0.7453E-02  0.2368E+00  0.2368E+00
      2.743  0.8073E-02  0.8073E-02  0.2377E+00  0.2377E+00
      2.849  0.8530E-02  0.8530E-02  0.2386E+00  0.2386E+00
      2.956  0.1149E-01  0.1149E-01  0.2398E+00  0.2398E+00
      3.063  0.9224E-02  0.9224E-02  0.2408E+00  0.2408E+00
      3.170  0.6014E-02  0.6014E-02  0.2414E+00  0.2414E+00
      3.277  0.4925E-02  0.4924E-02  0.2420E+00  0.2420E+00
      3.384  0.1185E-01  0.1185E-01  0.2432E+00  0.2432E+00
      3.491  0.1124E-01  0.1124E-01  0.2444E+00  0.2444E+00
      3.598  0.8470E-02  0.8469E-02  0.2453E+00  0.2453E+00
      3.705  0.1092E-01  0.1092E-01  0.2465E+00  0.2465E+00
      3.812  0.9685E-02  0.9686E-02  0.2475E+00  0.2475E+00
      3.919  0.1164E-01  0.1164E-01  0.2488E+00  0.2488E+00
      4.026  0.1452E-01  0.1452E-01  0.2503E+00  0.2503E+00
      4.133  0.1752E-01  0.1752E-01  0.2522E+00  0.2522E+00
      4.240  0.2287E-01  0.2287E-01  0.2546E+00  0.2546E+00
      4.347  0.2111E-01  0.2111E-01  0.2569E+00  0.2569E+00
      4.453  0.2499E-01  0.2499E-01  0.2596E+00  0.2596E+00
      4.560  0.2500E-01  0.2500E-01  0.2622E+00  0.2622E+00
      4.667  0.2334E-01  0.2334E-01  0.2647E+00  0.2647E+00
      4.774  0.2341E-01  0.2341E-01  0.2672E+00  0.2672E+00
      4.881  0.2599E-01  0.2599E-01  0.2700E+00  0.2700E+00
      4.988  0.2421E-01  0.2422E-01  0.2726E+00  0.2726E+00
      5.095  0.1806E-01  0.1806E-01  0.2745E+00  0.2745E+00
      5.202  0.1888E-01  0.1888E-01  0.2766E+00  0.2766E+00
      5.309  0.2426E-01  0.2425E-01  0.2792E+00  0.2792E+00
      5.416  0.2279E-01  0.2278E-01  0.2816E+00  0.2816E+00
      5.523  0.2531E-01  0.2531E-01  0.2843E+00  0.2843E+00
      5.630  0.2464E-01  0.2464E-01  0.2869E+00  0.2869E+00
      5.737  0.2815E-01  0.2815E-01  0.2899E+00  0.2899E+00
      5.844  0.2531E-01  0.2532E-01  0.2927E+00  0.2927E+00
      5.950  0.1673E-01  0.1673E-01  0.2944E+00  0.2944E+00
      6.057  0.2523E-01  0.2522E-01  0.2971E+00  0.2971E+00
      6.164  0.2432E-01  0.2433E-01  0.2997E+00  0.2997E+00
      6.271  0.1692E-01  0.1692E-01  0.3015E+00  0.3015E+00
      6.378  0.2274E-01  0.2274E-01  0.3040E+00  0.3040E+00
      6.485  0.2294E-01  0.2294E-01  0.3064E+00  0.3064E+00
      6.592  0.1887E-01  0.1887E-01  0.3085E+00  0.3085E+00
      6.699  0.1761E-01  0.1761E-01  0.3103E+00  0.3103E+00
      6.806  0.2068E-01  0.2067E-01  0.3125E+00  0.3125E+00
      6.913  0.1761E-01  0.1761E-01  0.3144E+00  0.3144E+00
      7.020  0.2078E-01  0.2078E-01  0.3167E+00  0.3167E+00
      7.127  0.2926E-01  0.2926E-01  0.3198E+00  0.3198E+00
      7.234  0.2819E-01  0.2819E-01  0.3228E+00  0.3228E+00
      7.341  0.2501E-01  0.2501E-01  0.3255E+00  0.3255E+00
      7.447  0.1569E-01  0.1569E-01  0.3271E+00  0.3271E+00
      7.554  0.1927E-01  0.1927E-01  0.3292E+00  0.3292E+00
      7.661  0.2277E-01  0.2277E-01  0.3316E+00  0.3316E+00
      7.768  0.2787E-01  0.2787E-01  0.3346E+00  0.3346E+00
      7.875  0.2632E-01  0.2631E-01  0.3374E+00  0.3374E+00
      7.982  0.2604E-01  0.2605E-01  0.3402E+00  0.3402E+00
      8.089  0.2497E-01  0.2497E-01  0.3429E+00  0.3429E+00
      8.196  0.2725E-01  0.2725E-01  0.3458E+00  0.3458E+00
      8.303  0.2807E-01  0.2807E-01  0.3488E+00  0.3488E+00
      8.410  0.1769E-01  0.1769E-01  0.3507E+00  0.3507E+00
      8.517  0.1951E-01  0.1951E-01  0.3528E+00  0.3528E+00
      8.624  0.2821E-01  0.2821E-01  0.3558E+00  0.3558E+00
      8.731  0.3663E-01  0.3663E-01  0.3597E+00  0.3597E+00
      8.838  0.4274E-01  0.4274E-01  0.3643E+00  0.3643E+00
      8.945  0.4014E-01  0.4014E-01  0.3686E+00  0.3686E+00
      9.051  0.3244E-01  0.3244E-01  0.3721E+00  0.3720E+00
      9.158  0.1495E-01  0.1495E-01  0.3736E+00  0.3736E+00
      9.265  0.7996E-02  0.8003E-02  0.3745E+00  0.3745E+00
      9.372  0.3962E-02  0.3964E-02  0.3749E+00  0.3749E+00
      9.479  0.6612E-03  0.6614E-03  0.3750E+00  0.3750E+00
      9.586  0.2176E-04  0.2176E-04  0.3750E+00  0.3750E+00
      9.693  0.1019E-06  0.1019E-06  0.3750E+00  0.3750E+00
      9.800  0.5666E-10  0.5665E-10  0.3750E+00  0.3750E+00
      9.907  0.3460E-14  0.3460E-14  0.3750E+00  0.3750E+00
     10.014  0.0000E+00  0.0000E+00  0.3750E+00  0.3750E+00
     10.121  0.0000E+00  0.0000E+00  0.3750E+00  0.3750E+00
     10.228  0.0000E+00  0.0000E+00  0.3750E+00  0.3750E+00
     10.335  0.0000E+00  0.0000E+00  0.3750E+00  0.3750E+00
     10.442  0.0000E+00  0.0000E+00  0.3750E+00  0.3750E+00
     10.548  0.0000E+00  0.0000E+00  0.3750E+00  0.3750E+00
     10.655  0.0000E+00  0.0000E+00  0.3750E+00  0.3750E+00
     10.762  0.0000E+00  0.0000E+00  0.3750E+00  0.3750E+00
