Lattice                                 
           1
     4.200223    2.425000    0.000000
    -4.200223    2.425000    0.000000
     0.000000    0.000000   15.000000
   B    C 
     4    11
Direct configuration=     1
   0.00415361  0.00267210  0.12034134
   0.35695335  0.00285503  0.09748893
   0.00423858  0.35550699  0.09749256
   0.65142295  0.65006557  0.09747688
   0.32808646  0.32671938  0.10030508
   0.68027775  0.00278085  0.10027562
   0.00416530  0.67883808  0.10026559
   0.11111044  0.38888856  0.33726667
   0.27777744  0.22222156  0.33726667
   0.11111044  0.88888856  0.33726667
   0.27777744  0.72222156  0.33726667
   0.61111044  0.38888856  0.33726667
   0.77777744  0.22222156  0.33726667
   0.61111044  0.88888856  0.33726667
   0.77777744  0.72222156  0.33726667
Direct configuration=     2
   0.00416756  0.00269532  0.11903065
   0.35570053  0.00279235  0.09782935
   0.00418955  0.35448402  0.09788596
   0.65256510  0.65109882  0.09785641
   0.32468604  0.32315720  0.10031324
   0.68394551  0.00279455  0.10032729
   0.00422495  0.68225906  0.10028215
   0.11103887  0.38899134  0.33728010
   0.27791452  0.22234466  0.33735416
   0.11129727  0.88902001  0.33729138
   0.27796872  0.72221863  0.33720553
   0.61107166  0.38883652  0.33720060
   0.77773691  0.22226821  0.33728947
   0.61092648  0.88883872  0.33734295
   0.77741587  0.72207901  0.33729007
Direct configuration=     3
   0.00416069  0.00268388  0.11967647
   0.35631784  0.00282324  0.09766162
   0.00421371  0.35498808  0.09769212
   0.65200232  0.65058970  0.09766940
   0.32636155  0.32491241  0.10030922
   0.68213827  0.00278780  0.10030183
   0.00419556  0.68057342  0.10027399
   0.11107414  0.38894070  0.33727348
   0.27784698  0.22228400  0.33731105
   0.11120521  0.88895524  0.33727920
   0.27787447  0.72222007  0.33723566
   0.61109077  0.38886216  0.33723316
   0.77775688  0.22224522  0.33727823
   0.61101713  0.88886328  0.33730536
   0.77759403  0.72214925  0.33727854
Direct configuration=     4
   0.00416983  0.00272031  0.11849752
   0.35682498  0.00275746  0.09798660
   0.00420971  0.35549318  0.09807102
   0.65156169  0.65001606  0.09803367
   0.32653332  0.32495848  0.10028308
   0.68205803  0.00278325  0.10031771
   0.00424019  0.68044966  0.10025608
   0.11109434  0.38887809  0.33728977
   0.27767625  0.22224774  0.33738538
   0.11097612  0.88885798  0.33730763
   0.27765660  0.72226601  0.33719093
   0.61108898  0.38892500  0.33718715
   0.77773642  0.22222545  0.33729924
   0.61115181  0.88897295  0.33737165
   0.77787130  0.72232683  0.33730192
Direct configuration=     5
   0.00419725  0.00282961  0.11496065
   0.35834640  0.00256011  0.09896153
   0.00419772  0.35700848  0.09920772
   0.65023981  0.64829513  0.09912646
   0.32704862  0.32509668  0.10020465
   0.68181728  0.00276962  0.10036532
   0.00437409  0.68007839  0.10020234
   0.11115493  0.38869028  0.33733865
   0.27716406  0.22213893  0.33760839
   0.11028882  0.88856623  0.33739293
   0.27700298  0.72240382  0.33705675
   0.61108360  0.38911350  0.33704913
   0.77767504  0.22216614  0.33736227
   0.61155586  0.88930196  0.33757050
   0.77870312  0.72285956  0.33737205
Direct configuration=     6
   0.00420378  0.00283361  0.11450269
   0.35848371  0.00254203  0.09906158
   0.00420953  0.35712323  0.09932250
   0.65013668  0.64815257  0.09923714
   0.32715815  0.32517648  0.10022543
   0.68172595  0.00275610  0.10039864
   0.00438563  0.67998260  0.10022589
   0.11109627  0.38879282  0.33734470
   0.27729392  0.22217318  0.33762349
   0.11049342  0.88872474  0.33740280
   0.27718285  0.72239311  0.33705477
   0.61104282  0.38909443  0.33704774
   0.77767312  0.22222291  0.33736840
   0.61137786  0.88920730  0.33758420
   0.77838586  0.72270334  0.33737934
Direct configuration=     7
   0.00422338  0.00284561  0.11312882
   0.35889562  0.00248780  0.09936173
   0.00424494  0.35746748  0.09966685
   0.64982732  0.64772487  0.09956921
   0.32748676  0.32541587  0.10028778
   0.68145196  0.00271553  0.10049859
   0.00442027  0.67969523  0.10029655
   0.11092029  0.38910043  0.33736287
   0.27768353  0.22227594  0.33766882
   0.11110720  0.88920028  0.33743242
   0.27772247  0.72236097  0.33704882
   0.61092048  0.38903722  0.33704360
   0.77766735  0.22239321  0.33738680
   0.61084388  0.88892333  0.33762528
   0.77743409  0.72223469  0.33740120
Direct configuration=     8
   0.00423098  0.00285025  0.11259666
   0.35905518  0.00246679  0.09947799
   0.00425866  0.35760082  0.09980023
   0.64970750  0.64755921  0.09969783
   0.32761404  0.32550860  0.10031193
   0.68134583  0.00269982  0.10053731
   0.00443369  0.67958391  0.10032392
   0.11085213  0.38921958  0.33736990
   0.27783444  0.22231575  0.33768637
   0.11134495  0.88938447  0.33744389
   0.27793149  0.72234853  0.33704651
   0.61087309  0.38901506  0.33704200
   0.77766512  0.22245917  0.33739393
   0.61063704  0.88881333  0.33764119
   0.77706543  0.72205316  0.33740967
Direct configuration=     9
   0.00424818  0.00283142  0.11200084
   0.35906212  0.00245834  0.09956160
   0.00429480  0.35756177  0.09988906
   0.64974305  0.64757125  0.09978494
   0.32770857  0.32559685  0.10039677
   0.68125840  0.00266388  0.10062970
   0.00444120  0.67948918  0.10041082
   0.11085312  0.38920974  0.33737719
   0.27784270  0.22242799  0.33767961
   0.11131555  0.88932623  0.33745304
   0.27793514  0.72236923  0.33707401
   0.61086826  0.38897418  0.33707161
   0.77760935  0.22245764  0.33739835
   0.61063141  0.88885317  0.33763565
   0.77703771  0.72208758  0.33741613
Direct configuration=    10
   0.00429979  0.00277492  0.11021338
   0.35908294  0.00243299  0.09981242
   0.00440321  0.35744463  0.10015555
   0.64984972  0.64760738  0.10004627
   0.32799216  0.32586160  0.10065129
   0.68099612  0.00255606  0.10090686
   0.00446375  0.67920497  0.10067154
   0.11085608  0.38918023  0.33739905
   0.27786749  0.22276474  0.33765933
   0.11122736  0.88915151  0.33748050
   0.27794608  0.72243134  0.33715653
   0.61085375  0.38885155  0.33716046
   0.77744204  0.22245302  0.33741161
   0.61061451  0.88897267  0.33761904
   0.77695455  0.72219083  0.33743551
Direct configuration=    11
   0.00440302  0.00266192  0.10663847
   0.35912459  0.00238230  0.10031406
   0.00462004  0.35721034  0.10068852
   0.65006305  0.64767964  0.10056892
   0.32855935  0.32639110  0.10116033
   0.68047154  0.00234042  0.10146120
   0.00450885  0.67863656  0.10119296
   0.11086202  0.38912121  0.33744276
   0.27791706  0.22343824  0.33761877
   0.11105097  0.88880206  0.33753542
   0.27796797  0.72255555  0.33732155
   0.61082474  0.38860629  0.33733816
   0.77710741  0.22244380  0.33743812
   0.61058071  0.88921168  0.33758582
   0.77678823  0.72239733  0.33747428
Direct configuration=    12
   0.00444429  0.00261701  0.10567250
   0.35914633  0.00237624  0.10046468
   0.00466769  0.35720118  0.10083291
   0.65007008  0.64767233  0.10071495
   0.32858001  0.32639223  0.10129332
   0.68050007  0.00229999  0.10159577
   0.00453268  0.67857582  0.10132791
   0.11078760  0.38916413  0.33745383
   0.27765112  0.22296664  0.33760349
   0.11086691  0.88900355  0.33754710
   0.27768552  0.72250669  0.33737587
   0.61080204  0.38892357  0.33739212
   0.77726944  0.22243338  0.33744794
   0.61070628  0.88928382  0.33757071
   0.77713949  0.72246188  0.33748624
Direct configuration=    13
   0.00448175  0.00257623  0.10479541
   0.35916608  0.00237073  0.10060144
   0.00471095  0.35719285  0.10096401
   0.65007645  0.64766568  0.10084755
   0.32859876  0.32639325  0.10141408
   0.68052598  0.00226328  0.10171795
   0.00455432  0.67852068  0.10145045
   0.11072003  0.38920309  0.33746389
   0.27740966  0.22253842  0.33758961
   0.11069978  0.88918650  0.33755771
   0.27742906  0.72246232  0.33742519
   0.61078144  0.38921166  0.33744111
   0.77741656  0.22242392  0.33745685
   0.61082029  0.88934933  0.33755699
   0.77745845  0.72252049  0.33749710
Direct configuration=    14
   0.00449557  0.00255852  0.10468087
   0.35923368  0.00237340  0.10065389
   0.00469756  0.35727484  0.10099939
   0.64998588  0.64759160  0.10088816
   0.32847994  0.32625260  0.10140657
   0.68068905  0.00228606  0.10169773
   0.00457108  0.67861200  0.10144205
   0.11072984  0.38919324  0.33746543
   0.27739399  0.22247855  0.33759002
   0.11075542  0.88923980  0.33755631
   0.27742516  0.72252898  0.33743422
   0.61075220  0.38921503  0.33744571
   0.77743826  0.22251778  0.33746249
   0.61076960  0.88921898  0.33755533
   0.77743232  0.72253705  0.33750118
Direct configuration=    15
   0.00452172  0.00252501  0.10446406
   0.35936164  0.00237845  0.10075318
   0.00467222  0.35743004  0.10106635
   0.64981442  0.64745137  0.10096505
   0.32825502  0.32598636  0.10139236
   0.68099773  0.00232918  0.10165944
   0.00460279  0.67878485  0.10142614
   0.11074843  0.38917459  0.33746834
   0.27736434  0.22236523  0.33759078
   0.11086074  0.88934070  0.33755366
   0.27741778  0.72265517  0.33745131
   0.61069687  0.38922140  0.33745441
   0.77747933  0.22269545  0.33747316
   0.61067366  0.88897225  0.33755220
   0.77738286  0.72256841  0.33750890
Direct configuration=    16
   0.00453402  0.00249276  0.10434547
   0.35951847  0.00237923  0.10083777
   0.00464722  0.35754917  0.10111715
   0.64965527  0.64731273  0.10102616
   0.32816686  0.32586306  0.10136558
   0.68113781  0.00236838  0.10160516
   0.00462554  0.67886739  0.10139735
   0.11075946  0.38921332  0.33747202
   0.27740561  0.22248326  0.33759388
   0.11081355  0.88928879  0.33755154
   0.27743730  0.72260573  0.33745949
   0.61069630  0.38920634  0.33745697
   0.77741046  0.22260274  0.33748223
   0.61068098  0.88910321  0.33755428
   0.77736068  0.72254233  0.33751428
Direct configuration=    17
   0.00454506  0.00246381  0.10423900
   0.35965930  0.00237993  0.10091372
   0.00462477  0.35765613  0.10116275
   0.64951237  0.64718825  0.10108103
   0.32808769  0.32575236  0.10134153
   0.68126359  0.00240357  0.10155643
   0.00464598  0.67894150  0.10137150
   0.11076937  0.38924810  0.33747533
   0.27744267  0.22258923  0.33759666
   0.11077118  0.88924218  0.33754964
   0.27745483  0.72256134  0.33746684
   0.61069580  0.38919282  0.33745927
   0.77734863  0.22251950  0.33749038
   0.61068755  0.88922079  0.33755615
   0.77734077  0.72251892  0.33751912
Direct configuration=    18
   0.00454487  0.00244292  0.10418481
   0.35973168  0.00237689  0.10095725
   0.00462017  0.35764737  0.10118268
   0.64948292  0.64715403  0.10110810
   0.32818300  0.32583412  0.10133000
   0.68117199  0.00241107  0.10152272
   0.00464971  0.67887924  0.10135839
   0.11070873  0.38922333  0.33748037
   0.27740216  0.22256931  0.33759973
   0.11074811  0.88924845  0.33755109
   0.27743263  0.72255907  0.33746618
   0.61072161  0.38920297  0.33745964
   0.77738391  0.22253784  0.33749476
   0.61071827  0.88924370  0.33756324
   0.77734980  0.72254813  0.33752037
Direct configuration=    19
   0.00454472  0.00242615  0.10414131
   0.35978977  0.00237445  0.10099220
   0.00461647  0.35764034  0.10119868
   0.64945929  0.64712657  0.10112983
   0.32825949  0.32589975  0.10132075
   0.68109846  0.00241710  0.10149567
   0.00465271  0.67882926  0.10134787
   0.11066005  0.38920345  0.33748441
   0.27736964  0.22255332  0.33760219
   0.11072960  0.88925349  0.33755226
   0.27741481  0.72255725  0.33746565
   0.61074233  0.38921111  0.33745994
   0.77741222  0.22255255  0.33749828
   0.61074293  0.88926208  0.33756894
   0.77735705  0.72257158  0.33752137
Direct configuration=    20
   0.00455306  0.00241260  0.10408706
   0.35975866  0.00237385  0.10102240
   0.00462260  0.35757343  0.10120650
   0.64951770  0.64717216  0.10114442
   0.32830853  0.32593961  0.10132133
   0.68106178  0.00241030  0.10147243
   0.00465397  0.67878333  0.10134678
   0.11070467  0.38923051  0.33749033
   0.27738162  0.22254946  0.33760618
   0.11075222  0.88927724  0.33755522
   0.27741549  0.72258897  0.33746367
   0.61070290  0.38921825  0.33746042
   0.77738198  0.22257507  0.33750243
   0.61069454  0.88921068  0.33757789
   0.77733982  0.72256299  0.33752227
Direct configuration=    21
   0.00456015  0.00240106  0.10404089
   0.35973218  0.00237335  0.10104811
   0.00462782  0.35751648  0.10121316
   0.64956742  0.64721096  0.10115685
   0.32835028  0.32597353  0.10132183
   0.68103056  0.00240452  0.10145266
   0.00465504  0.67874424  0.10134586
   0.11074266  0.38925354  0.33749537
   0.27739181  0.22254618  0.33760957
   0.11077147  0.88929746  0.33755774
   0.27741607  0.72261597  0.33746197
   0.61066933  0.38922433  0.33746082
   0.77735625  0.22259424  0.33750596
   0.61065336  0.88916693  0.33758551
   0.77732516  0.72255567  0.33752304
Direct configuration=    22
   0.00457610  0.00239232  0.10397693
   0.35967425  0.00237254  0.10107125
   0.00463948  0.35745425  0.10121521
   0.64963912  0.64726561  0.10116522
   0.32835046  0.32596210  0.10133067
   0.68105318  0.00239121  0.10143642
   0.00465956  0.67872623  0.10135292
   0.11072552  0.38926176  0.33750111
   0.27738429  0.22256522  0.33761468
   0.11074641  0.88929463  0.33756099
   0.27740484  0.72260858  0.33746171
   0.61066580  0.38923359  0.33746187
   0.77734758  0.22258213  0.33751114
   0.61065782  0.88920619  0.33759404
   0.77732515  0.72256208  0.33752517
Direct configuration=    23
   0.00460251  0.00237784  0.10387103
   0.35957834  0.00237121  0.10110955
   0.00465880  0.35735121  0.10121861
   0.64975783  0.64735610  0.10117910
   0.32835077  0.32594318  0.10134531
   0.68109063  0.00236919  0.10140954
   0.00466703  0.67869641  0.10136461
   0.11069713  0.38927537  0.33751062
   0.27737184  0.22259676  0.33762315
   0.11070493  0.88928994  0.33756636
   0.27738623  0.72259635  0.33746129
   0.61065996  0.38924892  0.33746361
   0.77733322  0.22256207  0.33751971
   0.61066520  0.88927121  0.33760815
   0.77732514  0.72257269  0.33752870
Direct configuration=    24
   0.00462367  0.00236883  0.10377372
   0.35959406  0.00236084  0.10112867
   0.00467774  0.35734776  0.10121755
   0.64976942  0.64733702  0.10118404
   0.32835611  0.32592389  0.10136447
   0.68111311  0.00234858  0.10139930
   0.00468102  0.67868207  0.10138177
   0.11064534  0.38925845  0.33751671
   0.27733596  0.22260279  0.33763083
   0.11069877  0.88930148  0.33757044
   0.27737233  0.72261689  0.33746645
   0.61067364  0.38924808  0.33746713
   0.77734364  0.22260415  0.33752808
   0.61066763  0.88927184  0.33761574
   0.77729710  0.72260576  0.33753443
Direct configuration=    25
   0.00466465  0.00235140  0.10358531
   0.35962452  0.00234076  0.10116570
   0.00471441  0.35734106  0.10121550
   0.64979187  0.64730007  0.10119360
   0.32836646  0.32588654  0.10140157
   0.68115665  0.00230868  0.10137947
   0.00470812  0.67865430  0.10141500
   0.11054506  0.38922569  0.33752850
   0.27726650  0.22261448  0.33764572
   0.11068683  0.88932382  0.33757834
   0.27734540  0.72265667  0.33747645
   0.61070014  0.38924648  0.33747395
   0.77736383  0.22268564  0.33754428
   0.61067232  0.88927308  0.33763042
   0.77724279  0.72266979  0.33754553
Direct configuration=    26
   0.00467209  0.00234691  0.10354411
   0.35964234  0.00233472  0.10117261
   0.00472205  0.35734605  0.10121582
   0.64978819  0.64728276  0.10119587
   0.32837256  0.32588094  0.10140903
   0.68116201  0.00230064  0.10137619
   0.00471475  0.67864908  0.10142176
   0.11054283  0.38923484  0.33753099
   0.27726280  0.22261789  0.33764872
   0.11068129  0.88933130  0.33758023
   0.27734034  0.72266086  0.33747919
   0.61069120  0.38925411  0.33747597
   0.77735595  0.22268821  0.33754765
   0.61066354  0.88927834  0.33763311
   0.77723761  0.72267180  0.33754810
Direct configuration=    27
   0.00469441  0.00233343  0.10342048
   0.35969580  0.00231661  0.10119333
   0.00474496  0.35736100  0.10121679
   0.64977716  0.64723084  0.10120267
   0.32839088  0.32586414  0.10143140
   0.68117811  0.00227654  0.10136634
   0.00473465  0.67863343  0.10144203
   0.11053612  0.38926230  0.33753845
   0.27725169  0.22262813  0.33765774
   0.11066468  0.88935373  0.33758588
   0.27732515  0.72267343  0.33748740
   0.61066438  0.38927700  0.33748205
   0.77733232  0.22269593  0.33755776
   0.61063721  0.88929413  0.33764119
   0.77722205  0.72267782  0.33755581
Direct configuration=    28
   0.00473905  0.00230646  0.10317324
   0.35980274  0.00228038  0.10123477
   0.00479077  0.35739092  0.10121872
   0.64975509  0.64712700  0.10121628
   0.32842752  0.32583054  0.10147615
   0.68121031  0.00222833  0.10134665
   0.00477445  0.67860213  0.10148257
   0.11052270  0.38931722  0.33755338
   0.27722948  0.22264861  0.33767577
   0.11063144  0.88939859  0.33759719
   0.27729477  0.72269858  0.33750383
   0.61061073  0.38932278  0.33749420
   0.77728505  0.22271136  0.33757799
   0.61058454  0.88932569  0.33765735
   0.77719093  0.72268986  0.33757124
Direct configuration=    29
   0.00482833  0.00225252  0.10267876
   0.36001660  0.00220792  0.10131766
   0.00488240  0.35745074  0.10122259
   0.64971096  0.64691931  0.10124350
   0.32850080  0.32576335  0.10156564
   0.68127470  0.00213190  0.10130726
   0.00485404  0.67853953  0.10156366
   0.11049587  0.38942706  0.33758323
   0.27718505  0.22268957  0.33771183
   0.11056496  0.88948831  0.33761981
   0.27723401  0.72274888  0.33753668
   0.61050345  0.38941436  0.33751850
   0.77719052  0.22274223  0.33761844
   0.61047920  0.88938883  0.33768968
   0.77712868  0.72271393  0.33760210
Direct configuration=    30
   0.00484674  0.00222189  0.10251408
   0.36006064  0.00217324  0.10134552
   0.00490630  0.35742690  0.10124534
   0.64973394  0.64688652  0.10126755
   0.32853044  0.32573153  0.10157386
   0.68130803  0.00211113  0.10129437
   0.00488545  0.67853410  0.10157078
   0.11050102  0.38943988  0.33759526
   0.27716928  0.22275630  0.33771982
   0.11052232  0.88946911  0.33763171
   0.27719241  0.72278186  0.33754920
   0.61046489  0.38941930  0.33753346
   0.77714200  0.22275632  0.33762760
   0.61046345  0.88941783  0.33769933
   0.77712266  0.72275254  0.33761144
Direct configuration=    31
   0.00487874  0.00216865  0.10222783
   0.36013720  0.00211296  0.10139395
   0.00494784  0.35738545  0.10128489
   0.64977390  0.64682953  0.10130936
   0.32858195  0.32567622  0.10158813
   0.68136596  0.00207501  0.10127197
   0.00494005  0.67852466  0.10158316
   0.11050998  0.38946217  0.33761616
   0.27714186  0.22287229  0.33773372
   0.11044819  0.88943574  0.33765241
   0.27712009  0.72283918  0.33757096
   0.61039786  0.38942790  0.33755946
   0.77705766  0.22278082  0.33764352
   0.61043609  0.88946823  0.33771610
   0.77711220  0.72281963  0.33762769
Direct configuration=    32
   0.00489647  0.00214087  0.10208745
   0.36015080  0.00208186  0.10141718
   0.00496756  0.35734620  0.10131585
   0.64981369  0.64682158  0.10133776
   0.32861079  0.32564625  0.10158307
   0.68139919  0.00206195  0.10126251
   0.00496998  0.67851184  0.10157821
   0.11046980  0.38948155  0.33762691
   0.27711154  0.22287667  0.33773959
   0.11042993  0.88947018  0.33766436
   0.27710056  0.72285374  0.33758251
   0.61038379  0.38945339  0.33757461
   0.77704757  0.22280619  0.33764982
   0.61041495  0.88948932  0.33772366
   0.77708294  0.72283685  0.33763585
Direct configuration=    33
   0.00494964  0.00205753  0.10166630
   0.36019160  0.00198854  0.10148688
   0.00502673  0.35722845  0.10140874
   0.64993305  0.64679773  0.10142294
   0.32869733  0.32555636  0.10156786
   0.68149888  0.00202276  0.10123413
   0.00505976  0.67847339  0.10156336
   0.11034927  0.38953969  0.33765918
   0.27702057  0.22288980  0.33775717
   0.11037515  0.88957347  0.33770018
   0.27704196  0.72289744  0.33761716
   0.61034159  0.38952987  0.33762005
   0.77701732  0.22288231  0.33766874
   0.61035152  0.88955261  0.33774632
   0.77699516  0.72288850  0.33766033
Direct configuration=    34
   0.00505598  0.00189085  0.10082401
   0.36027321  0.00180189  0.10162629
   0.00514507  0.35699293  0.10159450
   0.65017177  0.64675004  0.10159331
   0.32887041  0.32537657  0.10153745
   0.68169827  0.00194439  0.10117737
   0.00523933  0.67839648  0.10153366
   0.11010822  0.38965596  0.33772370
   0.27683865  0.22291608  0.33779234
   0.11026560  0.88978007  0.33777184
   0.27692476  0.72298484  0.33768646
   0.61025720  0.38968281  0.33771093
   0.77695681  0.22303453  0.33770658
   0.61022468  0.88967918  0.33779163
   0.77681959  0.72299181  0.33770928
Direct configuration=    35
   0.00502232  0.00194362  0.10109065
   0.36024738  0.00186098  0.10158216
   0.00510760  0.35706749  0.10153569
   0.65009620  0.64676514  0.10153937
   0.32881562  0.32543348  0.10154708
   0.68163515  0.00196920  0.10119533
   0.00518248  0.67842083  0.10154306
   0.11018453  0.38961915  0.33770328
   0.27689624  0.22290776  0.33778120
   0.11030028  0.88971467  0.33774916
   0.27696187  0.72295717  0.33766452
   0.61028391  0.38963439  0.33768216
   0.77697597  0.22298634  0.33769460
   0.61026484  0.88963911  0.33777729
   0.77687517  0.72295910  0.33769379
Direct configuration=    36
   0.00510440  0.00190718  0.10078519
   0.36026354  0.00181463  0.10161905
   0.00517143  0.35701326  0.10161032
   0.65016300  0.64672292  0.10160236
   0.32890272  0.32539870  0.10152342
   0.68167405  0.00192844  0.10119745
   0.00524962  0.67830174  0.10152222
   0.11019544  0.38967735  0.33772158
   0.27687602  0.22300006  0.33780298
   0.11024398  0.88972418  0.33777196
   0.27691548  0.72303436  0.33769195
   0.61019732  0.38966341  0.33770723
   0.77687228  0.22301636  0.33771363
   0.61018749  0.88966612  0.33779165
   0.77683279  0.72300976  0.33771836
Direct configuration=    37
   0.00514993  0.00188696  0.10061574
   0.36027250  0.00178892  0.10163952
   0.00520683  0.35698317  0.10165172
   0.65020005  0.64669950  0.10163730
   0.32895104  0.32537940  0.10151030
   0.68169563  0.00190582  0.10119862
   0.00528686  0.67823567  0.10151066
   0.11020150  0.38970963  0.33773173
   0.27686481  0.22305126  0.33781506
   0.11021275  0.88972945  0.33778460
   0.27688974  0.72307719  0.33770716
   0.61014929  0.38967951  0.33772113
   0.77681475  0.22303301  0.33772419
   0.61014459  0.88968110  0.33779961
   0.77680928  0.72303785  0.33773199
Direct configuration=    38
   0.00520056  0.00187396  0.10048709
   0.36030234  0.00178293  0.10163725
   0.00525248  0.35696940  0.10168037
   0.65022034  0.64666204  0.10165686
   0.32898326  0.32537328  0.10149601
   0.68170084  0.00186373  0.10122990
   0.00530771  0.67817246  0.10149987
   0.11015704  0.38973375  0.33773520
   0.27682529  0.22305222  0.33783343
   0.11018301  0.88976809  0.33779110
   0.27685075  0.72307935  0.33771808
   0.61013322  0.38971754  0.33772235
   0.77680903  0.22305348  0.33773752
   0.61013528  0.88972135  0.33780652
   0.77678840  0.72305487  0.33774779
Direct configuration=    39
   0.00525984  0.00185873  0.10033645
   0.36033728  0.00177592  0.10163459
   0.00530593  0.35695327  0.10171393
   0.65024409  0.64661817  0.10167978
   0.32902100  0.32536612  0.10147927
   0.68170693  0.00181444  0.10126652
   0.00533213  0.67809843  0.10148724
   0.11010498  0.38976199  0.33773926
   0.27677901  0.22305334  0.33785494
   0.11014819  0.88981333  0.33779871
   0.27680509  0.72308189  0.33773087
   0.61011440  0.38976207  0.33772376
   0.77680234  0.22307745  0.33775313
   0.61012438  0.88976849  0.33781461
   0.77676396  0.72307480  0.33776629
Direct configuration=    40
   0.00529585  0.00182055  0.10019946
   0.36039312  0.00176309  0.10162070
   0.00535566  0.35691600  0.10173922
   0.65028595  0.64658742  0.10169384
   0.32903324  0.32533701  0.10146199
   0.68174211  0.00175411  0.10132248
   0.00535012  0.67808605  0.10147518
   0.11007620  0.38977215  0.33774510
   0.27675546  0.22310626  0.33787536
   0.11012290  0.88982230  0.33780774
   0.27679190  0.72313701  0.33773799
   0.61008273  0.38976305  0.33772395
   0.77676222  0.22312409  0.33776686
   0.61007872  0.88977032  0.33782750
   0.77672336  0.72311904  0.33778198
Direct configuration=    41
   0.00531430  0.00180099  0.10012930
   0.36042173  0.00175652  0.10161359
   0.00538113  0.35689691  0.10175217
   0.65030738  0.64657166  0.10170104
   0.32903951  0.32532211  0.10145314
   0.68176012  0.00172321  0.10135114
   0.00535934  0.67807970  0.10146900
   0.11006146  0.38977735  0.33774809
   0.27674340  0.22313336  0.33788582
   0.11010995  0.88982689  0.33781236
   0.27678514  0.72316525  0.33774163
   0.61006651  0.38976355  0.33772405
   0.77674168  0.22314798  0.33777389
   0.61005534  0.88977125  0.33783410
   0.77670257  0.72314170  0.33779001
Direct configuration=    42
   0.00532265  0.00175846  0.10005095
   0.36046398  0.00173381  0.10160189
   0.00540344  0.35686484  0.10176166
   0.65034278  0.64655729  0.10170482
   0.32904667  0.32528799  0.10143940
   0.68180772  0.00168976  0.10139640
   0.00537932  0.67809625  0.10145921
   0.11005699  0.38982712  0.33775762
   0.27672779  0.22313935  0.33789259
   0.11008618  0.88986066  0.33782272
   0.27675784  0.72316697  0.33774094
   0.61003505  0.38980733  0.33772965
   0.77670477  0.22313583  0.33777834
   0.61003189  0.88981390  0.33784883
   0.77668248  0.72313889  0.33779433
Direct configuration=    43
   0.00532255  0.00175898  0.10005190
   0.36046347  0.00173408  0.10160203
   0.00540317  0.35686523  0.10176154
   0.65034235  0.64655746  0.10170478
   0.32904659  0.32528841  0.10143957
   0.68180714  0.00169017  0.10139585
   0.00537908  0.67809605  0.10145932
   0.11005704  0.38982651  0.33775750
   0.27672798  0.22313928  0.33789251
   0.11008647  0.88986025  0.33782259
   0.27675818  0.72316695  0.33774095
   0.61003543  0.38980680  0.33772958
   0.77670522  0.22313598  0.33777829
   0.61003218  0.88981338  0.33784865
   0.77668273  0.72313892  0.33779428
Direct configuration=    44
   0.00533058  0.00174037  0.10002869
   0.36047876  0.00171426  0.10159879
   0.00540721  0.35685649  0.10176062
   0.65035157  0.64654392  0.10170371
   0.32906415  0.32527105  0.10143041
   0.68183139  0.00168730  0.10141665
   0.00540107  0.67808755  0.10145201
   0.11003487  0.38982658  0.33776504
   0.27670820  0.22314864  0.33789040
   0.11007060  0.88986869  0.33782909
   0.27673846  0.72317986  0.33773908
   0.61002604  0.38981549  0.33773643
   0.77670475  0.22315949  0.33777798
   0.61002660  0.88981934  0.33785776
   0.77667530  0.72315942  0.33779267
Direct configuration=    45
   0.00533833  0.00172242  0.10000630
   0.36049351  0.00169514  0.10159567
   0.00541110  0.35684805  0.10175972
   0.65036046  0.64653086  0.10170267
   0.32908110  0.32525431  0.10142158
   0.68185478  0.00168453  0.10143673
   0.00542230  0.67807934  0.10144494
   0.11001349  0.38982664  0.33777231
   0.27668912  0.22315767  0.33788837
   0.11005529  0.88987683  0.33783536
   0.27671944  0.72319231  0.33773728
   0.61001698  0.38982388  0.33774303
   0.77670430  0.22318217  0.33777769
   0.61002122  0.88982510  0.33786655
   0.77666813  0.72317919  0.33779112
Direct configuration=    46
   0.00536035  0.00170977  0.09998900
   0.36050751  0.00166980  0.10159567
   0.00542047  0.35683283  0.10175587
   0.65037008  0.64650852  0.10170076
   0.32910972  0.32523239  0.10140782
   0.68187640  0.00168443  0.10145624
   0.00545490  0.67805487  0.10143309
   0.11000540  0.38985211  0.33777846
   0.27667927  0.22317658  0.33788730
   0.11004341  0.88989538  0.33783931
   0.27671374  0.72320677  0.33773985
   0.60999847  0.38983889  0.33774962
   0.77667280  0.22318592  0.33778089
   0.60999427  0.88984567  0.33787341
   0.77664277  0.72318451  0.33779205
Direct configuration=    47
   0.00537001  0.00170422  0.09998141
   0.36051365  0.00165867  0.10159567
   0.00542458  0.35682616  0.10175418
   0.65037430  0.64649872  0.10169992
   0.32912227  0.32522277  0.10140178
   0.68188589  0.00168439  0.10146480
   0.00546921  0.67804413  0.10142789
   0.11000185  0.38986329  0.33778117
   0.27667495  0.22318488  0.33788683
   0.11003820  0.88990352  0.33784104
   0.27671124  0.72321312  0.33774098
   0.60999035  0.38984547  0.33775251
   0.77665897  0.22318756  0.33778229
   0.60998245  0.88985469  0.33787642
   0.77663164  0.72318685  0.33779246
Direct configuration=    48
   0.00539156  0.00169613  0.09997845
   0.36052494  0.00164128  0.10159912
   0.00544265  0.35680126  0.10174980
   0.65039542  0.64648630  0.10169849
   0.32913944  0.32520294  0.10139039
   0.68189888  0.00167384  0.10146985
   0.00548831  0.67803014  0.10141731
   0.10998535  0.38987435  0.33778077
   0.27666057  0.22319940  0.33789037
   0.11002046  0.88991273  0.33783867
   0.27669187  0.72322825  0.33774913
   0.60997268  0.38985906  0.33775338
   0.77664730  0.22320283  0.33778981
   0.60997061  0.88986551  0.33787560
   0.77661953  0.72320441  0.33779819
Direct configuration=    49
   0.00545453  0.00167250  0.09996978
   0.36055794  0.00159043  0.10160923
   0.00549549  0.35672849  0.10173700
   0.65045716  0.64645001  0.10169431
   0.32918960  0.32514497  0.10135709
   0.68193685  0.00164300  0.10148459
   0.00554415  0.67798926  0.10138639
   0.10993711  0.38990668  0.33777961
   0.27661855  0.22324185  0.33790073
   0.10996860  0.88993964  0.33783174
   0.27663523  0.72327248  0.33777295
   0.60992104  0.38989878  0.33775594
   0.77661317  0.22324745  0.33781182
   0.60993601  0.88989713  0.33787321
   0.77658413  0.72325576  0.33781495
Direct configuration=    50
   0.00546434  0.00166066  0.09996955
   0.36056801  0.00157920  0.10161058
   0.00550845  0.35671773  0.10173366
   0.65047289  0.64644227  0.10169268
   0.32920299  0.32513653  0.10135136
   0.68194916  0.00163034  0.10148554
   0.00555331  0.67797804  0.10138097
   0.10992755  0.38991810  0.33778066
   0.27660528  0.22324769  0.33790214
   0.10996053  0.88995453  0.33783184
   0.27662786  0.72327906  0.33777641
   0.60991434  0.38990912  0.33775751