   8   8   0   4
  0.4338553E+02  0.5169000E-09  0.5169000E-09  0.1500000E-08  0.5000000E-15
  1.000000000000000E-004
  CAR 
 Lattice                                 
      6.44179388    -21.13833449  301     -3.47426162      1.00000000
    -21.138  0.0000E+00  0.0000E+00
    -21.046  0.0000E+00  0.0000E+00
    -20.954  0.0000E+00  0.0000E+00
    -20.863  0.0000E+00  0.0000E+00
    -20.771  0.0000E+00  0.0000E+00
    -20.679  0.0000E+00  0.0000E+00
    -20.587  0.0000E+00  0.0000E+00
    -20.495  0.0000E+00  0.0000E+00
    -20.403  0.2519E-15  0.2316E-16
    -20.311  0.1866E-11  0.1716E-12
    -20.219  0.2780E-08  0.2557E-09
    -20.127  0.8873E-06  0.8183E-07
    -20.035  0.6575E-04  0.6126E-05
    -19.943  0.1224E-02  0.1186E-03
    -19.851  0.6414E-02  0.7083E-03
    -19.759  0.1302E-01  0.1905E-02
    -19.667  0.1582E-01  0.3359E-02
    -19.575  0.1761E-01  0.4979E-02
    -19.484  0.2039E-01  0.6853E-02
    -19.392  0.2605E-01  0.9248E-02
    -19.300  0.3412E-01  0.1238E-01
    -19.208  0.2606E-01  0.1478E-01
    -19.116  0.8330E-02  0.1555E-01
    -19.024  0.8324E-03  0.1562E-01
    -18.932  0.2308E-04  0.1562E-01
    -18.840  0.1631E-06  0.1562E-01
    -18.748  0.2634E-09  0.1562E-01
    -18.656  0.8855E-13  0.1562E-01
    -18.564  0.5591E-17  0.1562E-01
    -18.472  0.0000E+00  0.1562E-01
    -18.380  0.0000E+00  0.1562E-01
    -18.288  0.0000E+00  0.1562E-01
    -18.196  0.0000E+00  0.1562E-01
    -18.105  0.7424E-15  0.1563E-01
    -18.013  0.6491E-11  0.1563E-01
    -17.921  0.1098E-07  0.1563E-01
    -17.829  0.3659E-05  0.1563E-01
    -17.737  0.2478E-03  0.1565E-01
    -17.645  0.3599E-02  0.1598E-01
    -17.553  0.1299E-01  0.1717E-01
    -17.461  0.2101E-01  0.1911E-01
    -17.369  0.2682E-01  0.2157E-01
    -17.277  0.2097E-01  0.2350E-01
    -17.185  0.1657E-01  0.2502E-01
    -17.093  0.8768E-02  0.2583E-01
    -17.001  0.1623E-01  0.2732E-01
    -16.909  0.2355E-01  0.2949E-01
    -16.817  0.1160E-01  0.3055E-01
    -16.726  0.1276E-01  0.3173E-01
    -16.634  0.2059E-01  0.3362E-01
    -16.542  0.2666E-01  0.3607E-01
    -16.450  0.2779E-01  0.3862E-01
    -16.358  0.2479E-01  0.4090E-01
    -16.266  0.1761E-01  0.4252E-01
    -16.174  0.2018E-01  0.4438E-01
    -16.082  0.1401E-01  0.4567E-01
    -15.990  0.8656E-02  0.4646E-01
    -15.898  0.3858E-02  0.4682E-01
    -15.806  0.6146E-03  0.4687E-01
    -15.714  0.2829E-04  0.4687E-01
    -15.622  0.3107E-06  0.4687E-01
    -15.530  0.7153E-09  0.4687E-01
    -15.438  0.3250E-12  0.4688E-01
    -15.347  0.2842E-16  0.4688E-01
    -15.255  0.0000E+00  0.4688E-01
    -15.163  0.0000E+00  0.4688E-01
    -15.071  0.0000E+00  0.4688E-01
    -14.979  0.0000E+00  0.4688E-01
    -14.887  0.0000E+00  0.4688E-01
    -14.795  0.0000E+00  0.4688E-01
    -14.703  0.4517E-15  0.4688E-01
    -14.611  0.3921E-11  0.4688E-01
    -14.519  0.6529E-08  0.4688E-01
    -14.427  0.2125E-05  0.4688E-01
    -14.335  0.1400E-03  0.4689E-01
    -14.243  0.2006E-02  0.4707E-01
    -14.151  0.7417E-02  0.4775E-01
    -14.059  0.1047E-01  0.4872E-01
    -13.968  0.1407E-01  0.5001E-01
    -13.876  0.2694E-01  0.5249E-01
    -13.784  0.2987E-01  0.5523E-01
    -13.692  0.2467E-01  0.5750E-01
    -13.600  0.1320E-01  0.5871E-01
    -13.508  0.1088E-01  0.5971E-01
    -13.416  0.1959E-01  0.6152E-01
    -13.324  0.2027E-01  0.6338E-01
    -13.232  0.1095E-01  0.6439E-01
    -13.140  0.3045E-02  0.6467E-01
    -13.048  0.4692E-02  0.6510E-01
    -12.956  0.1217E-01  0.6622E-01
    -12.864  0.2002E-01  0.6806E-01
    -12.772  0.1628E-01  0.6955E-01
    -12.680  0.5032E-02  0.7002E-01
    -12.588  0.4344E-02  0.7042E-01
    -12.497  0.1525E-01  0.7182E-01
    -12.405  0.2314E-01  0.7394E-01
    -12.313  0.2299E-01  0.7606E-01
    -12.221  0.1068E-01  0.7704E-01
    -12.129  0.2645E-02  0.7728E-01
    -12.037  0.6422E-02  0.7787E-01
    -11.945  0.1137E-01  0.7892E-01
    -11.853  0.1186E-01  0.8001E-01
    -11.761  0.8403E-02  0.8078E-01
    -11.669  0.7030E-02  0.8143E-01
    -11.577  0.3481E-02  0.8175E-01
    -11.485  0.4436E-03  0.8179E-01
    -11.393  0.5602E-04  0.8179E-01
    -11.301  0.4682E-03  0.8184E-01
    -11.209  0.1877E-02  0.8201E-01
    -11.118  0.7568E-02  0.8271E-01
    -11.026  0.1513E-01  0.8410E-01
    -10.934  0.1491E-01  0.8547E-01
    -10.842  0.1189E-01  0.8656E-01
    -10.750  0.4649E-02  0.8699E-01
    -10.658  0.4719E-02  0.8742E-01
    -10.566  0.1359E-01  0.8867E-01
    -10.474  0.1358E-01  0.8992E-01
    -10.382  0.9475E-02  0.9079E-01
    -10.290  0.2273E-01  0.9288E-01
    -10.198  0.2797E-01  0.9545E-01
    -10.106  0.1031E-01  0.9640E-01
    -10.014  0.7663E-02  0.9710E-01
     -9.922  0.1277E-01  0.9828E-01
     -9.830  0.2206E-01  0.1003E+00
     -9.739  0.2317E-01  0.1024E+00
     -9.647  0.1652E-01  0.1040E+00
     -9.555  0.1001E-01  0.1049E+00
     -9.463  0.9643E-02  0.1058E+00
     -9.371  0.1388E-01  0.1070E+00
     -9.279  0.2299E-01  0.1092E+00
     -9.187  0.2475E-01  0.1114E+00
     -9.095  0.1150E-01  0.1125E+00
     -9.003  0.1095E-01  0.1135E+00
     -8.911  0.2430E-01  0.1157E+00
     -8.819  0.3021E-01  0.1185E+00
     -8.727  0.1964E-01  0.1203E+00
     -8.635  0.1101E-01  0.1213E+00
     -8.543  0.1493E-01  0.1227E+00
     -8.451  0.2186E-01  0.1247E+00
     -8.360  0.2817E-01  0.1273E+00
     -8.268  0.1672E-01  0.1288E+00
     -8.176  0.1367E-01  0.1301E+00
     -8.084  0.1634E-01  0.1316E+00
     -7.992  0.2430E-01  0.1338E+00
     -7.900  0.3140E-01  0.1367E+00
     -7.808  0.3839E-01  0.1402E+00
     -7.716  0.2904E-01  0.1429E+00
     -7.624  0.1938E-01  0.1447E+00
     -7.532  0.3039E-01  0.1475E+00
     -7.440  0.2768E-01  0.1500E+00
     -7.348  0.2103E-01  0.1520E+00
     -7.256  0.1624E-01  0.1535E+00
     -7.164  0.1082E-01  0.1545E+00
     -7.072  0.1707E-01  0.1560E+00
     -6.981  0.1487E-01  0.1574E+00
     -6.889  0.9907E-02  0.1583E+00
     -6.797  0.1671E-01  0.1598E+00
     -6.705  0.1191E-01  0.1609E+00
     -6.613  0.1080E-01  0.1619E+00
     -6.521  0.3387E-01  0.1650E+00
     -6.429  0.5494E-01  0.1701E+00
     -6.337  0.5632E-01  0.1753E+00
     -6.245  0.5469E-01  0.1803E+00
     -6.153  0.4797E-01  0.1847E+00
     -6.061  0.2525E-01  0.1870E+00
     -5.969  0.1543E-01  0.1884E+00
     -5.877  0.1800E-01  0.1901E+00
     -5.785  0.1028E-01  0.1910E+00
     -5.693  0.1848E-01  0.1927E+00
     -5.602  0.3678E-01  0.1961E+00
     -5.510  0.2556E-01  0.1985E+00
     -5.418  0.8724E-02  0.1993E+00
     -5.326  0.1365E-01  0.2005E+00
     -5.234  0.2548E-01  0.2029E+00
     -5.142  0.2811E-01  0.2055E+00
     -5.050  0.3599E-01  0.2088E+00
     -4.958  0.4173E-01  0.2126E+00
     -4.866  0.2872E-01  0.2152E+00
     -4.774  0.2201E-01  0.2173E+00
     -4.682  0.3486E-01  0.2205E+00
     -4.590  0.4312E-01  0.2244E+00
     -4.498  0.3431E-01  0.2276E+00
     -4.406  0.1617E-01  0.2291E+00
     -4.314  0.4636E-02  0.2295E+00
     -4.223  0.7847E-02  0.2302E+00
     -4.131  0.1195E-01  0.2313E+00
     -4.039  0.1036E-01  0.2323E+00
     -3.947  0.9008E-02  0.2331E+00
     -3.855  0.7789E-02  0.2338E+00
     -3.763  0.4402E-02  0.2342E+00
     -3.671  0.1458E-02  0.2344E+00
     -3.579  0.1819E-03  0.2344E+00
     -3.487  0.5485E-05  0.2344E+00
     -3.395  0.2037E-05  0.2344E+00
     -3.303  0.1334E-03  0.2344E+00
     -3.211  0.1886E-02  0.2346E+00
     -3.119  0.6401E-02  0.2351E+00
     -3.027  0.8111E-02  0.2359E+00
     -2.935  0.6865E-02  0.2365E+00
     -2.844  0.7933E-02  0.2373E+00
     -2.752  0.2584E-01  0.2396E+00
     -2.660  0.3226E-01  0.2426E+00
     -2.568  0.1566E-01  0.2440E+00
     -2.476  0.8021E-02  0.2448E+00
     -2.384  0.7953E-02  0.2455E+00
     -2.292  0.9843E-02  0.2464E+00
     -2.200  0.9064E-02  0.2472E+00
     -2.108  0.1217E-01  0.2484E+00
     -2.016  0.1001E-01  0.2493E+00
     -1.924  0.2928E-02  0.2496E+00
     -1.832  0.6215E-03  0.2496E+00
     -1.740  0.6495E-04  0.2496E+00
     -1.648  0.2017E-05  0.2496E+00
     -1.556  0.3684E-04  0.2496E+00
     -1.465  0.7510E-03  0.2497E+00
     -1.373  0.3352E-02  0.2500E+00
     -1.281  0.3416E-02  0.2503E+00
     -1.189  0.7958E-03  0.2504E+00
     -1.097  0.4063E-04  0.2504E+00
     -1.005  0.4327E-06  0.2504E+00
     -0.913  0.8345E-06  0.2504E+00
     -0.821  0.8941E-04  0.2504E+00
     -0.729  0.1986E-02  0.2506E+00
     -0.637  0.9632E-02  0.2515E+00
     -0.545  0.1096E-01  0.2525E+00
     -0.453  0.5644E-02  0.2530E+00
     -0.361  0.6378E-02  0.2536E+00
     -0.269  0.4518E-02  0.2540E+00
     -0.177  0.9296E-02  0.2548E+00
     -0.086  0.2265E-01  0.2569E+00
      0.006  0.2384E-01  0.2591E+00
      0.098  0.2291E-01  0.2612E+00
      0.190  0.2060E-01  0.2631E+00
      0.282  0.1180E-01  0.2642E+00
      0.374  0.6066E-02  0.2648E+00
      0.466  0.6810E-02  0.2654E+00
      0.558  0.6778E-02  0.2660E+00
      0.650  0.9278E-02  0.2669E+00
      0.742  0.1499E-01  0.2682E+00
      0.834  0.1202E-01  0.2693E+00
      0.926  0.9505E-02  0.2702E+00
      1.018  0.1220E-01  0.2713E+00
      1.110  0.1938E-01  0.2731E+00
      1.202  0.2083E-01  0.2750E+00
      1.294  0.1363E-01  0.2763E+00
      1.385  0.5877E-02  0.2768E+00
      1.477  0.1427E-01  0.2781E+00
      1.569  0.2842E-01  0.2808E+00
      1.661  0.2856E-01  0.2834E+00
      1.753  0.1298E-01  0.2846E+00
      1.845  0.5082E-02  0.2850E+00
      1.937  0.1507E-01  0.2864E+00
      2.029  0.3108E-01  0.2893E+00
      2.121  0.3241E-01  0.2923E+00
      2.213  0.3183E-01  0.2952E+00
      2.305  0.3086E-01  0.2980E+00
      2.397  0.1953E-01  0.2998E+00
      2.489  0.1875E-01  0.3015E+00
      2.581  0.3658E-01  0.3049E+00
      2.673  0.3799E-01  0.3084E+00
      2.764  0.2511E-01  0.3107E+00
      2.856  0.2035E-01  0.3126E+00
      2.948  0.3099E-01  0.3154E+00
      3.040  0.3228E-01  0.3184E+00
      3.132  0.3770E-01  0.3219E+00
      3.224  0.3330E-01  0.3249E+00
      3.316  0.2246E-01  0.3270E+00
      3.408  0.2867E-01  0.3296E+00
      3.500  0.3163E-01  0.3325E+00
      3.592  0.3317E-01  0.3356E+00
      3.684  0.3562E-01  0.3389E+00
      3.776  0.3013E-01  0.3416E+00
      3.868  0.1775E-01  0.3433E+00
      3.960  0.1764E-01  0.3449E+00
      4.052  0.2537E-01  0.3472E+00
      4.143  0.3691E-01  0.3506E+00
      4.235  0.4261E-01  0.3545E+00
      4.327  0.2888E-01  0.3572E+00
      4.419  0.2291E-01  0.3593E+00
      4.511  0.2333E-01  0.3614E+00
      4.603  0.3055E-01  0.3642E+00
      4.695  0.2270E-01  0.3663E+00
      4.787  0.1752E-01  0.3679E+00
      4.879  0.2047E-01  0.3698E+00
      4.971  0.2127E-01  0.3718E+00
      5.063  0.1105E-01  0.3728E+00
      5.155  0.1029E-01  0.3737E+00
      5.247  0.1041E-01  0.3747E+00
      5.339  0.3125E-02  0.3750E+00
      5.431  0.2355E-03  0.3750E+00
      5.522  0.4047E-05  0.3750E+00
      5.614  0.1463E-07  0.3750E+00
      5.706  0.1056E-10  0.3750E+00
      5.798  0.1476E-14  0.3750E+00
      5.890  0.0000E+00  0.3750E+00
      5.982  0.0000E+00  0.3750E+00
      6.074  0.0000E+00  0.3750E+00
      6.166  0.0000E+00  0.3750E+00
      6.258  0.0000E+00  0.3750E+00
      6.350  0.0000E+00  0.3750E+00
      6.442  0.0000E+00  0.3750E+00
