Lattice                                 
           1
     4.476485    2.584500    0.000000
    -4.476485    2.584500    0.000000
     0.000000    0.000000   15.000000
   B    C 
     2     6
Direct configuration=     1
   0.33835568  0.66919338  0.25000000
   0.67168550  0.33578412  0.25000000
   0.16393418  0.32096121  0.25000000
   0.32344383  0.16194918  0.25000000
   0.16445142  0.84350783  0.25000000
   0.84555675  0.16147694  0.25000000
   0.68650730  0.84304996  0.25000000
   0.84606136  0.68407339  0.25000000
Direct configuration=     2
   0.33826097  0.66913789  0.25000000
   0.67167030  0.33589160  0.25000000
   0.16280882  0.31803916  0.25000000
   0.32051373  0.16044591  0.25000000
   0.16295402  0.84489796  0.25000000
   0.84702030  0.16013399  0.25000000
   0.68958141  0.84456186  0.25000000
   0.84718643  0.68688763  0.25000000
Direct configuration=     3
   0.33832472  0.66917524  0.25000000
   0.67168053  0.33581925  0.25000000
   0.16356634  0.32000610  0.25000000
   0.32248609  0.16145782  0.25000000
   0.16396197  0.84396221  0.25000000
   0.84603513  0.16103798  0.25000000
   0.68751212  0.84354414  0.25000000
   0.84642910  0.68499326  0.25000000
Direct configuration=     4
   0.33832462  0.66917518  0.25000000
   0.67168052  0.33581937  0.25000000
   0.16356512  0.32000292  0.25000000
   0.32248290  0.16145618  0.25000000
   0.16396034  0.84396372  0.25000000
   0.84603672  0.16103652  0.25000000
   0.68751546  0.84354579  0.25000000
   0.84643033  0.68499632  0.25000000
Direct configuration=     5
   0.33832467  0.66917521  0.25000000
   0.67168052  0.33581931  0.25000000
   0.16356573  0.32000452  0.25000000
   0.32248450  0.16145700  0.25000000
   0.16396116  0.84396296  0.25000000
   0.84603592  0.16103725  0.25000000
   0.68751378  0.84354496  0.25000000
   0.84642971  0.68499478  0.25000000
Direct configuration=     6
   0.33832469  0.66917522  0.25000000
   0.67168053  0.33581929  0.25000000
   0.16356595  0.32000510  0.25000000
   0.32248508  0.16145730  0.25000000
   0.16396146  0.84396269  0.25000000
   0.84603563  0.16103752  0.25000000
   0.68751317  0.84354466  0.25000000
   0.84642949  0.68499422  0.25000000
Direct configuration=     7
   0.33832471  0.66917524  0.25000000
   0.67168053  0.33581926  0.25000000
   0.16356624  0.32000584  0.25000000
   0.32248582  0.16145768  0.25000000
   0.16396184  0.84396233  0.25000000
   0.84603526  0.16103786  0.25000000
   0.68751239  0.84354428  0.25000000
   0.84642920  0.68499351  0.25000000
Direct configuration=     8
   0.33835314  0.66917131  0.25000000
   0.67163666  0.33583233  0.25000000
   0.16358033  0.31999301  0.25000000
   0.32253392  0.16135678  0.25000000
   0.16380657  0.84385762  0.25000000
   0.84619576  0.16114372  0.25000000
   0.68746592  0.84363891  0.25000000
   0.84642369  0.68500233  0.25000000
Direct configuration=     9
   0.33834031  0.66917308  0.25000000
   0.67165647  0.33582643  0.25000000
   0.16357397  0.31999880  0.25000000
   0.32251221  0.16140233  0.25000000
   0.16387667  0.84390489  0.25000000
   0.84612330  0.16109593  0.25000000
   0.68748690  0.84359619  0.25000000
   0.84642618  0.68499835  0.25000000
Direct configuration=    10
   0.33833487  0.66916866  0.25000000
   0.67165614  0.33583404  0.25000000
   0.16365751  0.31999829  0.25000000
   0.32250598  0.16133133  0.25000000
   0.16381908  0.84383355  0.25000000
   0.84618248  0.16116721  0.25000000
   0.68749395  0.84366485  0.25000000
   0.84634598  0.68499808  0.25000000
Direct configuration=    11
   0.33832875  0.66916367  0.25000000
   0.67165578  0.33584261  0.25000000
   0.16375167  0.31999770  0.25000000
   0.32249897  0.16125130  0.25000000
   0.16375418  0.84375315  0.25000000
   0.84624917  0.16124754  0.25000000
   0.68750191  0.84374225  0.25000000
   0.84625558  0.68499777  0.25000000
Direct configuration=    12
   0.33833429  0.66916509  0.25000000
   0.67166623  0.33583189  0.25000000
   0.16374450  0.31999618  0.25000000
   0.32249627  0.16124831  0.25000000
   0.16375223  0.84375043  0.25000000
   0.84624622  0.16124932  0.25000000
   0.68750324  0.84375209  0.25000000
   0.84625302  0.68500269  0.25000000
