   8   8   0   4
  0.4338553E+02  0.5169000E-09  0.5169000E-09  0.1500000E-08  0.5000000E-15
  1.000000000000000E-004
  CAR 
 Lattice                                 
      6.50015069    -21.14125421  301     -3.47864561      1.00000000
    -21.141  0.0000E+00  0.0000E+00
    -21.049  0.0000E+00  0.0000E+00
    -20.957  0.0000E+00  0.0000E+00
    -20.865  0.0000E+00  0.0000E+00
    -20.773  0.0000E+00  0.0000E+00
    -20.681  0.0000E+00  0.0000E+00
    -20.588  0.0000E+00  0.0000E+00
    -20.496  0.0000E+00  0.0000E+00
    -20.404  0.1549E-15  0.1427E-16
    -20.312  0.1345E-11  0.1240E-12
    -20.220  0.2339E-08  0.2156E-09
    -20.128  0.8375E-06  0.7738E-07
    -20.036  0.6515E-04  0.6080E-05
    -19.943  0.1214E-02  0.1180E-03
    -19.851  0.6426E-02  0.7100E-03
    -19.759  0.1299E-01  0.1907E-02
    -19.667  0.1589E-01  0.3371E-02
    -19.575  0.1759E-01  0.4992E-02
    -19.483  0.2033E-01  0.6865E-02
    -19.391  0.2638E-01  0.9295E-02
    -19.298  0.3387E-01  0.1242E-01
    -19.206  0.2598E-01  0.1481E-01
    -19.114  0.8026E-02  0.1555E-01
    -19.022  0.7963E-03  0.1562E-01
    -18.930  0.2128E-04  0.1562E-01
    -18.838  0.1325E-06  0.1562E-01
    -18.746  0.1739E-09  0.1562E-01
    -18.654  0.4546E-13  0.1562E-01
    -18.561  0.2005E-17  0.1562E-01
    -18.469  0.0000E+00  0.1562E-01
    -18.377  0.0000E+00  0.1562E-01
    -18.285  0.0000E+00  0.1562E-01
    -18.193  0.0000E+00  0.1562E-01
    -18.101  0.5166E-14  0.1563E-01
    -18.009  0.2969E-10  0.1563E-01
    -17.916  0.3279E-07  0.1563E-01
    -17.824  0.7174E-05  0.1563E-01
    -17.732  0.3320E-03  0.1566E-01
    -17.640  0.3763E-02  0.1600E-01
    -17.548  0.1362E-01  0.1726E-01
    -17.456  0.2253E-01  0.1933E-01
    -17.364  0.2517E-01  0.2165E-01
    -17.271  0.2053E-01  0.2354E-01
    -17.179  0.1514E-01  0.2494E-01
    -17.087  0.1436E-01  0.2626E-01
    -16.995  0.1462E-01  0.2761E-01
    -16.903  0.1631E-01  0.2911E-01
    -16.811  0.1521E-01  0.3051E-01
    -16.719  0.1819E-01  0.3219E-01
    -16.626  0.1904E-01  0.3394E-01
    -16.534  0.2402E-01  0.3616E-01
    -16.442  0.2681E-01  0.3863E-01
    -16.350  0.2614E-01  0.4104E-01
    -16.258  0.2084E-01  0.4296E-01
    -16.166  0.1595E-01  0.4443E-01
    -16.074  0.1362E-01  0.4568E-01
    -15.982  0.9409E-02  0.4655E-01
    -15.889  0.3155E-02  0.4684E-01
    -15.797  0.3917E-03  0.4687E-01
    -15.705  0.1357E-04  0.4687E-01
    -15.613  0.1102E-06  0.4687E-01
    -15.521  0.1916E-09  0.4687E-01
    -15.429  0.6763E-13  0.4687E-01
    -15.337  0.4456E-17  0.4687E-01
    -15.244  0.0000E+00  0.4687E-01
    -15.152  0.0000E+00  0.4687E-01
    -15.060  0.0000E+00  0.4687E-01
    -14.968  0.0000E+00  0.4687E-01
    -14.876  0.0000E+00  0.4687E-01
    -14.784  0.0000E+00  0.4687E-01
    -14.692  0.1503E-14  0.4688E-01
    -14.599  0.9615E-11  0.4688E-01
    -14.507  0.1186E-07  0.4688E-01
    -14.415  0.2909E-05  0.4688E-01
    -14.323  0.1509E-03  0.4689E-01
    -14.231  0.1866E-02  0.4706E-01
    -14.139  0.7372E-02  0.4774E-01
    -14.047  0.1532E-01  0.4915E-01
    -13.954  0.1921E-01  0.5092E-01
    -13.862  0.1729E-01  0.5251E-01
    -13.770  0.2253E-01  0.5459E-01
    -13.678  0.3301E-01  0.5763E-01
    -13.586  0.2223E-01  0.5968E-01
    -13.494  0.9730E-02  0.6058E-01
    -13.402  0.1131E-01  0.6162E-01
    -13.310  0.1527E-01  0.6303E-01
    -13.217  0.1276E-01  0.6420E-01
    -13.125  0.8663E-02  0.6500E-01
    -13.033  0.7472E-02  0.6569E-01
    -12.941  0.9821E-02  0.6659E-01
    -12.849  0.1442E-01  0.6792E-01
    -12.757  0.1268E-01  0.6909E-01
    -12.665  0.8707E-02  0.6989E-01
    -12.572  0.1393E-01  0.7117E-01
    -12.480  0.2137E-01  0.7314E-01
    -12.388  0.1550E-01  0.7457E-01
    -12.296  0.6541E-02  0.7517E-01
    -12.204  0.1246E-01  0.7632E-01
    -12.112  0.1644E-01  0.7784E-01
    -12.020  0.9835E-02  0.7874E-01
    -11.927  0.6425E-02  0.7933E-01
    -11.835  0.7976E-02  0.8007E-01
    -11.743  0.7656E-02  0.8077E-01
    -11.651  0.4935E-02  0.8123E-01
    -11.559  0.2770E-02  0.8148E-01
    -11.467  0.6709E-03  0.8155E-01
    -11.375  0.1114E-02  0.8165E-01
    -11.282  0.6347E-02  0.8223E-01
    -11.190  0.9779E-02  0.8314E-01
    -11.098  0.7607E-02  0.8384E-01
    -11.006  0.5188E-02  0.8431E-01
    -10.914  0.3230E-02  0.8461E-01
    -10.822  0.7352E-02  0.8529E-01
    -10.730  0.1392E-01  0.8657E-01
    -10.638  0.1796E-01  0.8823E-01
    -10.545  0.1335E-01  0.8946E-01
    -10.453  0.1454E-01  0.9080E-01
    -10.361  0.1557E-01  0.9223E-01
    -10.269  0.1269E-01  0.9340E-01
    -10.177  0.1706E-01  0.9497E-01
    -10.085  0.1415E-01  0.9628E-01
     -9.993  0.9256E-02  0.9713E-01
     -9.900  0.1845E-01  0.9883E-01
     -9.808  0.2376E-01  0.1010E+00
     -9.716  0.1456E-01  0.1024E+00
     -9.624  0.1276E-01  0.1035E+00
     -9.532  0.1871E-01  0.1053E+00
     -9.440  0.1707E-01  0.1068E+00
     -9.348  0.1580E-01  0.1083E+00
     -9.255  0.1683E-01  0.1098E+00
     -9.163  0.1760E-01  0.1115E+00
     -9.071  0.1649E-01  0.1130E+00
     -8.979  0.1324E-01  0.1142E+00
     -8.887  0.1656E-01  0.1157E+00
     -8.795  0.2343E-01  0.1179E+00
     -8.703  0.2405E-01  0.1201E+00
     -8.610  0.2334E-01  0.1223E+00
     -8.518  0.2009E-01  0.1241E+00
     -8.426  0.2061E-01  0.1260E+00
     -8.334  0.1835E-01  0.1277E+00
     -8.242  0.1529E-01  0.1291E+00
     -8.150  0.1609E-01  0.1306E+00
     -8.058  0.1884E-01  0.1323E+00
     -7.966  0.2228E-01  0.1344E+00
     -7.873  0.2724E-01  0.1369E+00
     -7.781  0.3827E-01  0.1404E+00
     -7.689  0.3436E-01  0.1436E+00
     -7.597  0.2928E-01  0.1463E+00
     -7.505  0.2857E-01  0.1489E+00
     -7.413  0.2084E-01  0.1508E+00
     -7.321  0.1563E-01  0.1523E+00
     -7.228  0.1354E-01  0.1535E+00
     -7.136  0.1367E-01  0.1548E+00
     -7.044  0.1622E-01  0.1563E+00
     -6.952  0.1709E-01  0.1578E+00
     -6.860  0.1119E-01  0.1589E+00
     -6.768  0.7682E-02  0.1596E+00
     -6.676  0.1572E-01  0.1610E+00
     -6.583  0.2976E-01  0.1638E+00
     -6.491  0.3210E-01  0.1667E+00
     -6.399  0.5021E-01  0.1714E+00
     -6.307  0.6252E-01  0.1771E+00
     -6.215  0.5006E-01  0.1817E+00
     -6.123  0.3676E-01  0.1851E+00
     -6.031  0.2493E-01  0.1874E+00
     -5.938  0.1971E-01  0.1892E+00
     -5.846  0.1389E-01  0.1905E+00
     -5.754  0.1893E-01  0.1923E+00
     -5.662  0.2058E-01  0.1941E+00
     -5.570  0.2248E-01  0.1962E+00
     -5.478  0.2121E-01  0.1982E+00
     -5.386  0.1716E-01  0.1998E+00
     -5.294  0.2206E-01  0.2018E+00
     -5.201  0.2548E-01  0.2041E+00
     -5.109  0.3109E-01  0.2070E+00
     -5.017  0.3051E-01  0.2098E+00
     -4.925  0.2832E-01  0.2124E+00
     -4.833  0.3605E-01  0.2157E+00
     -4.741  0.4085E-01  0.2195E+00
     -4.649  0.3233E-01  0.2225E+00
     -4.556  0.3084E-01  0.2253E+00
     -4.464  0.2809E-01  0.2279E+00
     -4.372  0.1295E-01  0.2291E+00
     -4.280  0.7265E-02  0.2298E+00
     -4.188  0.1200E-01  0.2309E+00
     -4.096  0.1025E-01  0.2318E+00
     -4.004  0.7506E-02  0.2325E+00
     -3.911  0.8863E-02  0.2333E+00
     -3.819  0.7368E-02  0.2340E+00
     -3.727  0.3305E-02  0.2343E+00
     -3.635  0.5952E-03  0.2344E+00
     -3.543  0.3320E-04  0.2344E+00
     -3.451  0.5317E-06  0.2344E+00
     -3.359  0.9618E-05  0.2344E+00
     -3.266  0.3161E-03  0.2344E+00
     -3.174  0.2486E-02  0.2346E+00
     -3.082  0.5956E-02  0.2352E+00
     -2.990  0.9730E-02  0.2361E+00
     -2.898  0.1652E-01  0.2376E+00
     -2.806  0.1535E-01  0.2390E+00
     -2.714  0.1310E-01  0.2402E+00
     -2.622  0.1713E-01  0.2418E+00
     -2.529  0.2512E-01  0.2441E+00
     -2.437  0.1773E-01  0.2457E+00
     -2.345  0.9154E-02  0.2466E+00
     -2.253  0.5480E-02  0.2471E+00
     -2.161  0.5796E-02  0.2476E+00
     -2.069  0.9940E-02  0.2485E+00
     -1.977  0.7060E-02  0.2492E+00
     -1.884  0.2364E-02  0.2494E+00
     -1.792  0.4859E-03  0.2495E+00
     -1.700  0.1522E-02  0.2496E+00
     -1.608  0.2916E-02  0.2499E+00
     -1.516  0.1287E-02  0.2500E+00
     -1.424  0.1265E-03  0.2500E+00
     -1.332  0.4190E-05  0.2500E+00
     -1.239  0.8969E-04  0.2500E+00
     -1.147  0.1077E-02  0.2501E+00
     -1.055  0.2866E-02  0.2504E+00
     -0.963  0.1744E-02  0.2505E+00
     -0.871  0.3507E-03  0.2506E+00
     -0.779  0.1519E-02  0.2507E+00
     -0.687  0.5898E-02  0.2512E+00
     -0.594  0.7619E-02  0.2520E+00
     -0.502  0.4186E-02  0.2523E+00
     -0.410  0.3258E-02  0.2526E+00
     -0.318  0.3627E-02  0.2530E+00
     -0.226  0.1559E-01  0.2544E+00
     -0.134  0.2875E-01  0.2571E+00
     -0.042  0.2123E-01  0.2590E+00
      0.050  0.1516E-01  0.2604E+00
      0.143  0.1252E-01  0.2616E+00
      0.235  0.1178E-01  0.2626E+00
      0.327  0.1215E-01  0.2638E+00
      0.419  0.1320E-01  0.2650E+00
      0.511  0.1275E-01  0.2662E+00
      0.603  0.1078E-01  0.2672E+00
      0.695  0.7591E-02  0.2678E+00
      0.788  0.8384E-02  0.2686E+00
      0.880  0.1060E-01  0.2696E+00
      0.972  0.1589E-01  0.2711E+00
      1.064  0.1520E-01  0.2725E+00
      1.156  0.1229E-01  0.2736E+00
      1.248  0.1364E-01  0.2749E+00
      1.340  0.1947E-01  0.2766E+00
      1.433  0.1996E-01  0.2785E+00
      1.525  0.1301E-01  0.2797E+00
      1.617  0.1621E-01  0.2812E+00
      1.709  0.2163E-01  0.2832E+00
      1.801  0.1960E-01  0.2850E+00
      1.893  0.1884E-01  0.2867E+00
      1.985  0.2311E-01  0.2888E+00
      2.078  0.2926E-01  0.2915E+00
      2.170  0.2445E-01  0.2938E+00
      2.262  0.1896E-01  0.2955E+00
      2.354  0.2197E-01  0.2976E+00
      2.446  0.3111E-01  0.3004E+00
      2.538  0.3875E-01  0.3040E+00
      2.630  0.3902E-01  0.3076E+00
      2.722  0.2522E-01  0.3099E+00
      2.815  0.1985E-01  0.3117E+00
      2.907  0.2650E-01  0.3142E+00
      2.999  0.3470E-01  0.3174E+00
      3.091  0.3742E-01  0.3208E+00
      3.183  0.2998E-01  0.3236E+00
      3.275  0.2487E-01  0.3259E+00
      3.367  0.2627E-01  0.3283E+00
      3.460  0.2778E-01  0.3309E+00
      3.552  0.3596E-01  0.3342E+00
      3.644  0.3498E-01  0.3374E+00
      3.736  0.2737E-01  0.3399E+00
      3.828  0.2248E-01  0.3420E+00
      3.920  0.2601E-01  0.3444E+00
      4.012  0.3801E-01  0.3479E+00
      4.105  0.3533E-01  0.3511E+00
      4.197  0.2483E-01  0.3534E+00
      4.289  0.1991E-01  0.3553E+00
      4.381  0.2633E-01  0.3577E+00
      4.473  0.3035E-01  0.3605E+00
      4.565  0.2743E-01  0.3630E+00
      4.657  0.2082E-01  0.3649E+00
      4.750  0.1731E-01  0.3665E+00
      4.842  0.2055E-01  0.3684E+00
      4.934  0.1933E-01  0.3702E+00
      5.026  0.1700E-01  0.3718E+00
      5.118  0.1471E-01  0.3731E+00
      5.210  0.1218E-01  0.3743E+00
      5.302  0.6541E-02  0.3749E+00
      5.394  0.1465E-02  0.3750E+00
      5.487  0.1044E-03  0.3750E+00
      5.579  0.1804E-05  0.3750E+00
      5.671  0.6505E-08  0.3750E+00
      5.763  0.4603E-11  0.3750E+00
      5.855  0.6219E-15  0.3750E+00
      5.947  0.0000E+00  0.3750E+00
      6.039  0.0000E+00  0.3750E+00
      6.132  0.0000E+00  0.3750E+00
      6.224  0.0000E+00  0.3750E+00
      6.316  0.0000E+00  0.3750E+00
      6.408  0.0000E+00  0.3750E+00
      6.500  0.0000E+00  0.3750E+00
