Lattice                                 
           1
     4.312807    2.490000    0.000000
    -4.312807    2.490000    0.000000
     0.000000    0.000000   15.000000
   B    C 
     8     8
Direct configuration=     1
   0.66888689  0.00000000  0.10000000
   0.33111211  0.00000000  0.10000000
   0.00000000  0.33111211  0.10000000
   0.00000000  0.66888689  0.10000000
   0.33111211  0.33111211  0.10000000
   0.66888689  0.66888689  0.10000000
   0.66666600  0.33333300  0.09922189
   0.33333300  0.66666600  0.10077811
   0.33333267  0.16666633  0.47060000
   0.49999967  0.99999933  0.47060000
   0.33333267  0.66666633  0.47060000
   0.49999967  0.49999933  0.47060000
   0.83333267  0.16666633  0.47060000
   0.99999967  0.99999933  0.47060000
   0.83333267  0.66666633  0.47060000
   0.99999967  0.49999933  0.47060000
Direct configuration=     2
   0.67055712  0.00000000  0.10002566
   0.32944188  0.00000000  0.10002566
  -0.00000000  0.32944188  0.10002566
  -0.00000000  0.67055712  0.10002566
   0.32944188  0.32944188  0.10002566
   0.67055712  0.67055712  0.10002566
   0.66666600  0.33333300  0.09924394
   0.33333300  0.66666600  0.10081327
   0.33332661  0.16666330  0.47057387
   0.50000087  0.00000174  0.47057335
   0.33333267  0.66666633  0.47057269
   0.50000087  0.49999813  0.47057335
   0.83333570  0.16666330  0.47057387
   0.99999967  0.99999933  0.47057448
   0.83333570  0.66667239  0.47057387
   0.99999726  0.49999813  0.47057335
Direct configuration=     3
   0.66974636  0.00000000  0.10001320
   0.33025264  0.00000000  0.10001320
  -0.00000000  0.33025264  0.10001320
  -0.00000000  0.66974636  0.10001320
   0.33025264  0.33025264  0.10001320
   0.66974636  0.66974636  0.10001320
   0.66666600  0.33333300  0.09923323
   0.33333300  0.66666600  0.10079620
   0.33332955  0.16666477  0.47058656
   0.50000028  0.00000057  0.47058629
   0.33333267  0.66666633  0.47058595
   0.50000028  0.49999872  0.47058629
   0.83333423  0.16666477  0.47058656
   0.99999967  0.99999933  0.47058687
   0.83333423  0.66666945  0.47058656
   0.99999843  0.49999872  0.47058629
Direct configuration=     4
   0.66975146  0.00000000  0.10001328
   0.33024755  0.00000000  0.10001328
  -0.00000000  0.33024754  0.10001328
  -0.00000000  0.66975145  0.10001328
   0.33024755  0.33024754  0.10001328
   0.66975146  0.66975145  0.10001328
   0.66666600  0.33333300  0.09923330
   0.33333300  0.66666600  0.10079631
   0.33332953  0.16666477  0.47058648
   0.50000029  0.00000058  0.47058620
   0.33333267  0.66666633  0.47058587
   0.50000029  0.49999871  0.47058620
   0.83333423  0.16666477  0.47058648
   0.99999967  0.99999933  0.47058679
   0.83333423  0.66666947  0.47058648
   0.99999842  0.49999871  0.47058620
Direct configuration=     5
   0.66974941  0.00000000  0.10001325
   0.33024959  0.00000000  0.10001325
  -0.00000000  0.33024959  0.10001325
  -0.00000000  0.66974941  0.10001325
   0.33024959  0.33024959  0.10001325
   0.66974941  0.66974941  0.10001325
   0.66666600  0.33333300  0.09923327
   0.33333300  0.66666600  0.10079627
   0.33332954  0.16666477  0.47058651
   0.50000029  0.00000057  0.47058624
   0.33333267  0.66666633  0.47058590
   0.50000029  0.49999871  0.47058624
   0.83333423  0.16666477  0.47058651
   0.99999967  0.99999933  0.47058682
   0.83333423  0.66666946  0.47058651
   0.99999843  0.49999871  0.47058624
Direct configuration=     6
   0.66974789  0.00000000  0.10001323
   0.33025112  0.00000000  0.10001323
  -0.00000000  0.33025111  0.10001323
  -0.00000000  0.66974788  0.10001323
   0.33025112  0.33025111  0.10001323
   0.66974789  0.66974788  0.10001323
   0.66666600  0.33333300  0.09923325
   0.33333300  0.66666600  0.10079624
   0.33332954  0.16666477  0.47058653
   0.50000029  0.00000057  0.47058626
   0.33333267  0.66666633  0.47058592
   0.50000029  0.49999871  0.47058626
   0.83333423  0.16666477  0.47058653
   0.99999967  0.99999933  0.47058684
   0.83333423  0.66666946  0.47058653
   0.99999843  0.49999871  0.47058626
Direct configuration=     7
   0.66974712  0.00000000  0.10001322
   0.33025188  0.00000000  0.10001322
  -0.00000000  0.33025188  0.10001322
  -0.00000000  0.66974712  0.10001322
   0.33025188  0.33025188  0.10001322
   0.66974712  0.66974712  0.10001322
   0.66666600  0.33333300  0.09923324
   0.33333300  0.66666600  0.10079622
   0.33332955  0.16666477  0.47058654
   0.50000029  0.00000057  0.47058627
   0.33333267  0.66666633  0.47058594
   0.50000029  0.49999871  0.47058627
   0.83333423  0.16666477  0.47058654
   0.99999967  0.99999933  0.47058685
   0.83333423  0.66666945  0.47058654
   0.99999843  0.49999871  0.47058627
Direct configuration=     8
   0.66974710 -0.00000002  0.10003663
   0.33025188 -0.00000002  0.10003663
   0.00000002  0.33025190  0.10003663
   0.00000002  0.66974712  0.10003663
   0.33025188  0.33025190  0.10003663
   0.66974710  0.66974712  0.10003663
   0.66666600  0.33333300  0.09925606
   0.33333300  0.66666600  0.10082470
   0.33333412  0.16666706  0.47056277
   0.49999935 -0.00000130  0.47056211
   0.33333267  0.66666633  0.47056135
   0.49999935  0.49999965  0.47056211
   0.83333194  0.16666706  0.47056277
   0.99999967  0.99999933  0.47056346
   0.83333194  0.66666488  0.47056277
   0.00000030  0.49999965  0.47056211
Direct configuration=     9
   0.66974705 -0.00000008  0.10010688
   0.33025187 -0.00000008  0.10010688
   0.00000008  0.33025195  0.10010688
   0.00000008  0.66974713  0.10010688
   0.33025187  0.33025195  0.10010688
   0.66974705  0.66974713  0.10010688
   0.66666600  0.33333300  0.09932449
   0.33333300  0.66666600  0.10091015
   0.33334783  0.16667392  0.47049143
   0.49999655 -0.00000691  0.47048963
   0.33333267  0.66666633  0.47048760
   0.49999655  0.50000245  0.47048963
   0.83332508  0.16667392  0.47049143
   0.99999967  0.99999933  0.47049329
   0.83332508  0.66665117  0.47049143
   0.00000591  0.50000245  0.47048963
Direct configuration=    10
   0.66974694 -0.00000019  0.10024738
   0.33025187 -0.00000019  0.10024738
   0.00000019  0.33025206  0.10024738
   0.00000019  0.66974713  0.10024738
   0.33025187  0.33025206  0.10024738
   0.66974694  0.66974713  0.10024738
   0.66666600  0.33333300  0.09946137
   0.33333300  0.66666600  0.10108105
   0.33337526  0.16668763  0.47034877
   0.49999094 -0.00001812  0.47034465
   0.33333267  0.66666633  0.47034010
   0.49999094  0.50000806  0.47034465
   0.83331137  0.16668763  0.47034877
   0.99999967  0.99999933  0.47035296
   0.83331137  0.66662374  0.47034877
   0.00001712  0.50000806  0.47034465
Direct configuration=    11
   0.66974672 -0.00000042  0.10052837
   0.33025185 -0.00000042  0.10052837
   0.00000042  0.33025228  0.10052837
   0.00000042  0.66974715  0.10052837
   0.33025185  0.33025228  0.10052837
   0.66974672  0.66974715  0.10052837
   0.66666600  0.33333300  0.09973512
   0.33333300  0.66666600  0.10142285
   0.33343012  0.16671506  0.47006343
   0.49997973 -0.00004055  0.47005471
   0.33333267  0.66666633  0.47004509
   0.49997973  0.50001927  0.47005471
   0.83328394  0.16671506  0.47006343
   0.99999967  0.99999933  0.47007228
   0.83328394  0.66656888  0.47006343
   0.00003955  0.50001927  0.47005471
Direct configuration=    12
   0.66974628 -0.00000089  0.10109036
   0.33025183 -0.00000089  0.10109036
   0.00000089  0.33025272  0.10109036
   0.00000089  0.66974717  0.10109036
   0.33025183  0.33025272  0.10109036
   0.66974628  0.66974717  0.10109036
   0.66666600  0.33333300  0.10028261
   0.33333300  0.66666600  0.10210644
   0.33353983  0.16676991  0.46949277
   0.49995730 -0.00008540  0.46947482
   0.33333267  0.66666633  0.46945507
   0.49995730  0.50004170  0.46947482
   0.83322909  0.16676991  0.46949277
   0.99999967  0.99999933  0.46951092
   0.83322909  0.66645917  0.46949277
   0.00008440  0.50004170  0.46947482
Direct configuration=    13
   0.66974541 -0.00000182  0.10221434
   0.33025177 -0.00000182  0.10221434
   0.00000182  0.33025359  0.10221434
   0.00000182  0.66974723  0.10221434
   0.33025177  0.33025359  0.10221434
   0.66974541  0.66974723  0.10221434
   0.66666600  0.33333300  0.10137760
   0.33333300  0.66666600  0.10347362
   0.33375925  0.16687963  0.46835144
   0.49991244 -0.00017512  0.46831505
   0.33333267  0.66666633  0.46827503
   0.49991244  0.50008656  0.46831505
   0.83311937  0.16687963  0.46835144
   0.99999967  0.99999933  0.46838822
   0.83311937  0.66623975  0.46835144
   0.00017412  0.50008656  0.46831505
Direct configuration=    14
   0.66974366 -0.00000368  0.10446230
   0.33025166 -0.00000368  0.10446230
   0.00000368  0.33025534  0.10446230
   0.00000368  0.66974734  0.10446230
   0.33025166  0.33025534  0.10446230
   0.66974366  0.66974734  0.10446230
   0.66666600  0.33333300  0.10356759
   0.33333300  0.66666600  0.10620799
   0.33419811  0.16709905  0.46606879
   0.49982273 -0.00035454  0.46599550
   0.33333267  0.66666633  0.46591496
   0.49982273  0.50017627  0.46599550
   0.83289995  0.16709905  0.46606879
   0.99999967  0.99999933  0.46614280
   0.83289995  0.66580089  0.46606879
   0.00035354  0.50017627  0.46599550
Direct configuration=    15
   0.66974016 -0.00000739  0.10895822
   0.33025145 -0.00000739  0.10895822
   0.00000739  0.33025884  0.10895822
   0.00000739  0.66974755  0.10895822
   0.33025145  0.33025884  0.10895822
   0.66974016  0.66974755  0.10895822
   0.66666600  0.33333300  0.10794756
   0.33333300  0.66666600  0.11167673
   0.33507581  0.16753790  0.46150348
   0.49964331 -0.00071339  0.46135641
   0.33333267  0.66666633  0.46119481
   0.49964331  0.50035569  0.46135641
   0.83246110  0.16753790  0.46150348
   0.99999967  0.99999933  0.46165196
   0.83246110  0.66492319  0.46150348
   0.00071239  0.50035569  0.46135641
Direct configuration=    16
   0.66973316 -0.00001483  0.11795005
   0.33025101 -0.00001483  0.11795005
   0.00001483  0.33026584  0.11795005
   0.00001483  0.66974799  0.11795005
   0.33025101  0.33026584  0.11795005
   0.66973316  0.66974799  0.11795005
   0.66666600  0.33333300  0.11670750
   0.33333300  0.66666600  0.12261421
   0.33683122  0.16841561  0.45237285
   0.49928446 -0.00143109  0.45207821
   0.33333267  0.66666633  0.45175452
   0.49928446  0.50071454  0.45207821
   0.83158339  0.16841561  0.45237285
   0.99999967  0.99999933  0.45267029
   0.83158339  0.66316778  0.45237285
   0.00143009  0.50071454  0.45207821
Direct configuration=    17
   0.66973316 -0.00001483  0.11795095
   0.33025101 -0.00001483  0.11795095
   0.00001483  0.33026584  0.11795095
   0.00001483  0.66974799  0.11795095
   0.33025101  0.33026584  0.11795095
   0.66973316  0.66974799  0.11795095
   0.66666600  0.33333300  0.11670837
   0.33333300  0.66666600  0.12261531
   0.33683128  0.16841564  0.45237194
   0.49928444 -0.00143111  0.45207729
   0.33333267  0.66666633  0.45175357
   0.49928444  0.50071456  0.45207729
   0.83158336  0.16841564  0.45237194
   0.99999967  0.99999933  0.45266939
   0.83158336  0.66316772  0.45237194
   0.00143011  0.50071456  0.45207729
Direct configuration=    18
   0.66973315 -0.00001483  0.11795365
   0.33025101 -0.00001483  0.11795365
   0.00001483  0.33026585  0.11795365
   0.00001483  0.66974799  0.11795365
   0.33025101  0.33026585  0.11795365
   0.66973315  0.66974799  0.11795365
   0.66666600  0.33333300  0.11671100
   0.33333300  0.66666600  0.12261859
   0.33683149  0.16841574  0.45236920
   0.49928440 -0.00143119  0.45207450
   0.33333267  0.66666633  0.45175075
   0.49928440  0.50071460  0.45207450
   0.83158326  0.16841574  0.45236920
   0.99999967  0.99999933  0.45266669
   0.83158326  0.66316751  0.45236920
   0.00143019  0.50071460  0.45207450
Direct configuration=    19
   0.66973314 -0.00001484  0.11795905
   0.33025101 -0.00001484  0.11795905
   0.00001484  0.33026586  0.11795905
   0.00001484  0.66974799  0.11795905
   0.33025101  0.33026586  0.11795905
   0.66973314  0.66974799  0.11795905
   0.66666600  0.33333300  0.11671625
   0.33333300  0.66666600  0.12262515
   0.33683190  0.16841595  0.45236371
   0.49928432 -0.00143135  0.45206894
   0.33333267  0.66666633  0.45174509
   0.49928432  0.50071468  0.45206894
   0.83158305  0.16841595  0.45236371
   0.99999967  0.99999933  0.45266128
   0.83158305  0.66316710  0.45236371
   0.00143035  0.50071468  0.45206894
Direct configuration=    20
   0.66973312 -0.00001487  0.11796985
   0.33025102 -0.00001487  0.11796985
   0.00001487  0.33026588  0.11796985
   0.00001487  0.66974798  0.11796985
   0.33025102  0.33026588  0.11796985
   0.66973312  0.66974798  0.11796985
   0.66666600  0.33333300  0.11672676
   0.33333300  0.66666600  0.12263827
   0.33683272  0.16841636  0.45235274
   0.49928416 -0.00143167  0.45205780
   0.33333267  0.66666633  0.45173378
   0.49928416  0.50071484  0.45205780
   0.83158264  0.16841636  0.45235274
   0.99999967  0.99999933  0.45265048
   0.83158264  0.66316628  0.45235274
   0.00143067  0.50071484  0.45205780
Direct configuration=    21
   0.66973307 -0.00001491  0.11799145
   0.33025102 -0.00001491  0.11799145
   0.00001491  0.33026593  0.11799145
   0.00001491  0.66974798  0.11799145
   0.33025102  0.33026593  0.11799145
   0.66973307  0.66974798  0.11799145
   0.66666600  0.33333300  0.11674777
   0.33333300  0.66666600  0.12266450
   0.33683436  0.16841718  0.45233081
   0.49928385 -0.00143231  0.45203554
   0.33333267  0.66666633  0.45171116
   0.49928385  0.50071515  0.45203554
   0.83158182  0.16841718  0.45233081
   0.99999967  0.99999933  0.45262886
   0.83158182  0.66316464  0.45233081
   0.00143131  0.50071515  0.45203554
Direct configuration=    22
   0.66973297 -0.00001499  0.11803464
   0.33025103 -0.00001499  0.11803464
   0.00001499  0.33026603  0.11803464
   0.00001499  0.66974797  0.11803464
   0.33025103  0.33026603  0.11803464
   0.66973297  0.66974797  0.11803464
   0.66666600  0.33333300  0.11678979
   0.33333300  0.66666600  0.12271698
   0.33683764  0.16841882  0.45228693
   0.49928321 -0.00143358  0.45199101
   0.33333267  0.66666633  0.45166592
   0.49928321  0.50071579  0.45199101
   0.83158018  0.16841882  0.45228693
   0.99999967  0.99999933  0.45258564
   0.83158018  0.66316136  0.45228693
   0.00143258  0.50071579  0.45199101
Direct configuration=    23
   0.66973278 -0.00001516  0.11812104
   0.33025105 -0.00001516  0.11812104
   0.00001516  0.33026622  0.11812104
   0.00001516  0.66974795  0.11812104
   0.33025105  0.33026622  0.11812104
   0.66973278  0.66974795  0.11812104
   0.66666600  0.33333300  0.11687382
   0.33333300  0.66666600  0.12282194
   0.33684421  0.16842210  0.45219918
   0.49928194 -0.00143612  0.45190195
   0.33333267  0.66666633  0.45157544
   0.49928194  0.50071706  0.45190195
   0.83157690  0.16842210  0.45219918
   0.99999967  0.99999933  0.45249919
   0.83157690  0.66315479  0.45219918
   0.00143512  0.50071706  0.45190195
Direct configuration=    24
   0.66973240 -0.00001551  0.11829384
   0.33025110 -0.00001551  0.11829384
   0.00001551  0.33026660  0.11829384
   0.00001551  0.66974790  0.11829384
   0.33025110  0.33026660  0.11829384
   0.66973240  0.66974790  0.11829384
   0.66666600  0.33333300  0.11704190
   0.33333300  0.66666600  0.12303184
   0.33685733  0.16842867  0.45202367
   0.49927940 -0.00144120  0.45172382
   0.33333267  0.66666633  0.45139447
   0.49927940  0.50071960  0.45172382
   0.83157033  0.16842867  0.45202367
   0.99999967  0.99999933  0.45232628
   0.83157033  0.66314167  0.45202367
   0.00144020  0.50071960  0.45172382
Direct configuration=    25
   0.66973163 -0.00001619  0.11863943
   0.33025118 -0.00001619  0.11863943
   0.00001619  0.33026737  0.11863943
   0.00001619  0.66974782  0.11863943
   0.33025118  0.33026737  0.11863943
   0.66973163  0.66974782  0.11863943
   0.66666600  0.33333300  0.11737805
   0.33333300  0.66666600  0.12345166
   0.33688359  0.16844179  0.45167266
   0.49927432 -0.00145136  0.45136757
   0.33333267  0.66666633  0.45103255
   0.49927432  0.50072468  0.45136757
   0.83155721  0.16844179  0.45167266
   0.99999967  0.99999933  0.45198048
   0.83155721  0.66311541  0.45167266
   0.00145036  0.50072468  0.45136757
Direct configuration=    26
   0.66973009 -0.00001755  0.11933060
   0.33025136 -0.00001755  0.11933060
   0.00001755  0.33026891  0.11933060
   0.00001755  0.66974764  0.11933060
   0.33025136  0.33026891  0.11933060
   0.66973009  0.66974764  0.11933060
   0.66666600  0.33333300  0.11805036
   0.33333300  0.66666600  0.12429129
   0.33693610  0.16846805  0.45097065
   0.49926416 -0.00147169  0.45065508
   0.33333267  0.66666633  0.45030869
   0.49926416  0.50073484  0.45065508
   0.83153095  0.16846805  0.45097065
   0.99999967  0.99999933  0.45128887
   0.83153095  0.66306290  0.45097065
   0.00147069  0.50073484  0.45065508
Direct configuration=    27
   0.66972702 -0.00002028  0.12071296
   0.33025170 -0.00002028  0.12071296
   0.00002028  0.33027198  0.12071296
   0.00002028  0.66974730  0.12071296
   0.33025170  0.33027198  0.12071296
   0.66972702  0.66974730  0.12071296
   0.66666600  0.33333300  0.11939496
   0.33333300  0.66666600  0.12597055
   0.33704111  0.16852056  0.44956661
   0.49924383 -0.00151234  0.44923009
   0.33333267  0.66666633  0.44886098
   0.49924383  0.50075517  0.44923009
   0.83147844  0.16852056  0.44956661
   0.99999967  0.99999933  0.44990564
   0.83147844  0.66295789  0.44956661
   0.00151134  0.50075517  0.44923009
Direct configuration=    28
   0.66972087 -0.00002574  0.12347767
   0.33025239 -0.00002574  0.12347767
   0.00002574  0.33027813  0.12347767
   0.00002574  0.66974661  0.12347767
   0.33025239  0.33027813  0.12347767
   0.66972087  0.66974661  0.12347767
   0.66666600  0.33333300  0.12208418
   0.33333300  0.66666600  0.12932908
   0.33725115  0.16862558  0.44675854
   0.49920318 -0.00159364  0.44638011
   0.33333267  0.66666633  0.44596557
   0.49920318  0.50079582  0.44638011
   0.83137342  0.16862558  0.44675854
   0.99999967  0.99999933  0.44713920
   0.83137342  0.66274785  0.44675854
   0.00159264  0.50079582  0.44638011
Direct configuration=    29
   0.66970858 -0.00003665  0.12900710
   0.33025377 -0.00003665  0.12900710
   0.00003665  0.33029042  0.12900710
   0.00003665  0.66974523  0.12900710
   0.33025377  0.33029042  0.12900710
   0.66970858  0.66974523  0.12900710
   0.66666600  0.33333300  0.12746261
   0.33333300  0.66666600  0.13604613
   0.33767122  0.16883561  0.44114239
   0.49912188 -0.00175625  0.44068014
   0.33333267  0.66666633  0.44017474
   0.49912188  0.50087712  0.44068014
   0.83116339  0.16883561  0.44114239
   0.99999967  0.99999933  0.44160631
   0.83116339  0.66232778  0.44114239
   0.00175525  0.50087712  0.44068014
Direct configuration=    30
   0.66968399 -0.00005849  0.14006596
   0.33025653 -0.00005849  0.14006596
   0.00005849  0.33031501  0.14006596
   0.00005849  0.66974247  0.14006596
   0.33025653  0.33031501  0.14006596
   0.66968399  0.66974247  0.14006596
   0.66666600  0.33333300  0.13821946
   0.33333300  0.66666600  0.14948023
   0.33851137  0.16925568  0.42991011
   0.49895927 -0.00208146  0.42928021
   0.33333267  0.66666633  0.42859307
   0.49895927  0.50103973  0.42928021
   0.83074332  0.16925568  0.42991011
   0.99999967  0.99999933  0.43054053
   0.83074332  0.66148763  0.42991011
   0.00208046  0.50103973  0.42928021
Direct configuration=    31
   0.66963481 -0.00010215  0.16218367
   0.33026204 -0.00010215  0.16218367
   0.00010215  0.33036419  0.16218367
   0.00010215  0.66973696  0.16218367
   0.33026204  0.33036419  0.16218367
   0.66963481  0.66973696  0.16218367
   0.66666600  0.33333300  0.15973318
   0.33333300  0.66666600  0.17634843
   0.34019166  0.17009583  0.40744553
   0.49863406 -0.00273188  0.40648035
   0.33333267  0.66666633  0.40542974
   0.49863406  0.50136494  0.40648035
   0.82990317  0.17009583  0.40744553
   0.99999967  0.99999933  0.40840897
   0.82990317  0.65980734  0.40744553
   0.00273088  0.50136494  0.40648035
Direct configuration=    32
   0.66958512 -0.00014436  0.16702511
   0.33026952 -0.00014436  0.16702511
   0.00014436  0.33041388  0.16702511
   0.00014436  0.66972948  0.16702511
   0.33026952  0.33041388  0.16702511
   0.66958512  0.66972948  0.16702511
   0.66666600  0.33333300  0.16442850
   0.33333300  0.66666600  0.18221000
   0.33995521  0.16997761  0.40252668
   0.49869317 -0.00261366  0.40150054
   0.33333267  0.66666633  0.40038118
   0.49869317  0.50130583  0.40150054
   0.83002139  0.16997761  0.40252668
   0.99999967  0.99999933  0.40354800
   0.83002139  0.66004379  0.40252668
   0.00261266  0.50130583  0.40150054
Direct configuration=    33
   0.66959275 -0.00013788  0.16628213
   0.33026837 -0.00013788  0.16628213
   0.00013788  0.33040625  0.16628213
   0.00013788  0.66973063  0.16628213
   0.33026837  0.33040625  0.16628213
   0.66959275  0.66973063  0.16628213
   0.66666600  0.33333300  0.16370795
   0.33333300  0.66666600  0.18131047
   0.33999150  0.16999575  0.40328154
   0.49868410 -0.00263180  0.40226475
   0.33333267  0.66666633  0.40115594
   0.49868410  0.50131490  0.40226475
   0.83000325  0.16999575  0.40328154
   0.99999967  0.99999933  0.40429398
   0.83000325  0.66000750  0.40328154
   0.00263080  0.50131490  0.40226475
Direct configuration=    34
   0.66955254 -0.00017171  0.16616228
   0.33027475 -0.00017171  0.16616228
   0.00017171  0.33044646  0.16616228
   0.00017171  0.66972425  0.16616228
   0.33027475  0.33044646  0.16616228
   0.66955254  0.66972425  0.16616228
   0.66666600  0.33333300  0.16357735
   0.33333300  0.66666600  0.18114490
   0.33943002  0.16971501  0.40340161
   0.49880536 -0.00238927  0.40239986
   0.33333267  0.66666633  0.40130292
   0.49880536  0.50119364  0.40239986
   0.83028399  0.16971501  0.40340161
   0.99999967  0.99999933  0.40439676
   0.83028399  0.66056898  0.40340161
   0.00238827  0.50119364  0.40239986
Direct configuration=    35
   0.66943191 -0.00027320  0.16580271
   0.33029389 -0.00027320  0.16580271
   0.00027320  0.33056709  0.16580271
   0.00027320  0.66970511  0.16580271
   0.33029389  0.33056709  0.16580271
   0.66943191  0.66970511  0.16580271
   0.66666600  0.33333300  0.16318554
   0.33333300  0.66666600  0.18064817
   0.33774557  0.16887279  0.40376182
   0.49916916 -0.00166169  0.40280520
   0.33333267  0.66666633  0.40174383
   0.49916916  0.50082984  0.40280520
   0.83112621  0.16887279  0.40376182
   0.99999967  0.99999933  0.40470510
   0.83112621  0.66225343  0.40376182
   0.00166069  0.50082984  0.40280520
Direct configuration=    36
   0.66919065 -0.00047618  0.16508358
   0.33033218 -0.00047618  0.16508358
   0.00047618  0.33080835  0.16508358
   0.00047618  0.66966682  0.16508358
   0.33033218  0.33080835  0.16508358
   0.66919065  0.66966682  0.16508358
   0.66666600  0.33333300  0.16240194
   0.33333300  0.66666600  0.17965471
   0.33437668  0.16718834  0.40448224
   0.49989674 -0.00020653  0.40361589
   0.33333267  0.66666633  0.40262567
   0.49989674  0.50010226  0.40361589
   0.83281066  0.16718834  0.40448224
   0.99999967  0.99999933  0.40532179
   0.83281066  0.66562232  0.40448224
   0.00020553  0.50010226  0.40361589
Direct configuration=    37
   0.66911380 -0.00054083  0.16485452
   0.33034437 -0.00054083  0.16485452
   0.00054083  0.33088520  0.16485452
   0.00054083  0.66965463  0.16485452
   0.33034437  0.33088520  0.16485452
   0.66911380  0.66965463  0.16485452
   0.66666600  0.33333300  0.16215234
   0.33333300  0.66666600  0.17933827
   0.33330360  0.16665180  0.40471172
   0.50012849  0.00025698  0.40387411
   0.33333267  0.66666633  0.40290656
   0.50012849  0.49987051  0.40387411
   0.83334720  0.16665180  0.40471172
   0.99999967  0.99999933  0.40551822
   0.83334720  0.66669540  0.40471172
  -0.00025798  0.49987051  0.40387411
Direct configuration=    38
   0.66911533 -0.00053954  0.16485910
   0.33034413 -0.00053954  0.16485910
   0.00053954  0.33088367  0.16485910
   0.00053954  0.66965487  0.16485910
   0.33034413  0.33088367  0.16485910
   0.66911533  0.66965487  0.16485910
   0.66666600  0.33333300  0.16215733
   0.33333300  0.66666600  0.17934459
   0.33332505  0.16666252  0.40470713
   0.50012386  0.00024772  0.40386895
   0.33333267  0.66666633  0.40290094
   0.50012386  0.49987514  0.40386895
   0.83333648  0.16666252  0.40470713
   0.99999967  0.99999933  0.40551429
   0.83333648  0.66667395  0.40470713
  -0.00024872  0.49987514  0.40386895
Direct configuration=    39
   0.66907533 -0.00055484  0.16486696
   0.33036884 -0.00055484  0.16486696
   0.00055484  0.33092367  0.16486696
   0.00055484  0.66963016  0.16486696
   0.33036884  0.33092367  0.16486696
   0.66907533  0.66963016  0.16486696
   0.66666600  0.33333300  0.16212246
   0.33333300  0.66666600  0.17929959
   0.33331465  0.16665732  0.40469368
   0.50010306  0.00020612  0.40389164
   0.33333267  0.66666633  0.40295634
   0.50010306  0.49989594  0.40389164
   0.83334168  0.16665732  0.40469368
   0.99999967  0.99999933  0.40546392
   0.83334168  0.66668435  0.40469368
  -0.00020712  0.49989594  0.40389164
Direct configuration=    40
   0.66895530 -0.00060073  0.16489052
   0.33044297 -0.00060073  0.16489052
   0.00060073  0.33104370  0.16489052
   0.00060073  0.66955603  0.16489052
   0.33044297  0.33104370  0.16489052
   0.66895530  0.66955603  0.16489052
   0.66666600  0.33333300  0.16201783
   0.33333300  0.66666600  0.17916458
   0.33328345  0.16664173  0.40465331
   0.50004067  0.00008134  0.40395974
   0.33333267  0.66666633  0.40312252
   0.50004067  0.49995833  0.40395974
   0.83335727  0.16664173  0.40465331
   0.99999967  0.99999933  0.40531282
   0.83335727  0.66671555  0.40465331
  -0.00008234  0.49995833  0.40395974
Direct configuration=    41
   0.66871526 -0.00069252  0.16493764
   0.33059123 -0.00069252  0.16493764
   0.00069252  0.33128374  0.16493764
   0.00069252  0.66940777  0.16493764
   0.33059123  0.33128374  0.16493764
   0.66871526  0.66940777  0.16493764
   0.66666600  0.33333300  0.16180858
   0.33333300  0.66666600  0.17889455
   0.33322105  0.16661053  0.40457258
   0.49991589 -0.00016823  0.40409592
   0.33333267  0.66666633  0.40345488
   0.49991589  0.50008311  0.40409592
   0.83338847  0.16661053  0.40457258
   0.99999967  0.99999933  0.40501061
   0.83338847  0.66677795  0.40457258
   0.00016723  0.50008311  0.40409592
Direct configuration=    42
   0.66823516 -0.00087609  0.16503189
   0.33088775 -0.00087609  0.16503189
   0.00087609  0.33176384  0.16503189
   0.00087609  0.66911125  0.16503189
   0.33088775  0.33176384  0.16503189
   0.66823516  0.66911125  0.16503189
   0.66666600  0.33333300  0.16139009
   0.33333300  0.66666600  0.17835451
   0.33309626  0.16654813  0.40441112
   0.49966632 -0.00066736  0.40436829
   0.33333267  0.66666633  0.40411961
   0.49966632  0.50033268  0.40436829
   0.83345087  0.16654813  0.40441112
   0.99999967  0.99999933  0.40440620
   0.83345087  0.66690274  0.40441112
   0.00066636  0.50033268  0.40436829
Direct configuration=    43
   0.66828570 -0.00081884  0.16505823
   0.33089446 -0.00081884  0.16505823
   0.00081884  0.33171330  0.16505823
   0.00081884  0.66910454  0.16505823
   0.33089446  0.33171330  0.16505823
   0.66828570  0.66910454  0.16505823
   0.66666600  0.33333300  0.16128913
   0.33333300  0.66666600  0.17823724
   0.33315844  0.16657922  0.40437993
   0.49974084 -0.00051831  0.40441584
   0.33333267  0.66666633  0.40424404
   0.49974084  0.50025816  0.40441584
   0.83341978  0.16657922  0.40437993
   0.99999967  0.99999933  0.40429291
   0.83341978  0.66684056  0.40437993
   0.00051731  0.50025816  0.40441584
Direct configuration=    44
   0.66843729 -0.00064711  0.16513724
   0.33091460 -0.00064711  0.16513724
   0.00064711  0.33156171  0.16513724
   0.00064711  0.66908440  0.16513724
   0.33091460  0.33156171  0.16513724
   0.66843729  0.66908440  0.16513724
   0.66666600  0.33333300  0.16098626
   0.33333300  0.66666600  0.17788545
   0.33334496  0.16667248  0.40428635
   0.49996442 -0.00007116  0.40455848
   0.33333267  0.66666633  0.40461734
   0.49996442  0.50003458  0.40455848
   0.83332652  0.16667248  0.40428635
   0.99999967  0.99999933  0.40395302
   0.83332652  0.66665404  0.40428635
   0.00007016  0.50003458  0.40455848
Direct configuration=    45
   0.66874048 -0.00030364  0.16529527
   0.33095488 -0.00030364  0.16529527
   0.00030364  0.33125852  0.16529527
   0.00030364  0.66904412  0.16529527
   0.33095488  0.33125852  0.16529527
   0.66874048  0.66904412  0.16529527
   0.66666600  0.33333300  0.16038051
   0.33333300  0.66666600  0.17718186
   0.33371801  0.16685900  0.40409918
   0.50041157  0.00082315  0.40484377
   0.33333267  0.66666633  0.40536394
   0.50041157  0.49958743  0.40484377
   0.83314000  0.16685900  0.40409918
   0.99999967  0.99999933  0.40327325
   0.83314000  0.66628099  0.40409918
  -0.00082415  0.49958743  0.40484377
Direct configuration=    46
   0.66852152 -0.00055169  0.16518114
   0.33092579 -0.00055169  0.16518114
   0.00055169  0.33147748  0.16518114
   0.00055169  0.66907321  0.16518114
   0.33092579  0.33147748  0.16518114
   0.66852152  0.66907321  0.16518114
   0.66666600  0.33333300  0.16081798
   0.33333300  0.66666600  0.17768999
   0.33344859  0.16672430  0.40423435
   0.50008864  0.00017728  0.40463773
   0.33333267  0.66666633  0.40482475
   0.50008864  0.49991036  0.40463773
   0.83327470  0.16672430  0.40423435
   0.99999967  0.99999933  0.40376418
   0.83327470  0.66655041  0.40423435
  -0.00017828  0.49991036  0.40463773
Direct configuration=    47
   0.66870603 -0.00048248  0.16520436
   0.33081049 -0.00048248  0.16520436
   0.00048248  0.33129297  0.16520436
   0.00048248  0.66918851  0.16520436
   0.33081049  0.33129297  0.16520436
   0.66870603  0.66918851  0.16520436
   0.66666600  0.33333300  0.16074874
   0.33333300  0.66666600  0.17762225
   0.33340788  0.16670394  0.40423846
   0.50006919  0.00013838  0.40463037
   0.33333267  0.66666633  0.40481750
   0.50006919  0.49992981  0.40463037
   0.83329506  0.16670394  0.40423846