  15  15   0  16
  0.2052257E+02  0.4868000E-09  0.4868000E-09  0.1500000E-08  0.5000000E-15
  1.000000000000000E-004
  CAR 
 Lattice                                 
     10.24705629    -21.61721886  301     -0.35844965      1.00000000
    -21.617  0.0000E+00  0.0000E+00  0.0000E+00  0.0000E+00
    -21.511  0.0000E+00  0.0000E+00  0.0000E+00  0.0000E+00
    -21.405  0.0000E+00  0.0000E+00  0.0000E+00  0.0000E+00
    -21.299  0.0000E+00  0.0000E+00  0.0000E+00  0.0000E+00
    -21.192  0.0000E+00  0.0000E+00  0.0000E+00  0.0000E+00
    -21.086  0.0000E+00  0.0000E+00  0.0000E+00  0.0000E+00
    -20.980  0.0000E+00  0.0000E+00  0.0000E+00  0.0000E+00
    -20.874  0.0000E+00  0.0000E+00  0.0000E+00  0.0000E+00
    -20.768  0.0000E+00  0.0000E+00  0.0000E+00  0.0000E+00
    -20.661  0.9057E-15  0.9057E-15  0.9620E-16  0.9620E-16
    -20.555  0.1415E-10  0.1415E-10  0.1503E-11  0.1503E-11
    -20.449  0.2720E-07  0.2720E-07  0.2890E-08  0.2890E-08
    -20.343  0.7061E-05  0.7061E-05  0.7528E-06  0.7528E-06
    -20.236  0.2760E-03  0.2760E-03  0.3007E-04  0.3007E-04
    -20.130  0.1989E-02  0.1989E-02  0.2413E-03  0.2413E-03
    -20.024  0.4174E-02  0.4174E-02  0.6847E-03  0.6847E-03
    -19.918  0.4557E-02  0.4557E-02  0.1169E-02  0.1169E-02
    -19.812  0.4961E-02  0.4961E-02  0.1696E-02  0.1696E-02
    -19.705  0.4199E-02  0.4199E-02  0.2142E-02  0.2142E-02
    -19.599  0.5415E-02  0.5415E-02  0.2717E-02  0.2717E-02
    -19.493  0.4227E-02  0.4227E-02  0.3166E-02  0.3166E-02
    -19.387  0.4329E-02  0.4329E-02  0.3626E-02  0.3626E-02
    -19.281  0.6027E-02  0.6027E-02  0.4266E-02  0.4266E-02
    -19.174  0.3798E-02  0.3798E-02  0.4669E-02  0.4669E-02
    -19.068  0.3980E-02  0.3980E-02  0.5092E-02  0.5092E-02
    -18.962  0.6160E-02  0.6160E-02  0.5746E-02  0.5746E-02
    -18.856  0.5185E-02  0.5185E-02  0.6297E-02  0.6297E-02
    -18.749  0.2945E-02  0.2945E-02  0.6610E-02  0.6610E-02
    -18.643  0.4556E-02  0.4556E-02  0.7094E-02  0.7094E-02
    -18.537  0.6914E-02  0.6914E-02  0.7828E-02  0.7828E-02
    -18.431  0.4528E-02  0.4528E-02  0.8309E-02  0.8309E-02
    -18.325  0.3778E-02  0.3778E-02  0.8710E-02  0.8710E-02
    -18.218  0.3087E-02  0.3087E-02  0.9038E-02  0.9038E-02
    -18.112  0.6824E-02  0.6824E-02  0.9763E-02  0.9763E-02
    -18.006  0.6499E-02  0.6499E-02  0.1045E-01  0.1045E-01
    -17.900  0.3443E-02  0.3443E-02  0.1082E-01  0.1082E-01
    -17.794  0.3398E-02  0.3398E-02  0.1118E-01  0.1118E-01
    -17.687  0.4184E-02  0.4184E-02  0.1162E-01  0.1162E-01
    -17.581  0.6427E-02  0.6427E-02  0.1231E-01  0.1231E-01
    -17.475  0.6741E-02  0.6741E-02  0.1302E-01  0.1302E-01
    -17.369  0.6077E-02  0.6077E-02  0.1367E-01  0.1367E-01
    -17.262  0.7416E-02  0.7416E-02  0.1446E-01  0.1446E-01
    -17.156  0.1095E-01  0.1095E-01  0.1562E-01  0.1562E-01
    -17.050  0.1510E-01  0.1510E-01  0.1722E-01  0.1722E-01
    -16.944  0.1617E-01  0.1617E-01  0.1894E-01  0.1894E-01
    -16.838  0.1854E-01  0.1854E-01  0.2091E-01  0.2091E-01
    -16.731  0.2133E-01  0.2133E-01  0.2317E-01  0.2317E-01
    -16.625  0.1308E-01  0.1308E-01  0.2456E-01  0.2456E-01
    -16.519  0.3792E-02  0.3792E-02  0.2497E-01  0.2497E-01
    -16.413  0.7779E-02  0.7779E-02  0.2579E-01  0.2579E-01
    -16.307  0.7738E-02  0.7738E-02  0.2661E-01  0.2661E-01
    -16.200  0.4520E-02  0.4520E-02  0.2709E-01  0.2709E-01
    -16.094  0.4104E-02  0.4104E-02  0.2753E-01  0.2753E-01
    -15.988  0.3988E-02  0.3988E-02  0.2795E-01  0.2795E-01
    -15.882  0.3644E-02  0.3644E-02  0.2834E-01  0.2834E-01
    -15.775  0.4130E-02  0.4130E-02  0.2878E-01  0.2878E-01
    -15.669  0.8615E-02  0.8615E-02  0.2969E-01  0.2969E-01
    -15.563  0.7511E-02  0.7511E-02  0.3049E-01  0.3049E-01
    -15.457  0.3822E-02  0.3822E-02  0.3090E-01  0.3090E-01
    -15.351  0.3862E-02  0.3862E-02  0.3131E-01  0.3131E-01
    -15.244  0.3556E-02  0.3556E-02  0.3169E-01  0.3169E-01
    -15.138  0.4847E-02  0.4847E-02  0.3220E-01  0.3220E-01
    -15.032  0.6793E-02  0.6793E-02  0.3292E-01  0.3292E-01
    -14.926  0.1262E-01  0.1262E-01  0.3426E-01  0.3426E-01
    -14.820  0.1795E-01  0.1795E-01  0.3617E-01  0.3617E-01
    -14.713  0.1887E-01  0.1887E-01  0.3817E-01  0.3817E-01
    -14.607  0.1627E-01  0.1627E-01  0.3990E-01  0.3990E-01
    -14.501  0.9369E-02  0.9369E-02  0.4090E-01  0.4090E-01
    -14.395  0.8911E-02  0.8911E-02  0.4184E-01  0.4184E-01
    -14.288  0.1628E-01  0.1628E-01  0.4357E-01  0.4357E-01
    -14.182  0.1430E-01  0.1430E-01  0.4509E-01  0.4509E-01
    -14.076  0.1122E-01  0.1122E-01  0.4628E-01  0.4628E-01
    -13.970  0.1066E-01  0.1066E-01  0.4742E-01  0.4742E-01
    -13.864  0.1443E-01  0.1443E-01  0.4895E-01  0.4895E-01
    -13.757  0.2018E-01  0.2018E-01  0.5109E-01  0.5109E-01
    -13.651  0.1893E-01  0.1893E-01  0.5310E-01  0.5310E-01
    -13.545  0.1686E-01  0.1686E-01  0.5489E-01  0.5489E-01
    -13.439  0.8800E-02  0.8800E-02  0.5583E-01  0.5583E-01
    -13.333  0.5987E-02  0.5987E-02  0.5646E-01  0.5646E-01
    -13.226  0.3411E-02  0.3411E-02  0.5683E-01  0.5683E-01
    -13.120  0.4368E-02  0.4368E-02  0.5729E-01  0.5729E-01
    -13.014  0.7216E-02  0.7216E-02  0.5806E-01  0.5806E-01
    -12.908  0.6602E-02  0.6602E-02  0.5876E-01  0.5876E-01
    -12.801  0.4953E-02  0.4953E-02  0.5928E-01  0.5928E-01
    -12.695  0.7405E-02  0.7405E-02  0.6007E-01  0.6007E-01
    -12.589  0.6848E-02  0.6848E-02  0.6080E-01  0.6080E-01
    -12.483  0.5499E-02  0.5499E-02  0.6138E-01  0.6138E-01
    -12.377  0.5293E-02  0.5293E-02  0.6194E-01  0.6194E-01
    -12.270  0.3212E-02  0.3212E-02  0.6229E-01  0.6229E-01
    -12.164  0.7159E-02  0.7159E-02  0.6305E-01  0.6305E-01
    -12.058  0.7684E-02  0.7684E-02  0.6386E-01  0.6386E-01
    -11.952  0.2892E-02  0.2892E-02  0.6417E-01  0.6417E-01
    -11.846  0.3468E-02  0.3468E-02  0.6454E-01  0.6454E-01
    -11.739  0.3590E-02  0.3590E-02  0.6492E-01  0.6492E-01
    -11.633  0.6719E-02  0.6719E-02  0.6563E-01  0.6563E-01
    -11.527  0.6233E-02  0.6233E-02  0.6629E-01  0.6629E-01
    -11.421  0.3256E-02  0.3256E-02  0.6664E-01  0.6664E-01
    -11.314  0.2188E-02  0.2188E-02  0.6687E-01  0.6687E-01
    -11.208  0.4853E-02  0.4853E-02  0.6739E-01  0.6739E-01
    -11.102  0.5801E-02  0.5801E-02  0.6800E-01  0.6800E-01
    -10.996  0.4992E-02  0.4992E-02  0.6853E-01  0.6853E-01
    -10.890  0.7479E-02  0.7479E-02  0.6933E-01  0.6933E-01
    -10.783  0.5943E-02  0.5943E-02  0.6996E-01  0.6996E-01
    -10.677  0.2838E-02  0.2838E-02  0.7026E-01  0.7026E-01
    -10.571  0.8654E-02  0.8654E-02  0.7118E-01  0.7118E-01
    -10.465  0.1404E-01  0.1404E-01  0.7267E-01  0.7267E-01
    -10.359  0.1522E-01  0.1522E-01  0.7429E-01  0.7429E-01
    -10.252  0.1378E-01  0.1378E-01  0.7575E-01  0.7575E-01
    -10.146  0.1532E-01  0.1532E-01  0.7738E-01  0.7738E-01
    -10.040  0.1901E-01  0.1901E-01  0.7940E-01  0.7940E-01
     -9.934  0.1764E-01  0.1764E-01  0.8127E-01  0.8127E-01
     -9.827  0.9217E-02  0.9217E-02  0.8225E-01  0.8225E-01
     -9.721  0.8147E-02  0.8147E-02  0.8312E-01  0.8312E-01
     -9.615  0.1470E-01  0.1470E-01  0.8468E-01  0.8468E-01
     -9.509  0.1454E-01  0.1454E-01  0.8622E-01  0.8622E-01
     -9.403  0.1665E-01  0.1665E-01  0.8799E-01  0.8799E-01
     -9.296  0.1611E-01  0.1611E-01  0.8970E-01  0.8970E-01
     -9.190  0.1362E-01  0.1362E-01  0.9115E-01  0.9115E-01
     -9.084  0.9917E-02  0.9917E-02  0.9220E-01  0.9220E-01
     -8.978  0.8878E-02  0.8878E-02  0.9315E-01  0.9315E-01
     -8.872  0.1663E-01  0.1663E-01  0.9491E-01  0.9491E-01
     -8.765  0.1948E-01  0.1948E-01  0.9698E-01  0.9698E-01
     -8.659  0.1357E-01  0.1357E-01  0.9842E-01  0.9842E-01
     -8.553  0.7805E-02  0.7805E-02  0.9925E-01  0.9925E-01
     -8.447  0.1311E-01  0.1311E-01  0.1006E+00  0.1006E+00
     -8.340  0.2011E-01  0.2011E-01  0.1028E+00  0.1028E+00
     -8.234  0.1563E-01  0.1563E-01  0.1044E+00  0.1044E+00
     -8.128  0.1264E-01  0.1264E-01  0.1058E+00  0.1058E+00
     -8.022  0.1790E-01  0.1790E-01  0.1077E+00  0.1077E+00
     -7.916  0.2516E-01  0.2516E-01  0.1104E+00  0.1104E+00
     -7.809  0.2543E-01  0.2543E-01  0.1131E+00  0.1131E+00
     -7.703  0.1686E-01  0.1686E-01  0.1148E+00  0.1148E+00
     -7.597  0.1000E-01  0.1000E-01  0.1159E+00  0.1159E+00
     -7.491  0.9098E-02  0.9098E-02  0.1169E+00  0.1169E+00
     -7.385  0.1820E-01  0.1820E-01  0.1188E+00  0.1188E+00
     -7.278  0.1819E-01  0.1819E-01  0.1207E+00  0.1207E+00
     -7.172  0.1255E-01  0.1255E-01  0.1221E+00  0.1221E+00
     -7.066  0.1030E-01  0.1030E-01  0.1232E+00  0.1232E+00
     -6.960  0.1623E-01  0.1623E-01  0.1249E+00  0.1249E+00
     -6.853  0.1925E-01  0.1925E-01  0.1269E+00  0.1269E+00
     -6.747  0.2143E-01  0.2143E-01  0.1292E+00  0.1292E+00
     -6.641  0.2066E-01  0.2066E-01  0.1314E+00  0.1314E+00
     -6.535  0.1664E-01  0.1664E-01  0.1332E+00  0.1332E+00
     -6.429  0.2083E-01  0.2083E-01  0.1354E+00  0.1354E+00
     -6.322  0.1837E-01  0.1837E-01  0.1373E+00  0.1373E+00
     -6.216  0.2032E-01  0.2032E-01  0.1395E+00  0.1395E+00
     -6.110  0.2675E-01  0.2675E-01  0.1423E+00  0.1423E+00
     -6.004  0.2224E-01  0.2224E-01  0.1447E+00  0.1447E+00
     -5.898  0.3136E-01  0.3136E-01  0.1480E+00  0.1480E+00
     -5.791  0.2884E-01  0.2884E-01  0.1511E+00  0.1511E+00
     -5.685  0.1729E-01  0.1729E-01  0.1529E+00  0.1529E+00
     -5.579  0.1927E-01  0.1927E-01  0.1550E+00  0.1550E+00
     -5.473  0.3405E-01  0.3405E-01  0.1586E+00  0.1586E+00
     -5.366  0.3634E-01  0.3634E-01  0.1625E+00  0.1625E+00
     -5.260  0.2077E-01  0.2077E-01  0.1647E+00  0.1647E+00
     -5.154  0.1497E-01  0.1497E-01  0.1663E+00  0.1663E+00
     -5.048  0.1083E-01  0.1083E-01  0.1674E+00  0.1674E+00
     -4.942  0.1283E-01  0.1283E-01  0.1688E+00  0.1688E+00
     -4.835  0.1354E-01  0.1354E-01  0.1702E+00  0.1702E+00
     -4.729  0.9232E-02  0.9232E-02  0.1712E+00  0.1712E+00
     -4.623  0.7128E-02  0.7128E-02  0.1719E+00  0.1719E+00
     -4.517  0.1049E-01  0.1049E-01  0.1731E+00  0.1731E+00
     -4.411  0.1986E-01  0.1986E-01  0.1752E+00  0.1752E+00
     -4.304  0.2230E-01  0.2230E-01  0.1775E+00  0.1775E+00
     -4.198  0.2005E-01  0.2005E-01  0.1797E+00  0.1797E+00
     -4.092  0.1748E-01  0.1748E-01  0.1815E+00  0.1815E+00
     -3.986  0.2114E-01  0.2114E-01  0.1838E+00  0.1838E+00
     -3.879  0.2260E-01  0.2260E-01  0.1862E+00  0.1862E+00
     -3.773  0.1819E-01  0.1819E-01  0.1881E+00  0.1881E+00
     -3.667  0.1942E-01  0.1942E-01  0.1902E+00  0.1902E+00
     -3.561  0.2043E-01  0.2043E-01  0.1923E+00  0.1923E+00
     -3.455  0.1575E-01  0.1575E-01  0.1940E+00  0.1940E+00
     -3.348  0.1295E-01  0.1295E-01  0.1954E+00  0.1954E+00
     -3.242  0.1224E-01  0.1224E-01  0.1967E+00  0.1967E+00
     -3.136  0.1767E-01  0.1767E-01  0.1986E+00  0.1986E+00
     -3.030  0.1816E-01  0.1816E-01  0.2005E+00  0.2005E+00
     -2.924  0.1174E-01  0.1174E-01  0.2017E+00  0.2017E+00
     -2.817  0.1207E-01  0.1207E-01  0.2030E+00  0.2030E+00
     -2.711  0.7753E-02  0.7753E-02  0.2038E+00  0.2038E+00
     -2.605  0.9946E-02  0.9946E-02  0.2049E+00  0.2049E+00
     -2.499  0.1881E-01  0.1881E-01  0.2069E+00  0.2069E+00
     -2.392  0.1539E-01  0.1539E-01  0.2085E+00  0.2085E+00
     -2.286  0.4284E-02  0.4284E-02  0.2090E+00  0.2090E+00
     -2.180  0.5429E-02  0.5429E-02  0.2096E+00  0.2096E+00
     -2.074  0.1087E-01  0.1087E-01  0.2107E+00  0.2107E+00
     -1.968  0.9875E-02  0.9875E-02  0.2118E+00  0.2118E+00
     -1.861  0.1126E-01  0.1126E-01  0.2130E+00  0.2130E+00
     -1.755  0.1123E-01  0.1123E-01  0.2141E+00  0.2141E+00
     -1.649  0.9773E-02  0.9773E-02  0.2152E+00  0.2152E+00
     -1.543  0.7217E-02  0.7217E-02  0.2160E+00  0.2160E+00
     -1.437  0.4031E-02  0.4031E-02  0.2164E+00  0.2164E+00
     -1.330  0.4258E-02  0.4258E-02  0.2168E+00  0.2168E+00
     -1.224  0.3978E-02  0.3978E-02  0.2173E+00  0.2173E+00
     -1.118  0.3894E-02  0.3894E-02  0.2177E+00  0.2177E+00
     -1.012  0.5766E-02  0.5766E-02  0.2183E+00  0.2183E+00
     -0.905  0.2810E-02  0.2810E-02  0.2186E+00  0.2186E+00
     -0.799  0.5354E-03  0.5354E-03  0.2186E+00  0.2186E+00
     -0.693  0.4762E-04  0.4762E-04  0.2186E+00  0.2186E+00
     -0.587  0.2087E-05  0.2087E-05  0.2186E+00  0.2186E+00
     -0.481  0.8565E-04  0.8565E-04  0.2187E+00  0.2187E+00
     -0.374  0.7532E-03  0.7532E-03  0.2187E+00  0.2187E+00
     -0.268  0.9955E-03  0.9955E-03  0.2188E+00  0.2188E+00
     -0.162  0.2017E-03  0.2017E-03  0.2189E+00  0.2189E+00
     -0.056  0.5703E-05  0.5703E-05  0.2189E+00  0.2189E+00
      0.050  0.4342E-06  0.4342E-06  0.2189E+00  0.2189E+00
      0.157  0.6265E-04  0.6265E-04  0.2189E+00  0.2189E+00
      0.263  0.1210E-02  0.1210E-02  0.2190E+00  0.2190E+00
      0.369  0.3349E-02  0.3349E-02  0.2193E+00  0.2193E+00
      0.475  0.1526E-02  0.1526E-02  0.2195E+00  0.2195E+00
      0.582  0.1340E-02  0.1340E-02  0.2197E+00  0.2197E+00
      0.688  0.3778E-02  0.3778E-02  0.2201E+00  0.2201E+00
      0.794  0.5574E-02  0.5574E-02  0.2206E+00  0.2206E+00
      0.900  0.1103E-01  0.1103E-01  0.2218E+00  0.2218E+00
      1.006  0.2582E-01  0.2582E-01  0.2246E+00  0.2246E+00
      1.113  0.1874E-01  0.1874E-01  0.2266E+00  0.2266E+00
      1.219  0.5047E-02  0.5047E-02  0.2271E+00  0.2271E+00
      1.325  0.4260E-02  0.4260E-02  0.2275E+00  0.2275E+00
      1.431  0.8845E-02  0.8845E-02  0.2285E+00  0.2285E+00
      1.537  0.1476E-01  0.1476E-01  0.2300E+00  0.2300E+00
      1.644  0.1981E-01  0.1981E-01  0.2322E+00  0.2322E+00
      1.750  0.1320E-01  0.1320E-01  0.2336E+00  0.2336E+00
      1.856  0.6037E-02  0.6037E-02  0.2342E+00  0.2342E+00
      1.962  0.7996E-02  0.7996E-02  0.2350E+00  0.2350E+00
      2.069  0.9867E-02  0.9867E-02  0.2361E+00  0.2361E+00
      2.175  0.7078E-02  0.7078E-02  0.2368E+00  0.2368E+00
      2.281  0.8766E-02  0.8766E-02  0.2378E+00  0.2378E+00
      2.387  0.6795E-02  0.6795E-02  0.2385E+00  0.2385E+00
      2.493  0.1152E-01  0.1152E-01  0.2397E+00  0.2397E+00
      2.600  0.1086E-01  0.1086E-01  0.2409E+00  0.2409E+00
      2.706  0.5889E-02  0.5889E-02  0.2415E+00  0.2415E+00
      2.812  0.4660E-02  0.4660E-02  0.2420E+00  0.2420E+00
      2.918  0.8944E-02  0.8944E-02  0.2429E+00  0.2429E+00
      3.024  0.1162E-01  0.1162E-01  0.2442E+00  0.2442E+00
      3.131  0.1010E-01  0.1010E-01  0.2453E+00  0.2453E+00
      3.237  0.9803E-02  0.9803E-02  0.2463E+00  0.2463E+00
      3.343  0.1060E-01  0.1060E-01  0.2474E+00  0.2474E+00
      3.449  0.1267E-01  0.1267E-01  0.2488E+00  0.2488E+00
      3.556  0.2063E-01  0.2063E-01  0.2510E+00  0.2510E+00
      3.662  0.2648E-01  0.2648E-01  0.2538E+00  0.2538E+00
      3.768  0.2390E-01  0.2390E-01  0.2563E+00  0.2563E+00
      3.874  0.2257E-01  0.2257E-01  0.2587E+00  0.2587E+00
      3.980  0.2442E-01  0.2442E-01  0.2613E+00  0.2613E+00
      4.087  0.2656E-01  0.2656E-01  0.2641E+00  0.2641E+00
      4.193  0.2270E-01  0.2270E-01  0.2665E+00  0.2665E+00
      4.299  0.2273E-01  0.2273E-01  0.2689E+00  0.2689E+00
      4.405  0.2153E-01  0.2153E-01  0.2712E+00  0.2712E+00
      4.511  0.2082E-01  0.2082E-01  0.2734E+00  0.2734E+00
      4.618  0.2168E-01  0.2168E-01  0.2757E+00  0.2757E+00
      4.724  0.2847E-01  0.2847E-01  0.2788E+00  0.2788E+00
      4.830  0.2435E-01  0.2435E-01  0.2814E+00  0.2814E+00
      4.936  0.1920E-01  0.1920E-01  0.2834E+00  0.2834E+00
      5.043  0.2599E-01  0.2599E-01  0.2862E+00  0.2862E+00
      5.149  0.2902E-01  0.2902E-01  0.2892E+00  0.2892E+00
      5.255  0.2441E-01  0.2441E-01  0.2918E+00  0.2918E+00
      5.361  0.1978E-01  0.1978E-01  0.2939E+00  0.2939E+00
      5.467  0.2366E-01  0.2366E-01  0.2964E+00  0.2964E+00
      5.574  0.2417E-01  0.2417E-01  0.2990E+00  0.2990E+00
      5.680  0.1987E-01  0.1987E-01  0.3011E+00  0.3011E+00
      5.786  0.2491E-01  0.2491E-01  0.3038E+00  0.3038E+00
      5.892  0.2157E-01  0.2157E-01  0.3061E+00  0.3061E+00
      5.998  0.1936E-01  0.1936E-01  0.3081E+00  0.3081E+00
      6.105  0.1562E-01  0.1562E-01  0.3098E+00  0.3098E+00
      6.211  0.1979E-01  0.1979E-01  0.3119E+00  0.3119E+00
      6.317  0.2161E-01  0.2161E-01  0.3142E+00  0.3142E+00
      6.423  0.2408E-01  0.2408E-01  0.3167E+00  0.3167E+00
      6.530  0.2797E-01  0.2797E-01  0.3197E+00  0.3197E+00
      6.636  0.2923E-01  0.2923E-01  0.3228E+00  0.3228E+00
      6.742  0.3016E-01  0.3016E-01  0.3260E+00  0.3260E+00
      6.848  0.2329E-01  0.2329E-01  0.3285E+00  0.3285E+00
      6.954  0.2682E-01  0.2682E-01  0.3313E+00  0.3313E+00
      7.061  0.2597E-01  0.2597E-01  0.3341E+00  0.3341E+00
      7.167  0.2216E-01  0.2216E-01  0.3364E+00  0.3364E+00
      7.273  0.1953E-01  0.1953E-01  0.3385E+00  0.3385E+00
      7.379  0.1966E-01  0.1966E-01  0.3406E+00  0.3406E+00
      7.485  0.2633E-01  0.2633E-01  0.3434E+00  0.3434E+00
      7.592  0.2692E-01  0.2692E-01  0.3463E+00  0.3463E+00
      7.698  0.3426E-01  0.3426E-01  0.3499E+00  0.3499E+00
      7.804  0.2882E-01  0.2882E-01  0.3530E+00  0.3530E+00
      7.910  0.2398E-01  0.2398E-01  0.3555E+00  0.3555E+00
      8.017  0.3431E-01  0.3431E-01  0.3592E+00  0.3592E+00
      8.123  0.3865E-01  0.3865E-01  0.3633E+00  0.3633E+00
      8.229  0.3711E-01  0.3710E-01  0.3672E+00  0.3672E+00
      8.335  0.3320E-01  0.3320E-01  0.3707E+00  0.3707E+00
      8.441  0.2093E-01  0.2093E-01  0.3730E+00  0.3730E+00
      8.548  0.9917E-02  0.9916E-02  0.3740E+00  0.3740E+00
      8.654  0.3972E-02  0.3972E-02  0.3744E+00  0.3744E+00
      8.760  0.2808E-02  0.2808E-02  0.3747E+00  0.3747E+00
      8.866  0.2075E-02  0.2075E-02  0.3749E+00  0.3749E+00
      8.972  0.5071E-03  0.5071E-03  0.3750E+00  0.3750E+00
      9.079  0.2080E-04  0.2080E-04  0.3750E+00  0.3750E+00
      9.185  0.1101E-06  0.1101E-06  0.3750E+00  0.3750E+00
      9.291  0.6818E-10  0.6818E-10  0.3750E+00  0.3750E+00
      9.397  0.4718E-14  0.4718E-14  0.3750E+00  0.3750E+00
      9.504  0.0000E+00  0.0000E+00  0.3750E+00  0.3750E+00
      9.610  0.0000E+00  0.0000E+00  0.3750E+00  0.3750E+00
      9.716  0.0000E+00  0.0000E+00  0.3750E+00  0.3750E+00
      9.822  0.0000E+00  0.0000E+00  0.3750E+00  0.3750E+00
      9.928  0.0000E+00  0.0000E+00  0.3750E+00  0.3750E+00
     10.035  0.0000E+00  0.0000E+00  0.3750E+00  0.3750E+00
     10.141  0.0000E+00  0.0000E+00  0.3750E+00  0.3750E+00
     10.247  0.0000E+00  0.0000E+00  0.3750E+00  0.3750E+00
