  16  16   0   4
  0.1949369E+02  0.4900000E-09  0.4900000E-09  0.1500000E-08  0.5000000E-15
  1.000000000000000E-004
  CAR 
 Lattice                                 
     10.06862155    -21.30176065  301     -0.14443045      1.00000000
    -21.302  0.0000E+00  0.0000E+00  0.0000E+00  0.0000E+00
    -21.197  0.0000E+00  0.0000E+00  0.0000E+00  0.0000E+00
    -21.093  0.0000E+00  0.0000E+00  0.0000E+00  0.0000E+00
    -20.988  0.0000E+00  0.0000E+00  0.0000E+00  0.0000E+00
    -20.883  0.0000E+00  0.0000E+00  0.0000E+00  0.0000E+00
    -20.779  0.0000E+00  0.0000E+00  0.0000E+00  0.0000E+00
    -20.674  0.0000E+00  0.0000E+00  0.0000E+00  0.0000E+00
    -20.570  0.0000E+00  0.0000E+00  0.0000E+00  0.0000E+00
    -20.465  0.2880E-19  0.2880E-19  0.3012E-20  0.3012E-20
    -20.361  0.1986E-14  0.1986E-14  0.2076E-15  0.2076E-15
    -20.256  0.2341E-10  0.2341E-10  0.2448E-11  0.2448E-11
    -20.152  0.3640E-07  0.3640E-07  0.3809E-08  0.3809E-08
    -20.047  0.8147E-05  0.8147E-05  0.8558E-06  0.8558E-06
    -19.942  0.2909E-03  0.2909E-03  0.3128E-04  0.3128E-04
    -19.838  0.2017E-02  0.2017E-02  0.2421E-03  0.2421E-03
    -19.733  0.4205E-02  0.4205E-02  0.6819E-03  0.6819E-03
    -19.629  0.4613E-02  0.4613E-02  0.1164E-02  0.1164E-02
    -19.524  0.5007E-02  0.5007E-02  0.1688E-02  0.1688E-02
    -19.420  0.4266E-02  0.4266E-02  0.2134E-02  0.2134E-02
    -19.315  0.5440E-02  0.5440E-02  0.2703E-02  0.2703E-02
    -19.210  0.4332E-02  0.4332E-02  0.3156E-02  0.3156E-02
    -19.106  0.4333E-02  0.4333E-02  0.3609E-02  0.3609E-02
    -19.001  0.6074E-02  0.6074E-02  0.4244E-02  0.4244E-02
    -18.897  0.3952E-02  0.3952E-02  0.4657E-02  0.4657E-02
    -18.792  0.3937E-02  0.3937E-02  0.5069E-02  0.5069E-02
    -18.688  0.6180E-02  0.6180E-02  0.5715E-02  0.5715E-02
    -18.583  0.5332E-02  0.5332E-02  0.6273E-02  0.6273E-02
    -18.478  0.3090E-02  0.3090E-02  0.6596E-02  0.6596E-02
    -18.374  0.4383E-02  0.4383E-02  0.7054E-02  0.7054E-02
    -18.269  0.6995E-02  0.6995E-02  0.7785E-02  0.7785E-02
    -18.165  0.4737E-02  0.4737E-02  0.8281E-02  0.8281E-02
    -18.060  0.3868E-02  0.3868E-02  0.8685E-02  0.8685E-02
    -17.956  0.3073E-02  0.3073E-02  0.9007E-02  0.9007E-02
    -17.851  0.6597E-02  0.6597E-02  0.9696E-02  0.9696E-02
    -17.746  0.6794E-02  0.6794E-02  0.1041E-01  0.1041E-01
    -17.642  0.3710E-02  0.3710E-02  0.1079E-01  0.1079E-01
    -17.537  0.3315E-02  0.3315E-02  0.1114E-01  0.1114E-01
    -17.433  0.4179E-02  0.4179E-02  0.1158E-01  0.1158E-01
    -17.328  0.6229E-02  0.6229E-02  0.1223E-01  0.1223E-01
    -17.224  0.6899E-02  0.6899E-02  0.1295E-01  0.1295E-01
    -17.119  0.4905E-02  0.4905E-02  0.1346E-01  0.1346E-01
    -17.014  0.2605E-02  0.2605E-02  0.1374E-01  0.1374E-01
    -16.910  0.3212E-02  0.3212E-02  0.1407E-01  0.1407E-01
    -16.805  0.6657E-02  0.6657E-02  0.1477E-01  0.1477E-01
    -16.701  0.6668E-02  0.6668E-02  0.1547E-01  0.1547E-01
    -16.596  0.5571E-02  0.5571E-02  0.1605E-01  0.1605E-01
    -16.492  0.4546E-02  0.4546E-02  0.1652E-01  0.1652E-01
    -16.387  0.3562E-02  0.3562E-02  0.1690E-01  0.1690E-01
    -16.282  0.2084E-02  0.2084E-02  0.1711E-01  0.1711E-01
    -16.178  0.7278E-02  0.7278E-02  0.1787E-01  0.1787E-01
    -16.073  0.1023E-01  0.1023E-01  0.1894E-01  0.1894E-01
    -15.969  0.9631E-02  0.9631E-02  0.1995E-01  0.1995E-01
    -15.864  0.1029E-01  0.1029E-01  0.2103E-01  0.2103E-01
    -15.760  0.1007E-01  0.1007E-01  0.2208E-01  0.2208E-01
    -15.655  0.1045E-01  0.1045E-01  0.2317E-01  0.2317E-01
    -15.551  0.1005E-01  0.1005E-01  0.2422E-01  0.2422E-01
    -15.446  0.1571E-01  0.1571E-01  0.2587E-01  0.2587E-01
    -15.341  0.1540E-01  0.1540E-01  0.2748E-01  0.2748E-01
    -15.237  0.1363E-01  0.1363E-01  0.2890E-01  0.2890E-01
    -15.132  0.1263E-01  0.1263E-01  0.3022E-01  0.3022E-01
    -15.028  0.8996E-02  0.8996E-02  0.3116E-01  0.3116E-01
    -14.923  0.7882E-02  0.7882E-02  0.3199E-01  0.3199E-01
    -14.819  0.7093E-02  0.7093E-02  0.3273E-01  0.3273E-01
    -14.714  0.9981E-02  0.9981E-02  0.3377E-01  0.3377E-01
    -14.609  0.9988E-02  0.9988E-02  0.3482E-01  0.3482E-01
    -14.505  0.1109E-01  0.1109E-01  0.3598E-01  0.3598E-01
    -14.400  0.1231E-01  0.1231E-01  0.3726E-01  0.3726E-01
    -14.296  0.1009E-01  0.1009E-01  0.3832E-01  0.3832E-01
    -14.191  0.8457E-02  0.8457E-02  0.3920E-01  0.3920E-01
    -14.087  0.1163E-01  0.1163E-01  0.4042E-01  0.4042E-01
    -13.982  0.1279E-01  0.1279E-01  0.4176E-01  0.4176E-01
    -13.877  0.6441E-02  0.6441E-02  0.4243E-01  0.4243E-01
    -13.773  0.3026E-02  0.3026E-02  0.4275E-01  0.4275E-01
    -13.668  0.2995E-02  0.2995E-02  0.4306E-01  0.4306E-01
    -13.564  0.6956E-02  0.6956E-02  0.4379E-01  0.4379E-01
    -13.459  0.7758E-02  0.7758E-02  0.4460E-01  0.4460E-01
    -13.355  0.8912E-02  0.8912E-02  0.4553E-01  0.4553E-01
    -13.250  0.6751E-02  0.6751E-02  0.4624E-01  0.4624E-01
    -13.145  0.7559E-02  0.7559E-02  0.4703E-01  0.4703E-01
    -13.041  0.7238E-02  0.7238E-02  0.4778E-01  0.4778E-01
    -12.936  0.4183E-02  0.4183E-02  0.4822E-01  0.4822E-01
    -12.832  0.7876E-02  0.7876E-02  0.4904E-01  0.4904E-01
    -12.727  0.1049E-01  0.1049E-01  0.5014E-01  0.5014E-01
    -12.623  0.1074E-01  0.1074E-01  0.5127E-01  0.5127E-01
    -12.518  0.1208E-01  0.1208E-01  0.5253E-01  0.5253E-01
    -12.413  0.1441E-01  0.1441E-01  0.5404E-01  0.5404E-01
    -12.309  0.1248E-01  0.1248E-01  0.5534E-01  0.5534E-01
    -12.204  0.1404E-01  0.1404E-01  0.5681E-01  0.5681E-01
    -12.100  0.1358E-01  0.1358E-01  0.5823E-01  0.5823E-01
    -11.995  0.1599E-01  0.1599E-01  0.5990E-01  0.5990E-01
    -11.891  0.1906E-01  0.1906E-01  0.6189E-01  0.6189E-01
    -11.786  0.1240E-01  0.1240E-01  0.6319E-01  0.6319E-01
    -11.682  0.8775E-02  0.8775E-02  0.6411E-01  0.6411E-01
    -11.577  0.6229E-02  0.6229E-02  0.6476E-01  0.6476E-01
    -11.472  0.5967E-02  0.5967E-02  0.6538E-01  0.6538E-01
    -11.368  0.7038E-02  0.7038E-02  0.6612E-01  0.6612E-01
    -11.263  0.5023E-02  0.5023E-02  0.6665E-01  0.6665E-01
    -11.159  0.3882E-02  0.3882E-02  0.6705E-01  0.6705E-01
    -11.054  0.4490E-02  0.4490E-02  0.6752E-01  0.6752E-01
    -10.950  0.5479E-02  0.5479E-02  0.6809E-01  0.6809E-01
    -10.845  0.8928E-02  0.8928E-02  0.6903E-01  0.6903E-01
    -10.740  0.1201E-01  0.1201E-01  0.7028E-01  0.7028E-01
    -10.636  0.1343E-01  0.1343E-01  0.7169E-01  0.7169E-01
    -10.531  0.1582E-01  0.1582E-01  0.7334E-01  0.7334E-01
    -10.427  0.1422E-01  0.1422E-01  0.7483E-01  0.7483E-01
    -10.322  0.9347E-02  0.9347E-02  0.7581E-01  0.7581E-01
    -10.218  0.9237E-02  0.9237E-02  0.7677E-01  0.7677E-01
    -10.113  0.8924E-02  0.8924E-02  0.7771E-01  0.7771E-01
    -10.008  0.1238E-01  0.1238E-01  0.7900E-01  0.7900E-01
     -9.904  0.1020E-01  0.1020E-01  0.8007E-01  0.8007E-01
     -9.799  0.8160E-02  0.8160E-02  0.8092E-01  0.8092E-01
     -9.695  0.9901E-02  0.9901E-02  0.8196E-01  0.8196E-01
     -9.590  0.1210E-01  0.1210E-01  0.8322E-01  0.8322E-01
     -9.486  0.1468E-01  0.1468E-01  0.8476E-01  0.8476E-01
     -9.381  0.1143E-01  0.1143E-01  0.8595E-01  0.8595E-01
     -9.276  0.1923E-01  0.1923E-01  0.8796E-01  0.8796E-01
     -9.172  0.2175E-01  0.2175E-01  0.9024E-01  0.9024E-01
     -9.067  0.1122E-01  0.1122E-01  0.9141E-01  0.9141E-01
     -8.963  0.6419E-02  0.6419E-02  0.9208E-01  0.9208E-01
     -8.858  0.1520E-01  0.1520E-01  0.9367E-01  0.9367E-01
     -8.754  0.2258E-01  0.2258E-01  0.9603E-01  0.9603E-01
     -8.649  0.1152E-01  0.1152E-01  0.9724E-01  0.9724E-01
     -8.544  0.8307E-02  0.8307E-02  0.9811E-01  0.9811E-01
     -8.440  0.1693E-01  0.1693E-01  0.9988E-01  0.9988E-01
     -8.335  0.1562E-01  0.1562E-01  0.1015E+00  0.1015E+00
     -8.231  0.1200E-01  0.1200E-01  0.1028E+00  0.1028E+00
     -8.126  0.1451E-01  0.1451E-01  0.1043E+00  0.1043E+00
     -8.022  0.1693E-01  0.1693E-01  0.1061E+00  0.1061E+00
     -7.917  0.1343E-01  0.1343E-01  0.1075E+00  0.1075E+00
     -7.812  0.1572E-01  0.1572E-01  0.1091E+00  0.1091E+00
     -7.708  0.2318E-01  0.2318E-01  0.1115E+00  0.1115E+00
     -7.603  0.2158E-01  0.2158E-01  0.1138E+00  0.1138E+00
     -7.499  0.1390E-01  0.1390E-01  0.1152E+00  0.1152E+00
     -7.394  0.1323E-01  0.1323E-01  0.1166E+00  0.1166E+00
     -7.290  0.1345E-01  0.1345E-01  0.1180E+00  0.1180E+00
     -7.185  0.1860E-01  0.1860E-01  0.1200E+00  0.1200E+00
     -7.081  0.2043E-01  0.2043E-01  0.1221E+00  0.1221E+00
     -6.976  0.1766E-01  0.1766E-01  0.1240E+00  0.1240E+00
     -6.871  0.1604E-01  0.1604E-01  0.1256E+00  0.1256E+00
     -6.767  0.2046E-01  0.2046E-01  0.1278E+00  0.1278E+00
     -6.662  0.2895E-01  0.2895E-01  0.1308E+00  0.1308E+00
     -6.558  0.3371E-01  0.3371E-01  0.1343E+00  0.1343E+00
     -6.453  0.3602E-01  0.3602E-01  0.1381E+00  0.1381E+00
     -6.349  0.2310E-01  0.2310E-01  0.1405E+00  0.1405E+00
     -6.244  0.1732E-01  0.1732E-01  0.1423E+00  0.1423E+00
     -6.139  0.1632E-01  0.1632E-01  0.1440E+00  0.1440E+00
     -6.035  0.1671E-01  0.1671E-01  0.1458E+00  0.1458E+00
     -5.930  0.1712E-01  0.1712E-01  0.1476E+00  0.1476E+00
     -5.826  0.1238E-01  0.1238E-01  0.1489E+00  0.1489E+00
     -5.721  0.1832E-01  0.1832E-01  0.1508E+00  0.1508E+00
     -5.617  0.1904E-01  0.1904E-01  0.1528E+00  0.1528E+00
     -5.512  0.1201E-01  0.1201E-01  0.1540E+00  0.1540E+00
     -5.407  0.8840E-02  0.8840E-02  0.1549E+00  0.1549E+00
     -5.303  0.1506E-01  0.1506E-01  0.1565E+00  0.1565E+00
     -5.198  0.1826E-01  0.1826E-01  0.1584E+00  0.1584E+00
     -5.094  0.1543E-01  0.1543E-01  0.1600E+00  0.1600E+00
     -4.989  0.1241E-01  0.1241E-01  0.1613E+00  0.1613E+00
     -4.885  0.1114E-01  0.1114E-01  0.1625E+00  0.1625E+00
     -4.780  0.1197E-01  0.1197E-01  0.1638E+00  0.1638E+00
     -4.675  0.1542E-01  0.1542E-01  0.1654E+00  0.1654E+00
     -4.571  0.1322E-01  0.1322E-01  0.1667E+00  0.1667E+00
     -4.466  0.9429E-02  0.9429E-02  0.1677E+00  0.1677E+00
     -4.362  0.1762E-01  0.1762E-01  0.1696E+00  0.1696E+00
     -4.257  0.2893E-01  0.2893E-01  0.1726E+00  0.1726E+00
     -4.153  0.1878E-01  0.1878E-01  0.1746E+00  0.1746E+00
     -4.048  0.1411E-01  0.1411E-01  0.1760E+00  0.1760E+00
     -3.943  0.1772E-01  0.1772E-01  0.1779E+00  0.1779E+00
     -3.839  0.2370E-01  0.2370E-01  0.1804E+00  0.1804E+00
     -3.734  0.2653E-01  0.2653E-01  0.1831E+00  0.1831E+00
     -3.630  0.2565E-01  0.2565E-01  0.1858E+00  0.1858E+00
     -3.525  0.2680E-01  0.2680E-01  0.1886E+00  0.1886E+00
     -3.421  0.2037E-01  0.2037E-01  0.1908E+00  0.1908E+00
     -3.316  0.1791E-01  0.1791E-01  0.1926E+00  0.1926E+00
     -3.212  0.1121E-01  0.1121E-01  0.1938E+00  0.1938E+00
     -3.107  0.1067E-01  0.1067E-01  0.1949E+00  0.1949E+00
     -3.002  0.1090E-01  0.1090E-01  0.1961E+00  0.1961E+00
     -2.898  0.1572E-01  0.1572E-01  0.1977E+00  0.1977E+00
     -2.793  0.1537E-01  0.1537E-01  0.1993E+00  0.1993E+00
     -2.689  0.1112E-01  0.1112E-01  0.2005E+00  0.2005E+00
     -2.584  0.1065E-01  0.1065E-01  0.2016E+00  0.2016E+00
     -2.480  0.1002E-01  0.1002E-01  0.2026E+00  0.2026E+00
     -2.375  0.1298E-01  0.1298E-01  0.2040E+00  0.2040E+00
     -2.270  0.1726E-01  0.1726E-01  0.2058E+00  0.2058E+00
     -2.166  0.1313E-01  0.1313E-01  0.2072E+00  0.2072E+00
     -2.061  0.9027E-02  0.9027E-02  0.2081E+00  0.2081E+00
     -1.957  0.5406E-02  0.5406E-02  0.2087E+00  0.2087E+00
     -1.852  0.6447E-02  0.6447E-02  0.2094E+00  0.2094E+00
     -1.748  0.6839E-02  0.6839E-02  0.2101E+00  0.2101E+00
     -1.643  0.8198E-02  0.8197E-02  0.2109E+00  0.2109E+00
     -1.538  0.1169E-01  0.1169E-01  0.2121E+00  0.2121E+00
     -1.434  0.1041E-01  0.1041E-01  0.2132E+00  0.2132E+00
     -1.329  0.6174E-02  0.6174E-02  0.2139E+00  0.2139E+00
     -1.225  0.5927E-02  0.5927E-02  0.2145E+00  0.2145E+00
     -1.120  0.5265E-02  0.5265E-02  0.2151E+00  0.2151E+00
     -1.016  0.3586E-02  0.3586E-02  0.2154E+00  0.2154E+00
     -0.911  0.7645E-02  0.7645E-02  0.2162E+00  0.2162E+00
     -0.806  0.7987E-02  0.7987E-02  0.2171E+00  0.2171E+00
     -0.702  0.3413E-02  0.3413E-02  0.2174E+00  0.2174E+00
     -0.597  0.1278E-02  0.1278E-02  0.2176E+00  0.2176E+00
     -0.493  0.1228E-02  0.1228E-02  0.2177E+00  0.2177E+00
     -0.388  0.3181E-02  0.3181E-02  0.2180E+00  0.2180E+00
     -0.284  0.2368E-02  0.2368E-02  0.2183E+00  0.2183E+00
     -0.179  0.3034E-02  0.3034E-02  0.2186E+00  0.2186E+00
     -0.074  0.5602E-02  0.5602E-02  0.2192E+00  0.2192E+00
      0.030  0.4372E-02  0.4372E-02  0.2196E+00  0.2196E+00
      0.135  0.2363E-02  0.2363E-02  0.2199E+00  0.2199E+00
      0.239  0.2332E-02  0.2332E-02  0.2201E+00  0.2201E+00
      0.344  0.6031E-02  0.6031E-02  0.2207E+00  0.2207E+00
      0.448  0.1244E-01  0.1244E-01  0.2220E+00  0.2220E+00
      0.553  0.1143E-01  0.1143E-01  0.2232E+00  0.2232E+00
      0.658  0.8435E-02  0.8435E-02  0.2241E+00  0.2241E+00
      0.762  0.4237E-02  0.4237E-02  0.2246E+00  0.2246E+00
      0.867  0.2492E-02  0.2492E-02  0.2248E+00  0.2248E+00
      0.971  0.7954E-02  0.7954E-02  0.2257E+00  0.2257E+00
      1.076  0.1169E-01  0.1169E-01  0.2269E+00  0.2269E+00
      1.180  0.4769E-02  0.4769E-02  0.2274E+00  0.2274E+00
      1.285  0.5105E-02  0.5105E-02  0.2279E+00  0.2279E+00
      1.389  0.9507E-02  0.9507E-02  0.2289E+00  0.2289E+00
      1.494  0.1348E-01  0.1348E-01  0.2303E+00  0.2303E+00
      1.599  0.1405E-01  0.1405E-01  0.2318E+00  0.2318E+00
      1.703  0.1261E-01  0.1261E-01  0.2331E+00  0.2331E+00
      1.808  0.1140E-01  0.1140E-01  0.2343E+00  0.2343E+00
      1.912  0.9408E-02  0.9408E-02  0.2353E+00  0.2353E+00
      2.017  0.1084E-01  0.1084E-01  0.2364E+00  0.2364E+00
      2.121  0.1039E-01  0.1039E-01  0.2375E+00  0.2375E+00
      2.226  0.1179E-01  0.1179E-01  0.2387E+00  0.2387E+00
      2.331  0.1149E-01  0.1149E-01  0.2399E+00  0.2399E+00
      2.435  0.6574E-02  0.6574E-02  0.2406E+00  0.2406E+00
      2.540  0.7097E-02  0.7097E-02  0.2414E+00  0.2414E+00
      2.644  0.1134E-01  0.1134E-01  0.2425E+00  0.2425E+00
      2.749  0.9702E-02  0.9702E-02  0.2436E+00  0.2436E+00
      2.853  0.1288E-01  0.1288E-01  0.2449E+00  0.2449E+00
      2.958  0.1477E-01  0.1477E-01  0.2465E+00  0.2465E+00
      3.063  0.1326E-01  0.1326E-01  0.2478E+00  0.2478E+00
      3.167  0.8552E-02  0.8552E-02  0.2487E+00  0.2487E+00
      3.272  0.1010E-01  0.1010E-01  0.2498E+00  0.2498E+00
      3.376  0.1321E-01  0.1321E-01  0.2512E+00  0.2512E+00
      3.481  0.1814E-01  0.1814E-01  0.2531E+00  0.2531E+00
      3.585  0.1997E-01  0.1997E-01  0.2552E+00  0.2552E+00
      3.690  0.1893E-01  0.1893E-01  0.2571E+00  0.2571E+00
      3.795  0.1294E-01  0.1295E-01  0.2585E+00  0.2585E+00
      3.899  0.1510E-01  0.1510E-01  0.2601E+00  0.2601E+00
      4.004  0.2283E-01  0.2283E-01  0.2625E+00  0.2625E+00
      4.108  0.2048E-01  0.2048E-01  0.2646E+00  0.2646E+00
      4.213  0.1911E-01  0.1911E-01  0.2666E+00  0.2666E+00
      4.317  0.2021E-01  0.2021E-01  0.2687E+00  0.2687E+00
      4.422  0.1568E-01  0.1568E-01  0.2703E+00  0.2703E+00
      4.527  0.1958E-01  0.1958E-01  0.2724E+00  0.2724E+00
      4.631  0.2441E-01  0.2441E-01  0.2749E+00  0.2749E+00
      4.736  0.2415E-01  0.2415E-01  0.2775E+00  0.2775E+00
      4.840  0.2881E-01  0.2881E-01  0.2805E+00  0.2805E+00
      4.945  0.3117E-01  0.3117E-01  0.2837E+00  0.2837E+00
      5.049  0.2144E-01  0.2144E-01  0.2860E+00  0.2860E+00
      5.154  0.2251E-01  0.2251E-01  0.2883E+00  0.2883E+00
      5.258  0.2546E-01  0.2546E-01  0.2910E+00  0.2910E+00
      5.363  0.2592E-01  0.2592E-01  0.2937E+00  0.2937E+00
      5.468  0.2973E-01  0.2973E-01  0.2968E+00  0.2968E+00
      5.572  0.3246E-01  0.3246E-01  0.3002E+00  0.3002E+00
      5.677  0.2543E-01  0.2544E-01  0.3029E+00  0.3029E+00
      5.781  0.1840E-01  0.1840E-01  0.3048E+00  0.3048E+00
      5.886  0.2198E-01  0.2197E-01  0.3071E+00  0.3071E+00
      5.990  0.2432E-01  0.2432E-01  0.3096E+00  0.3096E+00
      6.095  0.2506E-01  0.2506E-01  0.3123E+00  0.3123E+00
      6.200  0.2938E-01  0.2938E-01  0.3153E+00  0.3153E+00
      6.304  0.2113E-01  0.2113E-01  0.3175E+00  0.3175E+00
      6.409  0.1374E-01  0.1374E-01  0.3190E+00  0.3190E+00
      6.513  0.1907E-01  0.1907E-01  0.3210E+00  0.3210E+00
      6.618  0.2360E-01  0.2359E-01  0.3234E+00  0.3234E+00
      6.722  0.1980E-01  0.1981E-01  0.3255E+00  0.3255E+00
      6.827  0.1614E-01  0.1613E-01  0.3272E+00  0.3272E+00
      6.932  0.2482E-01  0.2482E-01  0.3298E+00  0.3298E+00
      7.036  0.3183E-01  0.3183E-01  0.3331E+00  0.3331E+00
      7.141  0.3036E-01  0.3036E-01  0.3363E+00  0.3363E+00
      7.245  0.2466E-01  0.2466E-01  0.3389E+00  0.3389E+00
      7.350  0.2309E-01  0.2309E-01  0.3413E+00  0.3413E+00
      7.454  0.2434E-01  0.2434E-01  0.3438E+00  0.3438E+00
      7.559  0.3017E-01  0.3017E-01  0.3470E+00  0.3470E+00
      7.664  0.3759E-01  0.3759E-01  0.3509E+00  0.3509E+00
      7.768  0.3419E-01  0.3420E-01  0.3545E+00  0.3545E+00
      7.873  0.3771E-01  0.3771E-01  0.3584E+00  0.3584E+00
      7.977  0.3346E-01  0.3346E-01  0.3619E+00  0.3619E+00
      8.082  0.2773E-01  0.2773E-01  0.3648E+00  0.3648E+00
      8.186  0.2981E-01  0.2981E-01  0.3680E+00  0.3680E+00
      8.291  0.2711E-01  0.2712E-01  0.3708E+00  0.3708E+00
      8.396  0.2019E-01  0.2019E-01  0.3729E+00  0.3729E+00
      8.500  0.1379E-01  0.1379E-01  0.3743E+00  0.3743E+00
      8.605  0.4859E-02  0.4858E-02  0.3749E+00  0.3749E+00
      8.709  0.1245E-02  0.1245E-02  0.3750E+00  0.3750E+00
      8.814  0.1497E-03  0.1497E-03  0.3750E+00  0.3750E+00
      8.918  0.4661E-05  0.4661E-05  0.3750E+00  0.3750E+00
      9.023  0.2594E-07  0.2594E-07  0.3750E+00  0.3750E+00
      9.128  0.1973E-10  0.1973E-10  0.3750E+00  0.3750E+00
      9.232  0.1836E-14  0.1836E-14  0.3750E+00  0.3750E+00
      9.337  0.0000E+00  0.0000E+00  0.3750E+00  0.3750E+00
      9.441  0.0000E+00  0.0000E+00  0.3750E+00  0.3750E+00
      9.546  0.0000E+00  0.0000E+00  0.3750E+00  0.3750E+00
      9.650  0.0000E+00  0.0000E+00  0.3750E+00  0.3750E+00
      9.755  0.0000E+00  0.0000E+00  0.3750E+00  0.3750E+00
      9.859  0.0000E+00  0.0000E+00  0.3750E+00  0.3750E+00
      9.964  0.0000E+00  0.0000E+00  0.3750E+00  0.3750E+00
     10.069  0.0000E+00  0.0000E+00  0.3750E+00  0.3750E+00
