Lattice                                 
           1
     4.243524    2.450000    0.000000
    -4.243524    2.450000    0.000000
     0.000000    0.000000   15.000000
   B    C 
     8     8
Direct configuration=     1
   0.66888689  0.00000000  0.10000000
   0.33111211  0.00000000  0.10000000
   0.00000000  0.33111211  0.10000000
   0.00000000  0.66888689  0.10000000
   0.33111211  0.33111211  0.10000000
   0.66888689  0.66888689  0.10000000
   0.66666600  0.33333300  0.09922189
   0.33333300  0.66666600  0.10077811
   0.33333267  0.16666633  0.47060000
   0.49999967  0.99999933  0.47060000
   0.33333267  0.66666633  0.47060000
   0.49999967  0.49999933  0.47060000
   0.83333267  0.16666633  0.47060000
   0.99999967  0.99999933  0.47060000
   0.83333267  0.66666633  0.47060000
   0.99999967  0.49999933  0.47060000
Direct configuration=     2
   0.67275728  0.00000011  0.10002652
   0.32724183  0.00000011  0.10002652
  -0.00000011  0.32724172  0.10002652
  -0.00000011  0.67275717  0.10002652
   0.32724183  0.32724172  0.10002652
   0.67275728  0.67275717  0.10002652
   0.66666600  0.33333300  0.09921920
   0.33333300  0.66666600  0.10083707
   0.33332635  0.16666317  0.47057334
   0.50000085  0.00000170  0.47057281
   0.33333267  0.66666633  0.47057219
   0.50000085  0.49999815  0.47057281
   0.83333583  0.16666317  0.47057334
   0.99999967  0.99999933  0.47057396
   0.83333583  0.66667265  0.47057334
   0.99999730  0.49999815  0.47057281
Direct configuration=     3
   0.67061147  0.00000005  0.10001182
   0.32938758  0.00000005  0.10001182
  -0.00000005  0.32938753  0.10001182
  -0.00000005  0.67061142  0.10001182
   0.32938758  0.32938753  0.10001182
   0.67061147  0.67061142  0.10001182
   0.66666600  0.33333300  0.09922069
   0.33333300  0.66666600  0.10080438
   0.33332985  0.16666493  0.47058812
   0.50000019  0.00000039  0.47058789
   0.33333267  0.66666633  0.47058761
   0.50000019  0.49999881  0.47058789
   0.83333407  0.16666493  0.47058812
   0.99999967  0.99999933  0.47058840
   0.83333407  0.66666915  0.47058812
   0.99999861  0.49999881  0.47058789
Direct configuration=     4
   0.67061241  0.00000005  0.10001182
   0.32938664  0.00000005  0.10001182
  -0.00000005  0.32938659  0.10001182
  -0.00000005  0.67061236  0.10001182
   0.32938664  0.32938659  0.10001182
   0.67061241  0.67061236  0.10001182
   0.66666600  0.33333300  0.09922069
   0.33333300  0.66666600  0.10080440
   0.33332985  0.16666492  0.47058811
   0.50000020  0.00000039  0.47058788
   0.33333267  0.66666633  0.47058760
   0.50000020  0.49999880  0.47058788
   0.83333408  0.16666492  0.47058811
   0.99999967  0.99999933  0.47058839
   0.83333408  0.66666915  0.47058811
   0.99999861  0.49999880  0.47058788
Direct configuration=     5
   0.67061194  0.00000005  0.10001182
   0.32938710  0.00000005  0.10001182
  -0.00000005  0.32938706  0.10001182
  -0.00000005  0.67061190  0.10001182
   0.32938710  0.32938706  0.10001182
   0.67061194  0.67061190  0.10001182
   0.66666600  0.33333300  0.09922069
   0.33333300  0.66666600  0.10080439
   0.33332985  0.16666493  0.47058812
   0.50000020  0.00000039  0.47058788
   0.33333267  0.66666633  0.47058761
   0.50000020  0.49999880  0.47058788
   0.83333407  0.16666493  0.47058812
   0.99999967  0.99999933  0.47058839
   0.83333407  0.66666915  0.47058812
   0.99999861  0.49999880  0.47058788
Direct configuration=     6
   0.67061171  0.00000005  0.10001182
   0.32938734  0.00000005  0.10001182
  -0.00000005  0.32938729  0.10001182
  -0.00000005  0.67061166  0.10001182
   0.32938734  0.32938729  0.10001182
   0.67061171  0.67061166  0.10001182
   0.66666600  0.33333300  0.09922069
   0.33333300  0.66666600  0.10080438
   0.33332985  0.16666493  0.47058812
   0.50000019  0.00000039  0.47058788
   0.33333267  0.66666633  0.47058761
   0.50000019  0.49999881  0.47058788
   0.83333407  0.16666493  0.47058812
   0.99999967  0.99999933  0.47058840
   0.83333407  0.66666915  0.47058812
   0.99999861  0.49999881  0.47058788
Direct configuration=     7
   0.67061157  0.00000002  0.10003557
   0.32938745  0.00000002  0.10003557
  -0.00000002  0.32938743  0.10003557
  -0.00000002  0.67061155  0.10003557
   0.32938745  0.32938743  0.10003557
   0.67061157  0.67061155  0.10003557
   0.66666600  0.33333300  0.09922420
   0.33333300  0.66666600  0.10084994
   0.33333401  0.16666701  0.47056437
   0.49999950 -0.00000100  0.47056375
   0.33333267  0.66666633  0.47056304
   0.49999950  0.49999950  0.47056375
   0.83333199  0.16666701  0.47056437
   0.99999967  0.99999933  0.47056506
   0.83333199  0.66666499  0.47056437
   0.00000000  0.49999950  0.47056375
Direct configuration=     8
   0.67061115 -0.00000008  0.10010681
   0.32938776 -0.00000008  0.10010681
   0.00000008  0.32938785  0.10010681
   0.00000008  0.67061124  0.10010681
   0.32938776  0.32938785  0.10010681
   0.67061115  0.67061124  0.10010681
   0.66666600  0.33333300  0.09923474
   0.33333300  0.66666600  0.10098660
   0.33334650  0.16667325  0.47049313
   0.49999741 -0.00000519  0.47049133
   0.33333267  0.66666633  0.47048932
   0.49999741  0.50000159  0.47049133
   0.83332575  0.16667325  0.47049313
   0.99999967  0.99999933  0.47049507
   0.83332575  0.66665250  0.47049313
   0.00000419  0.50000159  0.47049133
Direct configuration=     9
   0.67061032 -0.00000028  0.10024931
   0.32938840 -0.00000028  0.10024931
   0.00000028  0.32938868  0.10024931
   0.00000028  0.67061060  0.10024931
   0.32938840  0.32938868  0.10024931
   0.67061032  0.67061060  0.10024931
   0.66666600  0.33333300  0.09925581
   0.33333300  0.66666600  0.10125993
   0.33337148  0.16668574  0.47035065
   0.49999322 -0.00001355  0.47034650
   0.33333267  0.66666633  0.47034189
   0.49999322  0.50000578  0.47034650
   0.83331326  0.16668574  0.47035065
   0.99999967  0.99999933  0.47035507
   0.83331326  0.66662752  0.47035065
   0.00001255  0.50000578  0.47034650
Direct configuration=    10
   0.67060867 -0.00000067  0.10053430
   0.32938966 -0.00000067  0.10053430
   0.00000067  0.32939033  0.10053430
   0.00000067  0.67060934  0.10053430
   0.32938966  0.32939033  0.10053430
   0.67060867  0.67060934  0.10053430
   0.66666600  0.33333300  0.09929796
   0.33333300  0.66666600  0.10180659
   0.33342144  0.16671072  0.47006569
   0.49998486 -0.00003028  0.47005683
   0.33333267  0.66666633  0.47004703
   0.49998486  0.50001414  0.47005683
   0.83328828  0.16671072  0.47006569
   0.99999967  0.99999933  0.47007508
   0.83328828  0.66657756  0.47006569
   0.00002928  0.50001414  0.47005683
Direct configuration=    11
   0.67060535 -0.00000145  0.10110427
   0.32939220 -0.00000145  0.10110427
   0.00000145  0.32939365  0.10110427
   0.00000145  0.67060680  0.10110427
   0.32939220  0.32939365  0.10110427
   0.67060535  0.67060680  0.10110427
   0.66666600  0.33333300  0.09938225
   0.33333300  0.66666600  0.10289990
   0.33352136  0.16676068  0.46949577
   0.49996813 -0.00006375  0.46947750
   0.33333267  0.66666633  0.46945730
   0.49996813  0.50003087  0.46947750
   0.83323832  0.16676068  0.46949577
   0.99999967  0.99999933  0.46951510
   0.83323832  0.66647764  0.46949577
   0.00006275  0.50003087  0.46947750
Direct configuration=    12
   0.67059872 -0.00000301  0.10224422
   0.32939727 -0.00000301  0.10224422
   0.00000301  0.32940028  0.10224422
   0.00000301  0.67060173  0.10224422
   0.32939727  0.32940028  0.10224422
   0.67059872  0.67060173  0.10224422
   0.66666600  0.33333300  0.09955083
   0.33333300  0.66666600  0.10508653
   0.33372119  0.16686060  0.46835593
   0.49993466 -0.00013067  0.46831884
   0.33333267  0.66666633  0.46827786
   0.49993466  0.50006434  0.46831884
   0.83313840  0.16686060  0.46835593
   0.99999967  0.99999933  0.46839513
   0.83313840  0.66627781  0.46835593
   0.00012967  0.50006434  0.46831884
Direct configuration=    13
   0.67058545 -0.00000614  0.10452412
   0.32940741 -0.00000614  0.10452412
   0.00000614  0.32941355  0.10452412
   0.00000614  0.67059159  0.10452412
   0.32940741  0.32941355  0.10452412
   0.67058545  0.67059159  0.10452412
   0.66666600  0.33333300  0.09988800
   0.33333300  0.66666600  0.10945978
   0.33412086  0.16706043  0.46607625
   0.49986774 -0.00026453  0.46600153
   0.33333267  0.66666633  0.46591896
   0.49986774  0.50013126  0.46600153
   0.83293857  0.16706043  0.46607625
   0.99999967  0.99999933  0.46615520
   0.83293857  0.66587814  0.46607625
   0.00026353  0.50013126  0.46600153
Direct configuration=    14
   0.67055892 -0.00001238  0.10908392
   0.32942769 -0.00001238  0.10908392
   0.00001238  0.32944008  0.10908392
   0.00001238  0.67057131  0.10908392
   0.32942769  0.32944008  0.10908392
   0.67055892  0.67057131  0.10908392
   0.66666600  0.33333300  0.10056233
   0.33333300  0.66666600  0.11820629
   0.33492020  0.16746010  0.46151688
   0.49973388 -0.00053223  0.46136689
   0.33333267  0.66666633  0.46120117
   0.49973388  0.50026512  0.46136689
   0.83253890  0.16746010  0.46151688
   0.99999967  0.99999933  0.46167534
   0.83253890  0.66507880  0.46151688
   0.00053123  0.50026512  0.46136689
Direct configuration=    15
   0.67050587 -0.00002488  0.11820353
   0.32946825 -0.00002488  0.11820353
   0.00002488  0.32949313  0.11820353
   0.00002488  0.67053075  0.11820353
   0.32946825  0.32949313  0.11820353
   0.67050587  0.67053075  0.11820353
   0.66666600  0.33333300  0.10191100
   0.33333300  0.66666600  0.13569931
   0.33651889  0.16825944  0.45239816
   0.49946618 -0.00106764  0.45209762
   0.33333267  0.66666633  0.45176560
   0.49946618  0.50053282  0.45209762
   0.83173956  0.16825944  0.45239816
   0.99999967  0.99999933  0.45271561
   0.83173956  0.66348011  0.45239816
   0.00106664  0.50053282  0.45209762
Direct configuration=    16
   0.67050583 -0.00002489  0.11820451
   0.32946829 -0.00002489  0.11820451
   0.00002489  0.32949317  0.11820451
   0.00002489  0.67053071  0.11820451
   0.32946829  0.32949317  0.11820451
   0.67050583  0.67053071  0.11820451
   0.66666600  0.33333300  0.10191115
   0.33333300  0.66666600  0.13570119
   0.33651893  0.16825947  0.45239717
   0.49946617 -0.00106766  0.45209662
   0.33333267  0.66666633  0.45176459
   0.49946617  0.50053283  0.45209662
   0.83173953  0.16825947  0.45239717
   0.99999967  0.99999933  0.45271465
   0.83173953  0.66348007  0.45239717
   0.00106666  0.50053283  0.45209662
Direct configuration=    17
   0.67050572 -0.00002490  0.11820745
   0.32946839 -0.00002490  0.11820745
   0.00002490  0.32949328  0.11820745
   0.00002490  0.67053061  0.11820745
   0.32946839  0.32949328  0.11820745
   0.67050572  0.67053061  0.11820745
   0.66666600  0.33333300  0.10191159
   0.33333300  0.66666600  0.13570682
   0.33651908  0.16825954  0.45239423
   0.49946614 -0.00106771  0.45209363
   0.33333267  0.66666633  0.45176155
   0.49946614  0.50053286  0.45209363
   0.83173946  0.16825954  0.45239423
   0.99999967  0.99999933  0.45271175
   0.83173946  0.66347992  0.45239423
   0.00106671  0.50053286  0.45209363
Direct configuration=    18
   0.67050549 -0.00002492  0.11821333
   0.32946859 -0.00002492  0.11821333
   0.00002492  0.32949351  0.11821333
   0.00002492  0.67053041  0.11821333
   0.32946859  0.32949351  0.11821333
   0.67050549  0.67053041  0.11821333
   0.66666600  0.33333300  0.10191246
   0.33333300  0.66666600  0.13571809
   0.33651938  0.16825969  0.45238835
   0.49946609 -0.00106782  0.45208766
   0.33333267  0.66666633  0.45175548
   0.49946609  0.50053291  0.45208766
   0.83173931  0.16825969  0.45238835
   0.99999967  0.99999933  0.45270596
   0.83173931  0.66347962  0.45238835
   0.00106682  0.50053291  0.45208766
Direct configuration=    19
   0.67050505 -0.00002497  0.11822510
   0.32946899 -0.00002497  0.11822510
   0.00002497  0.32949395  0.11822510
   0.00002497  0.67053001  0.11822510
   0.32946899  0.32949395  0.11822510
   0.67050505  0.67053001  0.11822510
   0.66666600  0.33333300  0.10191421
   0.33333300  0.66666600  0.13574064
   0.33651997  0.16825998  0.45237657
   0.49946598 -0.00106804  0.45207570
   0.33333267  0.66666633  0.45174333
   0.49946598  0.50053302  0.45207570
   0.83173902  0.16825998  0.45237657
   0.99999967  0.99999933  0.45269437
   0.83173902  0.66347903  0.45237657
   0.00106704  0.50053302  0.45207570
Direct configuration=    20
   0.67050415 -0.00002506  0.11824864
   0.32946979 -0.00002506  0.11824864
   0.00002506  0.32949485  0.11824864
   0.00002506  0.67052921  0.11824864
   0.32946979  0.32949485  0.11824864
   0.67050415  0.67052921  0.11824864
   0.66666600  0.33333300  0.10191771
   0.33333300  0.66666600  0.13578572
   0.33652115  0.16826057  0.45235303
   0.49946576 -0.00106848  0.45205180
   0.33333267  0.66666633  0.45171903
   0.49946576  0.50053324  0.45205180
   0.83173843  0.16826057  0.45235303
   0.99999967  0.99999933  0.45267120
   0.83173843  0.66347785  0.45235303
   0.00106748  0.50053324  0.45205180
Direct configuration=    21
   0.67050236 -0.00002525  0.11829572
   0.32947139 -0.00002525  0.11829572
   0.00002525  0.32949664  0.11829572
   0.00002525  0.67052761  0.11829572
   0.32947139  0.32949664  0.11829572
   0.67050236  0.67052761  0.11829572
   0.66666600  0.33333300  0.10192471
   0.33333300  0.66666600  0.13587590
   0.33652351  0.16826175  0.45230594
   0.49946532 -0.00106936  0.45200399
   0.33333267  0.66666633  0.45167044
   0.49946532  0.50053368  0.45200399
   0.83173725  0.16826175  0.45230594
   0.99999967  0.99999933  0.45262485
   0.83173725  0.66347549  0.45230594
   0.00106836  0.50053368  0.45200399
Direct configuration=    22
   0.67049879 -0.00002562  0.11838987
   0.32947459 -0.00002562  0.11838987
   0.00002562  0.32950021  0.11838987
   0.00002562  0.67052441  0.11838987
   0.32947459  0.32950021  0.11838987
   0.67049879  0.67052441  0.11838987
   0.66666600  0.33333300  0.10193871
   0.33333300  0.66666600  0.13605625
   0.33652823  0.16826411  0.45221177
   0.49946444 -0.00107111  0.45190837
   0.33333267  0.66666633  0.45157325
   0.49946444  0.50053456  0.45190837
   0.83173489  0.16826411  0.45221177
   0.99999967  0.99999933  0.45253216
   0.83173489  0.66347077  0.45221177
   0.00107011  0.50053456  0.45190837
Direct configuration=    23
   0.67049164 -0.00002637  0.11857818
   0.32948100 -0.00002637  0.11857818
   0.00002637  0.32950736  0.11857818
   0.00002637  0.67051800  0.11857818
   0.32948100  0.32950736  0.11857818
   0.67049164  0.67051800  0.11857818
   0.66666600  0.33333300  0.10196671
   0.33333300  0.66666600  0.13641694
   0.33653767  0.16826884  0.45202341
   0.49946269 -0.00107462  0.45171713
   0.33333267  0.66666633  0.45137888
   0.49946269  0.50053631  0.45171713
   0.83173016  0.16826884  0.45202341
   0.99999967  0.99999933  0.45234678
   0.83173016  0.66346133  0.45202341
   0.00107362  0.50053631  0.45171713
Direct configuration=    24
   0.67047733 -0.00002786  0.11895479
   0.32949380 -0.00002786  0.11895479
   0.00002786  0.32952167  0.11895479
   0.00002786  0.67050520  0.11895479
   0.32949380  0.32952167  0.11895479
   0.67047733  0.67050520  0.11895479
   0.66666600  0.33333300  0.10202270
   0.33333300  0.66666600  0.13713833
   0.33655656  0.16827828  0.45164671
   0.49945918 -0.00108163  0.45133464
   0.33333267  0.66666633  0.45099014
   0.49945918  0.50053982  0.45133464
   0.83172072  0.16827828  0.45164671
   0.99999967  0.99999933  0.45197601
   0.83172072  0.66344244  0.45164671
   0.00108063  0.50053982  0.45133464
Direct configuration=    25
   0.67044873 -0.00003085  0.11970802
   0.32951942 -0.00003085  0.11970802
   0.00003085  0.32955027  0.11970802
   0.00003085  0.67047958  0.11970802
   0.32951942  0.32955027  0.11970802
   0.67044873  0.67047958  0.11970802
   0.66666600  0.33333300  0.10213468
   0.33333300  0.66666600  0.13858111
   0.33659433  0.16829716  0.45089330
   0.49945217 -0.00109566  0.45056968
   0.33333267  0.66666633  0.45021266
   0.49945217  0.50054683  0.45056968
   0.83170184  0.16829716  0.45089330
   0.99999967  0.99999933  0.45123448
   0.83170184  0.66340467  0.45089330
   0.00109466  0.50054683  0.45056968
Direct configuration=    26
   0.67039152 -0.00003683  0.12121448
   0.32957066 -0.00003683  0.12121448
   0.00003683  0.32960748  0.12121448
   0.00003683  0.67042834  0.12121448
   0.32957066  0.32960748  0.12121448
   0.67039152  0.67042834  0.12121448
   0.66666600  0.33333300  0.10235866
   0.33333300  0.66666600  0.14146667
   0.33666986  0.16833493  0.44938649
   0.49943814 -0.00112371  0.44903975
   0.33333267  0.66666633  0.44865769
   0.49943814  0.50056086  0.44903975
   0.83166407  0.16833493  0.44938649
   0.99999967  0.99999933  0.44975141
   0.83166407  0.66332914  0.44938649
   0.00112271  0.50056086  0.44903975
Direct configuration=    27
   0.67042409 -0.00003342  0.12035673
   0.32954148 -0.00003342  0.12035673
   0.00003342  0.32957491  0.12035673
   0.00003342  0.67045752  0.12035673
   0.32954148  0.32957491  0.12035673
   0.67042409  0.67045752  0.12035673
   0.66666600  0.33333300  0.10223113
   0.33333300  0.66666600  0.13982370
   0.33662685  0.16831343  0.45024443
   0.49944613 -0.00110774  0.44991086
   0.33333267  0.66666633  0.44954305
   0.49944613  0.50055287  0.44991086
   0.83168557  0.16831343  0.45024443
   0.99999967  0.99999933  0.45059584
   0.83168557  0.66337215  0.45024443
   0.00110674  0.50055287  0.44991086
Direct configuration=    28
   0.67040772 -0.00003481  0.12037934
   0.32955647 -0.00003481  0.12037934
   0.00003481  0.32959128  0.12037934
   0.00003481  0.67044253  0.12037934
   0.32955647  0.32959128  0.12037934
   0.67040772  0.67044253  0.12037934
   0.66666600  0.33333300  0.10223587
   0.33333300  0.66666600  0.13986457
   0.33657223  0.16828612  0.45022168
   0.49945489 -0.00109021  0.44988832
   0.33333267  0.66666633  0.44952090
   0.49945489  0.50054411  0.44988832
   0.83171288  0.16828612  0.45022168
   0.99999967  0.99999933  0.45057264
   0.83171288  0.66342677  0.45022168
   0.00108921  0.50054411  0.44988832
Direct configuration=    29
   0.67035860 -0.00003896  0.12044715
   0.32960144 -0.00003896  0.12044715
   0.00003896  0.32964040  0.12044715
   0.00003896  0.67039756  0.12044715
   0.32960144  0.32964040  0.12044715
   0.67035860  0.67039756  0.12044715
   0.66666600  0.33333300  0.10225009
   0.33333300  0.66666600  0.13998718
   0.33640837  0.16820418  0.45015341
   0.49948119 -0.00103763  0.44982069
   0.33333267  0.66666633  0.44945445
   0.49948119  0.50051781  0.44982069
   0.83179482  0.16820418  0.45015341
   0.99999967  0.99999933  0.45050305
   0.83179482  0.66359063  0.45015341
   0.00103663  0.50051781  0.44982069
Direct configuration=    30
   0.67026037 -0.00004725  0.12058278
   0.32969137 -0.00004725  0.12058278
   0.00004725  0.32973863  0.12058278
   0.00004725  0.67030763  0.12058278
   0.32969137  0.32973863  0.12058278
   0.67026037  0.67030763  0.12058278
   0.66666600  0.33333300  0.10227853
   0.33333300  0.66666600  0.14023241
   0.33608064  0.16804032  0.45001687
   0.49953377 -0.00093246  0.44968544
   0.33333267  0.66666633  0.44932154
   0.49953377  0.50046523  0.44968544
   0.83195868  0.16804032  0.45001687
   0.99999967  0.99999933  0.45036388
   0.83195868  0.66391836  0.45001687
   0.00093146  0.50046523  0.44968544
Direct configuration=    31
   0.67006391 -0.00006385  0.12085404
   0.32987124 -0.00006385  0.12085404
   0.00006385  0.32993509  0.12085404
   0.00006385  0.67012776  0.12085404
   0.32987124  0.32993509  0.12085404
   0.67006391  0.67012776  0.12085404
   0.66666600  0.33333300  0.10233540
   0.33333300  0.66666600  0.14072286
   0.33542518  0.16771259  0.44974380
   0.49963894 -0.00072213  0.44941494
   0.33333267  0.66666633  0.44905572
   0.49963894  0.50036006  0.44941494
   0.83228641  0.16771259  0.44974380
   0.99999967  0.99999933  0.45008553
   0.83228641  0.66457382  0.44974380
   0.00072113  0.50036006  0.44941494
Direct configuration=    32
   0.66967098 -0.00009704  0.12139657
   0.33023098 -0.00009704  0.12139657
   0.00009704  0.33032802  0.12139657
   0.00009704  0.66976802  0.12139657
   0.33023098  0.33032802  0.12139657
   0.66967098  0.66976802  0.12139657
   0.66666600  0.33333300  0.10244915
   0.33333300  0.66666600  0.14170377
   0.33411427  0.16705713  0.44919766
   0.49984927 -0.00030146  0.44887393
   0.33333267  0.66666633  0.44852409
   0.49984927  0.50014973  0.44887393
   0.83294187  0.16705713  0.44919766
   0.99999967  0.99999933  0.44952883
   0.83294187  0.66588473  0.44919766
   0.00030046  0.50014973  0.44887393
Direct configuration=    33
   0.66888513 -0.00016343  0.12248161
   0.33095045 -0.00016343  0.12248161
   0.00016343  0.33111387  0.12248161
   0.00016343  0.66904855  0.12248161
   0.33095045  0.33111387  0.12248161
   0.66888513  0.66904855  0.12248161
   0.66666600  0.33333300  0.10267664
   0.33333300  0.66666600  0.14366559
   0.33149244  0.16574622  0.44810538
   0.50026994  0.00053987  0.44779191
   0.33333267  0.66666633  0.44746082
   0.50026994  0.49972906  0.44779191
   0.83425278  0.16574622  0.44810538
   0.99999967  0.99999933  0.44841542
   0.83425278  0.66850656  0.44810538
  -0.00054087  0.49972906  0.44779191
Direct configuration=    34
   0.66935457 -0.00012377  0.12183343
   0.33052066 -0.00012377  0.12183343
   0.00012377  0.33064443  0.12183343
   0.00012377  0.66947834  0.12183343
   0.33052066  0.33064443  0.12183343
   0.66935457  0.66947834  0.12183343
   0.66666600  0.33333300  0.10254074
   0.33333300  0.66666600  0.14249365
   0.33305865  0.16652932  0.44875788
   0.50001864  0.00003728  0.44843828
   0.33333267  0.66666633  0.44809598
   0.50001864  0.49998036  0.44843828
   0.83346968  0.16652932  0.44875788
   0.99999967  0.99999933  0.44908054
   0.83346968  0.66694035  0.44875788
  -0.00003828  0.49998036  0.44843828
Direct configuration=    35
   0.66925593 -0.00012747  0.12185011
   0.33061560 -0.00012747  0.12185011
   0.00012747  0.33074307  0.12185011
   0.00012747  0.66938340  0.12185011
   0.33061560  0.33074307  0.12185011
   0.66925593  0.66938340  0.12185011
   0.66666600  0.33333300  0.10257094
   0.33333300  0.66666600  0.14248370
   0.33309456  0.16654728  0.44873865
   0.50001999  0.00003999  0.44842727
   0.33333267  0.66666633  0.44809475
   0.50001999  0.49997901  0.44842727
   0.83345172  0.16654728  0.44873865
   0.99999967  0.99999933  0.44905222
   0.83345172  0.66690444  0.44873865
  -0.00004099  0.49997901  0.44842727
Direct configuration=    36
   0.66895999 -0.00013857  0.12190013
   0.33090044 -0.00013857  0.12190013
   0.00013857  0.33103901  0.12190013
   0.00013857  0.66909856  0.12190013
   0.33090044  0.33103901  0.12190013
   0.66895999  0.66909856  0.12190013
   0.66666600  0.33333300  0.10266152
   0.33333300  0.66666600  0.14245385
   0.33320230  0.16660115  0.44868096
   0.50002405  0.00004811  0.44839423
   0.33333267  0.66666633  0.44809105
   0.50002405  0.49997495  0.44839423
   0.83339785  0.16660115  0.44868096
   0.99999967  0.99999933  0.44896726
   0.83339785  0.66679670  0.44868096
  -0.00004911  0.49997495  0.44839423
Direct configuration=    37
   0.66836812 -0.00016077  0.12200016
   0.33147011 -0.00016077  0.12200016
   0.00016077  0.33163088  0.12200016
   0.00016077  0.66852889  0.12200016
   0.33147011  0.33163088  0.12200016
   0.66836812  0.66852889  0.12200016
   0.66666600  0.33333300  0.10284269
   0.33333300  0.66666600  0.14239415
   0.33341778  0.16670889  0.44856559
   0.50003217  0.00006434  0.44832814
   0.33333267  0.66666633  0.44808366
   0.50003217  0.49996683  0.44832814
   0.83329011  0.16670889  0.44856559
   0.99999967  0.99999933  0.44879734
   0.83329011  0.66658122  0.44856559
  -0.00006534  0.49996683  0.44832814
Direct configuration=    38
   0.66847816 -0.00015665  0.12198156
   0.33136419 -0.00015665  0.12198156
   0.00015665  0.33152084  0.12198156
   0.00015665  0.66863481  0.12198156
   0.33136419  0.33152084  0.12198156
   0.66847816  0.66863481  0.12198156
   0.66666600  0.33333300  0.10280901
   0.33333300  0.66666600  0.14240525
   0.33337772  0.16668886  0.44858704
   0.50003066  0.00006132  0.44834043
   0.33333267  0.66666633  0.44808503
   0.50003066  0.49996834  0.44834043
   0.83331014  0.16668886  0.44858704
   0.99999967  0.99999933  0.44882893
   0.83331014  0.66662128  0.44858704
  -0.00006232  0.49996834  0.44834043
Direct configuration=    39
   0.66849640 -0.00014623  0.12200448
   0.33135637 -0.00014623  0.12200448
   0.00014623  0.33150260  0.12200448
   0.00014623  0.66864263  0.12200448
   0.33135637  0.33150260  0.12200448
   0.66849640  0.66864263  0.12200448
   0.66666600  0.33333300  0.10288905
   0.33333300  0.66666600  0.14233430
   0.33337237  0.16668619  0.44855733
   0.50001340  0.00002680  0.44833315
   0.33333267  0.66666633  0.44810216
   0.50001340  0.49998560  0.44833315
   0.83331281  0.16668619  0.44855733
   0.99999967  0.99999933  0.44877622
   0.83331281  0.66662663  0.44855733
  -0.00002780  0.49998560  0.44833315
Direct configuration=    40
   0.66855110 -0.00011499  0.12207322
   0.33133291 -0.00011499  0.12207322
   0.00011499  0.33144790  0.12207322
   0.00011499  0.66866609  0.12207322
   0.33133291  0.33144790  0.12207322
   0.66855110  0.66866609  0.12207322
   0.66666600  0.33333300  0.10312916
   0.33333300  0.66666600  0.14212144
   0.33335634  0.16667817  0.44846818
   0.49996161 -0.00007678  0.44831130
   0.33333267  0.66666633  0.44815353
   0.49996161  0.50003739  0.44831130
   0.83332083  0.16667817  0.44846818
   0.99999967  0.99999933  0.44861809
   0.83332083  0.66664266  0.44846818
   0.00007578  0.50003739  0.44831130
Direct configuration=    41
   0.66866051 -0.00005250  0.12221071
   0.33128599 -0.00005250  0.12221071
   0.00005250  0.33133849  0.12221071
   0.00005250  0.66871301  0.12221071
   0.33128599  0.33133849  0.12221071
   0.66866051  0.66871301  0.12221071
   0.66666600  0.33333300  0.10360940
   0.33333300  0.66666600  0.14169573
   0.33332426  0.16666213  0.44828989
   0.49985803 -0.00028395  0.44826762
   0.33333267  0.66666633  0.44825628
   0.49985803  0.50014097  0.44826762
   0.83333687  0.16666213  0.44828989
   0.99999967  0.99999933  0.44830181
   0.83333687  0.66667474  0.44828989
   0.00028295  0.50014097  0.44826762
Direct configuration=    42
   0.66887931  0.00007247  0.12248569
   0.33119216  0.00007247  0.12248569
  -0.00007247  0.33111969  0.12248569
  -0.00007247  0.66880684  0.12248569
   0.33119216  0.33111969  0.12248569
   0.66887931  0.66880684  0.12248569
   0.66666600  0.33333300  0.10456988
   0.33333300  0.66666600  0.14084432
   0.33326011  0.16663006  0.44793330
   0.49965086 -0.00069827  0.44818024
   0.33333267  0.66666633  0.44846177
   0.49965086  0.50034814  0.44818024
   0.83336894  0.16663006  0.44793330
   0.99999967  0.99999933  0.44766927
   0.83336894  0.66673889  0.44793330
   0.00069727  0.50034814  0.44818024
Direct configuration=    43
   0.66890617  0.00006570  0.12251773
   0.33115854  0.00006570  0.12251773
  -0.00006570  0.33109283  0.12251773
  -0.00006570  0.66884046  0.12251773
   0.33115854  0.33109283  0.12251773
   0.66890617  0.66884046  0.12251773
   0.66666600  0.33333300  0.10467792
   0.33333300  0.66666600  0.14074905
   0.33327221  0.16663611  0.44789633
   0.49970719 -0.00058562  0.44816576
   0.33333267  0.66666633  0.44846959
   0.49970719  0.50029181  0.44816576
   0.83336289  0.16663611  0.44789633
   0.99999967  0.99999933  0.44761084
   0.83336289  0.66672679  0.44789633
   0.00058462  0.50029181  0.44816576
Direct configuration=    44
   0.66898672  0.00004538  0.12261384
   0.33105767  0.00004538  0.12261384
  -0.00004538  0.33101228  0.12261384
  -0.00004538  0.66894133  0.12261384
   0.33105767  0.33101228  0.12261384
   0.66898672  0.66894133  0.12261384
   0.66666600  0.33333300  0.10500202
   0.33333300  0.66666600  0.14046326
   0.33330852  0.16665426  0.44778540
   0.49987616 -0.00024768  0.44812230
   0.33333267  0.66666633  0.44849306
   0.49987616  0.50012284  0.44812230
   0.83334474  0.16665426  0.44778540
   0.99999967  0.99999933  0.44743553
   0.83334474  0.66669048  0.44778540
   0.00024668  0.50012284  0.44812230
Direct configuration=    45
   0.66914782  0.00000475  0.12280606
   0.33085593  0.00000475  0.12280606
  -0.00000475  0.33085118  0.12280606
  -0.00000475  0.66914307  0.12280606
   0.33085593  0.33085118  0.12280606
   0.66914782  0.66914307  0.12280606
   0.66666600  0.33333300  0.10565023
   0.33333300  0.66666600  0.13989168
   0.33338114  0.16669057  0.44756356
   0.50021411  0.00042821  0.44803538
   0.33333267  0.66666633  0.44853998
   0.50021411  0.49978489  0.44803538
   0.83330843  0.16669057  0.44756356
   0.99999967  0.99999933  0.44708492
   0.83330843  0.66661786  0.44756356
  -0.00042921  0.49978489  0.44803538
Direct configuration=    46
   0.66906189  0.00002642  0.12270353
   0.33096353  0.00002642  0.12270353
  -0.00002642  0.33093711  0.12270353
  -0.00002642  0.66903547  0.12270353
   0.33096353  0.33093711  0.12270353
   0.66906189  0.66903547  0.12270353
   0.66666600  0.33333300  0.10530449
   0.33333300  0.66666600  0.14019655
   0.33334241  0.16667121  0.44768189
   0.50003385  0.00006771  0.44808174
   0.33333267  0.66666633  0.44851495
   0.50003385  0.49996515  0.44808174
   0.83332779  0.16667121  0.44768189
   0.99999967  0.99999933  0.44727192
   0.83332779  0.66665659  0.44768189
  -0.00006871  0.49996515  0.44808174
Direct configuration=    47
   0.66905755  0.00001202  0.12271808
   0.33095347  0.00001202  0.12271808
  -0.00001202  0.33094145  0.12271808
  -0.00001202  0.66904553  0.12271808
   0.33095347  0.33094145  0.12271808
   0.66905755  0.66904553  0.12271808
   0.66666600  0.33333300  0.10534355
   0.33333300  0.66666600  0.14017116
   0.33333867  0.16666933  0.44767671
   0.50003253  0.00006506  0.44806232
   0.33333267  0.66666633  0.44847550
   0.50003253  0.49996647  0.44806232
   0.83332967  0.16666933  0.44767671