  16  16   0   0
  0.2070545E+02  0.5050000E-09  0.5050000E-09  0.1500000E-08  0.5000000E-15
  1.000000000000000E-004
  CAR 
 Lattice                                 
      9.73850896    -21.28045308  301     -0.98308629      1.00000000
    -21.280  0.0000E+00  0.0000E+00  0.0000E+00  0.0000E+00
    -21.177  0.0000E+00  0.0000E+00  0.0000E+00  0.0000E+00
    -21.074  0.0000E+00  0.0000E+00  0.0000E+00  0.0000E+00
    -20.970  0.0000E+00  0.0000E+00  0.0000E+00  0.0000E+00
    -20.867  0.0000E+00  0.0000E+00  0.0000E+00  0.0000E+00
    -20.763  0.0000E+00  0.0000E+00  0.0000E+00  0.0000E+00
    -20.660  0.0000E+00  0.0000E+00  0.0000E+00  0.0000E+00
    -20.557  0.0000E+00  0.0000E+00  0.0000E+00  0.0000E+00
    -20.453  0.5825E-19  0.5825E-19  0.6023E-20  0.6023E-20
    -20.350  0.3509E-14  0.3509E-14  0.3628E-15  0.3628E-15
    -20.246  0.3433E-10  0.3433E-10  0.3550E-11  0.3550E-11
    -20.143  0.4652E-07  0.4652E-07  0.4813E-08  0.4813E-08
    -20.040  0.9432E-05  0.9432E-05  0.9801E-06  0.9801E-06
    -19.936  0.3157E-03  0.3157E-03  0.3362E-04  0.3362E-04
    -19.833  0.2133E-02  0.2133E-02  0.2542E-03  0.2542E-03
    -19.730  0.4414E-02  0.4414E-02  0.7105E-03  0.7105E-03
    -19.626  0.4918E-02  0.4918E-02  0.1219E-02  0.1219E-02
    -19.523  0.5175E-02  0.5175E-02  0.1754E-02  0.1754E-02
    -19.419  0.4666E-02  0.4666E-02  0.2236E-02  0.2236E-02
    -19.316  0.5681E-02  0.5681E-02  0.2824E-02  0.2824E-02
    -19.213  0.4281E-02  0.4281E-02  0.3267E-02  0.3267E-02
    -19.109  0.5292E-02  0.5292E-02  0.3814E-02  0.3814E-02
    -19.006  0.5894E-02  0.5894E-02  0.4423E-02  0.4423E-02
    -18.902  0.3670E-02  0.3670E-02  0.4803E-02  0.4803E-02
    -18.799  0.5367E-02  0.5367E-02  0.5358E-02  0.5358E-02
    -18.696  0.6357E-02  0.6357E-02  0.6015E-02  0.6015E-02
    -18.592  0.4405E-02  0.4405E-02  0.6470E-02  0.6470E-02
    -18.489  0.3443E-02  0.3443E-02  0.6826E-02  0.6826E-02
    -18.385  0.6800E-02  0.6800E-02  0.7529E-02  0.7529E-02
    -18.282  0.5964E-02  0.5964E-02  0.8146E-02  0.8146E-02
    -18.179  0.4239E-02  0.4239E-02  0.8584E-02  0.8584E-02
    -18.075  0.3562E-02  0.3562E-02  0.8953E-02  0.8953E-02
    -17.972  0.8092E-02  0.8092E-02  0.9789E-02  0.9789E-02
    -17.868  0.1294E-01  0.1294E-01  0.1113E-01  0.1113E-01
    -17.765  0.1155E-01  0.1155E-01  0.1232E-01  0.1232E-01
    -17.662  0.1149E-01  0.1149E-01  0.1351E-01  0.1351E-01
    -17.558  0.1349E-01  0.1349E-01  0.1490E-01  0.1490E-01
    -17.455  0.1787E-01  0.1787E-01  0.1675E-01  0.1675E-01
    -17.351  0.2192E-01  0.2192E-01  0.1902E-01  0.1902E-01
    -17.248  0.1788E-01  0.1788E-01  0.2087E-01  0.2087E-01
    -17.145  0.6713E-02  0.6713E-02  0.2156E-01  0.2156E-01
    -17.041  0.4663E-02  0.4663E-02  0.2204E-01  0.2204E-01
    -16.938  0.7285E-02  0.7285E-02  0.2280E-01  0.2280E-01
    -16.834  0.6745E-02  0.6745E-02  0.2349E-01  0.2349E-01
    -16.731  0.5509E-02  0.5509E-02  0.2406E-01  0.2406E-01
    -16.628  0.4565E-02  0.4565E-02  0.2453E-01  0.2453E-01
    -16.524  0.2657E-02  0.2657E-02  0.2481E-01  0.2481E-01
    -16.421  0.4610E-02  0.4610E-02  0.2529E-01  0.2529E-01
    -16.317  0.9304E-02  0.9304E-02  0.2625E-01  0.2625E-01
    -16.214  0.6186E-02  0.6186E-02  0.2689E-01  0.2689E-01
    -16.111  0.4788E-02  0.4788E-02  0.2738E-01  0.2738E-01
    -16.007  0.4325E-02  0.4325E-02  0.2783E-01  0.2783E-01
    -15.904  0.4148E-02  0.4148E-02  0.2826E-01  0.2826E-01
    -15.800  0.3956E-02  0.3956E-02  0.2867E-01  0.2867E-01
    -15.697  0.9787E-02  0.9787E-02  0.2968E-01  0.2968E-01
    -15.594  0.1390E-01  0.1390E-01  0.3112E-01  0.3112E-01
    -15.490  0.1453E-01  0.1453E-01  0.3262E-01  0.3262E-01
    -15.387  0.1646E-01  0.1646E-01  0.3432E-01  0.3432E-01
    -15.283  0.1374E-01  0.1374E-01  0.3574E-01  0.3574E-01
    -15.180  0.1199E-01  0.1199E-01  0.3698E-01  0.3698E-01
    -15.077  0.1472E-01  0.1472E-01  0.3850E-01  0.3850E-01
    -14.973  0.1864E-01  0.1864E-01  0.4043E-01  0.4043E-01
    -14.870  0.1507E-01  0.1507E-01  0.4199E-01  0.4199E-01
    -14.766  0.1326E-01  0.1326E-01  0.4336E-01  0.4336E-01
    -14.663  0.9752E-02  0.9752E-02  0.4437E-01  0.4437E-01
    -14.560  0.1083E-01  0.1083E-01  0.4549E-01  0.4549E-01
    -14.456  0.1685E-01  0.1685E-01  0.4723E-01  0.4723E-01
    -14.353  0.2063E-01  0.2063E-01  0.4936E-01  0.4936E-01
    -14.249  0.1354E-01  0.1354E-01  0.5076E-01  0.5076E-01
    -14.146  0.8972E-02  0.8972E-02  0.5169E-01  0.5169E-01
    -14.043  0.7433E-02  0.7433E-02  0.5246E-01  0.5246E-01
    -13.939  0.8248E-02  0.8248E-02  0.5331E-01  0.5331E-01
    -13.836  0.7373E-02  0.7374E-02  0.5408E-01  0.5408E-01
    -13.733  0.4792E-02  0.4792E-02  0.5457E-01  0.5457E-01
    -13.629  0.2998E-02  0.2998E-02  0.5488E-01  0.5488E-01
    -13.526  0.4671E-02  0.4671E-02  0.5536E-01  0.5536E-01
    -13.422  0.4532E-02  0.4532E-02  0.5583E-01  0.5583E-01
    -13.319  0.6261E-02  0.6261E-02  0.5648E-01  0.5648E-01
    -13.216  0.5887E-02  0.5887E-02  0.5709E-01  0.5709E-01
    -13.112  0.6491E-02  0.6491E-02  0.5776E-01  0.5776E-01
    -13.009  0.8210E-02  0.8210E-02  0.5861E-01  0.5861E-01
    -12.905  0.7668E-02  0.7668E-02  0.5940E-01  0.5940E-01
    -12.802  0.8248E-02  0.8248E-02  0.6026E-01  0.6026E-01
    -12.699  0.5872E-02  0.5872E-02  0.6086E-01  0.6086E-01
    -12.595  0.6981E-02  0.6981E-02  0.6158E-01  0.6158E-01
    -12.492  0.4985E-02  0.4985E-02  0.6210E-01  0.6210E-01
    -12.388  0.4415E-02  0.4415E-02  0.6256E-01  0.6256E-01
    -12.285  0.8636E-02  0.8636E-02  0.6345E-01  0.6345E-01
    -12.182  0.6841E-02  0.6841E-02  0.6416E-01  0.6416E-01
    -12.078  0.7239E-02  0.7239E-02  0.6490E-01  0.6490E-01
    -11.975  0.1272E-01  0.1272E-01  0.6622E-01  0.6622E-01
    -11.871  0.1639E-01  0.1639E-01  0.6792E-01  0.6792E-01
    -11.768  0.1489E-01  0.1489E-01  0.6946E-01  0.6946E-01
    -11.665  0.1483E-01  0.1483E-01  0.7099E-01  0.7099E-01
    -11.561  0.1683E-01  0.1683E-01  0.7273E-01  0.7273E-01
    -11.458  0.1454E-01  0.1454E-01  0.7423E-01  0.7423E-01
    -11.354  0.7878E-02  0.7878E-02  0.7505E-01  0.7505E-01
    -11.251  0.9740E-02  0.9740E-02  0.7605E-01  0.7605E-01
    -11.148  0.1201E-01  0.1201E-01  0.7730E-01  0.7730E-01
    -11.044  0.1151E-01  0.1151E-01  0.7849E-01  0.7849E-01
    -10.941  0.5508E-02  0.5508E-02  0.7906E-01  0.7906E-01
    -10.837  0.6090E-02  0.6090E-02  0.7969E-01  0.7969E-01
    -10.734  0.1566E-01  0.1566E-01  0.8131E-01  0.8131E-01
    -10.631  0.1815E-01  0.1815E-01  0.8318E-01  0.8318E-01
    -10.527  0.7845E-02  0.7845E-02  0.8399E-01  0.8399E-01
    -10.424  0.6451E-02  0.6451E-02  0.8466E-01  0.8466E-01
    -10.320  0.1233E-01  0.1233E-01  0.8593E-01  0.8593E-01
    -10.217  0.1937E-01  0.1937E-01  0.8794E-01  0.8794E-01
    -10.114  0.1517E-01  0.1517E-01  0.8951E-01  0.8951E-01
    -10.010  0.8536E-02  0.8536E-02  0.9039E-01  0.9039E-01
     -9.907  0.8808E-02  0.8808E-02  0.9130E-01  0.9130E-01
     -9.803  0.1077E-01  0.1077E-01  0.9241E-01  0.9241E-01
     -9.700  0.1109E-01  0.1109E-01  0.9356E-01  0.9356E-01
     -9.597  0.8490E-02  0.8490E-02  0.9444E-01  0.9444E-01
     -9.493  0.1036E-01  0.1036E-01  0.9551E-01  0.9551E-01
     -9.390  0.1018E-01  0.1018E-01  0.9656E-01  0.9656E-01
     -9.286  0.9904E-02  0.9904E-02  0.9758E-01  0.9758E-01
     -9.183  0.8734E-02  0.8734E-02  0.9849E-01  0.9849E-01
     -9.080  0.3080E-02  0.3080E-02  0.9881E-01  0.9881E-01
     -8.976  0.5440E-02  0.5440E-02  0.9937E-01  0.9937E-01
     -8.873  0.1342E-01  0.1342E-01  0.1008E+00  0.1008E+00
     -8.769  0.1915E-01  0.1915E-01  0.1027E+00  0.1027E+00
     -8.666  0.1583E-01  0.1583E-01  0.1044E+00  0.1044E+00
     -8.563  0.8677E-02  0.8677E-02  0.1053E+00  0.1053E+00
     -8.459  0.8420E-02  0.8420E-02  0.1061E+00  0.1061E+00
     -8.356  0.1059E-01  0.1059E-01  0.1072E+00  0.1072E+00
     -8.252  0.1876E-01  0.1876E-01  0.1092E+00  0.1092E+00
     -8.149  0.2287E-01  0.2287E-01  0.1115E+00  0.1115E+00
     -8.046  0.2272E-01  0.2272E-01  0.1139E+00  0.1139E+00
     -7.942  0.1557E-01  0.1557E-01  0.1155E+00  0.1155E+00
     -7.839  0.1360E-01  0.1360E-01  0.1169E+00  0.1169E+00
     -7.736  0.1469E-01  0.1469E-01  0.1184E+00  0.1184E+00
     -7.632  0.2574E-01  0.2574E-01  0.1211E+00  0.1211E+00
     -7.529  0.2819E-01  0.2819E-01  0.1240E+00  0.1240E+00
     -7.425  0.2106E-01  0.2106E-01  0.1262E+00  0.1262E+00
     -7.322  0.2044E-01  0.2044E-01  0.1283E+00  0.1283E+00
     -7.219  0.2421E-01  0.2421E-01  0.1308E+00  0.1308E+00
     -7.115  0.2485E-01  0.2485E-01  0.1334E+00  0.1334E+00
     -7.012  0.2617E-01  0.2617E-01  0.1361E+00  0.1361E+00
     -6.908  0.2196E-01  0.2196E-01  0.1383E+00  0.1383E+00
     -6.805  0.2098E-01  0.2098E-01  0.1405E+00  0.1405E+00
     -6.702  0.2844E-01  0.2844E-01  0.1435E+00  0.1435E+00
     -6.598  0.2188E-01  0.2188E-01  0.1457E+00  0.1457E+00
     -6.495  0.2156E-01  0.2156E-01  0.1479E+00  0.1479E+00
     -6.391  0.2564E-01  0.2564E-01  0.1506E+00  0.1506E+00
     -6.288  0.2434E-01  0.2434E-01  0.1531E+00  0.1531E+00
     -6.185  0.2251E-01  0.2251E-01  0.1554E+00  0.1554E+00
     -6.081  0.1760E-01  0.1760E-01  0.1573E+00  0.1573E+00
     -5.978  0.1698E-01  0.1698E-01  0.1590E+00  0.1590E+00
     -5.874  0.2211E-01  0.2211E-01  0.1613E+00  0.1613E+00
     -5.771  0.2688E-01  0.2688E-01  0.1641E+00  0.1641E+00
     -5.668  0.2031E-01  0.2031E-01  0.1662E+00  0.1662E+00
     -5.564  0.1973E-01  0.1973E-01  0.1682E+00  0.1682E+00
     -5.461  0.2227E-01  0.2227E-01  0.1705E+00  0.1705E+00
     -5.357  0.2825E-01  0.2825E-01  0.1734E+00  0.1734E+00
     -5.254  0.2641E-01  0.2641E-01  0.1762E+00  0.1762E+00
     -5.151  0.1490E-01  0.1490E-01  0.1777E+00  0.1777E+00
     -5.047  0.1256E-01  0.1256E-01  0.1790E+00  0.1790E+00
     -4.944  0.1811E-01  0.1811E-01  0.1809E+00  0.1809E+00
     -4.840  0.1880E-01  0.1880E-01  0.1828E+00  0.1828E+00
     -4.737  0.1712E-01  0.1712E-01  0.1846E+00  0.1846E+00
     -4.634  0.1623E-01  0.1623E-01  0.1863E+00  0.1863E+00
     -4.530  0.1667E-01  0.1667E-01  0.1880E+00  0.1880E+00
     -4.427  0.1922E-01  0.1922E-01  0.1900E+00  0.1900E+00
     -4.323  0.2015E-01  0.2015E-01  0.1921E+00  0.1921E+00
     -4.220  0.2720E-01  0.2720E-01  0.1949E+00  0.1949E+00
     -4.117  0.4138E-01  0.4138E-01  0.1992E+00  0.1992E+00
     -4.013  0.3615E-01  0.3615E-01  0.2029E+00  0.2029E+00
     -3.910  0.2589E-01  0.2589E-01  0.2056E+00  0.2056E+00
     -3.806  0.1760E-01  0.1760E-01  0.2074E+00  0.2074E+00
     -3.703  0.1309E-01  0.1309E-01  0.2088E+00  0.2088E+00
     -3.600  0.1446E-01  0.1446E-01  0.2102E+00  0.2102E+00
     -3.496  0.1821E-01  0.1821E-01  0.2121E+00  0.2121E+00
     -3.393  0.2229E-01  0.2229E-01  0.2144E+00  0.2144E+00
     -3.289  0.1567E-01  0.1567E-01  0.2161E+00  0.2161E+00
     -3.186  0.1440E-01  0.1440E-01  0.2175E+00  0.2175E+00
     -3.083  0.1655E-01  0.1655E-01  0.2193E+00  0.2193E+00
     -2.979  0.2052E-01  0.2052E-01  0.2214E+00  0.2214E+00
     -2.876  0.2561E-01  0.2561E-01  0.2240E+00  0.2240E+00
     -2.772  0.1609E-01  0.1609E-01  0.2257E+00  0.2257E+00
     -2.669  0.1380E-01  0.1380E-01  0.2271E+00  0.2271E+00
     -2.566  0.2163E-01  0.2163E-01  0.2294E+00  0.2294E+00
     -2.462  0.2086E-01  0.2086E-01  0.2315E+00  0.2315E+00
     -2.359  0.1908E-01  0.1908E-01  0.2335E+00  0.2335E+00
     -2.255  0.2256E-01  0.2256E-01  0.2358E+00  0.2358E+00
     -2.152  0.1680E-01  0.1680E-01  0.2375E+00  0.2375E+00
     -2.049  0.5110E-02  0.5110E-02  0.2381E+00  0.2381E+00
     -1.945  0.4342E-02  0.4342E-02  0.2385E+00  0.2385E+00
     -1.842  0.8283E-02  0.8283E-02  0.2394E+00  0.2394E+00
     -1.739  0.5368E-02  0.5368E-02  0.2399E+00  0.2399E+00
     -1.635  0.4641E-02  0.4641E-02  0.2404E+00  0.2404E+00
     -1.532  0.7627E-02  0.7627E-02  0.2412E+00  0.2412E+00
     -1.428  0.5474E-02  0.5474E-02  0.2418E+00  0.2418E+00
     -1.325  0.2408E-02  0.2408E-02  0.2420E+00  0.2420E+00
     -1.222  0.5255E-03  0.5255E-03  0.2421E+00  0.2421E+00
     -1.118  0.5662E-04  0.5662E-04  0.2421E+00  0.2421E+00
     -1.015  0.5141E-03  0.5141E-03  0.2421E+00  0.2421E+00
     -0.911  0.2600E-02  0.2600E-02  0.2424E+00  0.2424E+00
     -0.808  0.3899E-02  0.3899E-02  0.2428E+00  0.2428E+00
     -0.705  0.4942E-02  0.4942E-02  0.2433E+00  0.2433E+00
     -0.601  0.1019E-01  0.1019E-01  0.2444E+00  0.2444E+00
     -0.498  0.1046E-01  0.1046E-01  0.2455E+00  0.2455E+00
     -0.394  0.1006E-01  0.1006E-01  0.2465E+00  0.2465E+00
     -0.291  0.1274E-01  0.1274E-01  0.2478E+00  0.2478E+00
     -0.188  0.1137E-01  0.1137E-01  0.2490E+00  0.2490E+00
     -0.084  0.6397E-02  0.6397E-02  0.2496E+00  0.2496E+00
      0.019  0.2527E-02  0.2527E-02  0.2499E+00  0.2499E+00
      0.123  0.8061E-03  0.8061E-03  0.2500E+00  0.2500E+00
      0.226  0.1243E-02  0.1243E-02  0.2501E+00  0.2501E+00
      0.329  0.6035E-02  0.6035E-02  0.2507E+00  0.2507E+00
      0.433  0.1022E-01  0.1022E-01  0.2518E+00  0.2518E+00
      0.536  0.7555E-02  0.7555E-02  0.2526E+00  0.2526E+00
      0.640  0.3410E-02  0.3410E-02  0.2529E+00  0.2529E+00
      0.743  0.6285E-02  0.6285E-02  0.2536E+00  0.2536E+00
      0.846  0.1246E-01  0.1246E-01  0.2549E+00  0.2549E+00
      0.950  0.1343E-01  0.1343E-01  0.2563E+00  0.2563E+00
      1.053  0.1113E-01  0.1113E-01  0.2574E+00  0.2574E+00
      1.157  0.5187E-02  0.5187E-02  0.2579E+00  0.2579E+00
      1.260  0.4774E-02  0.4774E-02  0.2584E+00  0.2584E+00
      1.363  0.5485E-02  0.5485E-02  0.2590E+00  0.2590E+00
      1.467  0.5241E-02  0.5241E-02  0.2596E+00  0.2596E+00
      1.570  0.6760E-02  0.6760E-02  0.2603E+00  0.2603E+00
      1.674  0.1085E-01  0.1085E-01  0.2614E+00  0.2614E+00
      1.777  0.9306E-02  0.9306E-02  0.2623E+00  0.2623E+00
      1.880  0.3596E-02  0.3596E-02  0.2627E+00  0.2627E+00
      1.984  0.2707E-02  0.2707E-02  0.2630E+00  0.2630E+00
      2.087  0.8432E-02  0.8432E-02  0.2639E+00  0.2639E+00
      2.191  0.1650E-01  0.1650E-01  0.2656E+00  0.2656E+00
      2.294  0.1414E-01  0.1414E-01  0.2670E+00  0.2670E+00
      2.397  0.1130E-01  0.1130E-01  0.2682E+00  0.2682E+00
      2.501  0.1186E-01  0.1186E-01  0.2694E+00  0.2694E+00
      2.604  0.1195E-01  0.1195E-01  0.2707E+00  0.2707E+00
      2.708  0.1100E-01  0.1100E-01  0.2718E+00  0.2718E+00
      2.811  0.7088E-02  0.7087E-02  0.2725E+00  0.2725E+00
      2.914  0.7327E-02  0.7326E-02  0.2733E+00  0.2733E+00
      3.018  0.1290E-01  0.1290E-01  0.2746E+00  0.2746E+00
      3.121  0.1346E-01  0.1346E-01  0.2760E+00  0.2760E+00
      3.225  0.1356E-01  0.1356E-01  0.2774E+00  0.2774E+00
      3.328  0.1204E-01  0.1204E-01  0.2787E+00  0.2787E+00
      3.431  0.7561E-02  0.7561E-02  0.2794E+00  0.2794E+00
      3.535  0.1045E-01  0.1045E-01  0.2805E+00  0.2805E+00
      3.638  0.1316E-01  0.1316E-01  0.2819E+00  0.2819E+00
      3.742  0.9791E-02  0.9790E-02  0.2829E+00  0.2829E+00
      3.845  0.1099E-01  0.1098E-01  0.2840E+00  0.2840E+00
      3.948  0.1836E-01  0.1836E-01  0.2859E+00  0.2859E+00
      4.052  0.1697E-01  0.1697E-01  0.2877E+00  0.2877E+00
      4.155  0.1280E-01  0.1280E-01  0.2890E+00  0.2890E+00
      4.258  0.1542E-01  0.1542E-01  0.2906E+00  0.2906E+00
      4.362  0.1654E-01  0.1654E-01  0.2923E+00  0.2923E+00
      4.465  0.1337E-01  0.1337E-01  0.2937E+00  0.2937E+00
      4.569  0.1475E-01  0.1476E-01  0.2952E+00  0.2952E+00
      4.672  0.1270E-01  0.1270E-01  0.2965E+00  0.2965E+00
      4.775  0.1469E-01  0.1469E-01  0.2981E+00  0.2981E+00
      4.879  0.1771E-01  0.1771E-01  0.2999E+00  0.2999E+00
      4.982  0.2097E-01  0.2097E-01  0.3021E+00  0.3021E+00
      5.086  0.1775E-01  0.1776E-01  0.3039E+00  0.3039E+00
      5.189  0.1623E-01  0.1623E-01  0.3056E+00  0.3056E+00
      5.292  0.1465E-01  0.1465E-01  0.3071E+00  0.3071E+00
      5.396  0.1709E-01  0.1708E-01  0.3088E+00  0.3088E+00
      5.499  0.1991E-01  0.1991E-01  0.3109E+00  0.3109E+00
      5.603  0.1634E-01  0.1634E-01  0.3126E+00  0.3126E+00
      5.706  0.1449E-01  0.1449E-01  0.3141E+00  0.3141E+00
      5.809  0.1908E-01  0.1908E-01  0.3161E+00  0.3161E+00
      5.913  0.2498E-01  0.2497E-01  0.3186E+00  0.3186E+00
      6.016  0.2518E-01  0.2518E-01  0.3213E+00  0.3213E+00
      6.120  0.2672E-01  0.2672E-01  0.3240E+00  0.3240E+00
      6.223  0.2638E-01  0.2638E-01  0.3267E+00  0.3267E+00
      6.326  0.2556E-01  0.2556E-01  0.3294E+00  0.3294E+00
      6.430  0.2211E-01  0.2211E-01  0.3317E+00  0.3317E+00
      6.533  0.1818E-01  0.1819E-01  0.3336E+00  0.3336E+00
      6.637  0.2541E-01  0.2541E-01  0.3362E+00  0.3362E+00
      6.740  0.3327E-01  0.3327E-01  0.3396E+00  0.3396E+00
      6.843  0.2948E-01  0.2948E-01  0.3427E+00  0.3427E+00
      6.947  0.2957E-01  0.2957E-01  0.3457E+00  0.3457E+00
      7.050  0.3454E-01  0.3454E-01  0.3493E+00  0.3493E+00
      7.154  0.2975E-01  0.2976E-01  0.3524E+00  0.3524E+00
      7.257  0.2862E-01  0.2863E-01  0.3553E+00  0.3553E+00
      7.360  0.3928E-01  0.3927E-01  0.3594E+00  0.3594E+00
      7.464  0.3285E-01  0.3285E-01  0.3628E+00  0.3628E+00
      7.567  0.2364E-01  0.2363E-01  0.3652E+00  0.3652E+00
      7.671  0.2491E-01  0.2490E-01  0.3678E+00  0.3678E+00
      7.774  0.2611E-01  0.2612E-01  0.3705E+00  0.3705E+00
      7.877  0.1865E-01  0.1864E-01  0.3724E+00  0.3724E+00
      7.981  0.1270E-01  0.1271E-01  0.3737E+00  0.3737E+00
      8.084  0.6566E-02  0.6574E-02  0.3744E+00  0.3744E+00
      8.188  0.2117E-02  0.2117E-02  0.3746E+00  0.3746E+00
      8.291  0.1195E-02  0.1196E-02  0.3748E+00  0.3748E+00
      8.394  0.1670E-02  0.1670E-02  0.3749E+00  0.3749E+00
      8.498  0.5265E-03  0.5258E-03  0.3750E+00  0.3750E+00
      8.601  0.2600E-04  0.2592E-04  0.3750E+00  0.3750E+00
      8.705  0.1805E-06  0.1797E-06  0.3750E+00  0.3750E+00
      8.808  0.1640E-09  0.1630E-09  0.3750E+00  0.3750E+00
      8.911  0.1872E-13  0.1859E-13  0.3750E+00  0.3750E+00
      9.015  0.1165E-18  0.1165E-18  0.3750E+00  0.3750E+00
      9.118  0.0000E+00  0.0000E+00  0.3750E+00  0.3750E+00
      9.222  0.0000E+00  0.0000E+00  0.3750E+00  0.3750E+00
      9.325  0.0000E+00  0.0000E+00  0.3750E+00  0.3750E+00
      9.428  0.0000E+00  0.0000E+00  0.3750E+00  0.3750E+00
      9.532  0.0000E+00  0.0000E+00  0.3750E+00  0.3750E+00
      9.635  0.0000E+00  0.0000E+00  0.3750E+00  0.3750E+00
      9.739  0.0000E+00  0.0000E+00  0.3750E+00  0.3750E+00
