Lattice                                 
           1
     4.307610    2.487000    0.000000
    -4.307610    2.487000    0.000000
     0.000000    0.000000   15.000000
   B    C 
     8     8
Direct configuration=     1
   0.66888689  0.00000000  0.10000000
   0.33111211  0.00000000  0.10000000
   0.00000000  0.33111211  0.10000000
   0.00000000  0.66888689  0.10000000
   0.33111211  0.33111211  0.10000000
   0.66888689  0.66888689  0.10000000
   0.66666600  0.33333300  0.09922189
   0.33333300  0.66666600  0.10077811
   0.27777711  0.22222189  0.46960000
   0.44444411  0.05555489  0.46960000
   0.27777711  0.72222189  0.46960000
   0.44444411  0.55555489  0.46960000
   0.77777711  0.22222189  0.46960000
   0.94444411  0.05555489  0.46960000
   0.77777711  0.72222189  0.46960000
   0.94444411  0.55555489  0.46960000
Direct configuration=     2
   0.67071095 -0.00000010  0.10002622
   0.32928816 -0.00000012  0.10002627
   0.00000010  0.32928805  0.10002622
   0.00000012  0.67071084  0.10002627
   0.32928784  0.32928782  0.10002630
   0.67071118  0.67071116  0.10002630
   0.66666614  0.33333286  0.09924289
   0.33333259  0.66666641  0.10081542
   0.27777226  0.22221744  0.46957332
   0.44444184  0.05555715  0.46957271
   0.27777720  0.72222180  0.46957221
   0.44444491  0.55555409  0.46957293
   0.77778054  0.22221846  0.46957314
   0.94444465  0.05555435  0.46957378
   0.77778156  0.72222674  0.46957332
   0.94444185  0.55555716  0.46957271
Direct configuration=     3
   0.66981499 -0.00000005  0.10001334
   0.33018407 -0.00000006  0.10001337
   0.00000005  0.33018401  0.10001334
   0.00000006  0.66981493  0.10001337
   0.33018391  0.33018389  0.10001338
   0.66981511  0.66981509  0.10001338
   0.66666607  0.33333293  0.09923257
   0.33333279  0.66666621  0.10079710
   0.27777464  0.22221962  0.46958643
   0.44444296  0.05555604  0.46958611
   0.27777715  0.72222185  0.46958586
   0.44444452  0.55555448  0.46958622
   0.77777885  0.22222015  0.46958633
   0.94444439  0.05555461  0.46958666
   0.77777938  0.72222436  0.46958643
   0.94444296  0.55555604  0.46958611
Direct configuration=     4
   0.66982042 -0.00000005  0.10001342
   0.33017864 -0.00000006  0.10001345
   0.00000005  0.33017858  0.10001342
   0.00000006  0.66982036  0.10001345
   0.33017847  0.33017846  0.10001346
   0.66982054  0.66982053  0.10001346
   0.66666607  0.33333293  0.09923263
   0.33333279  0.66666621  0.10079721
   0.27777463  0.22221961  0.46958635
   0.44444295  0.05555605  0.46958603
   0.27777715  0.72222185  0.46958578
   0.44444452  0.55555448  0.46958614
   0.77777887  0.22222013  0.46958625
   0.94444439  0.05555461  0.46958658
   0.77777939  0.72222437  0.46958635
   0.94444295  0.55555605  0.46958603
Direct configuration=     5
   0.66981819 -0.00000005  0.10001339
   0.33018086 -0.00000006  0.10001341
   0.00000005  0.33018081  0.10001339
   0.00000006  0.66981814  0.10001341
   0.33018070  0.33018069  0.10001343
   0.66981831  0.66981830  0.10001343
   0.66666607  0.33333293  0.09923261
   0.33333279  0.66666621  0.10079716
   0.27777463  0.22221962  0.46958638
   0.44444295  0.05555604  0.46958606
   0.27777715  0.72222185  0.46958581
   0.44444452  0.55555448  0.46958618
   0.77777886  0.22222014  0.46958629
   0.94444439  0.05555461  0.46958661
   0.77777938  0.72222437  0.46958638
   0.94444296  0.55555605  0.46958606
Direct configuration=     6
   0.66981659 -0.00000005  0.10001336
   0.33018247 -0.00000006  0.10001339
   0.00000005  0.33018241  0.10001336
   0.00000006  0.66981653  0.10001339
   0.33018230  0.33018229  0.10001340
   0.66981671  0.66981670  0.10001340
   0.66666607  0.33333293  0.09923259
   0.33333279  0.66666621  0.10079713
   0.27777464  0.22221962  0.46958640
   0.44444296  0.05555604  0.46958609
   0.27777715  0.72222185  0.46958584
   0.44444452  0.55555448  0.46958620
   0.77777886  0.22222014  0.46958631
   0.94444439  0.05555461  0.46958664
   0.77777938  0.72222436  0.46958640
   0.94444296  0.55555604  0.46958609
Direct configuration=     7
   0.66981579 -0.00000005  0.10001335
   0.33018327 -0.00000006  0.10001338
   0.00000005  0.33018321  0.10001335
   0.00000006  0.66981573  0.10001338
   0.33018310  0.33018309  0.10001339
   0.66981591  0.66981590  0.10001339
   0.66666607  0.33333293  0.09923258
   0.33333279  0.66666621  0.10079711
   0.27777464  0.22221962  0.46958641
   0.44444296  0.05555604  0.46958610
   0.27777715  0.72222185  0.46958585
   0.44444452  0.55555448  0.46958621
   0.77777886  0.22222014  0.46958632
   0.94444439  0.05555461  0.46958665
   0.77777938  0.72222436  0.46958641
   0.94444296  0.55555604  0.46958610
Direct configuration=     8
   0.66981585 -0.00000007  0.10003723
   0.33018332 -0.00000002  0.10003731
   0.00000007  0.33018315  0.10003723
   0.00000002  0.66981568  0.10003731
   0.33018319  0.33018317  0.10003735
   0.66981583  0.66981581  0.10003735
   0.66666606  0.33333294  0.09925464
   0.33333278  0.66666622  0.10082721
   0.27777784  0.22222332  0.46956217
   0.44444500  0.05555396  0.46956142
   0.27777670  0.72222230  0.46956084
   0.44444426  0.55555474  0.46956168
   0.77777588  0.22222312  0.46956195
   0.94444437  0.05555463  0.46956271
   0.77777568  0.72222116  0.46956217
   0.94444504  0.55555400  0.46956142
Direct configuration=     9
   0.66981605 -0.00000013  0.10010889
   0.33018345  0.00000009  0.10010910
   0.00000013  0.33018295  0.10010889
  -0.00000009  0.66981555  0.10010910
   0.33018346  0.33018340  0.10010922
   0.66981560  0.66981554  0.10010922
   0.66666601  0.33333299  0.09932083
   0.33333273  0.66666627  0.10091752
   0.27778743  0.22223439  0.46948944
   0.44445112  0.05554771  0.46948737
   0.27777533  0.72222367  0.46948581
   0.44444351  0.55555549  0.46948809
   0.77776694  0.22223206  0.46948884
   0.94444430  0.05555470  0.46949088
   0.77776461  0.72221157  0.46948944
   0.94445129  0.55554788  0.46948737
Direct configuration=    10
   0.66981645 -0.00000025  0.10025219
   0.33018373  0.00000032  0.10025269
   0.00000025  0.33018255  0.10025219
  -0.00000032  0.66981527  0.10025269
   0.33018399  0.33018386  0.10025295
   0.66981514  0.66981501  0.10025295
   0.66666591  0.33333309  0.09945319
   0.33333264  0.66666636  0.10109814
   0.27780662  0.22225654  0.46934397
   0.44446337  0.05553521  0.46933927
   0.27777259  0.72222641  0.46933577
   0.44444200  0.55555700  0.46934091
   0.77774908  0.22224992  0.46934262
   0.94444418  0.05555482  0.46934722
   0.77774246  0.72219238  0.46934397
   0.94446379  0.55553563  0.46933927
Direct configuration=    11
   0.66981724 -0.00000050  0.10053879
   0.33018429  0.00000077  0.10053987
   0.00000050  0.33018176  0.10053879
  -0.00000077  0.66981471  0.10053987
   0.33018506  0.33018478  0.10054042
   0.66981422  0.66981394  0.10054042
   0.66666571  0.33333329  0.09971793
   0.33333246  0.66666654  0.10145937
   0.27784500  0.22230085  0.46905304
   0.44448788  0.05551021  0.46904308
   0.27776712  0.72223188  0.46903567
   0.44443897  0.55556003  0.46904655
   0.77771334  0.22228566  0.46905018
   0.94444394  0.05555506  0.46905992
   0.77769815  0.72215400  0.46905304
   0.94448879  0.55551112  0.46904308
Direct configuration=    12
   0.66981882 -0.00000099  0.10111200
   0.33018541  0.00000167  0.10111422
   0.00000099  0.33018018  0.10111200
  -0.00000167  0.66981359  0.10111422
   0.33018720  0.33018662  0.10111535
   0.66981238  0.66981180  0.10111535
   0.66666530  0.33333370  0.10024739
   0.33333210  0.66666690  0.10218183
   0.27792175  0.22238946  0.46847117
   0.44453688  0.05546022  0.46845070
   0.27775617  0.72224283  0.46843547
   0.44443292  0.55556608  0.46845783
   0.77764187  0.22235713  0.46846529
   0.94444345  0.05555555  0.46848530
   0.77760954  0.72207725  0.46847117
   0.94453878  0.55546212  0.46845070
Direct configuration=    13
   0.66982198 -0.00000197  0.10225842
   0.33018765  0.00000347  0.10226293
   0.00000197  0.33017702  0.10225842
  -0.00000347  0.66981135  0.10226293
   0.33019147  0.33019030  0.10226522
   0.66980870  0.66980753  0.10226522
   0.66666450  0.33333450  0.10130633
   0.33333137  0.66666763  0.10362675
   0.27807526  0.22256669  0.46730744
   0.44463488  0.05536023  0.46726593
   0.27773428  0.72226472  0.46723507
   0.44442083  0.55557817  0.46728039
   0.77749893  0.22250007  0.46729552
   0.94444247  0.05555653  0.46733606
   0.77743231  0.72192374  0.46730744
   0.94463877  0.55536412  0.46726593
Direct configuration=    14
   0.66982830 -0.00000394  0.10455127
   0.33019213  0.00000707  0.10456034
   0.00000394  0.33017070  0.10455127
  -0.00000707  0.66980687  0.10456034
   0.33020001  0.33019766  0.10456495
   0.66980134  0.66979899  0.10456495
   0.66666290  0.33333610  0.10342419
   0.33332991  0.66666909  0.10651660
   0.27838227  0.22292114  0.46497998
   0.44483089  0.05516026  0.46489639
   0.27769050  0.72230850  0.46483428
   0.44439664  0.55560236  0.46492551
   0.77721305  0.22278595  0.46495598
   0.94444050  0.05555850  0.46503759
   0.77707786  0.72161673  0.46497998
   0.94483874  0.55516811  0.46489639
Direct configuration=    15
   0.66984094 -0.00000786  0.10913695
   0.33020108  0.00001427  0.10915515
   0.00000786  0.33015806  0.10913695
  -0.00001427  0.66979792  0.10915515
   0.33021709  0.33021239  0.10916442
   0.66978661  0.66978191  0.10916442
   0.66665970  0.33333930  0.10765993
   0.33332700  0.66667200  0.11229630
   0.27899630  0.22363004  0.46032506
   0.44522290  0.05476032  0.46015732
   0.27760293  0.72239607  0.46003269
   0.44434826  0.55565074  0.46021575
   0.77664128  0.22335772  0.46027690
   0.94443658  0.05556242  0.46044065
   0.77636896  0.72100270  0.46032506
   0.94523868  0.55477610  0.46015732
Direct configuration=    16
   0.66984094 -0.00000786  0.10913806
   0.33020108  0.00001427  0.10915627
   0.00000786  0.33015806  0.10913806
  -0.00001427  0.66979792  0.10915627
   0.33021710  0.33021239  0.10916555
   0.66978661  0.66978190  0.10916555
   0.66665970  0.33333930  0.10766096
   0.33332699  0.66667201  0.11229770
   0.27899634  0.22363008  0.46032392
   0.44522292  0.05476030  0.46015616
   0.27760293  0.72239607  0.46003152
   0.44434824  0.55565076  0.46021460
   0.77664125  0.22335775  0.46027576
   0.94443657  0.05556243  0.46043952
   0.77636892  0.72100266  0.46032392
   0.94523870  0.55477608  0.46015616
Direct configuration=    17
   0.66984094 -0.00000787  0.10914142
   0.33020109  0.00001427  0.10915963
   0.00000787  0.33015806  0.10914142
  -0.00001427  0.66979791  0.10915963
   0.33021711  0.33021241  0.10916891
   0.66978659  0.66978189  0.10916891
   0.66665969  0.33333931  0.10766405
   0.33332699  0.66667201  0.11230192
   0.27899648  0.22363017  0.46032052
   0.44522295  0.05476026  0.46015270
   0.27760295  0.72239605  0.46002802
   0.44434820  0.55565080  0.46021116
   0.77664118  0.22335782  0.46027234
   0.94443654  0.05556246  0.46043616
   0.77636883  0.72100252  0.46032052
   0.94523874  0.55477605  0.46015270
Direct configuration=    18
   0.66984094 -0.00000789  0.10914812
   0.33020110  0.00001426  0.10916635
   0.00000789  0.33015806  0.10914812
  -0.00001426  0.66979790  0.10916635
   0.33021713  0.33021243  0.10917563
   0.66978657  0.66978187  0.10917563
   0.66665969  0.33333931  0.10767023
   0.33332699  0.66667201  0.11231036
   0.27899675  0.22363037  0.46031371
   0.44522303  0.05476017  0.46014579
   0.27760297  0.72239603  0.46002102
   0.44434812  0.55565088  0.46020428
   0.77664103  0.22335797  0.46026550
   0.94443648  0.05556252  0.46042943
   0.77636863  0.72100225  0.46031371
   0.94523883  0.55477597  0.46014579
Direct configuration=    19
   0.66984094 -0.00000792  0.10916152
   0.33020113  0.00001425  0.10917978
   0.00000792  0.33015806  0.10916152
  -0.00001425  0.66979787  0.10917978
   0.33021717  0.33021249  0.10918907
   0.66978651  0.66978183  0.10918907
   0.66665969  0.33333931  0.10768259
   0.33332698  0.66667202  0.11232723
   0.27899730  0.22363076  0.46030010
   0.44522318  0.05476000  0.46013195
   0.27760303  0.72239597  0.46000702
   0.44434796  0.55565104  0.46019052
   0.77664074  0.22335826  0.46025182
   0.94443636  0.05556264  0.46041597
   0.77636824  0.72100170  0.46030010
   0.94523900  0.55477582  0.46013195
Direct configuration=    20
   0.66984094 -0.00000798  0.10918834
   0.33020118  0.00001424  0.10920664
   0.00000798  0.33015806  0.10918834
  -0.00001424  0.66979782  0.10920664
   0.33021725  0.33021259  0.10921597
   0.66978641  0.66978175  0.10921597
   0.66665969  0.33333931  0.10770731
   0.33332696  0.66667204  0.11236098
   0.27899840  0.22363153  0.46027287
   0.44522347  0.05475966  0.46010428
   0.27760314  0.72239586  0.45997902
   0.44434764  0.55565136  0.46016300
   0.77664015  0.22335885  0.46022447
   0.94443611  0.05556289  0.46038904
   0.77636747  0.72100060  0.46027287
   0.94523934  0.55477553  0.46010428
Direct configuration=    21
   0.66984095 -0.00000810  0.10924196
   0.33020128  0.00001420  0.10926037
   0.00000810  0.33015805  0.10924196
  -0.00001420  0.66979772  0.10926037
   0.33021742  0.33021281  0.10926975
   0.66978619  0.66978158  0.10926975
   0.66665968  0.33333932  0.10775674
   0.33332692  0.66667208  0.11242847
   0.27900059  0.22363309  0.46021841
   0.44522406  0.05475898  0.46004893
   0.27760336  0.72239564  0.45992302
   0.44434700  0.55565200  0.46010796
   0.77663897  0.22336003  0.46016976
   0.94443562  0.05556338  0.46033519
   0.77636591  0.72099841  0.46021841
   0.94524002  0.55477494  0.46004893
Direct configuration=    22
   0.66984096 -0.00000834  0.10934921
   0.33020147  0.00001413  0.10936783
   0.00000834  0.33015804  0.10934921
  -0.00001413  0.66979753  0.10936783
   0.33021776  0.33021324  0.10937731
   0.66978576  0.66978124  0.10937731
   0.66665967  0.33333933  0.10785561
   0.33332685  0.66667215  0.11256346
   0.27900498  0.22363620  0.46010950
   0.44522525  0.05475761  0.45993824
   0.27760381  0.72239519  0.45981103
   0.44434571  0.55565329  0.45999788
   0.77663661  0.22336239  0.46006034
   0.94443465  0.05556435  0.46022749
   0.77636280  0.72099402  0.46010950
   0.94524139  0.55477375  0.45993824
Direct configuration=    23
   0.66984097 -0.00000882  0.10956371
   0.33020187  0.00001399  0.10958275
   0.00000882  0.33015803  0.10956371
  -0.00001399  0.66979713  0.10958275
   0.33021843  0.33021409  0.10959244
   0.66978491  0.66978057  0.10959244
   0.66665965  0.33333935  0.10805336
   0.33332671  0.66667229  0.11283344
   0.27901376  0.22364242  0.45989167
   0.44522762  0.05475487  0.45971686
   0.27760470  0.72239430  0.45958703
   0.44434314  0.55565586  0.45977771
   0.77663190  0.22336710  0.45984149
   0.94443269  0.05556631  0.46001209
   0.77635658  0.72098524  0.45989167
   0.94524413  0.55477138  0.45971686
Direct configuration=    24
   0.66984101 -0.00000978  0.10999271
   0.33020266  0.00001372  0.11001259
   0.00000978  0.33015799  0.10999271
  -0.00001372  0.66979634  0.11001259
   0.33021977  0.33021580  0.11002270
   0.66978320  0.66977923  0.11002270
   0.66665960  0.33333940  0.10844884
   0.33332641  0.66667259  0.11337340
   0.27903132  0.22365487  0.45945602
   0.44523237  0.05474939  0.45927410
   0.27760648  0.72239252  0.45913905
   0.44433800  0.55566100  0.45933738
   0.77662246  0.22337654  0.45940381
   0.94442879  0.05557021  0.45958129
   0.77634413  0.72096768  0.45945602
   0.94524961  0.55476663  0.45927410
Direct configuration=    25
   0.66984108 -0.00001171  0.11085070
   0.33020425  0.00001317  0.11087226
   0.00001171  0.33015792  0.11085070
  -0.00001317  0.66979475  0.11087226
   0.33022246  0.33021922  0.11088322
   0.66977978  0.66977654  0.11088322
   0.66665951  0.33333949  0.10923982
   0.33332583  0.66667317  0.11445332
   0.27906643  0.22367976  0.45858471
   0.44524186  0.05473843  0.45838858
   0.27761005  0.72238895  0.45824307
   0.44432771  0.55567129  0.45845672
   0.77660360  0.22339540  0.45852844
   0.94442098  0.05557802  0.45871969
   0.77631924  0.72093257  0.45858471
   0.94526057  0.55475714  0.45838858
Direct configuration=    26
   0.66984122 -0.00001556  0.11256669
   0.33020742  0.00001206  0.11259161
   0.00001556  0.33015778  0.11256669
  -0.00001206  0.66979158  0.11259161
   0.33022784  0.33022607  0.11260426
   0.66977293  0.66977116  0.11260426
   0.66665932  0.33333968  0.11082176
   0.33332467  0.66667433  0.11661315
   0.27913665  0.22372954  0.45684209
   0.44526084  0.05471651  0.45661754
   0.27761718  0.72238182  0.45645112
   0.44430714  0.55569186  0.45669540
   0.77656587  0.22343313  0.45677771
   0.94440536  0.05559364  0.45699649
   0.77626946  0.72086235  0.45684209
   0.94528249  0.55473816  0.45661754
Direct configuration=    27
   0.66984151 -0.00002326  0.11599866
   0.33021376  0.00000985  0.11603031
   0.00002326  0.33015749  0.11599866
  -0.00000985  0.66978524  0.11603031
   0.33023860  0.33023976  0.11604634
   0.66975924  0.66976040  0.11604634
   0.66665894  0.33334006  0.11398565
   0.33332233  0.66667667  0.12093282
   0.27927710  0.22382910  0.45335685
   0.44529880  0.05467268  0.45307545
   0.27763145  0.72236755  0.45286722
   0.44426600  0.55573300  0.45317276
   0.77649040  0.22350860  0.45327624
   0.94437411  0.05562489  0.45355008
   0.77616990  0.72072190  0.45335685
   0.94532632  0.55470020  0.45307545
Direct configuration=    28
   0.66984208 -0.00003866  0.12286261
   0.33022644  0.00000544  0.12290771
   0.00003866  0.33015692  0.12286261
  -0.00000544  0.66977256  0.12290771
   0.33026011  0.33026713  0.12293049
   0.66973187  0.66973889  0.12293049
   0.66665819  0.33334081  0.12031344
   0.33331767  0.66668133  0.12957216
   0.27955800  0.22402822  0.44638638
   0.44537473  0.05458502  0.44599128
   0.27765997  0.72233903  0.44569941
   0.44418373  0.55581527  0.44612748
   0.77633948  0.22365952  0.44627331
   0.94431163  0.05568737  0.44665727
   0.77597078  0.72044100  0.44638638
   0.94541398  0.55462427  0.44599128
Direct configuration=    29
   0.66984322 -0.00006947  0.13659050
   0.33025181 -0.00000339  0.13666250
   0.00006947  0.33015578  0.13659050
   0.00000339  0.66974719  0.13666250
   0.33030314  0.33032188  0.13669880
   0.66967712  0.66969586  0.13669880
   0.66665669  0.33334231  0.13296901
   0.33330834  0.66669066  0.14685083
   0.28011979  0.22442646  0.43244543
   0.44552658  0.05440969  0.43182294
   0.27771703  0.72228197  0.43136380
   0.44401917  0.55597983  0.43203693
   0.77603763  0.22396137  0.43226744
   0.94418666  0.05581234  0.43287166
   0.77557254  0.71987921  0.43244543
   0.94558931  0.55447242  0.43182294
Direct configuration=    30
   0.66984551 -0.00013108  0.16404629
   0.33030254 -0.00002105  0.16417209
   0.00013108  0.33015349  0.16404629
   0.00002105  0.66969646  0.16417209
   0.33038919  0.33043138  0.16423541
   0.66956762  0.66960981  0.16423541
   0.66665368  0.33334532  0.15828014
   0.33328968  0.66670932  0.18140817
   0.28124337  0.22522294  0.40456353
   0.44583029  0.05405904  0.40348626
   0.27783114  0.72216786  0.40269258
   0.44369005  0.55630895  0.40385582
   0.77543393  0.22456507  0.40425570
   0.94393672  0.05606228  0.40530042
   0.77477606  0.71875563  0.40456353
   0.94593996  0.55416871  0.40348626
Direct configuration=    31
   0.66972626 -0.00022665  0.16845563
   0.33034273 -0.00010341  0.16858902
   0.00022665  0.33027274  0.16845563
   0.00010341  0.66965627  0.16858902
   0.33042367  0.33054036  0.16865530
   0.66945864  0.66957533  0.16865530
   0.66665187  0.33334713  0.16232110
   0.33328301  0.66671599  0.18691930
   0.28094736  0.22489778  0.40008369
   0.44564774  0.05425113  0.39895610
   0.27785856  0.72214044  0.39812186
   0.44372705  0.55627195  0.39934403
   0.77569508  0.22430392  0.39976203
   0.94394076  0.05605824  0.40085220
   0.77510122  0.71905164  0.40008369
   0.94574787  0.55435126  0.39895610
Direct configuration=    32
   0.66977492 -0.00018765  0.16665637
   0.33032633 -0.00006981  0.16678667
   0.00018765  0.33022408  0.16665637
   0.00006981  0.66967267  0.16678667
   0.33040960  0.33049589  0.16685175
   0.66950311  0.66958940  0.16685175
   0.66665261  0.33334639  0.16067217
   0.33328573  0.66671327  0.18467046
   0.28106815  0.22503046  0.40191171
   0.44572223  0.05417275  0.40080465
   0.27784737  0.72215163  0.39998696
   0.44371195  0.55628705  0.40118508
   0.77558852  0.22441048  0.40159569
   0.94393911  0.05605989  0.40266732
   0.77496854  0.71893085  0.40191171
   0.94582625  0.55427677  0.40080465
Direct configuration=    33
   0.66966698 -0.00026504  0.16644705
   0.33035713 -0.00013910  0.16657576
   0.00026504  0.33033202  0.16644705
   0.00013910  0.66964187  0.16657576
   0.33042793  0.33057570  0.16663911
   0.66942330  0.66957107  0.16663911
   0.66665026  0.33334874  0.16045746
   0.33328158  0.66671742  0.18437108
   0.28066715  0.22465892  0.40212259
   0.44553714  0.05437715  0.40103995
   0.27784960  0.72214940  0.40023614
   0.44379310  0.55620590  0.40141367
   0.77588089  0.22411811  0.40181391
   0.94398076  0.05601824  0.40285885
   0.77534008  0.71933185  0.40212259
   0.94562185  0.55446186  0.40103995
Direct configuration=    34
   0.66934317 -0.00049721  0.16581906
   0.33044952 -0.00034697  0.16594300
   0.00049721  0.33065583  0.16581906
   0.00034697  0.66954948  0.16594300
   0.33048293  0.33081516  0.16600122
   0.66918384  0.66951607  0.16600122
   0.66664321  0.33335579  0.15981333
   0.33326911  0.66672989  0.18347293
   0.27946416  0.22354430  0.40275521
   0.44498185  0.05499036  0.40174582
   0.27785630  0.72214270  0.40098366
   0.44403655  0.55596245  0.40209945
   0.77675800  0.22324100  0.40246854
   0.94410572  0.05589328  0.40343345
   0.77645470  0.72053484  0.40275521
   0.94500864  0.55501715  0.40174582
Direct configuration=    35
   0.66869554 -0.00096155  0.16456310
   0.33063431 -0.00076272  0.16467750
   0.00096155  0.33130346  0.16456310
   0.00076272  0.66936469  0.16467750
   0.33059292  0.33129406  0.16472542
   0.66870494  0.66940608  0.16472542
   0.66662911  0.33336989  0.15852506
   0.33324418  0.66675482  0.18167664
   0.27705818  0.22131505  0.40402046
   0.44387128  0.05621678  0.40315758
   0.27786968  0.72212932  0.40247872
   0.44452343  0.55547557  0.40347100
   0.77851223  0.22148677  0.40377780
   0.94435564  0.05564336  0.40458265
   0.77868395  0.72294082  0.40402046
   0.94378222  0.55612772  0.40315758
Direct configuration=    36
   0.66893022 -0.00079329  0.16501823
   0.33056735 -0.00061207  0.16513608
   0.00079329  0.33106878  0.16501823
   0.00061207  0.66943165  0.16513608
   0.33055306  0.33112052  0.16518773
   0.66887848  0.66944594  0.16518773
   0.66663422  0.33336478  0.15899189
   0.33325322  0.66674578  0.18232757
   0.27793004  0.22212287  0.40356197
   0.44427372  0.05577236  0.40264600
   0.27786483  0.72213417  0.40193695
   0.44434700  0.55565200  0.40297399
   0.77787655  0.22212245  0.40330336
   0.94426508  0.05573392  0.40416622
   0.77787613  0.72206896  0.40356197
   0.94422664  0.55572528  0.40264600
Direct configuration=    37
   0.66882668 -0.00083352  0.16501106
   0.33062927 -0.00065028  0.16512659
   0.00083352  0.33117232  0.16501106
   0.00065028  0.66936973  0.16512659
   0.33059810  0.33119152  0.16517462
   0.66880748  0.66940090  0.16517462
   0.66663147  0.33336753  0.15893402
   0.33325047  0.66674853  0.18224684
   0.27781708  0.22213814  0.40356538
   0.44432065  0.05573791  0.40269370
   0.27780984  0.72218916  0.40201370
   0.44440754  0.55559146  0.40300949
   0.77784725  0.22215175  0.40331808
   0.94433032  0.05566868  0.40413516
   0.77786086  0.72218192  0.40356538
   0.94426109  0.55567835  0.40269370
Direct configuration=    38
   0.66853226 -0.00094790  0.16499069
   0.33080536 -0.00075893  0.16509962
   0.00094790  0.33146674  0.16499069
   0.00075893  0.66919364  0.16509962
   0.33072616  0.33139343  0.16513731
   0.66860557  0.66927284  0.16513731
   0.66662364  0.33337536  0.15876945
   0.33324267  0.66675633  0.18201729
   0.27749587  0.22218156  0.40357509
   0.44445411  0.05563994  0.40282934
   0.27765345  0.72234555  0.40223193
   0.44457972  0.55541928  0.40311046
   0.77776391  0.22223509  0.40335993
   0.94451584  0.05548316  0.40404685
   0.77781744  0.72250313  0.40357509
   0.94435906  0.55554489  0.40282934
Direct configuration=    39
   0.66839397 -0.00100163  0.16498112
   0.33088807 -0.00080997  0.16508695
   0.00100163  0.33160503  0.16498112
   0.00080997  0.66911093  0.16508695
   0.33078632  0.33148827  0.16511979
   0.66851073  0.66921268  0.16511979
   0.66661997  0.33337903  0.15869215
   0.33323900  0.66676000  0.18190946
   0.27734499  0.22220196  0.40357964
   0.44451679  0.05559393  0.40289305
   0.27758000  0.72241900  0.40233444
   0.44466059  0.55533841  0.40315788
   0.77772476  0.22227424  0.40337959
   0.94460299  0.05539601  0.40400537
   0.77779704  0.72265401  0.40357964
   0.94440507  0.55548221  0.40289305
Direct configuration=    40
   0.66828196 -0.00100998  0.16499573
   0.33099147 -0.00082284  0.16509570
   0.00100998  0.33171704  0.16499573
   0.00082284  0.66900753  0.16509570
   0.33086130  0.33155398  0.16511842
   0.66844502  0.66913770  0.16511842
   0.66661333  0.33338567  0.15856779
   0.33323901  0.66675999  0.18174888
   0.27744258  0.22222620  0.40355812
   0.44450889  0.05560019  0.40297794
   0.27761389  0.72238511  0.40249061
   0.44460710  0.55539190  0.40321241
   0.77771454  0.22228446  0.40338622
   0.94455836  0.05544064  0.40390229
   0.77777280  0.72255642  0.40355812
   0.94439881  0.55549011  0.40297794
Direct configuration=    41
   0.66794592 -0.00103501  0.16503955
   0.33130166 -0.00086145  0.16512193
   0.00103501  0.33205308  0.16503955
   0.00086145  0.66869734  0.16512193
   0.33108626  0.33175111  0.16511430
   0.66824789  0.66891274  0.16511430
   0.66659343  0.33340557  0.15819473
   0.33323905  0.66675995  0.18126712
   0.27773537  0.22229892  0.40349353
   0.44448519  0.05561898  0.40323261
   0.27771556  0.72228344  0.40295915
   0.44444663  0.55555237  0.40337600
   0.77768388  0.22231512  0.40340610
   0.94442448  0.05557452  0.40359305
   0.77770008  0.72226363  0.40349353
   0.94438002  0.55551381  0.40323261
Direct configuration=    42
   0.66727385 -0.00108508  0.16512721
   0.33192203 -0.00093868  0.16517439
   0.00108508  0.33272515  0.16512721
   0.00093868  0.66807697  0.16517439
   0.33153618  0.33214537  0.16510606
   0.66785363  0.66846282  0.16510606
   0.66655362  0.33344538  0.15744861
   0.33323914  0.66675986  0.18030361
   0.27832094  0.22244436  0.40336436
   0.44443778  0.05565656  0.40374195
   0.27791890  0.72208010  0.40389621
   0.44412568  0.55587332  0.40370318
   0.77762257  0.22237643  0.40344586
   0.94415672  0.05584228  0.40297457
   0.77755464  0.72167806  0.40336436
   0.94434244  0.55556122  0.40374195
Direct configuration=    43
   0.66770346 -0.00105307  0.16507118
   0.33152547 -0.00088931  0.16514086
   0.00105307  0.33229554  0.16507118
   0.00088931  0.66847353  0.16514086
   0.33124858  0.33189335  0.16511133
   0.66810565  0.66875042  0.16511133
   0.66657907  0.33341993  0.15792555
   0.33323908  0.66675992  0.18091951
   0.27794663  0.22235139  0.40344693
   0.44446808  0.05563254  0.40341637
   0.27778892  0.72221008  0.40329722
   0.44433084  0.55566816  0.40349404
   0.77766176  0.22233724  0.40342044
   0.94432788  0.05567112  0.40336991
   0.77764761  0.72205237  0.40344693
   0.94436646  0.55553092  0.40341637
Direct configuration=    44
   0.66804334 -0.00084801  0.16512751
   0.33141140 -0.00071498  0.16518553
   0.00084801  0.33195566  0.16512751
   0.00071498  0.66858760  0.16518553
   0.33115092  0.33162256  0.16513133
   0.66837644  0.66884808  0.16513133
   0.66657182  0.33342718  0.15766742
   0.33326540  0.66673360  0.18063842
   0.27787123  0.22231906  0.40340880
   0.44442517  0.05565400  0.40352999
   0.27775157  0.72224743  0.40352126
   0.44437918  0.55561982  0.40356433
   0.77769894  0.22230006  0.40342472
   0.94434854  0.05565046  0.40321752
   0.77767994  0.72212777  0.40340880
   0.94434500  0.55557383  0.40352999
Direct configuration=    45
   0.66873436 -0.00043111  0.16524205
   0.33117948 -0.00036054  0.16527637
   0.00043111  0.33126464  0.16524205
   0.00036054  0.66881952  0.16527637
   0.33095237  0.33107202  0.16517200
   0.66892698  0.66904663  0.16517200
   0.66655707  0.33344193  0.15714262
   0.33331892  0.66668008  0.18006692
   0.27771793  0.22225332  0.40333128
   0.44433793  0.05569763  0.40376099
   0.27767563  0.72232337  0.40397675
   0.44447744  0.55552156  0.40370725
   0.77777452  0.22222448  0.40343340
   0.94439056  0.05560844  0.40290768
   0.77774568  0.72228107  0.40333128
   0.94430137  0.55566107  0.40376099
Direct configuration=    46
   0.66881818 -0.00054861  0.16531423
   0.33100929 -0.00046260  0.16534002
   0.00054861  0.33118082  0.16531423
   0.00046260  0.66898971  0.16534002
   0.33081548  0.33104200  0.16520959
   0.66895700  0.66918352  0.16520959
   0.66657424  0.33342476  0.15692489
   0.33331820  0.66668080  0.17983606
   0.27771205  0.22229865  0.40334258
   0.44443242  0.05566139  0.40376976
   0.27769764  0.72230136  0.40399418
   0.44441335  0.55558565  0.40371673
   0.77768752  0.22231148  0.40344649
   0.94439737  0.05560163  0.40292927
   0.77770035  0.72228695  0.40334258
   0.94433761  0.55556658  0.40376976
Direct configuration=    47
   0.66893071 -0.00070638  0.16541114
   0.33078080 -0.00059962  0.16542549
   0.00070638  0.33106829  0.16541114
   0.00059962  0.66921820  0.16542549
   0.33063169  0.33100169  0.16526005
   0.66899731  0.66936731  0.16526005
   0.66659728  0.33340172  0.15663256
   0.33331724  0.66668176  0.17952611
   0.27770416  0.22235952  0.40335776
   0.44455928  0.05561273  0.40378154
   0.27772718  0.72227182  0.40401759
   0.44432729  0.55567171  0.40372947
   0.77757070  0.22242830  0.40346405