Lattice                                 
           1
     4.307610    2.487000    0.000000
    -4.307610    2.487000    0.000000
     0.000000    0.000000   15.000000
   B    C 
     8     8
Direct configuration=     1
   0.66888689  0.00000000  0.10000000
   0.33111211  0.00000000  0.10000000
   0.00000000  0.33111211  0.10000000
   0.00000000  0.66888689  0.10000000
   0.33111211  0.33111211  0.10000000
   0.66888689  0.66888689  0.10000000
   0.66666600  0.33333300  0.09922189
   0.33333300  0.66666600  0.10077811
   0.27777711  0.22222189  0.46960000
   0.44444411  0.05555489  0.46960000
   0.27777711  0.72222189  0.46960000
   0.44444411  0.55555489  0.46960000
   0.77777711  0.22222189  0.46960000
   0.94444411  0.05555489  0.46960000
   0.77777711  0.72222189  0.46960000
   0.94444411  0.55555489  0.46960000
Direct configuration=     2
   0.67071095 -0.00000010  0.10002622
   0.32928816 -0.00000012  0.10002627
   0.00000010  0.32928805  0.10002622
   0.00000012  0.67071084  0.10002627
   0.32928784  0.32928782  0.10002630
   0.67071118  0.67071116  0.10002630
   0.66666614  0.33333286  0.09924289
   0.33333259  0.66666641  0.10081542
   0.27777226  0.22221744  0.46957332
   0.44444184  0.05555715  0.46957271
   0.27777720  0.72222180  0.46957221
   0.44444491  0.55555409  0.46957293
   0.77778054  0.22221846  0.46957314
   0.94444465  0.05555435  0.46957378
   0.77778156  0.72222674  0.46957332
   0.94444185  0.55555716  0.46957271
Direct configuration=     3
   0.66981499 -0.00000005  0.10001334
   0.33018407 -0.00000006  0.10001337
   0.00000005  0.33018401  0.10001334
   0.00000006  0.66981493  0.10001337
   0.33018391  0.33018389  0.10001338
   0.66981511  0.66981509  0.10001338
   0.66666607  0.33333293  0.09923257
   0.33333279  0.66666621  0.10079710
   0.27777464  0.22221962  0.46958643
   0.44444296  0.05555604  0.46958611
   0.27777715  0.72222185  0.46958586
   0.44444452  0.55555448  0.46958622
   0.77777885  0.22222015  0.46958633
   0.94444439  0.05555461  0.46958666
   0.77777938  0.72222436  0.46958643
   0.94444296  0.55555604  0.46958611
Direct configuration=     4
   0.66982042 -0.00000005  0.10001342
   0.33017864 -0.00000006  0.10001345
   0.00000005  0.33017858  0.10001342
   0.00000006  0.66982036  0.10001345
   0.33017847  0.33017846  0.10001346
   0.66982054  0.66982053  0.10001346
   0.66666607  0.33333293  0.09923263
   0.33333279  0.66666621  0.10079721
   0.27777463  0.22221961  0.46958635
   0.44444295  0.05555605  0.46958603
   0.27777715  0.72222185  0.46958578
   0.44444452  0.55555448  0.46958614
   0.77777887  0.22222013  0.46958625
   0.94444439  0.05555461  0.46958658
   0.77777939  0.72222437  0.46958635
   0.94444295  0.55555605  0.46958603
Direct configuration=     5
   0.66981819 -0.00000005  0.10001339
   0.33018086 -0.00000006  0.10001341
   0.00000005  0.33018081  0.10001339
   0.00000006  0.66981814  0.10001341
   0.33018070  0.33018069  0.10001343
   0.66981831  0.66981830  0.10001343
   0.66666607  0.33333293  0.09923261
   0.33333279  0.66666621  0.10079716
   0.27777463  0.22221962  0.46958638
   0.44444295  0.05555604  0.46958606
   0.27777715  0.72222185  0.46958581
   0.44444452  0.55555448  0.46958618
   0.77777886  0.22222014  0.46958629
   0.94444439  0.05555461  0.46958661
   0.77777938  0.72222437  0.46958638
   0.94444296  0.55555605  0.46958606
Direct configuration=     6
   0.66981659 -0.00000005  0.10001336
   0.33018247 -0.00000006  0.10001339
   0.00000005  0.33018241  0.10001336
   0.00000006  0.66981653  0.10001339
   0.33018230  0.33018229  0.10001340
   0.66981671  0.66981670  0.10001340
   0.66666607  0.33333293  0.09923259
   0.33333279  0.66666621  0.10079713
   0.27777464  0.22221962  0.46958640
   0.44444296  0.05555604  0.46958609
   0.27777715  0.72222185  0.46958584
   0.44444452  0.55555448  0.46958620
   0.77777886  0.22222014  0.46958631
   0.94444439  0.05555461  0.46958664
   0.77777938  0.72222436  0.46958640
   0.94444296  0.55555604  0.46958609
Direct configuration=     7
   0.66981579 -0.00000005  0.10001335
   0.33018327 -0.00000006  0.10001338
   0.00000005  0.33018321  0.10001335
   0.00000006  0.66981573  0.10001338
   0.33018310  0.33018309  0.10001339
   0.66981591  0.66981590  0.10001339
   0.66666607  0.33333293  0.09923258
   0.33333279  0.66666621  0.10079711
   0.27777464  0.22221962  0.46958641
   0.44444296  0.05555604  0.46958610
   0.27777715  0.72222185  0.46958585
   0.44444452  0.55555448  0.46958621
   0.77777886  0.22222014  0.46958632
   0.94444439  0.05555461  0.46958665
   0.77777938  0.72222436  0.46958641
   0.94444296  0.55555604  0.46958610
Direct configuration=     8
   0.66981585 -0.00000007  0.10003723
   0.33018332 -0.00000002  0.10003731
   0.00000007  0.33018315  0.10003723
   0.00000002  0.66981568  0.10003731
   0.33018319  0.33018317  0.10003735
   0.66981583  0.66981581  0.10003735
   0.66666606  0.33333294  0.09925464
   0.33333278  0.66666622  0.10082721
   0.27777784  0.22222332  0.46956217
   0.44444500  0.05555396  0.46956142
   0.27777670  0.72222230  0.46956084
   0.44444426  0.55555474  0.46956168
   0.77777588  0.22222312  0.46956195
   0.94444437  0.05555463  0.46956271
   0.77777568  0.72222116  0.46956217
   0.94444504  0.55555400  0.46956142
Direct configuration=     9
   0.66981605 -0.00000013  0.10010889
   0.33018345  0.00000009  0.10010910
   0.00000013  0.33018295  0.10010889
  -0.00000009  0.66981555  0.10010910
   0.33018346  0.33018340  0.10010922
   0.66981560  0.66981554  0.10010922
   0.66666601  0.33333299  0.09932083
   0.33333273  0.66666627  0.10091752
   0.27778743  0.22223439  0.46948944
   0.44445112  0.05554771  0.46948737
   0.27777533  0.72222367  0.46948581
   0.44444351  0.55555549  0.46948809
   0.77776694  0.22223206  0.46948884
   0.94444430  0.05555470  0.46949088
   0.77776461  0.72221157  0.46948944
   0.94445129  0.55554788  0.46948737
Direct configuration=    10
   0.66981645 -0.00000025  0.10025219
   0.33018373  0.00000032  0.10025269
   0.00000025  0.33018255  0.10025219
  -0.00000032  0.66981527  0.10025269
   0.33018399  0.33018386  0.10025295
   0.66981514  0.66981501  0.10025295
   0.66666591  0.33333309  0.09945319
   0.33333264  0.66666636  0.10109814
   0.27780662  0.22225654  0.46934397
   0.44446337  0.05553521  0.46933927
   0.27777259  0.72222641  0.46933577
   0.44444200  0.55555700  0.46934091
   0.77774908  0.22224992  0.46934262
   0.94444418  0.05555482  0.46934722
   0.77774246  0.72219238  0.46934397
   0.94446379  0.55553563  0.46933927
Direct configuration=    11
   0.66981724 -0.00000050  0.10053879
   0.33018429  0.00000077  0.10053987
   0.00000050  0.33018176  0.10053879
  -0.00000077  0.66981471  0.10053987
   0.33018506  0.33018478  0.10054042
   0.66981422  0.66981394  0.10054042
   0.66666571  0.33333329  0.09971793
   0.33333246  0.66666654  0.10145937
   0.27784500  0.22230085  0.46905304
   0.44448788  0.05551021  0.46904308
   0.27776712  0.72223188  0.46903567
   0.44443897  0.55556003  0.46904655
   0.77771334  0.22228566  0.46905018
   0.94444394  0.05555506  0.46905992
   0.77769815  0.72215400  0.46905304
   0.94448879  0.55551112  0.46904308
Direct configuration=    12
   0.66981882 -0.00000099  0.10111200
   0.33018541  0.00000167  0.10111422
   0.00000099  0.33018018  0.10111200
  -0.00000167  0.66981359  0.10111422
   0.33018720  0.33018662  0.10111535
   0.66981238  0.66981180  0.10111535
   0.66666530  0.33333370  0.10024739
   0.33333210  0.66666690  0.10218183
   0.27792175  0.22238946  0.46847117
   0.44453688  0.05546022  0.46845070
   0.27775617  0.72224283  0.46843547
   0.44443292  0.55556608  0.46845783
   0.77764187  0.22235713  0.46846529
   0.94444345  0.05555555  0.46848530
   0.77760954  0.72207725  0.46847117
   0.94453878  0.55546212  0.46845070
Direct configuration=    13
   0.66982198 -0.00000197  0.10225842
   0.33018765  0.00000347  0.10226293
   0.00000197  0.33017702  0.10225842
  -0.00000347  0.66981135  0.10226293
   0.33019147  0.33019030  0.10226522
   0.66980870  0.66980753  0.10226522
   0.66666450  0.33333450  0.10130633
   0.33333137  0.66666763  0.10362675
   0.27807526  0.22256669  0.46730744
   0.44463488  0.05536023  0.46726593
   0.27773428  0.72226472  0.46723507
   0.44442083  0.55557817  0.46728039
   0.77749893  0.22250007  0.46729552
   0.94444247  0.05555653  0.46733606
   0.77743231  0.72192374  0.46730744
   0.94463877  0.55536412  0.46726593
Direct configuration=    14
   0.66982830 -0.00000394  0.10455127
   0.33019213  0.00000707  0.10456034
   0.00000394  0.33017070  0.10455127
  -0.00000707  0.66980687  0.10456034
   0.33020001  0.33019766  0.10456495
   0.66980134  0.66979899  0.10456495
   0.66666290  0.33333610  0.10342419
   0.33332991  0.66666909  0.10651660
   0.27838227  0.22292114  0.46497998
   0.44483089  0.05516026  0.46489639
   0.27769050  0.72230850  0.46483428
   0.44439664  0.55560236  0.46492551
   0.77721305  0.22278595  0.46495598
   0.94444050  0.05555850  0.46503759
   0.77707786  0.72161673  0.46497998
   0.94483874  0.55516811  0.46489639
Direct configuration=    15
   0.66984094 -0.00000786  0.10913695
   0.33020108  0.00001427  0.10915515
   0.00000786  0.33015806  0.10913695
  -0.00001427  0.66979792  0.10915515
   0.33021709  0.33021239  0.10916442
   0.66978661  0.66978191  0.10916442
   0.66665970  0.33333930  0.10765993
   0.33332700  0.66667200  0.11229630
   0.27899630  0.22363004  0.46032506
   0.44522290  0.05476032  0.46015732
   0.27760293  0.72239607  0.46003269
   0.44434826  0.55565074  0.46021575
   0.77664128  0.22335772  0.46027690
   0.94443658  0.05556242  0.46044065
   0.77636896  0.72100270  0.46032506
   0.94523868  0.55477610  0.46015732
Direct configuration=    16
   0.66984094 -0.00000786  0.10913806
   0.33020108  0.00001427  0.10915627
   0.00000786  0.33015806  0.10913806
  -0.00001427  0.66979792  0.10915627
   0.33021710  0.33021239  0.10916555
   0.66978661  0.66978190  0.10916555
   0.66665970  0.33333930  0.10766096
   0.33332699  0.66667201  0.11229770
   0.27899634  0.22363008  0.46032392
   0.44522292  0.05476030  0.46015616
   0.27760293  0.72239607  0.46003152
   0.44434824  0.55565076  0.46021460
   0.77664125  0.22335775  0.46027576
   0.94443657  0.05556243  0.46043952
   0.77636892  0.72100266  0.46032392
   0.94523870  0.55477608  0.46015616
Direct configuration=    17
   0.66984094 -0.00000787  0.10914142
   0.33020109  0.00001427  0.10915963
   0.00000787  0.33015806  0.10914142
  -0.00001427  0.66979791  0.10915963
   0.33021711  0.33021241  0.10916891
   0.66978659  0.66978189  0.10916891
   0.66665969  0.33333931  0.10766405
   0.33332699  0.66667201  0.11230192
   0.27899648  0.22363017  0.46032052
   0.44522295  0.05476026  0.46015270
   0.27760295  0.72239605  0.46002802
   0.44434820  0.55565080  0.46021116
   0.77664118  0.22335782  0.46027234
   0.94443654  0.05556246  0.46043616
   0.77636883  0.72100252  0.46032052
   0.94523874  0.55477605  0.46015270
Direct configuration=    18
   0.66984094 -0.00000789  0.10914812
   0.33020110  0.00001426  0.10916635
   0.00000789  0.33015806  0.10914812
  -0.00001426  0.66979790  0.10916635
   0.33021713  0.33021243  0.10917563
   0.66978657  0.66978187  0.10917563
   0.66665969  0.33333931  0.10767023
   0.33332699  0.66667201  0.11231036
   0.27899675  0.22363037  0.46031371
   0.44522303  0.05476017  0.46014579
   0.27760297  0.72239603  0.46002102
   0.44434812  0.55565088  0.46020428
   0.77664103  0.22335797  0.46026550
   0.94443648  0.05556252  0.46042943
   0.77636863  0.72100225  0.46031371
   0.94523883  0.55477597  0.46014579
Direct configuration=    19
   0.66984094 -0.00000792  0.10916152
   0.33020113  0.00001425  0.10917978
   0.00000792  0.33015806  0.10916152
  -0.00001425  0.66979787  0.10917978
   0.33021717  0.33021249  0.10918907
   0.66978651  0.66978183  0.10918907
   0.66665969  0.33333931  0.10768259
   0.33332698  0.66667202  0.11232723
   0.27899730  0.22363076  0.46030010
   0.44522318  0.05476000  0.46013195
   0.27760303  0.72239597  0.46000702
   0.44434796  0.55565104  0.46019052
   0.77664074  0.22335826  0.46025182
   0.94443636  0.05556264  0.46041597
   0.77636824  0.72100170  0.46030010
   0.94523900  0.55477582  0.46013195
Direct configuration=    20
   0.66984094 -0.00000798  0.10918834
   0.33020118  0.00001424  0.10920664
   0.00000798  0.33015806  0.10918834
  -0.00001424  0.66979782  0.10920664
   0.33021725  0.33021259  0.10921597
   0.66978641  0.66978175  0.10921597
   0.66665969  0.33333931  0.10770731
   0.33332696  0.66667204  0.11236098
   0.27899840  0.22363153  0.46027287
   0.44522347  0.05475966  0.46010428
   0.27760314  0.72239586  0.45997902
   0.44434764  0.55565136  0.46016300
   0.77664015  0.22335885  0.46022447
   0.94443611  0.05556289  0.46038904
   0.77636747  0.72100060  0.46027287
   0.94523934  0.55477553  0.46010428
Direct configuration=    21
   0.66984095 -0.00000810  0.10924196
   0.33020128  0.00001420  0.10926037
   0.00000810  0.33015805  0.10924196
  -0.00001420  0.66979772  0.10926037
   0.33021742  0.33021281  0.10926975
   0.66978619  0.66978158  0.10926975
   0.66665968  0.33333932  0.10775674
   0.33332692  0.66667208  0.11242847
   0.27900059  0.22363309  0.46021841
   0.44522406  0.05475898  0.46004893
   0.27760336  0.72239564  0.45992302
   0.44434700  0.55565200  0.46010796
   0.77663897  0.22336003  0.46016976
   0.94443562  0.05556338  0.46033519
   0.77636591  0.72099841  0.46021841
   0.94524002  0.55477494  0.46004893
Direct configuration=    22
   0.66984096 -0.00000834  0.10934921
   0.33020147  0.00001413  0.10936783
   0.00000834  0.33015804  0.10934921
  -0.00001413  0.66979753  0.10936783
   0.33021776  0.33021324  0.10937731
   0.66978576  0.66978124  0.10937731
   0.66665967  0.33333933  0.10785561
   0.33332685  0.66667215  0.11256346
   0.27900498  0.22363620  0.46010950
   0.44522525  0.05475761  0.45993824
   0.27760381  0.72239519  0.45981103
   0.44434571  0.55565329  0.45999788
   0.77663661  0.22336239  0.46006034
   0.94443465  0.05556435  0.46022749
   0.77636280  0.72099402  0.46010950
   0.94524139  0.55477375  0.45993824
