    8    8  128    1
  0.4338553E+02  0.5169000E-09  0.5169000E-09  0.1500000E-08  0.5000000E-15
  1.000000000000000E-004
  CAR 
 Lattice                                 
     30    925     24
 
  0.0000000E+00  0.0000000E+00  0.0000000E+00  0.5408329E-03
      1        -19.884771   1.000000
      2        -15.983181   1.000000
      3        -15.983005   1.000000
      4        -13.641827   1.000000
      5        -13.641772   1.000000
      6        -12.573306   1.000000
      7        -11.250068   1.000000
      8         -8.688690   1.000000
      9         -8.456643   1.000000
     10         -6.304363   1.000000
     11         -6.304181   1.000000
     12         -4.480750   1.000000
     13         -4.480662   1.000000
     14         -3.791965   0.999996
     15         -3.791785   0.999996
     16         -1.963915   0.000000
     17         -0.227785   0.000000
     18         -0.227753   0.000000
     19          0.431760   0.000000
     20          0.841335   0.000000
     21          1.844273   0.000000
     22          2.268442   0.000000
     23          4.234134   0.000000
     24          4.857202   0.000000
 
  0.2325581E-01 -0.8689278E-18  0.0000000E+00  0.1081666E-02
      1        -19.882640   1.000000
      2        -15.994015   1.000000
      3        -15.986620   1.000000
      4        -13.644645   1.000000
      5        -13.633897   1.000000
      6        -12.562773   1.000000
      7        -11.237142   1.000000
      8         -8.685467   1.000000
      9         -8.461019   1.000000
     10         -6.313992   1.000000
     11         -6.306264   1.000000
     12         -4.490581   1.000000
     13         -4.482310   1.000000
     14         -3.803081   0.999998
     15         -3.797388   0.999997
     16         -1.983342   0.000000
     17         -0.222978   0.000000
     18         -0.199091   0.000000
     19          0.440567   0.000000
     20          0.845376   0.000000
     21          1.848645   0.000000
     22          2.272503   0.000000
     23          4.238122   0.000000
     24          4.861586   0.000000
 
 -0.2603651E-17  0.2325581E-01  0.0000000E+00  0.1081666E-02
      1        -19.882640   1.000000
      2        -15.993979   1.000000
      3        -15.986656   1.000000
      4        -13.644673   1.000000
      5        -13.633869   1.000000
      6        -12.562773   1.000000
      7        -11.237142   1.000000
      8         -8.685467   1.000000
      9         -8.461019   1.000000
     10         -6.313969   1.000000
     11         -6.306286   1.000000
     12         -4.490551   1.000000
     13         -4.482339   1.000000
     14         -3.803111   0.999998
     15         -3.797357   0.999997
     16         -1.983342   0.000000
     17         -0.222952   0.000000
     18         -0.199117   0.000000
     19          0.440567   0.000000
     20          0.845376   0.000000
     21          1.848645   0.000000
     22          2.272503   0.000000
     23          4.238122   0.000000
     24          4.861586   0.000000
 
 -0.2325581E-01  0.2325581E-01  0.0000000E+00  0.1081666E-02
      1        -19.882640   1.000000
      2        -15.994124   1.000000
      3        -15.986511   1.000000
      4        -13.644625   1.000000
      5        -13.633916   1.000000
      6        -12.562774   1.000000
      7        -11.237141   1.000000
      8         -8.685467   1.000000
      9         -8.461019   1.000000
     10         -6.314114   1.000000
     11         -6.306141   1.000000
     12         -4.490627   1.000000
     13         -4.482264   1.000000
     14         -3.803227   0.999998
     15         -3.797242   0.999997
     16         -1.983343   0.000000
     17         -0.222971   0.000000
     18         -0.199095   0.000000
     19          0.440565   0.000000
     20          0.845376   0.000000
     21          1.848645   0.000000
     22          2.272503   0.000000
     23          4.238122   0.000000
     24          4.861586   0.000000
 
  0.4651163E-01  0.1717518E-17  0.0000000E+00  0.1081666E-02
      1        -19.876259   1.000000
      2        -16.026237   1.000000
      3        -15.996960   1.000000
      4        -13.653437   1.000000
      5        -13.610392   1.000000
      6        -12.531123   1.000000
      7        -11.198833   1.000000
      8         -8.675809   1.000000
      9         -8.474369   1.000000
     10         -6.343203   1.000000
     11         -6.311987   1.000000
     12         -4.520211   1.000000
     13         -4.487347   1.000000
     14         -3.836803   1.000000
     15         -3.813750   0.999999
     16         -2.037388   0.000000
     17         -0.209037   0.000000
     18         -0.118326   0.000000
     19          0.467588   0.000000
     20          0.857492   0.000000
     21          1.861779   0.000000
     22          2.284683   0.000000
     23          4.250083   0.000000
     24          4.874517   0.000000
 
  0.1717518E-17  0.4651163E-01  0.0000000E+00  0.1081666E-02
      1        -19.876259   1.000000
      2        -16.026202   1.000000
      3        -15.996996   1.000000
      4        -13.653464   1.000000
      5        -13.610364   1.000000
      6        -12.531123   1.000000
      7        -11.198834   1.000000
      8         -8.675809   1.000000
      9         -8.474370   1.000000
     10         -6.343181   1.000000
     11         -6.312009   1.000000
     12         -4.520182   1.000000
     13         -4.487376   1.000000
     14         -3.836833   1.000000
     15         -3.813720   0.999999
     16         -2.037389   0.000000
     17         -0.209011   0.000000
     18         -0.118350   0.000000
     19          0.467588   0.000000
     20          0.857492   0.000000
     21          1.861779   0.000000
     22          2.284683   0.000000
     23          4.250083   0.000000
     24          4.874517   0.000000
 
 -0.4651163E-01  0.4651163E-01  0.0000000E+00  0.1081666E-02
      1        -19.876259   1.000000
      2        -16.026346   1.000000
      3        -15.996851   1.000000
      4        -13.653415   1.000000
      5        -13.610409   1.000000
      6        -12.531129   1.000000
      7        -11.198832   1.000000
      8         -8.675809   1.000000
      9         -8.474370   1.000000
     10         -6.343327   1.000000
     11         -6.311863   1.000000
     12         -4.520256   1.000000
     13         -4.487301   1.000000
     14         -3.836949   1.000000
     15         -3.813605   0.999999
     16         -2.037394   0.000000
     17         -0.209030   0.000000
     18         -0.118319   0.000000
     19          0.467580   0.000000
     20          0.857492   0.000000
     21          1.861779   0.000000
     22          2.284683   0.000000
     23          4.250083   0.000000
     24          4.874515   0.000000
 
  0.6976744E-01 -0.4355580E-17  0.0000000E+00  0.1081666E-02
      1        -19.865663   1.000000
      2        -16.077990   1.000000
      3        -16.013607   1.000000
      4        -13.668658   1.000000
      5        -13.571847   1.000000
      6        -12.478383   1.000000
      7        -11.136398   1.000000
      8         -8.659723   1.000000
      9         -8.496798   1.000000
     10         -6.391274   1.000000
     11         -6.320717   1.000000
     12         -4.568954   1.000000
     13         -4.495415   1.000000
     14         -3.892484   1.000000
     15         -3.840666   1.000000
     16         -2.116179   0.000000
     17         -0.185830   0.000000
     18          0.001514   0.000000
     19          0.515126   0.000000
     20          0.877672   0.000000
     21          1.883739   0.000000
     22          2.304975   0.000000
     23          4.270018   0.000000
     24          4.895472   0.000000
 
 -0.4355580E-17  0.6976744E-01  0.0000000E+00  0.1081666E-02
      1        -19.865663   1.000000
      2        -16.077955   1.000000
      3        -16.013642   1.000000
      4        -13.668685   1.000000
      5        -13.571820   1.000000
      6        -12.478381   1.000000
      7        -11.136399   1.000000
      8         -8.659723   1.000000
      9         -8.496799   1.000000
     10         -6.391252   1.000000
     11         -6.320739   1.000000
     12         -4.568925   1.000000
     13         -4.495444   1.000000
     14         -3.892514   1.000000
     15         -3.840637   1.000000
     16         -2.116181   0.000000
     17         -0.185804   0.000000
     18          0.001492   0.000000
     19          0.515124   0.000000
     20          0.877672   0.000000
     21          1.883739   0.000000
     22          2.304975   0.000000
     23          4.270018   0.000000
     24          4.895473   0.000000
 
 -0.6976744E-01  0.6976744E-01  0.0000000E+00  0.1081666E-02
      1        -19.865662   1.000000
      2        -16.078097   1.000000
      3        -16.013500   1.000000
      4        -13.668633   1.000000
      5        -13.571863   1.000000
      6        -12.478395   1.000000
      7        -11.136394   1.000000
      8         -8.659723   1.000000
      9         -8.496800   1.000000
     10         -6.391398   1.000000
     11         -6.320592   1.000000
     12         -4.568998   1.000000
     13         -4.495369   1.000000
     14         -3.892628   1.000000
     15         -3.840522   1.000000
     16         -2.116190   0.000000
     17         -0.185823   0.000000
     18          0.001536   0.000000
     19          0.515106   0.000000
     20          0.877672   0.000000
     21          1.883738   0.000000
     22          2.304975   0.000000
     23          4.270018   0.000000
     24          4.895469   0.000000
 
  0.9302326E-01  0.6505272E-17  0.0000000E+00  0.1081666E-02
      1        -19.850920   1.000000
      2        -16.146744   1.000000
      3        -16.035777   1.000000
      4        -13.690556   1.000000
      5        -13.519147   1.000000
      6        -12.405077   1.000000
      7        -11.051646   1.000000
      8         -8.637236   1.000000
      9         -8.528712   1.000000
     10         -6.457439   1.000000
     11         -6.331426   1.000000
     12         -4.635811   1.000000
     13         -4.506355   1.000000
     14         -3.969437   1.000000
     15         -3.877660   1.000000
     16         -2.209156   0.000000
     17         -0.153868   0.000000
     18          0.143689   0.000000
     19          0.588396   0.000000
     20          0.905898   0.000000
     21          1.914649   0.000000
     22          2.333369   0.000000
     23          4.297920   0.000000
     24          4.923814   0.000000
 
 -0.1513798E-16  0.9302326E-01  0.0000000E+00  0.1081666E-02
      1        -19.850920   1.000000
      2        -16.146710   1.000000
      3        -16.035811   1.000000
      4        -13.690582   1.000000
      5        -13.519121   1.000000
      6        -12.405074   1.000000
      7        -11.051649   1.000000
      8         -8.637236   1.000000
      9         -8.528713   1.000000
     10         -6.457417   1.000000
     11         -6.331446   1.000000
     12         -4.635783   1.000000
     13         -4.506384   1.000000
     14         -3.969466   1.000000
     15         -3.877631   1.000000
     16         -2.209159   0.000000
     17         -0.153842   0.000000
     18          0.143670   0.000000
     19          0.588393   0.000000
     20          0.905898   0.000000
     21          1.914649   0.000000
     22          2.333369   0.000000
     23          4.297920   0.000000
     24          4.923814   0.000000
 
 -0.9302326E-01  0.9302326E-01  0.0000000E+00  0.1081666E-02
      1        -19.850919   1.000000
      2        -16.146850   1.000000
      3        -16.035672   1.000000
      4        -13.690528   1.000000
      5        -13.519161   1.000000
      6        -12.405096   1.000000
      7        -11.051639   1.000000
      8         -8.637236   1.000000
      9         -8.528714   1.000000
     10         -6.457563   1.000000
     11         -6.331300   1.000000
     12         -4.635853   1.000000
     13         -4.506310   1.000000
     14         -3.969578   1.000000
     15         -3.877519   1.000000
     16         -2.209172   0.000000
     17         -0.153860   0.000000
     18          0.143734   0.000000
     19          0.588359   0.000000
     20          0.905898   0.000000
     21          1.914647   0.000000
     22          2.333369   0.000000
     23          4.297920   0.000000
     24          4.923810   0.000000
 
  0.1162791E+00  0.1258743E-17  0.0000000E+00  0.1081666E-02
      1        -19.832120   1.000000
      2        -16.229571   1.000000
      3        -16.062512   1.000000
      4        -13.718796   1.000000
      5        -13.453401   1.000000
      6        -12.312456   1.000000
      7        -10.946659   1.000000
      8         -8.608414   1.000000
      9         -8.570627   1.000000
     10         -6.540743   1.000000
     11         -6.342809   1.000000
     12         -4.719378   1.000000
     13         -4.519877   1.000000
     14         -4.066873   1.000000
     15         -3.924266   1.000000
     16         -2.308015   0.000000
     17         -0.114052   0.000000
     18          0.288368   0.000000
     19          0.696482   0.000000
     20          0.942152   0.000000
     21          1.954722   0.000000
     22          2.369853   0.000000
     23          4.333771   0.000000
     24          4.958982   0.000000
 
  0.1258743E-17  0.1162791E+00  0.0000000E+00  0.1081666E-02
      1        -19.832120   1.000000
      2        -16.229537   1.000000
      3        -16.062546   1.000000
      4        -13.718821   1.000000
      5        -13.453375   1.000000
      6        -12.312452   1.000000
      7        -10.946662   1.000000
      8         -8.608414   1.000000
      9         -8.570628   1.000000
     10         -6.540721   1.000000
     11         -6.342828   1.000000
     12         -4.719351   1.000000
     13         -4.519906   1.000000
     14         -4.066901   1.000000
     15         -3.924238   1.000000
     16         -2.308018   0.000000
     17         -0.114026   0.000000
     18          0.288353   0.000000
     19          0.696476   0.000000
     20          0.942152   0.000000
     21          1.954723   0.000000
     22          2.369853   0.000000
     23          4.333771   0.000000
     24          4.958982   0.000000
 
 -0.1162791E+00  0.1162791E+00  0.0000000E+00  0.1081666E-02
      1        -19.832118   1.000000
      2        -16.229676   1.000000
      3        -16.062409   1.000000
      4        -13.718764   1.000000
      5        -13.453412   1.000000
      6        -12.312482   1.000000
      7        -10.946649   1.000000
      8         -8.608413   1.000000
      9         -8.570630   1.000000
     10         -6.540868   1.000000
     11         -6.342682   1.000000
     12         -4.719418   1.000000
     13         -4.519832   1.000000
     14         -4.067011   1.000000
     15         -3.924128   1.000000
     16         -2.308036   0.000000
     17         -0.114043   0.000000
     18          0.288438   0.000000
     19          0.696426   0.000000
     20          0.942152   0.000000
     21          1.954719   0.000000
     22          2.369853   0.000000
     23          4.333771   0.000000
     24          4.958978   0.000000
 
  0.1395349E+00 -0.8711160E-17  0.0000000E+00  0.1081666E-02
      1        -19.809393   1.000000
      2        -16.323487   1.000000
      3        -16.092766   1.000000
      4        -13.752426   1.000000
      5        -13.375825   1.000000
      6        -12.202447   1.000000
      7        -10.823538   1.000000
      8         -8.622835   1.000000
      9         -8.573281   1.000000
     10         -6.639894   1.000000
     11         -6.353358   1.000000
     12         -4.817985   1.000000
     13         -4.535588   1.000000
     14         -4.183608   1.000000
     15         -3.979484   1.000000
     16         -2.406926   0.000000
     17         -0.066978   0.000000
     18          0.419199   0.000000
     19          0.847544   0.000000
     20          0.986411   0.000000
     21          2.004332   0.000000
     22          2.414415   0.000000
     23          4.377564   0.000000
     24          5.000492   0.000000
 
 -0.8711160E-17  0.1395349E+00  0.0000000E+00  0.1081666E-02
      1        -19.809394   1.000000
      2        -16.323454   1.000000
      3        -16.092799   1.000000
      4        -13.752450   1.000000
      5        -13.375801   1.000000
      6        -12.202442   1.000000
      7        -10.823543   1.000000
      8         -8.622837   1.000000
      9         -8.573282   1.000000
     10         -6.639873   1.000000
     11         -6.353376   1.000000
     12         -4.817959   1.000000
     13         -4.535617   1.000000
     14         -4.183635   1.000000
     15         -3.979456   1.000000
     16         -2.406929   0.000000
     17         -0.066952   0.000000
     18          0.419190   0.000000
     19          0.847533   0.000000
     20          0.986411   0.000000
     21          2.004333   0.000000
     22          2.414415   0.000000
     23          4.377565   0.000000
     24          5.000493   0.000000
 
 -0.1395349E+00  0.1395349E+00  0.0000000E+00  0.1081666E-02
      1        -19.809391   1.000000
      2        -16.323591   1.000000
      3        -16.092665   1.000000
      4        -13.752392   1.000000
      5        -13.375833   1.000000
      6        -12.202479   1.000000
      7        -10.823526   1.000000
      8         -8.622839   1.000000
      9         -8.573280   1.000000
     10         -6.640020   1.000000
     11         -6.353230   1.000000
     12         -4.818024   1.000000
     13         -4.535543   1.000000
     14         -4.183742   1.000000
     15         -3.979349   1.000000
     16         -2.406953   0.000000
     17         -0.066969   0.000000
     18          0.419287   0.000000
     19          0.847476   0.000000
     20          0.986410   0.000000
     21          2.004327   0.000000
     22          2.414415   0.000000
     23          4.377564   0.000000
     24          5.000489   0.000000
 
  0.1627907E+00 -0.1561083E-16  0.0000000E+00  0.1081666E-02
      1        -19.782922   1.000000
      2        -16.425665   1.000000
      3        -16.125498   1.000000
      4        -13.790123   1.000000
      5        -13.287707   1.000000
      6        -12.077316   1.000000
      7        -10.684292   1.000000
      8         -8.685649   1.000000
      9         -8.532013   1.000000
     10         -6.753548   1.000000
     11         -6.361659   1.000000
     12         -4.929676   1.000000
     13         -4.553058   1.000000
     14         -4.318383   1.000000
     15         -4.042529   1.000000
     16         -2.502411   0.000000
     17         -0.013397   0.000000
     18          0.532599   0.000000
     19          1.038179   0.000000
     20          1.038647   0.000000
     21          2.064135   0.000000
     22          2.467041   0.000000
     23          4.429240   0.000000
     24          5.047884   0.000000
 
 -0.1561083E-16  0.1627907E+00  0.0000000E+00  0.1081666E-02
      1        -19.782923   1.000000
      2        -16.425633   1.000000
      3        -16.125529   1.000000
      4        -13.790147   1.000000
      5        -13.287683   1.000000
      6        -12.077310   1.000000
      7        -10.684299   1.000000
      8         -8.685653   1.000000
      9         -8.532014   1.000000
     10         -6.753526   1.000000
     11         -6.361676   1.000000
     12         -4.929651   1.000000
     13         -4.553087   1.000000
     14         -4.318409   1.000000
     15         -4.042501   1.000000
     16         -2.502414   0.000000
     17         -0.013372   0.000000
     18          0.532593   0.000000
     19          1.038166   0.000000
     20          1.038648   0.000000
     21          2.064136   0.000000
     22          2.467041   0.000000
     23          4.429240   0.000000
     24          5.047884   0.000000
 
 -0.1627907E+00  0.1627907E+00  0.0000000E+00  0.1081666E-02
      1        -19.782919   1.000000
      2        -16.425768   1.000000
      3        -16.125399   1.000000
      4        -13.790088   1.000000
      5        -13.287712   1.000000
      6        -12.077353   1.000000
      7        -10.684277   1.000000
      8         -8.685655   1.000000
      9         -8.532012   1.000000
     10         -6.753674   1.000000
     11         -6.361530   1.000000
     12         -4.929713   1.000000
     13         -4.553014   1.000000
     14         -4.318513   1.000000
     15         -4.042398   1.000000
     16         -2.502442   0.000000
     17         -0.013388   0.000000
     18          0.532691   0.000000
     19          1.038113   0.000000
     20          1.038647   0.000000
     21          2.064127   0.000000
     22          2.467040   0.000000
     23          4.429240   0.000000
     24          5.047881   0.000000
 
  0.1860465E+00  0.1301054E-16  0.0000000E+00  0.1081666E-02
      1        -19.752910   1.000000
      2        -16.533548   1.000000
      3        -16.159710   1.000000
      4        -13.830444   1.000000
      5        -13.190348   1.000000
      6        -11.939387   1.000000
      7        -10.530786   1.000000
      8         -8.759052   1.000000
      9         -8.484675   1.000000
     10         -6.880092   1.000000
     11         -6.366382   1.000000
     12         -5.052349   1.000000
     13         -4.571857   1.000000
     14         -4.469904   1.000000
     15         -4.112329   1.000000
     16         -2.592402   0.000000
     17          0.045531   0.000000
     18          0.635102   0.000000
     19          1.098839   0.000000
     20          1.255815   0.000000
     21          2.135335   0.000000
     22          2.527717   0.000000
     23          4.488770   0.000000
     24          5.100498   0.000000
 
 -0.3027596E-16  0.1860465E+00  0.0000000E+00  0.1081666E-02
      1        -19.752911   1.000000
      2        -16.533517   1.000000
      3        -16.159741   1.000000
      4        -13.830466   1.000000
      5        -13.190325   1.000000
      6        -11.939380   1.000000
      7        -10.530794   1.000000
      8         -8.759057   1.000000
      9         -8.484676   1.000000
     10         -6.880072   1.000000
     11         -6.366398   1.000000
     12         -5.052326   1.000000
     13         -4.571884   1.000000
     14         -4.469929   1.000000
     15         -4.112302   1.000000
     16         -2.592404   0.000000
     17          0.045556   0.000000
     18          0.635100   0.000000
     19          1.098839   0.000000
     20          1.255800   0.000000
     21          2.135335   0.000000
     22          2.527717   0.000000
     23          4.488770   0.000000
     24          5.100498   0.000000
 
 -0.1860465E+00  0.1860465E+00  0.0000000E+00  0.1081666E-02
      1        -19.752906   1.000000
      2        -16.533651   1.000000
      3        -16.159614   1.000000
      4        -13.830407   1.000000
      5        -13.190350   1.000000
      6        -11.939429   1.000000
      7        -10.530768   1.000000
      8         -8.759060   1.000000
      9         -8.484673   1.000000
     10         -6.880221   1.000000
     11         -6.366251   1.000000
     12         -5.052385   1.000000
     13         -4.571812   1.000000
     14         -4.470030   1.000000
     15         -4.112202   1.000000
     16         -2.592436   0.000000
     17          0.045541   0.000000
     18          0.635193   0.000000
     19          1.098838   0.000000
     20          1.255758   0.000000
     21          2.135323   0.000000
     22          2.527717   0.000000
     23          4.488770   0.000000
     24          5.100497   0.000000
 
  0.2093023E+00 -0.1448231E-20  0.0000000E+00  0.1081666E-02
      1        -19.719628   1.000000
      2        -16.644862   1.000000
      3        -16.194503   1.000000
      4        -13.872021   1.000000
      5        -13.085041   1.000000
      6        -11.790802   1.000000
      7        -10.364726   1.000000
      8         -8.842790   1.000000
      9         -8.431404   1.000000
     10         -7.017942   1.000000
     11         -6.366417   1.000000
     12         -5.183770   1.000000
     13         -4.636753   1.000000
     14         -4.591517   1.000000
     15         -4.187898   1.000000
     16         -2.675843   0.000000
     17          0.108730   0.000000
     18          0.732949   0.000000
     19          1.166961   0.000000
     20          1.487832   0.000000
     21          2.220240   0.000000
     22          2.596432   0.000000
     23          4.556080   0.000000
     24          5.157302   0.000000
 
 -0.1553238E-16  0.2093023E+00  0.0000000E+00  0.1081666E-02
      1        -19.719629   1.000000
      2        -16.644832   1.000000
      3        -16.194532   1.000000
      4        -13.872042   1.000000
      5        -13.085019   1.000000
      6        -11.790794   1.000000
      7        -10.364735   1.000000
      8         -8.842795   1.000000
      9         -8.431404   1.000000
     10         -7.017922   1.000000
     11         -6.366431   1.000000
     12         -5.183747   1.000000
     13         -4.636777   1.000000
     14         -4.591545   1.000000
     15         -4.187872   1.000000
     16         -2.675845   0.000000
     17          0.108755   0.000000
     18          0.732948   0.000000
     19          1.166961   0.000000
     20          1.487816   0.000000
     21          2.220241   0.000000
     22          2.596432   0.000000
     23          4.556080   0.000000
     24          5.157301   0.000000
 
 -0.2093023E+00  0.2093023E+00  0.0000000E+00  0.1081666E-02
      1        -19.719623   1.000000
      2        -16.644964   1.000000
      3        -16.194409   1.000000
      4        -13.871983   1.000000
      5        -13.085040   1.000000
      6        -11.790847   1.000000
      7        -10.364704   1.000000
      8         -8.842799   1.000000
      9         -8.431401   1.000000
     10         -7.018073   1.000000
     11         -6.366284   1.000000
     12         -5.183805   1.000000
     13         -4.636874   1.000000
     14         -4.591473   1.000000
     15         -4.187776   1.000000
     16         -2.675880   0.000000
     17          0.108741   0.000000
     18          0.733036   0.000000
     19          1.166960   0.000000
     20          1.487787   0.000000
     21          2.220222   0.000000
     22          2.596431   0.000000
     23          4.556080   0.000000
     24          5.157302   0.000000
 
  0.2325581E+00 -0.9144781E-17  0.0000000E+00  0.1081666E-02
      1        -19.683420   1.000000
      2        -16.757604   1.000000
      3        -16.229072   1.000000
      4        -13.913639   1.000000
      5        -12.973074   1.000000
      6        -11.633461   1.000000
      7        -10.187770   1.000000
      8         -8.936281   1.000000
      9         -8.372422   1.000000
     10         -7.165367   1.000000
     11         -6.361056   1.000000
     12         -5.321847   1.000000
     13         -4.817354   1.000000
     14         -4.611550   1.000000
     15         -4.268041   1.000000
     16         -2.752308   0.000000
     17          0.174969   0.000000
     18          0.829116   0.000000
     19          1.242993   0.000000
     20          1.722795   0.000000
     21          2.323341   0.000000
     22          2.673176   0.000000
     23          4.631015   0.000000
     24          5.120709   0.000000
 
 -0.9144781E-17  0.2325581E+00  0.0000000E+00  0.1081666E-02
      1        -19.683422   1.000000
      2        -16.757574   1.000000
      3        -16.229100   1.000000
      4        -13.913660   1.000000
      5        -12.973053   1.000000
      6        -11.633453   1.000000
      7        -10.187780   1.000000
      8         -8.936287   1.000000
      9         -8.372423   1.000000
     10         -7.165347   1.000000
     11         -6.361068   1.000000
     12         -5.321825   1.000000
     13         -4.817377   1.000000
     14         -4.611578   1.000000
     15         -4.268016   1.000000
     16         -2.752310   0.000000
     17          0.174994   0.000000
     18          0.829116   0.000000
     19          1.242993   0.000000
     20          1.722779   0.000000
     21          2.323342   0.000000
     22          2.673176   0.000000
     23          4.631016   0.000000
     24          5.120707   0.000000
 
 -0.2325581E+00  0.2325581E+00  0.0000000E+00  0.1081666E-02
      1        -19.683414   1.000000
      2        -16.757706   1.000000
      3        -16.228979   1.000000
      4        -13.913602   1.000000
      5        -12.973070   1.000000
      6        -11.633509   1.000000
      7        -10.187744   1.000000
      8         -8.936291   1.000000
      9         -8.372418   1.000000
     10         -7.165501   1.000000
     11         -6.360921   1.000000
     12         -5.321881   1.000000
     13         -4.817470   1.000000
     14         -4.611507   1.000000
     15         -4.267924   1.000000
     16         -2.752348   0.000000
     17          0.174980   0.000000
     18          0.829201   0.000000
     19          1.242993   0.000000
     20          1.722765   0.000000
     21          2.323314   0.000000
     22          2.673176   0.000000
     23          4.631016   0.000000
     24          5.120709   0.000000
 
  0.2558140E+00 -0.2215677E-16  0.0000000E+00  0.1081666E-02
      1        -19.644704   1.000000
      2        -16.869973   1.000000
      3        -16.262722   1.000000
      4        -13.954282   1.000000
      5        -12.855776   1.000000
      6        -11.468996   1.000000
      7        -10.001596   1.000000