  15  15   0   4
  0.2040470E+02  0.4854000E-09  0.4854000E-09  0.1500000E-08  0.5000000E-15
  1.000000000000000E-004
  CAR 
 Lattice                                 
     10.30684679    -21.67407395  301     -0.34260090      1.00000000
    -21.674  0.0000E+00  0.0000E+00  0.0000E+00  0.0000E+00
    -21.567  0.0000E+00  0.0000E+00  0.0000E+00  0.0000E+00
    -21.461  0.0000E+00  0.0000E+00  0.0000E+00  0.0000E+00
    -21.354  0.0000E+00  0.0000E+00  0.0000E+00  0.0000E+00
    -21.248  0.0000E+00  0.0000E+00  0.0000E+00  0.0000E+00
    -21.141  0.0000E+00  0.0000E+00  0.0000E+00  0.0000E+00
    -21.034  0.0000E+00  0.0000E+00  0.0000E+00  0.0000E+00
    -20.928  0.0000E+00  0.0000E+00  0.0000E+00  0.0000E+00
    -20.821  0.0000E+00  0.0000E+00  0.0000E+00  0.0000E+00
    -20.715  0.7509E-15  0.7509E-15  0.8004E-16  0.8004E-16
    -20.608  0.1254E-10  0.1254E-10  0.1336E-11  0.1336E-11
    -20.501  0.2533E-07  0.2533E-07  0.2702E-08  0.2702E-08
    -20.395  0.6811E-05  0.6811E-05  0.7287E-06  0.7287E-06
    -20.288  0.2720E-03  0.2720E-03  0.2973E-04  0.2973E-04
    -20.182  0.1978E-02  0.1978E-02  0.2405E-03  0.2405E-03
    -20.075  0.4158E-02  0.4158E-02  0.6838E-03  0.6838E-03
    -19.968  0.4531E-02  0.4531E-02  0.1167E-02  0.1167E-02
    -19.862  0.4943E-02  0.4943E-02  0.1694E-02  0.1694E-02
    -19.755  0.4168E-02  0.4168E-02  0.2138E-02  0.2138E-02
    -19.649  0.5393E-02  0.5393E-02  0.2713E-02  0.2713E-02
    -19.542  0.4215E-02  0.4215E-02  0.3162E-02  0.3162E-02
    -19.435  0.4281E-02  0.4281E-02  0.3619E-02  0.3619E-02
    -19.329  0.6013E-02  0.6013E-02  0.4260E-02  0.4260E-02
    -19.222  0.3801E-02  0.3801E-02  0.4665E-02  0.4665E-02
    -19.116  0.3918E-02  0.3918E-02  0.5083E-02  0.5083E-02
    -19.009  0.6130E-02  0.6130E-02  0.5736E-02  0.5736E-02
    -18.902  0.5193E-02  0.5193E-02  0.6290E-02  0.6290E-02
    -18.796  0.2948E-02  0.2948E-02  0.6604E-02  0.6604E-02
    -18.689  0.4448E-02  0.4448E-02  0.7078E-02  0.7078E-02
    -18.583  0.6910E-02  0.6910E-02  0.7815E-02  0.7815E-02
    -18.476  0.4541E-02  0.4541E-02  0.8299E-02  0.8299E-02
    -18.369  0.3785E-02  0.3785E-02  0.8702E-02  0.8702E-02
    -18.263  0.3017E-02  0.3017E-02  0.9024E-02  0.9024E-02
    -18.156  0.6711E-02  0.6711E-02  0.9739E-02  0.9739E-02
    -18.050  0.6554E-02  0.6554E-02  0.1044E-01  0.1044E-01
    -17.943  0.3488E-02  0.3488E-02  0.1081E-01  0.1081E-01
    -17.836  0.3332E-02  0.3332E-02  0.1117E-01  0.1117E-01
    -17.730  0.4131E-02  0.4131E-02  0.1161E-01  0.1161E-01
    -17.623  0.6303E-02  0.6303E-02  0.1228E-01  0.1228E-01
    -17.517  0.6728E-02  0.6728E-02  0.1299E-01  0.1299E-01
    -17.410  0.5559E-02  0.5559E-02  0.1359E-01  0.1359E-01
    -17.303  0.6552E-02  0.6552E-02  0.1429E-01  0.1429E-01
    -17.197  0.1039E-01  0.1039E-01  0.1539E-01  0.1539E-01
    -17.090  0.1471E-01  0.1471E-01  0.1696E-01  0.1696E-01
    -16.984  0.1566E-01  0.1566E-01  0.1863E-01  0.1863E-01
    -16.877  0.1723E-01  0.1723E-01  0.2047E-01  0.2047E-01
    -16.770  0.2093E-01  0.2093E-01  0.2270E-01  0.2270E-01
    -16.664  0.1596E-01  0.1596E-01  0.2440E-01  0.2440E-01
    -16.557  0.4960E-02  0.4960E-02  0.2493E-01  0.2493E-01
    -16.451  0.7516E-02  0.7516E-02  0.2573E-01  0.2573E-01
    -16.344  0.7974E-02  0.7974E-02  0.2658E-01  0.2658E-01
    -16.237  0.4534E-02  0.4534E-02  0.2706E-01  0.2706E-01
    -16.131  0.4124E-02  0.4124E-02  0.2750E-01  0.2750E-01
    -16.024  0.3916E-02  0.3916E-02  0.2792E-01  0.2792E-01
    -15.918  0.3737E-02  0.3737E-02  0.2832E-01  0.2832E-01
    -15.811  0.3840E-02  0.3840E-02  0.2873E-01  0.2873E-01
    -15.704  0.8304E-02  0.8304E-02  0.2961E-01  0.2961E-01
    -15.598  0.7841E-02  0.7841E-02  0.3045E-01  0.3045E-01
    -15.491  0.3862E-02  0.3862E-02  0.3086E-01  0.3086E-01
    -15.384  0.3863E-02  0.3863E-02  0.3127E-01  0.3127E-01
    -15.278  0.3431E-02  0.3431E-02  0.3164E-01  0.3164E-01
    -15.171  0.4721E-02  0.4721E-02  0.3214E-01  0.3214E-01
    -15.065  0.6334E-02  0.6334E-02  0.3282E-01  0.3282E-01
    -14.958  0.1106E-01  0.1106E-01  0.3400E-01  0.3400E-01
    -14.851  0.1697E-01  0.1697E-01  0.3580E-01  0.3580E-01
    -14.745  0.1836E-01  0.1836E-01  0.3776E-01  0.3776E-01
    -14.638  0.1724E-01  0.1724E-01  0.3960E-01  0.3960E-01
    -14.532  0.1059E-01  0.1059E-01  0.4073E-01  0.4073E-01
    -14.425  0.7962E-02  0.7962E-02  0.4158E-01  0.4158E-01
    -14.318  0.1552E-01  0.1552E-01  0.4323E-01  0.4323E-01
    -14.212  0.1501E-01  0.1501E-01  0.4483E-01  0.4483E-01
    -14.105  0.1085E-01  0.1085E-01  0.4599E-01  0.4599E-01
    -13.999  0.1074E-01  0.1074E-01  0.4713E-01  0.4713E-01
    -13.892  0.1279E-01  0.1279E-01  0.4850E-01  0.4850E-01
    -13.785  0.1998E-01  0.1998E-01  0.5063E-01  0.5063E-01
    -13.679  0.1981E-01  0.1981E-01  0.5274E-01  0.5274E-01
    -13.572  0.1785E-01  0.1785E-01  0.5464E-01  0.5464E-01
    -13.466  0.1056E-01  0.1056E-01  0.5577E-01  0.5577E-01
    -13.359  0.6601E-02  0.6601E-02  0.5647E-01  0.5647E-01
    -13.252  0.3305E-02  0.3305E-02  0.5683E-01  0.5683E-01
    -13.146  0.4202E-02  0.4202E-02  0.5727E-01  0.5727E-01
    -13.039  0.7021E-02  0.7021E-02  0.5802E-01  0.5802E-01
    -12.933  0.6750E-02  0.6750E-02  0.5874E-01  0.5874E-01
    -12.826  0.4862E-02  0.4862E-02  0.5926E-01  0.5926E-01
    -12.719  0.7004E-02  0.7004E-02  0.6001E-01  0.6001E-01
    -12.613  0.6975E-02  0.6975E-02  0.6075E-01  0.6075E-01
    -12.506  0.5534E-02  0.5534E-02  0.6134E-01  0.6134E-01
    -12.400  0.5329E-02  0.5329E-02  0.6191E-01  0.6191E-01
    -12.293  0.3275E-02  0.3275E-02  0.6226E-01  0.6226E-01
    -12.186  0.6729E-02  0.6729E-02  0.6297E-01  0.6297E-01
    -12.080  0.7857E-02  0.7857E-02  0.6381E-01  0.6381E-01
    -11.973  0.3137E-02  0.3137E-02  0.6415E-01  0.6415E-01
    -11.867  0.3419E-02  0.3419E-02  0.6451E-01  0.6451E-01
    -11.760  0.3446E-02  0.3446E-02  0.6488E-01  0.6488E-01
    -11.653  0.6314E-02  0.6314E-02  0.6555E-01  0.6555E-01
    -11.547  0.6545E-02  0.6545E-02  0.6625E-01  0.6625E-01
    -11.440  0.3532E-02  0.3532E-02  0.6663E-01  0.6663E-01
    -11.334  0.1981E-02  0.1981E-02  0.6684E-01  0.6684E-01
    -11.227  0.4850E-02  0.4850E-02  0.6735E-01  0.6735E-01
    -11.120  0.5807E-02  0.5807E-02  0.6797E-01  0.6797E-01
    -11.014  0.5051E-02  0.5051E-02  0.6851E-01  0.6851E-01
    -10.907  0.7790E-02  0.7790E-02  0.6934E-01  0.6934E-01
    -10.801  0.5883E-02  0.5883E-02  0.6997E-01  0.6997E-01
    -10.694  0.2501E-02  0.2501E-02  0.7024E-01  0.7024E-01
    -10.587  0.8181E-02  0.8181E-02  0.7111E-01  0.7111E-01
    -10.481  0.1297E-01  0.1297E-01  0.7249E-01  0.7249E-01
    -10.374  0.1533E-01  0.1533E-01  0.7412E-01  0.7412E-01
    -10.268  0.1448E-01  0.1448E-01  0.7567E-01  0.7567E-01
    -10.161  0.1466E-01  0.1466E-01  0.7723E-01  0.7723E-01
    -10.054  0.1842E-01  0.1842E-01  0.7919E-01  0.7919E-01
     -9.948  0.1860E-01  0.1860E-01  0.8118E-01  0.8118E-01
     -9.841  0.9483E-02  0.9483E-02  0.8219E-01  0.8219E-01
     -9.735  0.6920E-02  0.6920E-02  0.8293E-01  0.8293E-01
     -9.628  0.1442E-01  0.1442E-01  0.8446E-01  0.8446E-01
     -9.521  0.1561E-01  0.1561E-01  0.8613E-01  0.8613E-01
     -9.415  0.1641E-01  0.1641E-01  0.8788E-01  0.8788E-01
     -9.308  0.1528E-01  0.1528E-01  0.8951E-01  0.8951E-01
     -9.202  0.1401E-01  0.1401E-01  0.9100E-01  0.9100E-01
     -9.095  0.1051E-01  0.1051E-01  0.9212E-01  0.9212E-01
     -8.988  0.8119E-02  0.8119E-02  0.9299E-01  0.9299E-01
     -8.882  0.1569E-01  0.1569E-01  0.9466E-01  0.9466E-01
     -8.775  0.2021E-01  0.2021E-01  0.9681E-01  0.9681E-01
     -8.668  0.1496E-01  0.1496E-01  0.9841E-01  0.9841E-01
     -8.562  0.7597E-02  0.7597E-02  0.9922E-01  0.9922E-01
     -8.455  0.1143E-01  0.1143E-01  0.1004E+00  0.1004E+00
     -8.349  0.2084E-01  0.2084E-01  0.1027E+00  0.1027E+00
     -8.242  0.1777E-01  0.1777E-01  0.1046E+00  0.1046E+00
     -8.135  0.1185E-01  0.1185E-01  0.1058E+00  0.1058E+00
     -8.029  0.1673E-01  0.1673E-01  0.1076E+00  0.1076E+00
     -7.922  0.2536E-01  0.2536E-01  0.1103E+00  0.1103E+00
     -7.816  0.2470E-01  0.2470E-01  0.1129E+00  0.1129E+00
     -7.709  0.1922E-01  0.1922E-01  0.1150E+00  0.1150E+00
     -7.602  0.9927E-02  0.9927E-02  0.1160E+00  0.1160E+00
     -7.496  0.8765E-02  0.8765E-02  0.1170E+00  0.1170E+00
     -7.389  0.1883E-01  0.1883E-01  0.1190E+00  0.1190E+00
     -7.283  0.1801E-01  0.1801E-01  0.1209E+00  0.1209E+00
     -7.176  0.1170E-01  0.1170E-01  0.1221E+00  0.1221E+00
     -7.069  0.1089E-01  0.1089E-01  0.1233E+00  0.1233E+00
     -6.963  0.1700E-01  0.1700E-01  0.1251E+00  0.1251E+00
     -6.856  0.1843E-01  0.1843E-01  0.1271E+00  0.1271E+00
     -6.750  0.2050E-01  0.2050E-01  0.1293E+00  0.1293E+00
     -6.643  0.2032E-01  0.2032E-01  0.1314E+00  0.1314E+00
     -6.536  0.1783E-01  0.1783E-01  0.1333E+00  0.1333E+00
     -6.430  0.2043E-01  0.2043E-01  0.1355E+00  0.1355E+00
     -6.323  0.1725E-01  0.1725E-01  0.1374E+00  0.1374E+00
     -6.217  0.1921E-01  0.1921E-01  0.1394E+00  0.1394E+00
     -6.110  0.2626E-01  0.2626E-01  0.1422E+00  0.1422E+00
     -6.003  0.2228E-01  0.2228E-01  0.1446E+00  0.1446E+00
     -5.897  0.3178E-01  0.3178E-01  0.1480E+00  0.1480E+00
     -5.790  0.2885E-01  0.2885E-01  0.1510E+00  0.1510E+00
     -5.684  0.1600E-01  0.1600E-01  0.1527E+00  0.1527E+00
     -5.577  0.1826E-01  0.1826E-01  0.1547E+00  0.1547E+00
     -5.470  0.3336E-01  0.3336E-01  0.1582E+00  0.1582E+00
     -5.364  0.3653E-01  0.3653E-01  0.1621E+00  0.1621E+00
     -5.257  0.2274E-01  0.2274E-01  0.1646E+00  0.1646E+00
     -5.151  0.1627E-01  0.1627E-01  0.1663E+00  0.1663E+00
     -5.044  0.1067E-01  0.1067E-01  0.1674E+00  0.1674E+00
     -4.937  0.1126E-01  0.1126E-01  0.1686E+00  0.1686E+00
     -4.831  0.1414E-01  0.1414E-01  0.1701E+00  0.1701E+00
     -4.724  0.1042E-01  0.1042E-01  0.1713E+00  0.1713E+00
     -4.618  0.7738E-02  0.7738E-02  0.1721E+00  0.1721E+00
     -4.511  0.9615E-02  0.9615E-02  0.1731E+00  0.1731E+00
     -4.404  0.1749E-01  0.1749E-01  0.1750E+00  0.1750E+00
     -4.298  0.2187E-01  0.2187E-01  0.1773E+00  0.1773E+00
     -4.191  0.1861E-01  0.1861E-01  0.1793E+00  0.1793E+00
     -4.085  0.1884E-01  0.1884E-01  0.1813E+00  0.1813E+00
     -3.978  0.2222E-01  0.2222E-01  0.1837E+00  0.1837E+00
     -3.871  0.2331E-01  0.2331E-01  0.1862E+00  0.1862E+00
     -3.765  0.1814E-01  0.1814E-01  0.1881E+00  0.1881E+00
     -3.658  0.1832E-01  0.1832E-01  0.1900E+00  0.1900E+00
     -3.552  0.2048E-01  0.2048E-01  0.1922E+00  0.1922E+00
     -3.445  0.1568E-01  0.1568E-01  0.1939E+00  0.1939E+00
     -3.338  0.1378E-01  0.1378E-01  0.1954E+00  0.1954E+00
     -3.232  0.1294E-01  0.1294E-01  0.1967E+00  0.1967E+00
     -3.125  0.1719E-01  0.1719E-01  0.1986E+00  0.1986E+00
     -3.019  0.1832E-01  0.1832E-01  0.2005E+00  0.2005E+00
     -2.912  0.1183E-01  0.1183E-01  0.2018E+00  0.2018E+00
     -2.805  0.1179E-01  0.1179E-01  0.2030E+00  0.2030E+00
     -2.699  0.7488E-02  0.7488E-02  0.2038E+00  0.2038E+00
     -2.592  0.1019E-01  0.1019E-01  0.2049E+00  0.2049E+00
     -2.486  0.1979E-01  0.1979E-01  0.2070E+00  0.2070E+00
     -2.379  0.1414E-01  0.1414E-01  0.2085E+00  0.2085E+00
     -2.272  0.4005E-02  0.4005E-02  0.2090E+00  0.2090E+00
     -2.166  0.4760E-02  0.4760E-02  0.2095E+00  0.2095E+00
     -2.059  0.1034E-01  0.1034E-01  0.2106E+00  0.2106E+00
     -1.953  0.1037E-01  0.1037E-01  0.2117E+00  0.2117E+00
     -1.846  0.1127E-01  0.1127E-01  0.2129E+00  0.2129E+00
     -1.739  0.1160E-01  0.1160E-01  0.2141E+00  0.2141E+00
     -1.633  0.9434E-02  0.9434E-02  0.2151E+00  0.2151E+00
     -1.526  0.7095E-02  0.7095E-02  0.2159E+00  0.2159E+00
     -1.419  0.4553E-02  0.4553E-02  0.2164E+00  0.2164E+00
     -1.313  0.3946E-02  0.3946E-02  0.2168E+00  0.2168E+00
     -1.206  0.4002E-02  0.4002E-02  0.2172E+00  0.2172E+00
     -1.100  0.4090E-02  0.4090E-02  0.2177E+00  0.2177E+00
     -0.993  0.5868E-02  0.5868E-02  0.2183E+00  0.2183E+00
     -0.886  0.2751E-02  0.2751E-02  0.2186E+00  0.2186E+00
     -0.780  0.5836E-03  0.5836E-03  0.2186E+00  0.2186E+00
     -0.673  0.6271E-04  0.6271E-04  0.2186E+00  0.2186E+00
     -0.567  0.2793E-05  0.2793E-05  0.2186E+00  0.2186E+00
     -0.460  0.9829E-04  0.9829E-04  0.2187E+00  0.2187E+00
     -0.353  0.7943E-03  0.7943E-03  0.2187E+00  0.2187E+00
     -0.247  0.9607E-03  0.9607E-03  0.2188E+00  0.2188E+00
     -0.140  0.1764E-03  0.1764E-03  0.2189E+00  0.2189E+00
     -0.034  0.4450E-05  0.4450E-05  0.2189E+00  0.2189E+00
      0.073  0.4754E-06  0.4754E-06  0.2189E+00  0.2189E+00
      0.180  0.6832E-04  0.6832E-04  0.2189E+00  0.2189E+00
      0.286  0.1272E-02  0.1272E-02  0.2190E+00  0.2190E+00
      0.393  0.3354E-02  0.3354E-02  0.2194E+00  0.2194E+00
      0.499  0.1452E-02  0.1452E-02  0.2195E+00  0.2195E+00
      0.606  0.1302E-02  0.1302E-02  0.2197E+00  0.2197E+00
      0.713  0.3358E-02  0.3358E-02  0.2200E+00  0.2200E+00
      0.819  0.5267E-02  0.5267E-02  0.2206E+00  0.2206E+00
      0.926  0.1037E-01  0.1037E-01  0.2217E+00  0.2217E+00
      1.032  0.2612E-01  0.2612E-01  0.2245E+00  0.2245E+00
      1.139  0.1970E-01  0.1970E-01  0.2266E+00  0.2266E+00
      1.246  0.4767E-02  0.4767E-02  0.2271E+00  0.2271E+00
      1.352  0.4355E-02  0.4355E-02  0.2275E+00  0.2275E+00
      1.459  0.8691E-02  0.8691E-02  0.2285E+00  0.2285E+00
      1.565  0.1293E-01  0.1293E-01  0.2298E+00  0.2298E+00
      1.672  0.1959E-01  0.1959E-01  0.2319E+00  0.2319E+00
      1.779  0.1489E-01  0.1489E-01  0.2335E+00  0.2335E+00
      1.885  0.6188E-02  0.6188E-02  0.2342E+00  0.2342E+00
      1.992  0.6997E-02  0.6997E-02  0.2349E+00  0.2349E+00
      2.098  0.9927E-02  0.9927E-02  0.2360E+00  0.2360E+00
      2.205  0.7276E-02  0.7276E-02  0.2368E+00  0.2368E+00
      2.312  0.8347E-02  0.8347E-02  0.2376E+00  0.2376E+00
      2.418  0.7308E-02  0.7308E-02  0.2384E+00  0.2384E+00
      2.525  0.1103E-01  0.1103E-01  0.2396E+00  0.2396E+00
      2.631  0.1083E-01  0.1083E-01  0.2408E+00  0.2408E+00
      2.738  0.6282E-02  0.6282E-02  0.2414E+00  0.2414E+00
      2.845  0.4419E-02  0.4419E-02  0.2419E+00  0.2419E+00
      2.951  0.9237E-02  0.9237E-02  0.2429E+00  0.2429E+00
      3.058  0.1183E-01  0.1183E-01  0.2441E+00  0.2441E+00
      3.164  0.9838E-02  0.9838E-02  0.2452E+00  0.2452E+00
      3.271  0.9837E-02  0.9837E-02  0.2462E+00  0.2462E+00
      3.378  0.1026E-01  0.1026E-01  0.2473E+00  0.2473E+00
      3.484  0.1169E-01  0.1169E-01  0.2486E+00  0.2486E+00
      3.591  0.1722E-01  0.1722E-01  0.2504E+00  0.2504E+00
      3.697  0.2314E-01  0.2314E-01  0.2529E+00  0.2529E+00
      3.804  0.2496E-01  0.2496E-01  0.2555E+00  0.2555E+00
      3.911  0.2291E-01  0.2291E-01  0.2580E+00  0.2580E+00
      4.017  0.2349E-01  0.2349E-01  0.2605E+00  0.2605E+00
      4.124  0.2511E-01  0.2511E-01  0.2632E+00  0.2632E+00
      4.230  0.2511E-01  0.2511E-01  0.2658E+00  0.2658E+00
      4.337  0.2387E-01  0.2387E-01  0.2684E+00  0.2684E+00
      4.444  0.2232E-01  0.2232E-01  0.2708E+00  0.2708E+00
      4.550  0.2152E-01  0.2152E-01  0.2731E+00  0.2731E+00
      4.657  0.2178E-01  0.2178E-01  0.2754E+00  0.2754E+00
      4.763  0.2743E-01  0.2743E-01  0.2783E+00  0.2783E+00
      4.870  0.2382E-01  0.2382E-01  0.2808E+00  0.2808E+00
      4.977  0.2135E-01  0.2135E-01  0.2831E+00  0.2831E+00
      5.083  0.2572E-01  0.2572E-01  0.2859E+00  0.2859E+00
      5.190  0.2724E-01  0.2724E-01  0.2888E+00  0.2888E+00
      5.297  0.2441E-01  0.2441E-01  0.2914E+00  0.2914E+00
      5.403  0.2081E-01  0.2081E-01  0.2936E+00  0.2936E+00
      5.510  0.2010E-01  0.2010E-01  0.2957E+00  0.2957E+00
      5.616  0.2626E-01  0.2626E-01  0.2985E+00  0.2985E+00
      5.723  0.2444E-01  0.2444E-01  0.3011E+00  0.3011E+00
      5.830  0.2358E-01  0.2358E-01  0.3036E+00  0.3036E+00
      5.936  0.1937E-01  0.1937E-01  0.3057E+00  0.3057E+00
      6.043  0.1961E-01  0.1961E-01  0.3078E+00  0.3078E+00
      6.149  0.1535E-01  0.1535E-01  0.3094E+00  0.3094E+00
      6.256  0.1991E-01  0.1991E-01  0.3116E+00  0.3116E+00
      6.363  0.2279E-01  0.2279E-01  0.3140E+00  0.3140E+00
      6.469  0.2345E-01  0.2345E-01  0.3165E+00  0.3165E+00
      6.576  0.2526E-01  0.2527E-01  0.3192E+00  0.3192E+00
      6.682  0.2879E-01  0.2879E-01  0.3223E+00  0.3223E+00
      6.789  0.3192E-01  0.3192E-01  0.3257E+00  0.3257E+00
      6.896  0.2483E-01  0.2483E-01  0.3283E+00  0.3283E+00
      7.002  0.2587E-01  0.2587E-01  0.3311E+00  0.3311E+00
      7.109  0.2706E-01  0.2706E-01  0.3339E+00  0.3339E+00
      7.215  0.2139E-01  0.2139E-01  0.3362E+00  0.3362E+00
      7.322  0.1928E-01  0.1928E-01  0.3383E+00  0.3383E+00
      7.429  0.2029E-01  0.2029E-01  0.3404E+00  0.3404E+00
      7.535  0.2443E-01  0.2443E-01  0.3430E+00  0.3430E+00
      7.642  0.2532E-01  0.2532E-01  0.3457E+00  0.3457E+00
      7.748  0.3257E-01  0.3257E-01  0.3492E+00  0.3492E+00
      7.855  0.3215E-01  0.3215E-01  0.3526E+00  0.3526E+00
      7.962  0.2431E-01  0.2431E-01  0.3552E+00  0.3552E+00
      8.068  0.3303E-01  0.3303E-01  0.3588E+00  0.3588E+00
      8.175  0.3497E-01  0.3497E-01  0.3625E+00  0.3625E+00
      8.281  0.3508E-01  0.3508E-01  0.3662E+00  0.3662E+00
      8.388  0.3728E-01  0.3728E-01  0.3702E+00  0.3702E+00
      8.495  0.2321E-01  0.2321E-01  0.3727E+00  0.3727E+00
      8.601  0.1122E-01  0.1122E-01  0.3739E+00  0.3739E+00
      8.708  0.4612E-02  0.4612E-02  0.3744E+00  0.3744E+00
      8.814  0.3086E-02  0.3086E-02  0.3747E+00  0.3747E+00
      8.921  0.2352E-02  0.2352E-02  0.3749E+00  0.3749E+00
      9.028  0.5295E-03  0.5295E-03  0.3750E+00  0.3750E+00
      9.134  0.2089E-04  0.2089E-04  0.3750E+00  0.3750E+00
      9.241  0.1075E-06  0.1075E-06  0.3750E+00  0.3750E+00
      9.347  0.6395E-10  0.6396E-10  0.3750E+00  0.3750E+00
      9.454  0.4187E-14  0.4188E-14  0.3750E+00  0.3750E+00
      9.561  0.0000E+00  0.0000E+00  0.3750E+00  0.3750E+00
      9.667  0.0000E+00  0.0000E+00  0.3750E+00  0.3750E+00
      9.774  0.0000E+00  0.0000E+00  0.3750E+00  0.3750E+00
      9.880  0.0000E+00  0.0000E+00  0.3750E+00  0.3750E+00
      9.987  0.0000E+00  0.0000E+00  0.3750E+00  0.3750E+00
     10.094  0.0000E+00  0.0000E+00  0.3750E+00  0.3750E+00
     10.200  0.0000E+00  0.0000E+00  0.3750E+00  0.3750E+00
     10.307  0.0000E+00  0.0000E+00  0.3750E+00  0.3750E+00
