       N       E                     dE             d eps       ncg     rms          rms(c)
DAV:   1     0.202463894773E+03    0.20246E+03   -0.25688E+04 14208   0.859E+02
DAV:   2    -0.116620565740E+03   -0.31908E+03   -0.31747E+03 20496   0.162E+02
DAV:   3    -0.129200475106E+03   -0.12580E+02   -0.12561E+02 26304   0.425E+01
DAV:   4    -0.129230176185E+03   -0.29701E-01   -0.29700E-01 19536   0.191E+00
DAV:   5    -0.129230239276E+03   -0.63091E-04   -0.63091E-04 25440   0.955E-02    0.243E+01
DAV:   6    -0.920755076279E+02    0.37155E+02   -0.72381E+01 25488   0.255E+01    0.138E+01
DAV:   7    -0.100516421197E+03   -0.84409E+01   -0.96870E+00 21936   0.100E+01    0.810E+00
DAV:   8    -0.110486032522E+03   -0.99696E+01   -0.89751E+00 24528   0.901E+00    0.435E+00
DAV:   9    -0.117317824452E+03   -0.68318E+01   -0.40558E+00 18144   0.622E+00    0.278E+00
DAV:  10    -0.123676566411E+03   -0.63587E+01   -0.85127E+00 23856   0.711E+00    0.161E+00
DAV:  11    -0.125269828078E+03   -0.15933E+01   -0.23121E+00 25920   0.365E+00    0.982E-01
DAV:  12    -0.125425655291E+03   -0.15583E+00   -0.22724E-01 19488   0.140E+00    0.442E-01
DAV:  13    -0.125460817328E+03   -0.35162E-01   -0.24682E-02 18960   0.570E-01    0.180E-01
DAV:  14    -0.125483987251E+03   -0.23170E-01   -0.66568E-03 20400   0.286E-01    0.811E-02
DAV:  15    -0.125490643930E+03   -0.66567E-02   -0.28485E-03 18288   0.151E-01    0.422E-02
DAV:  16    -0.125492647920E+03   -0.20040E-02   -0.58783E-04 16800   0.798E-02    0.218E-02
DAV:  17    -0.125493892140E+03   -0.12442E-02   -0.14957E-04 16896   0.507E-02    0.166E-02
DAV:  18    -0.125494655417E+03   -0.76328E-03   -0.78487E-05 17088   0.384E-02    0.115E-02
DAV:  19    -0.125495078362E+03   -0.42295E-03   -0.38449E-05 21072   0.246E-02    0.682E-03
DAV:  20    -0.125495116772E+03   -0.38410E-04   -0.17710E-05 21936   0.169E-02    0.402E-03
DAV:  21    -0.125495140941E+03   -0.24168E-04   -0.56584E-06 21456   0.957E-03    0.213E-03
DAV:  22    -0.125495163861E+03   -0.22921E-04   -0.26232E-06 22416   0.567E-03    0.131E-03
DAV:  23    -0.125495174968E+03   -0.11107E-04   -0.13612E-06 20640   0.376E-03    0.687E-04
DAV:  24    -0.125495177406E+03   -0.24373E-05   -0.26573E-07 24336   0.197E-03    0.364E-04
DAV:  25    -0.125495178438E+03   -0.10324E-05   -0.10843E-07 20976   0.110E-03    0.183E-04
DAV:  26    -0.125495178947E+03   -0.50865E-06   -0.28410E-08 23136   0.569E-04
   1 F= -.12709752E+03 E0= -.12709675E+03  d E =-.127098E+03  mag=    -0.0000
       N       E                     dE             d eps       ncg     rms          rms(c)
DAV:   1    -0.125504430994E+03   -0.92526E-02   -0.35531E+00 14208   0.599E+00    0.510E-01
DAV:   2    -0.125495091791E+03    0.93392E-02   -0.70577E-02 26400   0.789E-01    0.226E-01
DAV:   3    -0.125493999606E+03    0.10922E-02   -0.60392E-03 20976   0.227E-01    0.882E-02
DAV:   4    -0.125493950658E+03    0.48948E-04   -0.69784E-04 27456   0.792E-02    0.249E-02
DAV:   5    -0.125493953540E+03   -0.28828E-05   -0.19599E-05 23760   0.151E-02    0.906E-03
DAV:   6    -0.125493953624E+03   -0.83237E-07   -0.30157E-06 22656   0.561E-03
   2 F= -.12709569E+03 E0= -.12709492E+03  d E =0.183432E-02  mag=    -0.0000
       N       E                     dE             d eps       ncg     rms          rms(c)
DAV:   1    -0.125505765301E+03   -0.11812E-01   -0.99116E-01 14208   0.317E+00    0.270E-01
DAV:   2    -0.125503100223E+03    0.26651E-02   -0.19674E-02 26544   0.414E-01    0.119E-01
DAV:   3    -0.125502805107E+03    0.29512E-03   -0.16571E-03 24528   0.120E-01    0.471E-02
DAV:   4    -0.125502791511E+03    0.13596E-04   -0.18395E-04 22560   0.407E-02    0.128E-02
DAV:   5    -0.125502792377E+03   -0.86621E-06   -0.64494E-06 24048   0.853E-03
   3 F= -.12710485E+03 E0= -.12710408E+03  d E =-.732356E-02  mag=    -0.0000
       N       E                     dE             d eps       ncg     rms          rms(c)
DAV:   1    -0.125507531455E+03   -0.47399E-02   -0.26186E-01 14208   0.194E+00    0.110E-01
DAV:   2    -0.125507550220E+03   -0.18764E-04   -0.23068E-03 28032   0.204E-01    0.639E-02
DAV:   3    -0.125507537316E+03    0.12904E-04   -0.24274E-04 23088   0.577E-02    0.212E-02
DAV:   4    -0.125507537680E+03   -0.36391E-06   -0.46735E-05 26496   0.243E-02    0.891E-03
DAV:   5    -0.125507538391E+03   -0.71193E-06   -0.20533E-06 22944   0.602E-03
   4 F= -.12710948E+03 E0= -.12710871E+03  d E =-.463198E-02  mag=    -0.0000
       N       E                     dE             d eps       ncg     rms          rms(c)
DAV:   1    -0.125510325913E+03   -0.27882E-02   -0.57654E-01 14208   0.288E+00    0.163E-01
DAV:   2    -0.125510384738E+03   -0.58825E-04   -0.50802E-03 26304   0.303E-01    0.946E-02
DAV:   3    -0.125510357579E+03    0.27159E-04   -0.54100E-04 21360   0.863E-02    0.312E-02
DAV:   4    -0.125510358164E+03   -0.58431E-06   -0.10652E-04 26592   0.366E-02    0.134E-02
DAV:   5    -0.125510359706E+03   -0.15422E-05   -0.45465E-06 22080   0.900E-03    0.490E-03
DAV:   6    -0.125510359878E+03   -0.17215E-06   -0.13034E-06 24144   0.431E-03
   5 F= -.12711211E+03 E0= -.12711133E+03  d E =-.725986E-02  mag=    -0.0000
       N       E                     dE             d eps       ncg     rms          rms(c)
DAV:   1    -0.125511704352E+03   -0.13446E-02   -0.15998E-02 14208   0.453E-01    0.266E-02
DAV:   2    -0.125511707259E+03   -0.29067E-05   -0.12267E-04 26112   0.458E-02    0.155E-02
DAV:   3    -0.125511706698E+03    0.56130E-06   -0.13494E-05 20256   0.137E-02    0.415E-03
DAV:   4    -0.125511706961E+03   -0.26353E-06   -0.23336E-06 24720   0.566E-03
   6 F= -.12711343E+03 E0= -.12711265E+03  d E =-.132088E-02  mag=    -0.0000
       N       E                     dE             d eps       ncg     rms          rms(c)
DAV:   1    -0.125515149907E+03   -0.34432E-02   -0.14414E-01 14208   0.136E+00    0.799E-02
DAV:   2    -0.125515173743E+03   -0.23835E-04   -0.10628E-03 24288   0.135E-01    0.465E-02
DAV:   3    -0.125515167620E+03    0.61222E-05   -0.12057E-04 21216   0.408E-02    0.123E-02
DAV:   4    -0.125515167765E+03   -0.14408E-06   -0.20238E-05 26688   0.165E-02    0.529E-03
DAV:   5    -0.125515168146E+03   -0.38099E-06   -0.70557E-07 19824   0.358E-03
   7 F= -.12711681E+03 E0= -.12711603E+03  d E =-.470110E-02  mag=    -0.0000
       N       E                     dE             d eps       ncg     rms          rms(c)
DAV:   1    -0.125519471572E+03   -0.43038E-02   -0.57891E-01 14208   0.272E+00    0.159E-01
DAV:   2    -0.125519567659E+03   -0.96087E-04   -0.43148E-03 25536   0.272E-01    0.927E-02
DAV:   3    -0.125519540131E+03    0.27528E-04   -0.47599E-04 21984   0.809E-02    0.246E-02
DAV:   4    -0.125519540528E+03   -0.39710E-06   -0.78016E-05 25632   0.323E-02    0.105E-02
DAV:   5    -0.125519541582E+03   -0.10543E-05   -0.27510E-06 23520   0.704E-03    0.450E-03
DAV:   6    -0.125519541571E+03    0.10957E-07   -0.13193E-06 23712   0.414E-03
   8 F= -.12712101E+03 E0= -.12712023E+03  d E =-.890196E-02  mag=    -0.0000
       N       E                     dE             d eps       ncg     rms          rms(c)
DAV:   1    -0.125518078495E+03    0.14631E-02   -0.23287E+00 14208   0.545E+00    0.318E-01
DAV:   2    -0.125518496279E+03   -0.41778E-03   -0.18009E-02 26688   0.552E-01    0.184E-01
DAV:   3    -0.125518381335E+03    0.11494E-03   -0.18635E-03 23040   0.159E-01    0.503E-02
DAV:   4    -0.125518386347E+03   -0.50124E-05   -0.29857E-04 25632   0.631E-02    0.208E-02
DAV:   5    -0.125518391162E+03   -0.48145E-05   -0.98420E-06 24144   0.134E-02    0.874E-03
DAV:   6    -0.125518390652E+03    0.50940E-06   -0.47275E-06 23904   0.785E-03
   9 F= -.12711947E+03 E0= -.12711870E+03  d E =-.736553E-02  mag=     0.0000
       N       E                     dE             d eps       ncg     rms          rms(c)
DAV:   1    -0.125520524935E+03   -0.21338E-02   -0.88063E-01 14208   0.334E+00    0.196E-01
DAV:   2    -0.125520683707E+03   -0.15877E-03   -0.69565E-03 27648   0.341E-01    0.114E-01
DAV:   3    -0.125520639007E+03    0.44701E-04   -0.68086E-04 20160   0.967E-02    0.313E-02
DAV:   4    -0.125520642565E+03   -0.35581E-05   -0.11396E-04 24576   0.390E-02    0.127E-02
DAV:   5    -0.125520644703E+03   -0.21383E-05   -0.34982E-06 18048   0.799E-03    0.545E-03
DAV:   6    -0.125520644905E+03   -0.20186E-06   -0.14460E-06 24768   0.434E-03
  10 F= -.12712197E+03 E0= -.12712119E+03  d E =-.986310E-02  mag=     0.0000
       N       E                     dE             d eps       ncg     rms          rms(c)
DAV:   1    -0.125522508012E+03   -0.18633E-02   -0.69106E-02 14208   0.866E-01    0.508E-02
DAV:   2    -0.125522519744E+03   -0.11732E-04   -0.42124E-04 21408   0.753E-02    0.301E-02
DAV:   3    -0.125522517472E+03    0.22718E-05   -0.48470E-05 17856   0.222E-02    0.575E-03
DAV:   4    -0.125522517794E+03   -0.32138E-06   -0.42927E-06 23136   0.783E-03
  11 F= -.12712372E+03 E0= -.12712295E+03  d E =-.175338E-02  mag=     0.0000
       N       E                     dE             d eps       ncg     rms          rms(c)
DAV:   1    -0.125526844455E+03   -0.43270E-02   -0.62293E-01 14208   0.260E+00    0.152E-01
DAV:   2    -0.125526964573E+03   -0.12012E-03   -0.36776E-03 27744   0.223E-01    0.900E-02
DAV:   3    -0.125526935126E+03    0.29447E-04   -0.43671E-04 21408   0.656E-02    0.164E-02
DAV:   4    -0.125526934987E+03    0.13960E-06   -0.33339E-05 22608   0.227E-02    0.777E-03
DAV:   5    -0.125526933163E+03    0.18235E-05   -0.35194E-06 23184   0.719E-03    0.296E-03
DAV:   6    -0.125526932109E+03    0.10542E-05   -0.15704E-06 23376   0.430E-03    0.142E-03
DAV:   7    -0.125526932095E+03    0.14290E-07   -0.37179E-07 22224   0.195E-03
  12 F= -.12712778E+03 E0= -.12712700E+03  d E =-.581078E-02  mag=     0.0000
       N       E                     dE             d eps       ncg     rms          rms(c)
DAV:   1    -0.125530662740E+03   -0.37306E-02   -0.24934E+00 14208   0.518E+00    0.298E-01
DAV:   2    -0.125531173810E+03   -0.51107E-03   -0.13824E-02 27744   0.437E-01    0.178E-01
DAV:   3    -0.125531064131E+03    0.10968E-03   -0.17792E-03 21984   0.132E-01    0.297E-02
DAV:   4    -0.125531061989E+03    0.21415E-05   -0.12672E-04 23424   0.446E-02    0.153E-02
DAV:   5    -0.125531056895E+03    0.50942E-05   -0.12335E-05 22464   0.138E-02    0.563E-03
DAV:   6    -0.125531054170E+03    0.27246E-05   -0.54303E-06 24384   0.825E-03    0.195E-03
DAV:   7    -0.125531055257E+03   -0.10868E-05   -0.34668E-06 22368   0.579E-03    0.138E-03
DAV:   8    -0.125531057860E+03   -0.26026E-05   -0.84664E-07 19872   0.287E-03    0.917E-04
DAV:   9    -0.125531060557E+03   -0.26971E-05   -0.22389E-07 20832   0.143E-03    0.493E-04
DAV:  10    -0.125531063452E+03   -0.28950E-05   -0.16633E-07 19248   0.994E-04    0.248E-04
DAV:  11    -0.125531065441E+03   -0.19887E-05   -0.85477E-08 18048   0.534E-04    0.120E-04
DAV:  12    -0.125531066260E+03   -0.81907E-06   -0.31793E-08 20448   0.283E-04
  13 F= -.12713121E+03 E0= -.12713043E+03  d E =-.923751E-02  mag=     0.0000
       N       E                     dE             d eps       ncg     rms          rms(c)
DAV:   1    -0.125533506107E+03   -0.24407E-02   -0.31120E-01 14208   0.214E+00    0.111E-01
DAV:   2    -0.125533554538E+03   -0.48431E-04   -0.24300E-03 26592   0.211E-01    0.678E-02
DAV:   3    -0.125533510156E+03    0.44381E-04   -0.34622E-04 21408   0.693E-02    0.144E-02
DAV:   4    -0.125533510063E+03    0.93242E-07   -0.39046E-05 22752   0.245E-02    0.858E-03
DAV:   5    -0.125533509974E+03    0.88743E-07   -0.20220E-06 24192   0.581E-03
  14 F= -.12713340E+03 E0= -.12713262E+03  d E =-.219583E-02  mag=    -0.0000
       N       E                     dE             d eps       ncg     rms          rms(c)
DAV:   1    -0.125533879802E+03   -0.36974E-03   -0.72184E-02 14208   0.103E+00    0.531E-02
