Lattice                                 
           1
     4.203687    2.427000    0.000000
    -4.203687    2.427000    0.000000
     0.000000    0.000000   15.000000
   B    C 
     4    11
Direct configuration=     1
   0.00415361  0.00267210  0.12034134
   0.35695335  0.00285503  0.09748893
   0.00423858  0.35550699  0.09749256
   0.65142295  0.65006557  0.09747688
   0.32808646  0.32671938  0.10030508
   0.68027775  0.00278085  0.10027562
   0.00416530  0.67883808  0.10026559
   0.99999933  0.49999967  0.33373333
   0.16666633  0.33333267  0.33373333
   0.99999933  0.99999967  0.33373333
   0.16666633  0.83333267  0.33373333
   0.49999933  0.49999967  0.33373333
   0.66666633  0.33333267  0.33373333
   0.49999933  0.99999967  0.33373333
   0.66666633  0.83333267  0.33373333
Direct configuration=     2
   0.00417994  0.00275079  0.11917777
   0.35579307  0.00303572  0.09784623
   0.00395785  0.35412044  0.09784829
   0.65280281  0.65118353  0.09783769
   0.32455539  0.32284213  0.10029712
   0.68411647  0.00310809  0.10027578
   0.00388271  0.68239111  0.10026854
   0.00012680  0.49997409  0.33374273
   0.16686964  0.33394187  0.33380293
   0.99999930  0.99999375  0.33363381
   0.16706487  0.83312804  0.33380582
   0.50004106  0.50016527  0.33374561
   0.66666631  0.33333788  0.33368549
   0.49984889  0.99987122  0.33374225
   0.66605556  0.83292341  0.33380259
Direct configuration=     3
   0.00416603  0.00270922  0.11979246
   0.35640602  0.00294026  0.09765748
   0.00410615  0.35485293  0.09766037
   0.65207386  0.65059293  0.09764708
   0.32642079  0.32489040  0.10030133
   0.68208855  0.00293522  0.10027570
   0.00403200  0.68051411  0.10026698
   0.00005946  0.49998760  0.33373777
   0.16676224  0.33362004  0.33376616
   0.99999932  0.99999688  0.33368638
   0.16685433  0.83323614  0.33376753
   0.50001902  0.50007778  0.33373912
   0.66666632  0.33333512  0.33371077
   0.49992837  0.99993908  0.33373754
   0.66637822  0.83313961  0.33376600
Direct configuration=     4
   0.00417973  0.00276421  0.11884312
   0.35685241  0.00305904  0.09797198
   0.00390651  0.35515501  0.09797333
   0.65178614  0.65011684  0.09796492
   0.32653966  0.32479053  0.10026310
   0.68216802  0.00312970  0.10024527
   0.00385069  0.68041317  0.10023867
  -0.00007858  0.50001168  0.33375826
   0.16662093  0.33315004  0.33381070
   0.99999995  0.00000276  0.33363220
   0.16653816  0.83338482  0.33381419
   0.49998372  0.49990761  0.33376172
   0.66666941  0.33333225  0.33366742
   0.50008793  0.00007886  0.33375760
   0.66685600  0.83347083  0.33381019
