  16  16   0   4
  0.2029747E+02  0.5000000E-09  0.5000000E-09  0.1500000E-08  0.5000000E-15
  1.000000000000000E-004
  CAR 
 Lattice                                 
      9.43150099    -21.00140948  301     -0.24393668      1.00000000
    -21.001  0.0000E+00  0.0000E+00  0.0000E+00  0.0000E+00
    -20.900  0.0000E+00  0.0000E+00  0.0000E+00  0.0000E+00
    -20.799  0.0000E+00  0.0000E+00  0.0000E+00  0.0000E+00
    -20.697  0.0000E+00  0.0000E+00  0.0000E+00  0.0000E+00
    -20.596  0.0000E+00  0.0000E+00  0.0000E+00  0.0000E+00
    -20.494  0.0000E+00  0.0000E+00  0.0000E+00  0.0000E+00
    -20.393  0.0000E+00  0.0000E+00  0.0000E+00  0.0000E+00
    -20.291  0.0000E+00  0.0000E+00  0.0000E+00  0.0000E+00
    -20.190  0.1781E-18  0.1781E-18  0.1807E-19  0.1807E-19
    -20.088  0.8606E-14  0.8606E-14  0.8731E-15  0.8731E-15
    -19.987  0.6040E-10  0.6040E-10  0.6128E-11  0.6128E-11
    -19.886  0.6351E-07  0.6351E-07  0.6449E-08  0.6449E-08
    -19.784  0.1079E-04  0.1079E-04  0.1102E-05  0.1102E-05
    -19.683  0.3254E-03  0.3254E-03  0.3411E-04  0.3411E-04
    -19.581  0.2099E-02  0.2099E-02  0.2470E-03  0.2470E-03
    -19.480  0.4320E-02  0.4320E-02  0.6853E-03  0.6853E-03
    -19.378  0.4799E-02  0.4799E-02  0.1172E-02  0.1172E-02
    -19.277  0.5144E-02  0.5144E-02  0.1694E-02  0.1694E-02
    -19.175  0.4489E-02  0.4489E-02  0.2149E-02  0.2149E-02
    -19.074  0.5586E-02  0.5586E-02  0.2716E-02  0.2716E-02
    -18.973  0.4469E-02  0.4469E-02  0.3169E-02  0.3169E-02
    -18.871  0.4616E-02  0.4616E-02  0.3638E-02  0.3638E-02
    -18.770  0.6186E-02  0.6186E-02  0.4265E-02  0.4265E-02
    -18.668  0.4038E-02  0.4038E-02  0.4675E-02  0.4675E-02
    -18.567  0.4271E-02  0.4271E-02  0.5108E-02  0.5108E-02
    -18.465  0.6375E-02  0.6375E-02  0.5755E-02  0.5755E-02
    -18.364  0.5370E-02  0.5370E-02  0.6300E-02  0.6300E-02
    -18.262  0.3173E-02  0.3173E-02  0.6621E-02  0.6621E-02
    -18.161  0.4907E-02  0.4907E-02  0.7119E-02  0.7119E-02
    -18.060  0.7083E-02  0.7083E-02  0.7838E-02  0.7838E-02
    -17.958  0.4783E-02  0.4783E-02  0.8323E-02  0.8323E-02
    -17.857  0.3890E-02  0.3890E-02  0.8717E-02  0.8717E-02
    -17.755  0.3476E-02  0.3476E-02  0.9070E-02  0.9070E-02
    -17.654  0.7139E-02  0.7139E-02  0.9794E-02  0.9794E-02
    -17.552  0.6648E-02  0.6648E-02  0.1047E-01  0.1047E-01
    -17.451  0.3612E-02  0.3612E-02  0.1084E-01  0.1084E-01
    -17.349  0.3640E-02  0.3640E-02  0.1120E-01  0.1120E-01
    -17.248  0.4513E-02  0.4513E-02  0.1166E-01  0.1166E-01
    -17.147  0.6838E-02  0.6838E-02  0.1236E-01  0.1236E-01
    -17.045  0.6827E-02  0.6827E-02  0.1305E-01  0.1305E-01
    -16.944  0.4731E-02  0.4731E-02  0.1353E-01  0.1353E-01
    -16.842  0.2475E-02  0.2475E-02  0.1378E-01  0.1378E-01
    -16.741  0.4116E-02  0.4116E-02  0.1420E-01  0.1420E-01
    -16.639  0.7142E-02  0.7142E-02  0.1492E-01  0.1492E-01
    -16.538  0.6692E-02  0.6692E-02  0.1560E-01  0.1560E-01
    -16.436  0.5552E-02  0.5552E-02  0.1616E-01  0.1616E-01
    -16.335  0.4627E-02  0.4627E-02  0.1663E-01  0.1663E-01
    -16.234  0.3087E-02  0.3087E-02  0.1695E-01  0.1695E-01
    -16.132  0.3235E-02  0.3235E-02  0.1727E-01  0.1727E-01
    -16.031  0.1039E-01  0.1039E-01  0.1833E-01  0.1833E-01
    -15.929  0.1224E-01  0.1224E-01  0.1957E-01  0.1957E-01
    -15.828  0.1098E-01  0.1098E-01  0.2068E-01  0.2068E-01
    -15.726  0.1062E-01  0.1062E-01  0.2176E-01  0.2176E-01
    -15.625  0.1105E-01  0.1105E-01  0.2288E-01  0.2288E-01
    -15.523  0.1006E-01  0.1006E-01  0.2390E-01  0.2390E-01
    -15.422  0.1308E-01  0.1308E-01  0.2523E-01  0.2523E-01
    -15.321  0.1721E-01  0.1721E-01  0.2697E-01  0.2697E-01
    -15.219  0.1619E-01  0.1619E-01  0.2862E-01  0.2862E-01
    -15.118  0.1335E-01  0.1335E-01  0.2997E-01  0.2997E-01
    -15.016  0.9825E-02  0.9825E-02  0.3097E-01  0.3097E-01
    -14.915  0.7831E-02  0.7831E-02  0.3176E-01  0.3176E-01
    -14.813  0.6224E-02  0.6224E-02  0.3239E-01  0.3239E-01
    -14.712  0.9747E-02  0.9747E-02  0.3338E-01  0.3338E-01
    -14.610  0.1176E-01  0.1176E-01  0.3458E-01  0.3458E-01
    -14.509  0.1257E-01  0.1257E-01  0.3585E-01  0.3585E-01
    -14.408  0.1298E-01  0.1298E-01  0.3717E-01  0.3717E-01
    -14.306  0.1048E-01  0.1048E-01  0.3823E-01  0.3823E-01
    -14.205  0.8541E-02  0.8541E-02  0.3910E-01  0.3910E-01
    -14.103  0.1030E-01  0.1030E-01  0.4014E-01  0.4014E-01
    -14.002  0.1403E-01  0.1403E-01  0.4157E-01  0.4157E-01
    -13.900  0.7950E-02  0.7950E-02  0.4237E-01  0.4237E-01
    -13.799  0.3433E-02  0.3433E-02  0.4272E-01  0.4272E-01
    -13.698  0.2913E-02  0.2913E-02  0.4302E-01  0.4302E-01
    -13.596  0.6128E-02  0.6128E-02  0.4364E-01  0.4364E-01
    -13.495  0.5757E-02  0.5757E-02  0.4422E-01  0.4422E-01
    -13.393  0.6257E-02  0.6257E-02  0.4486E-01  0.4486E-01
    -13.292  0.6332E-02  0.6332E-02  0.4550E-01  0.4550E-01
    -13.190  0.7714E-02  0.7714E-02  0.4628E-01  0.4628E-01
    -13.089  0.6850E-02  0.6850E-02  0.4698E-01  0.4698E-01
    -12.987  0.6338E-02  0.6338E-02  0.4762E-01  0.4762E-01
    -12.886  0.6634E-02  0.6634E-02  0.4829E-01  0.4829E-01
    -12.785  0.9120E-02  0.9120E-02  0.4922E-01  0.4922E-01
    -12.683  0.1317E-01  0.1317E-01  0.5055E-01  0.5055E-01
    -12.582  0.1224E-01  0.1224E-01  0.5180E-01  0.5180E-01
    -12.480  0.1497E-01  0.1497E-01  0.5331E-01  0.5331E-01
    -12.379  0.1474E-01  0.1474E-01  0.5481E-01  0.5481E-01
    -12.277  0.1425E-01  0.1425E-01  0.5626E-01  0.5626E-01
    -12.176  0.1783E-01  0.1783E-01  0.5806E-01  0.5806E-01
    -12.074  0.1487E-01  0.1487E-01  0.5957E-01  0.5957E-01
    -11.973  0.1633E-01  0.1633E-01  0.6123E-01  0.6123E-01
    -11.872  0.1654E-01  0.1654E-01  0.6291E-01  0.6291E-01
    -11.770  0.9510E-02  0.9510E-02  0.6387E-01  0.6387E-01
    -11.669  0.5650E-02  0.5650E-02  0.6444E-01  0.6444E-01
    -11.567  0.4844E-02  0.4844E-02  0.6494E-01  0.6494E-01
    -11.466  0.6728E-02  0.6728E-02  0.6562E-01  0.6562E-01
    -11.364  0.6082E-02  0.6082E-02  0.6623E-01  0.6623E-01
    -11.263  0.5608E-02  0.5608E-02  0.6680E-01  0.6680E-01
    -11.161  0.4359E-02  0.4359E-02  0.6725E-01  0.6725E-01
    -11.060  0.4187E-02  0.4187E-02  0.6767E-01  0.6767E-01
    -10.959  0.5942E-02  0.5942E-02  0.6827E-01  0.6827E-01
    -10.857  0.1125E-01  0.1125E-01  0.6941E-01  0.6941E-01
    -10.756  0.1223E-01  0.1223E-01  0.7066E-01  0.7066E-01
    -10.654  0.1281E-01  0.1281E-01  0.7195E-01  0.7195E-01
    -10.553  0.1479E-01  0.1479E-01  0.7346E-01  0.7346E-01
    -10.451  0.1250E-01  0.1250E-01  0.7472E-01  0.7472E-01
    -10.350  0.1132E-01  0.1132E-01  0.7587E-01  0.7587E-01
    -10.248  0.1060E-01  0.1060E-01  0.7695E-01  0.7695E-01
    -10.147  0.1087E-01  0.1087E-01  0.7805E-01  0.7805E-01
    -10.046  0.8786E-02  0.8786E-02  0.7894E-01  0.7894E-01
     -9.944  0.6075E-02  0.6075E-02  0.7956E-01  0.7956E-01
     -9.843  0.1181E-01  0.1181E-01  0.8075E-01  0.8075E-01
     -9.741  0.1166E-01  0.1166E-01  0.8194E-01  0.8194E-01
     -9.640  0.1619E-01  0.1619E-01  0.8358E-01  0.8358E-01
     -9.538  0.1690E-01  0.1690E-01  0.8529E-01  0.8529E-01
     -9.437  0.1123E-01  0.1123E-01  0.8643E-01  0.8643E-01
     -9.335  0.1771E-01  0.1771E-01  0.8823E-01  0.8823E-01
     -9.234  0.1657E-01  0.1657E-01  0.8991E-01  0.8991E-01
     -9.133  0.1170E-01  0.1170E-01  0.9110E-01  0.9110E-01
     -9.031  0.1085E-01  0.1085E-01  0.9220E-01  0.9220E-01
     -8.930  0.1994E-01  0.1994E-01  0.9422E-01  0.9422E-01
     -8.828  0.2181E-01  0.2181E-01  0.9643E-01  0.9643E-01
     -8.727  0.8668E-02  0.8668E-02  0.9731E-01  0.9731E-01
     -8.625  0.6988E-02  0.6988E-02  0.9802E-01  0.9802E-01
     -8.524  0.1482E-01  0.1482E-01  0.9953E-01  0.9953E-01
     -8.422  0.1679E-01  0.1679E-01  0.1012E+00  0.1012E+00
     -8.321  0.1501E-01  0.1501E-01  0.1028E+00  0.1028E+00
     -8.220  0.1627E-01  0.1627E-01  0.1044E+00  0.1044E+00
     -8.118  0.1163E-01  0.1163E-01  0.1056E+00  0.1056E+00
     -8.017  0.1067E-01  0.1067E-01  0.1067E+00  0.1067E+00
     -7.915  0.1403E-01  0.1403E-01  0.1081E+00  0.1081E+00
     -7.814  0.1849E-01  0.1849E-01  0.1100E+00  0.1100E+00
     -7.712  0.2334E-01  0.2334E-01  0.1123E+00  0.1123E+00
     -7.611  0.1628E-01  0.1628E-01  0.1140E+00  0.1140E+00
     -7.509  0.1344E-01  0.1344E-01  0.1153E+00  0.1153E+00
     -7.408  0.1240E-01  0.1240E-01  0.1166E+00  0.1166E+00
     -7.307  0.1715E-01  0.1715E-01  0.1183E+00  0.1183E+00
     -7.205  0.2050E-01  0.2050E-01  0.1204E+00  0.1204E+00
     -7.104  0.1658E-01  0.1658E-01  0.1221E+00  0.1221E+00
     -7.002  0.1897E-01  0.1897E-01  0.1240E+00  0.1240E+00
     -6.901  0.1891E-01  0.1891E-01  0.1259E+00  0.1259E+00
     -6.799  0.2256E-01  0.2256E-01  0.1282E+00  0.1282E+00
     -6.698  0.2769E-01  0.2769E-01  0.1310E+00  0.1310E+00
     -6.596  0.3649E-01  0.3649E-01  0.1347E+00  0.1347E+00
     -6.495  0.3411E-01  0.3411E-01  0.1382E+00  0.1382E+00
     -6.394  0.1869E-01  0.1869E-01  0.1401E+00  0.1401E+00
     -6.292  0.1588E-01  0.1588E-01  0.1417E+00  0.1417E+00
     -6.191  0.1811E-01  0.1811E-01  0.1436E+00  0.1436E+00
     -6.089  0.1816E-01  0.1816E-01  0.1454E+00  0.1454E+00
     -5.988  0.1733E-01  0.1733E-01  0.1472E+00  0.1472E+00
     -5.886  0.1462E-01  0.1462E-01  0.1486E+00  0.1486E+00
     -5.785  0.1681E-01  0.1681E-01  0.1503E+00  0.1503E+00
     -5.684  0.1949E-01  0.1949E-01  0.1523E+00  0.1523E+00
     -5.582  0.1278E-01  0.1278E-01  0.1536E+00  0.1536E+00
     -5.481  0.9074E-02  0.9074E-02  0.1545E+00  0.1545E+00
     -5.379  0.1433E-01  0.1433E-01  0.1560E+00  0.1560E+00
     -5.278  0.2093E-01  0.2093E-01  0.1581E+00  0.1581E+00
     -5.176  0.1629E-01  0.1629E-01  0.1598E+00  0.1598E+00
     -5.075  0.1186E-01  0.1186E-01  0.1610E+00  0.1610E+00
     -4.973  0.1641E-01  0.1641E-01  0.1626E+00  0.1626E+00
     -4.872  0.2058E-01  0.2058E-01  0.1647E+00  0.1647E+00
     -4.771  0.1159E-01  0.1159E-01  0.1659E+00  0.1659E+00
     -4.669  0.8811E-02  0.8811E-02  0.1668E+00  0.1668E+00
     -4.568  0.1722E-01  0.1722E-01  0.1685E+00  0.1685E+00
     -4.466  0.1999E-01  0.1999E-01  0.1706E+00  0.1706E+00
     -4.365  0.2147E-01  0.2147E-01  0.1727E+00  0.1727E+00
     -4.263  0.2328E-01  0.2328E-01  0.1751E+00  0.1751E+00
     -4.162  0.1948E-01  0.1948E-01  0.1771E+00  0.1771E+00
     -4.060  0.2194E-01  0.2194E-01  0.1793E+00  0.1793E+00
     -3.959  0.2492E-01  0.2492E-01  0.1818E+00  0.1818E+00
     -3.858  0.2934E-01  0.2934E-01  0.1848E+00  0.1848E+00
     -3.756  0.2503E-01  0.2503E-01  0.1873E+00  0.1873E+00
     -3.655  0.1960E-01  0.1960E-01  0.1893E+00  0.1893E+00
     -3.553  0.1957E-01  0.1957E-01  0.1913E+00  0.1913E+00
     -3.452  0.1671E-01  0.1671E-01  0.1930E+00  0.1930E+00
     -3.350  0.1208E-01  0.1208E-01  0.1942E+00  0.1942E+00
     -3.249  0.6213E-02  0.6213E-02  0.1949E+00  0.1949E+00
     -3.147  0.8742E-02  0.8742E-02  0.1958E+00  0.1958E+00
     -3.046  0.1514E-01  0.1514E-01  0.1973E+00  0.1973E+00
     -2.945  0.1585E-01  0.1585E-01  0.1989E+00  0.1989E+00
     -2.843  0.1230E-01  0.1230E-01  0.2001E+00  0.2001E+00
     -2.742  0.1234E-01  0.1234E-01  0.2014E+00  0.2014E+00
     -2.640  0.1114E-01  0.1114E-01  0.2025E+00  0.2025E+00
     -2.539  0.1104E-01  0.1104E-01  0.2036E+00  0.2036E+00
     -2.437  0.1545E-01  0.1545E-01  0.2052E+00  0.2052E+00
     -2.336  0.1318E-01  0.1318E-01  0.2066E+00  0.2066E+00
     -2.234  0.1031E-01  0.1031E-01  0.2076E+00  0.2076E+00
     -2.133  0.1090E-01  0.1090E-01  0.2087E+00  0.2087E+00
     -2.032  0.7219E-02  0.7219E-02  0.2094E+00  0.2094E+00
     -1.930  0.4445E-02  0.4445E-02  0.2099E+00  0.2099E+00
     -1.829  0.6125E-02  0.6125E-02  0.2105E+00  0.2105E+00
     -1.727  0.9590E-02  0.9590E-02  0.2115E+00  0.2115E+00
     -1.626  0.9535E-02  0.9535E-02  0.2125E+00  0.2125E+00
     -1.524  0.9245E-02  0.9245E-02  0.2134E+00  0.2134E+00
     -1.423  0.6563E-02  0.6563E-02  0.2141E+00  0.2141E+00
     -1.321  0.5119E-02  0.5119E-02  0.2146E+00  0.2146E+00
     -1.220  0.4807E-02  0.4807E-02  0.2151E+00  0.2151E+00
     -1.119  0.5954E-02  0.5954E-02  0.2157E+00  0.2157E+00
     -1.017  0.7967E-02  0.7967E-02  0.2165E+00  0.2165E+00
     -0.916  0.5889E-02  0.5889E-02  0.2171E+00  0.2171E+00
     -0.814  0.3178E-02  0.3178E-02  0.2174E+00  0.2174E+00
     -0.713  0.1471E-02  0.1471E-02  0.2175E+00  0.2175E+00
     -0.611  0.1092E-02  0.1092E-02  0.2177E+00  0.2177E+00
     -0.510  0.3365E-02  0.3365E-02  0.2180E+00  0.2180E+00
     -0.408  0.3506E-02  0.3506E-02  0.2184E+00  0.2184E+00
     -0.307  0.2056E-02  0.2056E-02  0.2186E+00  0.2186E+00
     -0.206  0.3335E-02  0.3335E-02  0.2189E+00  0.2189E+00
     -0.104  0.4359E-02  0.4359E-02  0.2193E+00  0.2193E+00
     -0.003  0.3867E-02  0.3867E-02  0.2197E+00  0.2197E+00
      0.099  0.3583E-02  0.3583E-02  0.2201E+00  0.2201E+00
      0.200  0.8265E-02  0.8265E-02  0.2209E+00  0.2209E+00
      0.302  0.1223E-01  0.1223E-01  0.2222E+00  0.2222E+00
      0.403  0.1181E-01  0.1181E-01  0.2234E+00  0.2234E+00
      0.505  0.9761E-02  0.9761E-02  0.2244E+00  0.2244E+00
      0.606  0.3920E-02  0.3920E-02  0.2248E+00  0.2248E+00
      0.707  0.6462E-02  0.6462E-02  0.2254E+00  0.2254E+00
      0.809  0.1072E-01  0.1072E-01  0.2265E+00  0.2265E+00
      0.910  0.6472E-02  0.6472E-02  0.2272E+00  0.2272E+00
      1.012  0.3534E-02  0.3534E-02  0.2275E+00  0.2275E+00
      1.113  0.6519E-02  0.6519E-02  0.2282E+00  0.2282E+00
      1.215  0.1443E-01  0.1443E-01  0.2296E+00  0.2296E+00
      1.316  0.1877E-01  0.1877E-01  0.2315E+00  0.2315E+00
      1.418  0.1676E-01  0.1676E-01  0.2332E+00  0.2332E+00
      1.519  0.1162E-01  0.1162E-01  0.2344E+00  0.2344E+00
      1.620  0.7819E-02  0.7819E-02  0.2352E+00  0.2352E+00
      1.722  0.1097E-01  0.1097E-01  0.2363E+00  0.2363E+00
      1.823  0.1010E-01  0.1010E-01  0.2374E+00  0.2374E+00
      1.925  0.9482E-02  0.9482E-02  0.2383E+00  0.2383E+00
      2.026  0.1550E-01  0.1550E-01  0.2399E+00  0.2399E+00
      2.128  0.1454E-01  0.1454E-01  0.2414E+00  0.2414E+00
      2.229  0.1151E-01  0.1151E-01  0.2425E+00  0.2425E+00
      2.330  0.6647E-02  0.6647E-02  0.2432E+00  0.2432E+00
      2.432  0.4810E-02  0.4810E-02  0.2437E+00  0.2437E+00
      2.533  0.9593E-02  0.9593E-02  0.2447E+00  0.2447E+00
      2.635  0.1264E-01  0.1264E-01  0.2460E+00  0.2460E+00
      2.736  0.1634E-01  0.1634E-01  0.2476E+00  0.2476E+00
      2.838  0.1605E-01  0.1605E-01  0.2492E+00  0.2492E+00
      2.939  0.1362E-01  0.1362E-01  0.2506E+00  0.2506E+00
      3.041  0.1317E-01  0.1317E-01  0.2520E+00  0.2520E+00
      3.142  0.1343E-01  0.1343E-01  0.2533E+00  0.2533E+00
      3.243  0.1310E-01  0.1310E-01  0.2546E+00  0.2546E+00
      3.345  0.1885E-01  0.1885E-01  0.2566E+00  0.2566E+00
      3.446  0.2017E-01  0.2017E-01  0.2586E+00  0.2586E+00
      3.548  0.1953E-01  0.1952E-01  0.2606E+00  0.2606E+00
      3.649  0.2304E-01  0.2304E-01  0.2629E+00  0.2629E+00
      3.751  0.2258E-01  0.2259E-01  0.2652E+00  0.2652E+00
      3.852  0.2398E-01  0.2398E-01  0.2676E+00  0.2676E+00
      3.954  0.2079E-01  0.2079E-01  0.2698E+00  0.2698E+00
      4.055  0.1835E-01  0.1835E-01  0.2716E+00  0.2716E+00
      4.156  0.1772E-01  0.1773E-01  0.2734E+00  0.2734E+00
      4.258  0.1917E-01  0.1917E-01  0.2754E+00  0.2754E+00
      4.359  0.2385E-01  0.2385E-01  0.2778E+00  0.2778E+00
      4.461  0.2290E-01  0.2291E-01  0.2801E+00  0.2801E+00
      4.562  0.1799E-01  0.1799E-01  0.2819E+00  0.2819E+00
      4.664  0.2183E-01  0.2182E-01  0.2841E+00  0.2841E+00
      4.765  0.2776E-01  0.2774E-01  0.2870E+00  0.2870E+00
      4.867  0.3199E-01  0.3198E-01  0.2902E+00  0.2902E+00
      4.968  0.2236E-01  0.2236E-01  0.2925E+00  0.2925E+00
      5.069  0.1991E-01  0.1989E-01  0.2945E+00  0.2945E+00
      5.171  0.2272E-01  0.2273E-01  0.2968E+00  0.2968E+00
      5.272  0.2206E-01  0.2206E-01  0.2990E+00  0.2990E+00
      5.374  0.2582E-01  0.2582E-01  0.3017E+00  0.3016E+00
      5.475  0.2614E-01  0.2615E-01  0.3043E+00  0.3043E+00
      5.577  0.2930E-01  0.2930E-01  0.3073E+00  0.3073E+00
      5.678  0.2957E-01  0.2955E-01  0.3103E+00  0.3103E+00
      5.780  0.2806E-01  0.2806E-01  0.3131E+00  0.3131E+00
      5.881  0.2073E-01  0.2075E-01  0.3152E+00  0.3152E+00
      5.982  0.1525E-01  0.1524E-01  0.3168E+00  0.3168E+00
      6.084  0.2405E-01  0.2404E-01  0.3192E+00  0.3192E+00
      6.185  0.2681E-01  0.2683E-01  0.3219E+00  0.3219E+00
      6.287  0.2765E-01  0.2764E-01  0.3247E+00  0.3247E+00
      6.388  0.3252E-01  0.3252E-01  0.3280E+00  0.3280E+00
      6.490  0.2614E-01  0.2615E-01  0.3307E+00  0.3307E+00
      6.591  0.2106E-01  0.2104E-01  0.3328E+00  0.3328E+00
      6.693  0.2536E-01  0.2536E-01  0.3354E+00  0.3354E+00
      6.794  0.2946E-01  0.2948E-01  0.3384E+00  0.3384E+00
      6.895  0.3008E-01  0.3007E-01  0.3414E+00  0.3414E+00
      6.997  0.3480E-01  0.3479E-01  0.3450E+00  0.3450E+00
      7.098  0.3890E-01  0.3890E-01  0.3489E+00  0.3489E+00
      7.200  0.3217E-01  0.3216E-01  0.3522E+00  0.3522E+00
      7.301  0.3388E-01  0.3387E-01  0.3556E+00  0.3556E+00
      7.403  0.3156E-01  0.3157E-01  0.3588E+00  0.3588E+00
      7.504  0.2932E-01  0.2932E-01  0.3618E+00  0.3618E+00
      7.606  0.3351E-01  0.3351E-01  0.3652E+00  0.3652E+00
      7.707  0.3012E-01  0.3012E-01  0.3682E+00  0.3682E+00
      7.808  0.2885E-01  0.2885E-01  0.3712E+00  0.3712E+00
      7.910  0.1987E-01  0.1987E-01  0.3732E+00  0.3732E+00
      8.011  0.1078E-01  0.1079E-01  0.3743E+00  0.3743E+00
      8.113  0.5797E-02  0.5805E-02  0.3749E+00  0.3749E+00
      8.214  0.1258E-02  0.1259E-02  0.3750E+00  0.3750E+00
      8.316  0.6180E-04  0.6185E-04  0.3750E+00  0.3750E+00
      8.417  0.5004E-06  0.5009E-06  0.3750E+00  0.3750E+00
      8.519  0.5838E-09  0.5846E-09  0.3750E+00  0.3750E+00
      8.620  0.9300E-13  0.9316E-13  0.3750E+00  0.3750E+00
      8.721  0.2138E-17  0.2138E-17  0.3750E+00  0.3750E+00
      8.823  0.0000E+00  0.0000E+00  0.3750E+00  0.3750E+00
      8.924  0.0000E+00  0.0000E+00  0.3750E+00  0.3750E+00
      9.026  0.0000E+00  0.0000E+00  0.3750E+00  0.3750E+00
      9.127  0.0000E+00  0.0000E+00  0.3750E+00  0.3750E+00
      9.229  0.0000E+00  0.0000E+00  0.3750E+00  0.3750E+00
      9.330  0.0000E+00  0.0000E+00  0.3750E+00  0.3750E+00
      9.432  0.0000E+00  0.0000E+00  0.3750E+00  0.3750E+00
