Lattice                                 
           1
     4.330127    2.500000    0.000000
    -4.330127    2.500000    0.000000
     0.000000    0.000000   15.000000
   B    C 
     8     8
Direct configuration=     1
   0.66888689  0.00000000  0.10000000
   0.33111211  0.00000000  0.10000000
   0.00000000  0.33111211  0.10000000
   0.00000000  0.66888689  0.10000000
   0.33111211  0.33111211  0.10000000
   0.66888689  0.66888689  0.10000000
   0.66666600  0.33333300  0.09922189
   0.33333300  0.66666600  0.10077811
   0.33333267  0.16666633  0.47060000
   0.49999967  0.99999933  0.47060000
   0.33333267  0.66666633  0.47060000
   0.49999967  0.49999933  0.47060000
   0.83333267  0.16666633  0.47060000
   0.99999967  0.99999933  0.47060000
   0.83333267  0.66666633  0.47060000
   0.99999967  0.49999933  0.47060000
Direct configuration=     2
   0.67005595 -0.00000002  0.10002543
   0.32994303 -0.00000002  0.10002543
   0.00000002  0.32994305  0.10002543
   0.00000002  0.67005597  0.10002543
   0.32994303  0.32994305  0.10002543
   0.67005595  0.67005597  0.10002543
   0.66666600  0.33333300  0.09924921
   0.33333300  0.66666600  0.10080818
   0.33332669  0.16666334  0.47057402
   0.50000087  0.00000174  0.47057350
   0.33333267  0.66666633  0.47057283
   0.50000087  0.49999813  0.47057350
   0.83333566  0.16666334  0.47057402
   0.99999967  0.99999933  0.47057462
   0.83333566  0.66667231  0.47057402
   0.99999726  0.49999813  0.47057350
Direct configuration=     3
   0.66951405 -0.00000001  0.10001364
   0.33048494 -0.00000001  0.10001364
   0.00000001  0.33048495  0.10001364
   0.00000001  0.66951406  0.10001364
   0.33048494  0.33048495  0.10001364
   0.66951405  0.66951406  0.10001364
   0.66666600  0.33333300  0.09923655
   0.33333300  0.66666600  0.10079424
   0.33332946  0.16666473  0.47058606
   0.50000031  0.00000063  0.47058578
   0.33333267  0.66666633  0.47058543
   0.50000031  0.49999869  0.47058578
   0.83333427  0.16666473  0.47058606
   0.99999967  0.99999933  0.47058638
   0.83333427  0.66666954  0.47058606
   0.99999837  0.49999869  0.47058578
Direct configuration=     4
   0.66951653 -0.00000001  0.10001370
   0.33048246 -0.00000001  0.10001370
   0.00000001  0.33048247  0.10001370
   0.00000001  0.66951654  0.10001370
   0.33048246  0.33048247  0.10001370
   0.66951653  0.66951654  0.10001370
   0.66666600  0.33333300  0.09923660
   0.33333300  0.66666600  0.10079431
   0.33332945  0.16666472  0.47058601
   0.50000032  0.00000063  0.47058573
   0.33333267  0.66666633  0.47058537
   0.50000032  0.49999868  0.47058573
   0.83333428  0.16666472  0.47058601
   0.99999967  0.99999933  0.47058633
   0.83333428  0.66666955  0.47058601
   0.99999837  0.49999868  0.47058573
Direct configuration=     5
   0.66951657 -0.00000003  0.10003720
   0.33048240 -0.00000003  0.10003720
   0.00000003  0.33048243  0.10003720
   0.00000003  0.66951660  0.10003720
   0.33048240  0.33048243  0.10003720
   0.66951657  0.66951660  0.10003720
   0.66666600  0.33333300  0.09926371
   0.33333300  0.66666600  0.10081940
   0.33333417  0.16666709  0.47056205
   0.49999931 -0.00000139  0.47056139
   0.33333267  0.66666633  0.47056061
   0.49999931  0.49999969  0.47056139
   0.83333191  0.16666709  0.47056205
   0.99999967  0.99999933  0.47056276
   0.83333191  0.66666483  0.47056205
   0.00000039  0.49999969  0.47056139
Direct configuration=     6
   0.66951667 -0.00000008  0.10010770
   0.33048224 -0.00000008  0.10010770
   0.00000008  0.33048233  0.10010770
   0.00000008  0.66951676  0.10010770
   0.33048224  0.33048233  0.10010770
   0.66951667  0.66951676  0.10010770
   0.66666600  0.33333300  0.09934504
   0.33333300  0.66666600  0.10089468
   0.33334836  0.16667418  0.47049019
   0.49999627 -0.00000745  0.47048837
   0.33333267  0.66666633  0.47048633
   0.49999627  0.50000273  0.47048837
   0.83332482  0.16667418  0.47049019
   0.99999967  0.99999933  0.47049204
   0.83332482  0.66665064  0.47049019
   0.00000645  0.50000273  0.47048837
Direct configuration=     7
   0.66951688 -0.00000019  0.10024871
   0.33048193 -0.00000019  0.10024871
   0.00000019  0.33048212  0.10024871
   0.00000019  0.66951707  0.10024871
   0.33048193  0.33048212  0.10024871
   0.66951688  0.66951707  0.10024871
   0.66666600  0.33333300  0.09950769
   0.33333300  0.66666600  0.10104525
   0.33337672  0.16668836  0.47034647
   0.49999021 -0.00001957  0.47034234
   0.33333267  0.66666633  0.47033778
   0.49999021  0.50000879  0.47034234
   0.83331064  0.16668836  0.47034647
   0.99999967  0.99999933  0.47035061
   0.83331064  0.66662228  0.47034647
   0.00001857  0.50000879  0.47034234
Direct configuration=     8
   0.66951730 -0.00000041  0.10053072
   0.33048129 -0.00000041  0.10053072
   0.00000041  0.33048170  0.10053072
   0.00000041  0.66951771  0.10053072
   0.33048129  0.33048170  0.10053072
   0.66951730  0.66951771  0.10053072
   0.66666600  0.33333300  0.09983300
   0.33333300  0.66666600  0.10134638
   0.33343345  0.16671673  0.47005902
   0.49997809 -0.00004381  0.47005027
   0.33333267  0.66666633  0.47004067
   0.49997809  0.50002091  0.47005027
   0.83328227  0.16671673  0.47005902
   0.99999967  0.99999933  0.47006775
   0.83328227  0.66656555  0.47005902
   0.00004281  0.50002091  0.47005027
Direct configuration=     9
   0.66951814 -0.00000084  0.10109475
   0.33048002 -0.00000084  0.10109475
   0.00000084  0.33048086  0.10109475
   0.00000084  0.66951898  0.10109475
   0.33048002  0.33048086  0.10109475
   0.66951814  0.66951898  0.10109475
   0.66666600  0.33333300  0.10048362
   0.33333300  0.66666600  0.10194864
   0.33354692  0.16677346  0.46948411
   0.49995385 -0.00009230  0.46946614
   0.33333267  0.66666633  0.46944645
   0.49995385  0.50004515  0.46946614
   0.83322554  0.16677346  0.46948411
   0.99999967  0.99999933  0.46950203
   0.83322554  0.66645208  0.46948411
   0.00009130  0.50004515  0.46946614
Direct configuration=    10
   0.66951982 -0.00000170  0.10222280
   0.33047748 -0.00000170  0.10222280
   0.00000170  0.33047918  0.10222280
   0.00000170  0.66952152  0.10222280
   0.33047748  0.33047918  0.10222280
   0.66951982  0.66952152  0.10222280
   0.66666600  0.33333300  0.10178485
   0.33333300  0.66666600  0.10315317
   0.33377385  0.16688692  0.46833431
   0.49990537 -0.00018926  0.46829788
   0.33333267  0.66666633  0.46825801
   0.49990537  0.50009363  0.46829788
   0.83311208  0.16688692  0.46833431
   0.99999967  0.99999933  0.46837059
   0.83311208  0.66622515  0.46833431
   0.00018826  0.50009363  0.46829788
Direct configuration=    11
   0.66952318 -0.00000343  0.10447890
   0.33047239 -0.00000343  0.10447890
   0.00000343  0.33047582  0.10447890
   0.00000343  0.66952661  0.10447890
   0.33047239  0.33047582  0.10447890
   0.66952318  0.66952661  0.10447890
   0.66666600  0.33333300  0.10438731
   0.33333300  0.66666600  0.10556222
   0.33422770  0.16711385  0.46603471
   0.49980840 -0.00038320  0.46596137
   0.33333267  0.66666633  0.46588114
   0.49980840  0.50019060  0.46596137
   0.83288515  0.16711385  0.46603471
   0.99999967  0.99999933  0.46610770
   0.83288515  0.66577130  0.46603471
   0.00038220  0.50019060  0.46596137
Direct configuration=    12
   0.66952991 -0.00000687  0.10899110
   0.33046222 -0.00000687  0.10899110
   0.00000687  0.33046909  0.10899110
   0.00000687  0.66953678  0.10899110
   0.33046222  0.33046909  0.10899110
   0.66952991  0.66953678  0.10899110
   0.66666600  0.33333300  0.10959224
   0.33333300  0.66666600  0.11038032
   0.33513542  0.16756771  0.46143551
   0.49961446 -0.00077107  0.46128833
   0.33333267  0.66666633  0.46112739
   0.49961446  0.50038454  0.46128833
   0.83243129  0.16756771  0.46143551
   0.99999967  0.99999933  0.46158194
   0.83243129  0.66486358  0.46143551
   0.00077007  0.50038454  0.46128833
Direct configuration=    13
   0.66954335 -0.00001377  0.11801551
   0.33044188 -0.00001377  0.11801551
   0.00001377  0.33045565  0.11801551
   0.00001377  0.66955712  0.11801551
   0.33044188  0.33045565  0.11801551
   0.66954335  0.66955712  0.11801551
   0.66666600  0.33333300  0.12000209
   0.33333300  0.66666600  0.12001652
   0.33695085  0.16847542  0.45223709
   0.49922659 -0.00154681  0.45194226
   0.33333267  0.66666633  0.45161990
   0.49922659  0.50077241  0.45194226
   0.83152358  0.16847542  0.45223709
   0.99999967  0.99999933  0.45253040
   0.83152358  0.66304815  0.45223709
   0.00154581  0.50077241  0.45194226
Direct configuration=    14
   0.66954335 -0.00001377  0.11801637
   0.33044188 -0.00001377  0.11801637
   0.00001377  0.33045565  0.11801637
   0.00001377  0.66955712  0.11801637
   0.33044188  0.33045565  0.11801637
   0.66954335  0.66955712  0.11801637
   0.66666600  0.33333300  0.12000308
   0.33333300  0.66666600  0.12001744
   0.33695092  0.16847546  0.45223622
   0.49922658 -0.00154684  0.45194137
   0.33333267  0.66666633  0.45161899
   0.49922658  0.50077242  0.45194137
   0.83152354  0.16847546  0.45223622
   0.99999967  0.99999933  0.45252953
   0.83152354  0.66304808  0.45223622
   0.00154584  0.50077242  0.45194137
Direct configuration=    15
   0.66954335 -0.00001377  0.11801895
   0.33044187 -0.00001377  0.11801895
   0.00001377  0.33045565  0.11801895
   0.00001377  0.66955713  0.11801895
   0.33044187  0.33045565  0.11801895
   0.66954335  0.66955713  0.11801895
   0.66666600  0.33333300  0.12000606
   0.33333300  0.66666600  0.12002019
   0.33695115  0.16847557  0.45223358
   0.49922653 -0.00154693  0.45193870
   0.33333267  0.66666633  0.45161628
   0.49922653  0.50077247  0.45193870
   0.83152343  0.16847557  0.45223358
   0.99999967  0.99999933  0.45252694
   0.83152343  0.66304785  0.45223358
   0.00154593  0.50077247  0.45193870
Direct configuration=    16
   0.66954336 -0.00001378  0.11802411
   0.33044187 -0.00001378  0.11802411
   0.00001378  0.33045564  0.11802411
   0.00001378  0.66955713  0.11802411
   0.33044187  0.33045564  0.11802411
   0.66954336  0.66955713  0.11802411
   0.66666600  0.33333300  0.12001201
   0.33333300  0.66666600  0.12002569
   0.33695159  0.16847580  0.45222832
   0.49922644 -0.00154711  0.45193335
   0.33333267  0.66666633  0.45161085
   0.49922644  0.50077256  0.45193335
   0.83152320  0.16847580  0.45222832
   0.99999967  0.99999933  0.45252175
   0.83152320  0.66304741  0.45222832
   0.00154611  0.50077256  0.45193335
Direct configuration=    17
   0.66954336 -0.00001378  0.11803444
   0.33044186 -0.00001378  0.11803444
   0.00001378  0.33045564  0.11803444
   0.00001378  0.66955714  0.11803444
   0.33044186  0.33045564  0.11803444
   0.66954336  0.66955714  0.11803444
   0.66666600  0.33333300  0.12002390
   0.33333300  0.66666600  0.12003671
   0.33695248  0.16847624  0.45221779
   0.49922627 -0.00154747  0.45192267
   0.33333267  0.66666633  0.45160000
   0.49922627  0.50077273  0.45192267
   0.83152276  0.16847624  0.45221779
   0.99999967  0.99999933  0.45251137
   0.83152276  0.66304652  0.45221779
   0.00154647  0.50077273  0.45192267
Direct configuration=    18
   0.66954337 -0.00001379  0.11805510
   0.33044184 -0.00001379  0.11805510
   0.00001379  0.33045563  0.11805510
   0.00001379  0.66955716  0.11805510
   0.33044184  0.33045563  0.11805510
   0.66954337  0.66955716  0.11805510
   0.66666600  0.33333300  0.12004769
   0.33333300  0.66666600  0.12005873
   0.33695427  0.16847713  0.45219673
   0.49922591 -0.00154818  0.45190129
   0.33333267  0.66666633  0.45157829
   0.49922591  0.50077309  0.45190129
   0.83152187  0.16847713  0.45219673
   0.99999967  0.99999933  0.45249062
   0.83152187  0.66304473  0.45219673
   0.00154718  0.50077309  0.45190129
Direct configuration=    19
   0.66954340 -0.00001381  0.11809642
   0.33044179 -0.00001381  0.11809642
   0.00001381  0.33045560  0.11809642
   0.00001381  0.66955721  0.11809642
   0.33044179  0.33045560  0.11809642
   0.66954340  0.66955721  0.11809642
   0.66666600  0.33333300  0.12009527
   0.33333300  0.66666600  0.12010277
   0.33695783  0.16847891  0.45215461
   0.49922520 -0.00154960  0.45185855
   0.33333267  0.66666633  0.45153487
   0.49922520  0.50077380  0.45185855
   0.83152009  0.16847891  0.45215461
   0.99999967  0.99999933  0.45244911
   0.83152009  0.66304117  0.45215461
   0.00154860  0.50077380  0.45185855
Direct configuration=    20
   0.66954345 -0.00001384  0.11817905
   0.33044171 -0.00001384  0.11817905
   0.00001384  0.33045555  0.11817905
   0.00001384  0.66955729  0.11817905
   0.33044171  0.33045555  0.11817905
   0.66954345  0.66955729  0.11817905
   0.66666600  0.33333300  0.12019044
   0.33333300  0.66666600  0.12019086
   0.33696496  0.16848248  0.45207037
   0.49922378 -0.00155245  0.45177306
   0.33333267  0.66666633  0.45144802
   0.49922378  0.50077522  0.45177306
   0.83151652  0.16848248  0.45207037
   0.99999967  0.99999933  0.45236610
   0.83151652  0.66303404  0.45207037
   0.00155145  0.50077522  0.45177306
Direct configuration=    21
   0.66954355 -0.00001391  0.11834431
   0.33044154 -0.00001391  0.11834431
   0.00001391  0.33045545  0.11834431
   0.00001391  0.66955746  0.11834431
   0.33044154  0.33045545  0.11834431
   0.66954355  0.66955746  0.11834431
   0.66666600  0.33333300  0.12038077
   0.33333300  0.66666600  0.12036703
   0.33697922  0.16848961  0.45190189
   0.49922093 -0.00155815  0.45160208
   0.33333267  0.66666633  0.45127434
   0.49922093  0.50077807  0.45160208
   0.83150939  0.16848961  0.45190189
   0.99999967  0.99999933  0.45220008
   0.83150939  0.66301978  0.45190189
   0.00155715  0.50077807  0.45160208
Direct configuration=    22
   0.66954375 -0.00001405  0.11867484
   0.33044120 -0.00001405  0.11867484
   0.00001405  0.33045525  0.11867484
   0.00001405  0.66955780  0.11867484
   0.33044120  0.33045525  0.11867484
   0.66954375  0.66955780  0.11867484
   0.66666600  0.33333300  0.12076142
   0.33333300  0.66666600  0.12071938
   0.33700774  0.16850387  0.45156493
   0.49921523 -0.00156954  0.45126012
   0.33333267  0.66666633  0.45092697
   0.49921523  0.50078377  0.45126012
   0.83149513  0.16850387  0.45156493
   0.99999967  0.99999933  0.45186803
   0.83149513  0.66299126  0.45156493
   0.00156854  0.50078377  0.45126012
Direct configuration=    23
   0.66954414 -0.00001433  0.11933589
   0.33044052 -0.00001433  0.11933589
   0.00001433  0.33045486  0.11933589
   0.00001433  0.66955848  0.11933589
   0.33044052  0.33045486  0.11933589
   0.66954414  0.66955848  0.11933589
   0.66666600  0.33333300  0.12152273
   0.33333300  0.66666600  0.12142407
   0.33706477  0.16853239  0.45089101
   0.49920384 -0.00159232  0.45057620
   0.33333267  0.66666633  0.45023224
   0.49920384  0.50079516  0.45057620
   0.83146661  0.16853239  0.45089101
   0.99999967  0.99999933  0.45120394
   0.83146661  0.66293423  0.45089101
   0.00159132  0.50079516  0.45057620
Direct configuration=    24
   0.66954493 -0.00001490  0.12065800
   0.33043917 -0.00001490  0.12065800
   0.00001490  0.33045407  0.12065800
   0.00001490  0.66955983  0.12065800
   0.33043917  0.33045407  0.12065800
   0.66954493  0.66955983  0.12065800
   0.66666600  0.33333300  0.12304536
   0.33333300  0.66666600  0.12283346
   0.33717885  0.16858942  0.44954318
   0.49918106 -0.00163788  0.44920837
   0.33333267  0.66666633  0.44884278
   0.49918106  0.50081794  0.44920837
   0.83140958  0.16858942  0.44954318
   0.99999967  0.99999933  0.44987575
   0.83140958  0.66282015  0.44954318
   0.00163688  0.50081794  0.44920837
Direct configuration=    25
   0.66954652 -0.00001602  0.12330222
   0.33043646 -0.00001602  0.12330222
   0.00001602  0.33045248  0.12330222
   0.00001602  0.66956254  0.12330222
   0.33043646  0.33045248  0.12330222
   0.66954652  0.66956254  0.12330222
   0.66666600  0.33333300  0.12609061
   0.33333300  0.66666600  0.12565224
   0.33740699  0.16870350  0.44684751
   0.49913550 -0.00172901  0.44647270
   0.33333267  0.66666633  0.44606385
   0.49913550  0.50086350  0.44647270
   0.83129550  0.16870350  0.44684751
   0.99999967  0.99999933  0.44721938
   0.83129550  0.66259201  0.44684751
   0.00172801  0.50086350  0.44647270
Direct configuration=    26
   0.66954969 -0.00001827  0.12859065
   0.33043104 -0.00001827  0.12859065
   0.00001827  0.33044931  0.12859065
   0.00001827  0.66956796  0.12859065
   0.33043104  0.33044931  0.12859065
   0.66954969  0.66956796  0.12859065
   0.66666600  0.33333300  0.13218110
   0.33333300  0.66666600  0.13128979
   0.33786329  0.16893164  0.44145617
   0.49904437 -0.00191126  0.44100136
   0.33333267  0.66666633  0.44050599
   0.49904437  0.50095463  0.44100136
   0.83106736  0.16893164  0.44145617
   0.99999967  0.99999933  0.44190663
   0.83106736  0.66213571  0.44145617
   0.00191026  0.50095463  0.44100136
Direct configuration=    27
   0.66955603 -0.00002277  0.13916751
   0.33042020 -0.00002277  0.13916751
   0.00002277  0.33044297  0.13916751
   0.00002277  0.66957880  0.13916751
   0.33042020  0.33044297  0.13916751
   0.66955603  0.66957880  0.13916751
   0.66666600  0.33333300  0.14436210
   0.33333300  0.66666600  0.14256490
   0.33877588  0.16938794  0.43067350
   0.49886212 -0.00227577  0.43005868
   0.33333267  0.66666633  0.42939027
   0.49886212  0.50113688  0.43005868
   0.83061106  0.16938794  0.43067350
   0.99999967  0.99999933  0.43128114
   0.83061106  0.66122312  0.43067350
   0.00227477  0.50113688  0.43005868
Direct configuration=    28
   0.66956871 -0.00003176  0.16032123
   0.33039853 -0.00003176  0.16032123
   0.00003176  0.33043029  0.16032123
   0.00003176  0.66960047  0.16032123
   0.33039853  0.33043029  0.16032123
   0.66956871  0.66960047  0.16032123
   0.66666600  0.33333300  0.16872408
   0.33333300  0.66666600  0.16511512
   0.34060106  0.17030053  0.40910815
   0.49849761 -0.00300478  0.40817333
   0.33333267  0.66666633  0.40715882
   0.49849761  0.50150139  0.40817333
   0.82969847  0.17030053  0.40910815
   0.99999967  0.99999933  0.41003016
   0.82969847  0.65939794  0.40910815
   0.00300378  0.50150139  0.40817333
Direct configuration=    29
   0.66956344 -0.00002497  0.16471242
   0.33041058 -0.00002497  0.16471242
   0.00002497  0.33043556  0.16471242
   0.00002497  0.66958842  0.16471242
   0.33041058  0.33043556  0.16471242
   0.66956344  0.66958842  0.16471242
   0.66666600  0.33333300  0.17376529
   0.33333300  0.66666600  0.16978284
   0.34046681  0.17023340  0.40463077
   0.49853756 -0.00292489  0.40363905
   0.33333267  0.66666633  0.40256163
   0.49853756  0.50146144  0.40363905
   0.82976560  0.17023340  0.40463077
   0.99999967  0.99999933  0.40560624
   0.82976560  0.65953219  0.40463077
   0.00292389  0.50146144  0.40363905
Direct configuration=    30
   0.66956291 -0.00002428  0.16515813
   0.33041181 -0.00002428  0.16515813
   0.00002428  0.33043609  0.16515813
   0.00002428  0.66958719  0.16515813
   0.33041181  0.33043609  0.16515813
   0.66956291  0.66958719  0.16515813
   0.66666600  0.33333300  0.17427698
   0.33333300  0.66666600  0.17025661
   0.34045318  0.17022659  0.40417631
   0.49854161 -0.00291678  0.40317882
   0.33333267  0.66666633  0.40209501
   0.49854161  0.50145739  0.40317882
   0.82977241  0.17022659  0.40417631
   0.99999967  0.99999933  0.40515721
   0.82977241  0.65954582  0.40417631
   0.00291578  0.50145739  0.40317882
Direct configuration=    31
   0.66955469 -0.00001504  0.16507451
   0.33042927 -0.00001504  0.16507451
   0.00001504  0.33044431  0.16507451
   0.00001504  0.66956973  0.16507451
   0.33042927  0.33044431  0.16507451
   0.66955469  0.66956973  0.16507451
   0.66666600  0.33333300  0.17416281
   0.33333300  0.66666600  0.17015322
   0.33994372  0.16997186  0.40426078
   0.49865587 -0.00268826  0.40327526
   0.33333267  0.66666633  0.40220156
   0.49865587  0.50134313  0.40327526
   0.83002714  0.16997186  0.40426078
   0.99999967  0.99999933  0.40522724
   0.83002714  0.66005528  0.40426078
   0.00268726  0.50134313  0.40327526
Direct configuration=    32
   0.66953003  0.00001270  0.16482365
   0.33048167  0.00001270  0.16482365
  -0.00001270  0.33046897  0.16482365
  -0.00001270  0.66951733  0.16482365
   0.33048167  0.33046897  0.16482365
   0.66953003  0.66951733  0.16482365
   0.66666600  0.33333300  0.17382030
   0.33333300  0.66666600  0.16984305
   0.33841535  0.16920768  0.40451419
   0.49899866 -0.00200269  0.40356455
   0.33333267  0.66666633  0.40252119
   0.49899866  0.50100034  0.40356455
   0.83079132  0.16920768  0.40451419
   0.99999967  0.99999933  0.40543732
   0.83079132  0.66158365  0.40451419
   0.00200169  0.50100034  0.40356455
Direct configuration=    33
   0.66948071  0.00006818  0.16432193
   0.33058647  0.00006818  0.16432193
  -0.00006818  0.33051829  0.16432193
  -0.00006818  0.66941253  0.16432193
   0.33058647  0.33051829  0.16432193
   0.66948071  0.66941253  0.16432193
   0.66666600  0.33333300  0.17313527
   0.33333300  0.66666600  0.16922270
   0.33535862  0.16767931  0.40502102
   0.49968422 -0.00063155  0.40414314
   0.33333267  0.66666633  0.40316045
   0.49968422  0.50031478  0.40414314
   0.83231969  0.16767931  0.40502102
   0.99999967  0.99999933  0.40585748
   0.83231969  0.66464038  0.40502102
   0.00063055  0.50031478  0.40414314
Direct configuration=    34
   0.66938207  0.00017913  0.16331850
   0.33079606  0.00017913  0.16331850
  -0.00017913  0.33061693  0.16331850
  -0.00017913  0.66920294  0.16331850
   0.33079606  0.33061693  0.16331850
   0.66938207  0.66920294  0.16331850
   0.66666600  0.33333300  0.17176522
   0.33333300  0.66666600  0.16798202
   0.32924514  0.16462257  0.40603467
   0.50105536  0.00211072  0.40530033
   0.33333267  0.66666633  0.40443898
   0.50105536  0.49894364  0.40530033
   0.83537643  0.16462257  0.40603467
   0.99999967  0.99999933  0.40669779
   0.83537643  0.67075386  0.40603467
  -0.00211172  0.49894364  0.40530033
Direct configuration=    35
   0.66944894  0.00010391  0.16399879
   0.33065397  0.00010391  0.16399879
  -0.00010391  0.33055006  0.16399879
  -0.00010391  0.66934503  0.16399879
   0.33065397  0.33055006  0.16399879
   0.66944894  0.66934503  0.16399879
   0.66666600  0.33333300  0.17269406
   0.33333300  0.66666600  0.16882315
   0.33338984  0.16669492  0.40534746
   0.50012578  0.00025157  0.40451580
   0.33333267  0.66666633  0.40357219
   0.50012578  0.49987322  0.40451580
   0.83330408  0.16669492  0.40534746
   0.99999967  0.99999933  0.40612809
   0.83330408  0.66660916  0.40534746
  -0.00025257  0.49987322  0.40451580
Direct configuration=    36
   0.66944832  0.00010461  0.16399242
   0.33065530  0.00010461  0.16399242
  -0.00010461  0.33055068  0.16399242
  -0.00010461  0.66934370  0.16399242
   0.33065530  0.33055068  0.16399242
   0.66944832  0.66934370  0.16399242
   0.66666600  0.33333300  0.17268536
   0.33333300  0.66666600  0.16881528
   0.33335102  0.16667551  0.40535389
   0.50013449  0.00026898  0.40452315
   0.33333267  0.66666633  0.40358031
   0.50013449  0.49986451  0.40452315
   0.83332349  0.16667551  0.40535389
   0.99999967  0.99999933  0.40613343
   0.83332349  0.66664798  0.40535389
  -0.00026998  0.49986451  0.40452315
Direct configuration=    37
   0.66943167  0.00010899  0.16400318
   0.33067632  0.00010899  0.16400318
  -0.00010899  0.33056733  0.16400318
  -0.00010899  0.66932268  0.16400318
   0.33067632  0.33056733  0.16400318
   0.66943167  0.66932268  0.16400318
   0.66666600  0.33333300  0.17263746
   0.33333300  0.66666600  0.16877692
   0.33333098  0.16666549  0.40534028
   0.50010886  0.00021772  0.40454312
   0.33333267  0.66666633  0.40363149
   0.50010886  0.49989014  0.40454312
   0.83333351  0.16666549  0.40534028
   0.99999967  0.99999933  0.40608485
   0.83333351  0.66666802  0.40534028
  -0.00021872  0.49989014  0.40454312
Direct configuration=    38
   0.66938172  0.00012212  0.16403547
   0.33073940  0.00012212  0.16403547
  -0.00012212  0.33061728  0.16403547
  -0.00012212  0.66925960  0.16403547
   0.33073940  0.33061728  0.16403547
   0.66938172  0.66925960  0.16403547
   0.66666600  0.33333300  0.17249376
   0.33333300  0.66666600  0.16866184
   0.33327086  0.16663543  0.40529943
   0.50003197  0.00006394  0.40460302
   0.33333267  0.66666633  0.40378506
   0.50003197  0.49996703  0.40460302
   0.83336357  0.16663543  0.40529943
   0.99999967  0.99999933  0.40593914
   0.83336357  0.66672814  0.40529943
  -0.00006494  0.49996703  0.40460302
Direct configuration=    39
   0.66928182  0.00014837  0.16410006
   0.33086556  0.00014837  0.16410006
  -0.00014837  0.33071718  0.16410006
  -0.00014837  0.66913344  0.16410006
   0.33086556  0.33071718  0.16410006
   0.66928182  0.66913344  0.16410006
   0.66666600  0.33333300  0.17220636
   0.33333300  0.66666600  0.16843169
   0.33315063  0.16657531  0.40521775
   0.49987819 -0.00024362  0.40472283
   0.33333267  0.66666633  0.40409219
   0.49987819  0.50012081  0.40472283
   0.83342369  0.16657531  0.40521775
   0.99999967  0.99999933  0.40564770
   0.83342369  0.66684837  0.40521775
   0.00024262  0.50012081  0.40472283
Direct configuration=    40
   0.66908202  0.00020089  0.16422922
   0.33111786  0.00020089  0.16422922
  -0.00020089  0.33091698  0.16422922
  -0.00020089  0.66888114  0.16422922
   0.33111786  0.33091698  0.16422922
   0.66908202  0.66888114  0.16422922
   0.66666600  0.33333300  0.17163156
   0.33333300  0.66666600  0.16797138
   0.33291015  0.16645508  0.40505437
   0.49957063 -0.00085875  0.40496245
   0.33333267  0.66666633  0.40470644
   0.49957063  0.50042837  0.40496245
   0.83354392  0.16645508  0.40505437
   0.99999967  0.99999933  0.40506484
   0.83354392  0.66708885  0.40505437
   0.00085775  0.50042837  0.40496245
Direct configuration=    41
   0.66908887  0.00018730  0.16425970
   0.33109742  0.00018730  0.16425970
  -0.00018730  0.33091013  0.16425970
  -0.00018730  0.66890158  0.16425970
   0.33109742  0.33091013  0.16425970
   0.66908887  0.66890158  0.16425970
   0.66666600  0.33333300  0.17151229
   0.33333300  0.66666600  0.16787570
   0.33298446  0.16649223  0.40502601
   0.49964063 -0.00071874  0.40499991
   0.33333267  0.66666633  0.40480738
   0.49964063  0.50035837  0.40499991
   0.83350677  0.16649223  0.40502601
   0.99999967  0.99999933  0.40496867
   0.83350677  0.66701454  0.40502601
   0.00071774  0.50035837  0.40499991
Direct configuration=    42
   0.66910943  0.00014653  0.16435114
   0.33103610  0.00014653  0.16435114
  -0.00014653  0.33088957  0.16435114
  -0.00014653  0.66896290  0.16435114
   0.33103610  0.33088957  0.16435114
   0.66910943  0.66896290  0.16435114
   0.66666600  0.33333300  0.17115447
   0.33333300  0.66666600  0.16758868
   0.33320736  0.16660368  0.40494094
   0.49985065 -0.00029871  0.40511229
   0.33333267  0.66666633  0.40511018
   0.49985065  0.50014835  0.40511229
   0.83339532  0.16660368  0.40494094
   0.99999967  0.99999933  0.40468015
   0.83339532  0.66679164  0.40494094
   0.00029771  0.50014835  0.40511229
Direct configuration=    43
   0.66915055  0.00006499  0.16453401
   0.33091344  0.00006499  0.16453401
  -0.00006499  0.33084845  0.16453401
  -0.00006499  0.66908556  0.16453401
   0.33091344  0.33084845  0.16453401
   0.66915055  0.66908556  0.16453401
   0.66666600  0.33333300  0.17043883
   0.33333300  0.66666600  0.16701465
   0.33365318  0.16682659  0.40477080
   0.50027068  0.00054136  0.40533706
   0.33333267  0.66666633  0.40571578
   0.50027068  0.49972832  0.40533706
   0.83317241  0.16682659  0.40477080
   0.99999967  0.99999933  0.40410312
   0.83317241  0.66634582  0.40477080
  -0.00054236  0.49972832  0.40533706
Direct configuration=    44
   0.66913353  0.00009875  0.16445830
   0.33096422  0.00009875  0.16445830
  -0.00009875  0.33086547  0.16445830
  -0.00009875  0.66903478  0.16445830
   0.33096422  0.33086547  0.16445830
   0.66913353  0.66903478  0.16445830
   0.66666600  0.33333300  0.17073510
   0.33333300  0.66666600  0.16725230
   0.33346861  0.16673431  0.40484124
   0.50009679  0.00019357  0.40524401
   0.33333267  0.66666633  0.40546506
   0.50009679  0.49990221  0.40524401
   0.83326469  0.16673431  0.40484124
   0.99999967  0.99999933  0.40434201
   0.83326469  0.66653039  0.40484124
  -0.00019457  0.49990221  0.40524401
Direct configuration=    45
   0.66921983  0.00007735  0.16449415
   0.33085652  0.00007735  0.16449415
  -0.00007735  0.33077917  0.16449415
  -0.00007735  0.66914248  0.16449415
   0.33085652  0.33077917  0.16449415
   0.66921983  0.66914248  0.16449415
   0.66666600  0.33333300  0.17061573
   0.33333300  0.66666600  0.16715913
   0.33343419  0.16671710  0.40483890
   0.50008612  0.00017224  0.40524343
   0.33333267  0.66666633  0.40547302
   0.50008612  0.49991288  0.40524343
   0.83328190  0.16671710  0.40483890
   0.99999967  0.99999933  0.40434019
   0.83328190  0.66656481  0.40483890
  -0.00017324  0.49991288  0.40524343
Direct configuration=    46
   0.66947873  0.00001314  0.16460172
   0.33053341  0.00001314  0.16460172
  -0.00001314  0.33052027  0.16460172
  -0.00001314  0.66946559  0.16460172
   0.33053341  0.33052027  0.16460172
   0.66947873  0.66946559  0.16460172
   0.66666600  0.33333300  0.17025762
   0.33333300  0.66666600  0.16687964
   0.33333093  0.16666546  0.40483191
   0.50005413  0.00010827  0.40524169
   0.33333267  0.66666633  0.40549691
   0.50005413  0.49994487  0.40524169
   0.83333354  0.16666546  0.40483191
   0.99999967  0.99999933  0.40433472
   0.83333354  0.66666807  0.40483191
  -0.00010927  0.49994487  0.40524169
Direct configuration=    47
   0.66999654 -0.00011526  0.16481684
   0.32988720 -0.00011526  0.16481684
   0.00011526  0.33000246  0.16481684
   0.00011526  0.67011180  0.16481684
   0.32988720  0.33000246  0.16481684
   0.66999654  0.67011180  0.16481684
   0.66666600  0.33333300  0.16954139
   0.33333300  0.66666600  0.16632065
   0.33312440  0.16656220  0.40481792
   0.49999016 -0.00001969  0.40523822
   0.33333267  0.66666633  0.40554469
   0.49999016  0.50000884  0.40523822
   0.83343680  0.16656220  0.40481792