   2   2   0  16
  0.4010926E+02  0.2485000E-09  0.2485000E-09  0.1500000E-08  0.5000000E-15
  1.000000000000000E-004
  CAR 
 Graphene                                
     43.47329433    -24.76147163  301     -2.32996187      1.00000000
    -24.761  0.0000E+00  0.0000E+00
    -24.534  0.0000E+00  0.0000E+00
    -24.307  0.0000E+00  0.0000E+00
    -24.079  0.0000E+00  0.0000E+00
    -23.852  0.0000E+00  0.0000E+00
    -23.624  0.0000E+00  0.0000E+00
    -23.397  0.0000E+00  0.0000E+00
    -23.169  0.0000E+00  0.0000E+00
    -22.942  0.0000E+00  0.0000E+00
    -22.714  0.0000E+00  0.0000E+00
    -22.487  0.0000E+00  0.0000E+00
    -22.260  0.0000E+00  0.0000E+00
    -22.032  0.4314E-10  0.9812E-11
    -21.805  0.1244E-04  0.2830E-05
    -21.577  0.1006E-02  0.2316E-03
    -21.350  0.3215E-02  0.9629E-03
    -21.122  0.3104E-02  0.1669E-02
    -20.895  0.4097E-02  0.2601E-02
    -20.667  0.3801E-03  0.2687E-02
    -20.440  0.6434E-02  0.4151E-02
    -20.212  0.2551E-02  0.4731E-02
    -19.985  0.1792E-02  0.5139E-02
    -19.758  0.1509E-02  0.5482E-02
    -19.530  0.7766E-02  0.7248E-02
    -19.303  0.1729E-02  0.7642E-02
    -19.075  0.2531E-02  0.8217E-02
    -18.848  0.1137E-02  0.8476E-02
    -18.620  0.4732E-02  0.9552E-02
    -18.393  0.4235E-02  0.1052E-01
    -18.165  0.5622E-02  0.1179E-01
    -17.938  0.5890E-04  0.1181E-01
    -17.711  0.2383E-02  0.1235E-01
    -17.483  0.2255E-02  0.1286E-01
    -17.256  0.7837E-02  0.1465E-01
    -17.028  0.2369E-02  0.1518E-01
    -16.801  0.6409E-02  0.1664E-01
    -16.573  0.1152E-02  0.1690E-01
    -16.346  0.1391E-02  0.1722E-01
    -16.118  0.2613E-02  0.1781E-01
    -15.891  0.8275E-02  0.1970E-01
    -15.664  0.1148E-03  0.1972E-01
    -15.436  0.6722E-03  0.1988E-01
    -15.209  0.1176E-02  0.2014E-01
    -14.981  0.2830E-02  0.2079E-01
    -14.754  0.7746E-02  0.2255E-01
    -14.526  0.2841E-02  0.2319E-01
    -14.299  0.4906E-03  0.2331E-01
    -14.071  0.6713E-02  0.2483E-01
    -13.844  0.3599E-02  0.2565E-01
    -13.616  0.4853E-02  0.2676E-01
    -13.389  0.2663E-02  0.2736E-01
    -13.162  0.1521E-05  0.2736E-01
    -12.934  0.1598E-02  0.2772E-01
    -12.707  0.9619E-02  0.2991E-01
    -12.479  0.9944E-03  0.3014E-01
    -12.252  0.7390E-06  0.3014E-01
    -12.024  0.1663E-03  0.3018E-01
    -11.797  0.1136E-01  0.3276E-01
    -11.569  0.6774E-02  0.3430E-01
    -11.342  0.3940E-04  0.3431E-01
    -11.115  0.2657E-02  0.3491E-01
    -10.887  0.1494E-02  0.3525E-01
    -10.660  0.6529E-02  0.3674E-01
    -10.432  0.2909E-02  0.3740E-01
    -10.205  0.7441E-02  0.3909E-01
     -9.977  0.4143E-02  0.4004E-01
     -9.750  0.4194E-02  0.4099E-01
     -9.522  0.1099E-01  0.4349E-01
     -9.295  0.1217E-02  0.4376E-01
     -9.067  0.1051E-01  0.4615E-01
     -8.840  0.7299E-02  0.4781E-01
     -8.613  0.1534E-01  0.5130E-01
     -8.385  0.1097E-01  0.5380E-01
     -8.158  0.7547E-02  0.5552E-01
     -7.930  0.7924E-02  0.5732E-01
     -7.703  0.8924E-03  0.5752E-01
     -7.475  0.6854E-02  0.5908E-01
     -7.248  0.1665E-01  0.6287E-01
     -7.020  0.3726E-02  0.6371E-01
     -6.793  0.4367E-02  0.6471E-01
     -6.566  0.1026E-02  0.6494E-01
     -6.338  0.8511E-02  0.6688E-01
     -6.111  0.6914E-02  0.6845E-01
     -5.883  0.9600E-02  0.7063E-01
     -5.656  0.2943E-02  0.7130E-01
     -5.428  0.3826E-02  0.7217E-01
     -5.201  0.2051E-02  0.7264E-01
     -4.973  0.4481E-02  0.7366E-01
     -4.746  0.1035E-01  0.7601E-01
     -4.518  0.5250E-02  0.7721E-01
     -4.291  0.7336E-04  0.7722E-01
     -4.064  0.1734E-02  0.7762E-01
     -3.836  0.1966E-02  0.7806E-01
     -3.609  0.5456E-02  0.7930E-01
     -3.381  0.1834E-02  0.7972E-01
     -3.154  0.3674E-06  0.7972E-01
     -2.926  0.4361E-14  0.7972E-01
     -2.699  0.2214E-09  0.7972E-01
     -2.471  0.5545E-04  0.7973E-01
     -2.244  0.2113E-02  0.8022E-01
     -2.017  0.2737E-03  0.8028E-01
     -1.789  0.1139E-07  0.8028E-01
     -1.562  0.3410E-14  0.8028E-01
     -1.334  0.3181E-06  0.8028E-01
     -1.107  0.1759E-02  0.8068E-01
     -0.879  0.7680E-02  0.8242E-01
     -0.652  0.2571E-02  0.8301E-01
     -0.424  0.3361E-02  0.8377E-01
     -0.197  0.4762E-02  0.8486E-01
      0.030  0.4094E-03  0.8495E-01
      0.258  0.6633E-02  0.8646E-01
      0.485  0.6371E-02  0.8791E-01
      0.713  0.1259E-02  0.8819E-01
      0.940  0.1285E-03  0.8822E-01
      1.168  0.1466E-02  0.8856E-01
      1.395  0.8811E-02  0.9056E-01
      1.623  0.2364E-02  0.9110E-01
      1.850  0.4048E-02  0.9202E-01
      2.078  0.9832E-02  0.9426E-01
      2.305  0.3910E-02  0.9515E-01
      2.532  0.8253E-02  0.9702E-01
      2.760  0.1176E-01  0.9970E-01
      2.987  0.4900E-02  0.1008E+00
      3.215  0.4958E-02  0.1019E+00
      3.442  0.9762E-02  0.1042E+00
      3.670  0.1125E-01  0.1067E+00
      3.897  0.1130E-01  0.1093E+00
      4.125  0.1138E-01  0.1119E+00
      4.352  0.1160E-02  0.1121E+00
      4.579  0.1188E-01  0.1148E+00
      4.807  0.1082E-01  0.1173E+00
      5.034  0.1187E-01  0.1200E+00
      5.262  0.1941E-01  0.1244E+00
      5.489  0.1851E-01  0.1286E+00
      5.717  0.2506E-01  0.1343E+00
      5.944  0.2286E-01  0.1395E+00
      6.172  0.2325E-01  0.1448E+00
      6.399  0.1424E-01  0.1481E+00
      6.627  0.1681E-01  0.1519E+00
      6.854  0.1640E-01  0.1556E+00
      7.081  0.1502E-01  0.1590E+00
      7.309  0.2199E-01  0.1640E+00
      7.536  0.2046E-01  0.1687E+00
      7.764  0.1738E-01  0.1726E+00
      7.991  0.2189E-01  0.1776E+00
      8.219  0.6728E-02  0.1791E+00
      8.446  0.1852E-01  0.1834E+00
      8.674  0.2331E-01  0.1887E+00
      8.901  0.2875E-01  0.1952E+00
      9.128  0.1436E-01  0.1985E+00
      9.356  0.1767E-01  0.2025E+00
      9.583  0.1693E-01  0.2063E+00
      9.811  0.3041E-01  0.2133E+00
     10.038  0.1813E-01  0.2174E+00
     10.266  0.1485E-01  0.2208E+00
     10.493  0.1655E-01  0.2245E+00
     10.721  0.3102E-01  0.2316E+00
     10.948  0.3482E-01  0.2395E+00
     11.176  0.2299E-01  0.2447E+00
     11.403  0.2208E-01  0.2497E+00
     11.630  0.2456E-01  0.2553E+00
     11.858  0.1105E-01  0.2578E+00
     12.085  0.1605E-01  0.2615E+00
     12.313  0.2355E-01  0.2669E+00
     12.540  0.1507E-01  0.2703E+00
     12.768  0.1102E-01  0.2728E+00
     12.995  0.1897E-01  0.2771E+00
     13.223  0.1738E-01  0.2811E+00
     13.450  0.2445E-01  0.2866E+00
     13.677  0.2374E-01  0.2920E+00
     13.905  0.2880E-01  0.2986E+00
     14.132  0.1594E-01  0.3022E+00
     14.360  0.2186E-01  0.3072E+00
     14.587  0.2658E-01  0.3132E+00
     14.815  0.2517E-01  0.3189E+00
     15.042  0.2656E-01  0.3250E+00
     15.270  0.2297E-01  0.3302E+00
     15.497  0.2248E-01  0.3353E+00
     15.724  0.2070E-01  0.3400E+00
     15.952  0.1985E-01  0.3445E+00
     16.179  0.2420E-01  0.3500E+00
     16.407  0.2002E-01  0.3546E+00
     16.634  0.2021E-01  0.3592E+00
     16.862  0.3207E-01  0.3665E+00
     17.089  0.3722E-01  0.3749E+00
     17.317  0.1922E-01  0.3793E+00
     17.544  0.9333E-02  0.3814E+00
     17.772  0.1122E-01  0.3840E+00
     17.999  0.3157E-01  0.3912E+00
     18.226  0.4000E-01  0.4003E+00
     18.454  0.1213E-01  0.4030E+00
     18.681  0.1177E-01  0.4057E+00
     18.909  0.4250E-01  0.4154E+00
     19.136  0.3122E-01  0.4225E+00
     19.364  0.2471E-01  0.4281E+00
     19.591  0.2524E-01  0.4338E+00
     19.819  0.2225E-01  0.4389E+00
     20.046  0.3138E-01  0.4460E+00
     20.273  0.3945E-01  0.4550E+00
     20.501  0.3295E-01  0.4625E+00
     20.728  0.2261E-01  0.4676E+00
     20.956  0.1108E-01  0.4702E+00
     21.183  0.2842E-01  0.4766E+00
     21.411  0.2253E-01  0.4818E+00
     21.638  0.3614E-01  0.4900E+00
     21.866  0.2769E-01  0.4963E+00
     22.093  0.3727E-01  0.5048E+00
     22.321  0.2003E-01  0.5093E+00
     22.548  0.3119E-01  0.5164E+00
     22.775  0.2730E-01  0.5226E+00
     23.003  0.2879E-01  0.5292E+00
     23.230  0.2465E-01  0.5348E+00
     23.458  0.3559E-01  0.5429E+00
     23.685  0.3219E-01  0.5502E+00
     23.913  0.3419E-01  0.5580E+00
     24.140  0.2978E-01  0.5647E+00
     24.368  0.3480E-01  0.5726E+00
     24.595  0.2115E-01  0.5775E+00
     24.822  0.2505E-01  0.5832E+00
     25.050  0.1977E-01  0.5877E+00
     25.277  0.2000E-01  0.5922E+00
     25.505  0.2589E-01  0.5981E+00
     25.732  0.3407E-01  0.6058E+00
     25.960  0.3923E-01  0.6148E+00
     26.187  0.2700E-01  0.6209E+00
     26.415  0.2795E-01  0.6273E+00
     26.642  0.2694E-01  0.6334E+00
     26.870  0.3452E-01  0.6412E+00
     27.097  0.2630E-01  0.6472E+00
     27.324  0.2190E-01  0.6522E+00
     27.552  0.4025E-01  0.6614E+00
     27.779  0.2693E-01  0.6675E+00
     28.007  0.7610E-02  0.6692E+00
     28.234  0.2460E-01  0.6748E+00
     28.462  0.2445E-01  0.6804E+00
     28.689  0.2972E-01  0.6871E+00
     28.917  0.3441E-01  0.6950E+00
     29.144  0.3085E-01  0.7020E+00
     29.371  0.2626E-01  0.7079E+00
     29.599  0.3013E-01  0.7148E+00
     29.826  0.3160E-01  0.7220E+00
     30.054  0.3201E-01  0.7293E+00
     30.281  0.2681E-01  0.7354E+00
     30.509  0.3787E-01  0.7440E+00
     30.736  0.2978E-01  0.7508E+00
     30.964  0.2608E-01  0.7567E+00
     31.191  0.3499E-01  0.7646E+00
     31.418  0.3083E-01  0.7717E+00
     31.646  0.1739E-01  0.7756E+00
     31.873  0.3572E-01  0.7837E+00
     32.101  0.2227E-01  0.7888E+00
     32.328  0.3964E-01  0.7978E+00
     32.556  0.3826E-01  0.8065E+00
     32.783  0.3977E-01  0.8156E+00
     33.011  0.2256E-01  0.8207E+00
     33.238  0.3264E-01  0.8281E+00
     33.466  0.3113E-01  0.8352E+00
     33.693  0.3889E-01  0.8440E+00
     33.920  0.3144E-01  0.8512E+00
     34.148  0.2066E-01  0.8559E+00
     34.375  0.1848E-01  0.8601E+00
     34.603  0.3079E-01  0.8671E+00
     34.830  0.3957E-01  0.8761E+00
     35.058  0.4110E-01  0.8854E+00
     35.285  0.2730E-01  0.8917E+00
     35.513  0.2975E-01  0.8984E+00
     35.740  0.5112E-01  0.9100E+00
     35.967  0.3098E-01  0.9171E+00
     36.195  0.2616E-01  0.9230E+00
     36.422  0.1389E-01  0.9262E+00
     36.650  0.1813E-01  0.9303E+00
     36.877  0.3522E-01  0.9383E+00
     37.105  0.3035E-01  0.9452E+00
     37.332  0.1547E-01  0.9488E+00
     37.560  0.1236E-01  0.9516E+00
     37.787  0.3416E-02  0.9523E+00
     38.015  0.4411E-02  0.9534E+00
     38.242  0.6577E-02  0.9548E+00
     38.469  0.2929E-02  0.9555E+00
     38.697  0.8707E-02  0.9575E+00
     38.924  0.3192E-02  0.9582E+00
     39.152  0.5342E-02  0.9594E+00
     39.379  0.3494E-04  0.9594E+00
     39.607  0.2306E-10  0.9594E+00
     39.834  0.3539E-16  0.9594E+00
     40.062  0.1409E-07  0.9594E+00
     40.289  0.2957E-03  0.9595E+00
     40.516  0.2097E-02  0.9600E+00
     40.744  0.4965E-04  0.9600E+00
     40.971  0.1725E-09  0.9600E+00
     41.199  0.0000E+00  0.9600E+00
     41.426  0.0000E+00  0.9600E+00
     41.654  0.0000E+00  0.9600E+00
     41.881  0.0000E+00  0.9600E+00
     42.109  0.0000E+00  0.9600E+00
     42.336  0.0000E+00  0.9600E+00
     42.563  0.0000E+00  0.9600E+00
     42.791  0.0000E+00  0.9600E+00
     43.018  0.0000E+00  0.9600E+00
     43.246  0.0000E+00  0.9600E+00
     43.473  0.0000E+00  0.9600E+00
