       N       E                     dE             d eps       ncg     rms          rms(c)
DAV:   1     0.352886153115E+03    0.35289E+03   -0.25961E+04 14208   0.963E+02
DAV:   2    -0.108256565964E+03   -0.46114E+03   -0.44130E+03 21632   0.238E+02
DAV:   3    -0.144680356858E+03   -0.36424E+02   -0.36040E+02 18896   0.709E+01
DAV:   4    -0.145560553932E+03   -0.88020E+00   -0.87852E+00 19360   0.129E+01
DAV:   5    -0.145590283039E+03   -0.29729E-01   -0.29720E-01 20992   0.215E+00    0.249E+01
DAV:   6    -0.106684353220E+03    0.38906E+02   -0.60792E+01 17584   0.266E+01    0.144E+01
DAV:   7    -0.114406714085E+03   -0.77224E+01   -0.10354E+01 17392   0.116E+01    0.856E+00
DAV:   8    -0.124099748255E+03   -0.96930E+01   -0.81691E+00 17872   0.944E+00    0.447E+00
DAV:   9    -0.131684628740E+03   -0.75849E+01   -0.42734E+00 15744   0.727E+00    0.282E+00
DAV:  10    -0.138693896963E+03   -0.70093E+01   -0.91271E+00 17152   0.775E+00    0.162E+00
DAV:  11    -0.140050796129E+03   -0.13569E+01   -0.15360E+00 17008   0.365E+00    0.106E+00
DAV:  12    -0.140310304405E+03   -0.25951E+00   -0.23329E-01 17024   0.170E+00    0.448E-01
DAV:  13    -0.140362789035E+03   -0.52485E-01   -0.35160E-02 15328   0.795E-01    0.179E-01
DAV:  14    -0.140379119752E+03   -0.16331E-01   -0.50395E-03 16096   0.308E-01    0.860E-02
DAV:  15    -0.140385715739E+03   -0.65960E-02   -0.26065E-03 15632   0.175E-01    0.388E-02
DAV:  16    -0.140386911339E+03   -0.11956E-02   -0.39321E-04 15088   0.960E-02    0.247E-02
DAV:  17    -0.140388550215E+03   -0.16389E-02   -0.21972E-04 14624   0.689E-02    0.163E-02
DAV:  18    -0.140389455859E+03   -0.90564E-03   -0.79679E-05 15168   0.463E-02    0.127E-02
DAV:  19    -0.140389890023E+03   -0.43416E-03   -0.47076E-05 15808   0.361E-02    0.779E-03
DAV:  20    -0.140389976715E+03   -0.86693E-04   -0.17680E-05 15488   0.217E-02    0.425E-03
DAV:  21    -0.140390027488E+03   -0.50773E-04   -0.64895E-06 14800   0.125E-02    0.245E-03
DAV:  22    -0.140390035566E+03   -0.80776E-05   -0.26545E-06 16208   0.821E-03    0.156E-03
DAV:  23    -0.140390038928E+03   -0.33623E-05   -0.96528E-07 15360   0.468E-03    0.964E-04
DAV:  24    -0.140390042282E+03   -0.33539E-05   -0.34442E-07 12352   0.250E-03    0.415E-04
DAV:  25    -0.140390043980E+03   -0.16978E-05   -0.12833E-07 11968   0.128E-03    0.264E-04
DAV:  26    -0.140390044473E+03   -0.49263E-06   -0.34262E-08 12176   0.705E-04
   1 F= -.14225837E+03 E0= -.14225748E+03  d E =-.142258E+03  mag=     0.0000
       N       E                     dE             d eps       ncg     rms          rms(c)
DAV:   1    -0.140344397689E+03    0.45646E-01   -0.12804E+01 14208   0.126E+01    0.980E-01
DAV:   2    -0.140323849571E+03    0.20548E-01   -0.25556E-01 18016   0.187E+00    0.554E-01
DAV:   3    -0.140320353500E+03    0.34961E-02   -0.39418E-02 18672   0.639E-01    0.334E-01
DAV:   4    -0.140320492552E+03   -0.13905E-03   -0.50568E-03 16256   0.216E-01    0.157E-01
DAV:   5    -0.140320333266E+03    0.15929E-03   -0.11578E-03 15744   0.125E-01    0.332E-02
DAV:   6    -0.140320341047E+03   -0.77804E-05   -0.14370E-04 18592   0.439E-02    0.132E-02
DAV:   7    -0.140320353036E+03   -0.11989E-04   -0.15475E-05 20320   0.124E-02    0.616E-03
DAV:   8    -0.140320357279E+03   -0.42432E-05   -0.44486E-06 18128   0.659E-03    0.176E-03
DAV:   9    -0.140320364455E+03   -0.71759E-05   -0.10137E-06 13856   0.326E-03    0.141E-03
DAV:  10    -0.140320374745E+03   -0.10290E-04   -0.10495E-06 13488   0.255E-03    0.142E-03
DAV:  11    -0.140320380387E+03   -0.56419E-05   -0.39340E-07 13760   0.143E-03    0.585E-04
DAV:  12    -0.140320382954E+03   -0.25675E-05   -0.16516E-07 10864   0.939E-04    0.266E-04
DAV:  13    -0.140320383523E+03   -0.56903E-06   -0.47793E-08 11632   0.486E-04
   2 F= -.14219266E+03 E0= -.14219139E+03  d E =0.657121E-01  mag=     0.0000
       N       E                     dE             d eps       ncg     rms          rms(c)
DAV:   1    -0.140412831239E+03   -0.92448E-01   -0.66723E+00 14208   0.905E+00    0.704E-01
DAV:   2    -0.140402317779E+03    0.10513E-01   -0.12856E-01 17792   0.136E+00    0.386E-01
DAV:   3    -0.140400215979E+03    0.21018E-02   -0.24819E-02 18624   0.507E-01    0.175E-01
DAV:   4    -0.140400184464E+03    0.31514E-04   -0.34761E-03 16432   0.182E-01    0.931E-02
DAV:   5    -0.140400164113E+03    0.20351E-04   -0.30234E-04 15088   0.724E-02    0.162E-02
DAV:   6    -0.140400158612E+03    0.55012E-05   -0.74234E-05 18432   0.320E-02    0.918E-03
DAV:   7    -0.140400161081E+03   -0.24695E-05   -0.11054E-05 19040   0.121E-02    0.210E-03
DAV:   8    -0.140400163484E+03   -0.24026E-05   -0.11179E-06 15104   0.387E-03    0.139E-03
DAV:   9    -0.140400168798E+03   -0.53146E-05   -0.28694E-07 11136   0.183E-03    0.926E-04
DAV:  10    -0.140400173770E+03   -0.49714E-05   -0.29290E-07 11456   0.146E-03    0.529E-04
DAV:  11    -0.140400176219E+03   -0.24490E-05   -0.89840E-08 10848   0.841E-04    0.323E-04
DAV:  12    -0.140400179174E+03   -0.29549E-05   -0.13739E-07  9488   0.756E-04    0.126E-04
DAV:  13    -0.140400179519E+03   -0.34565E-06   -0.17219E-08 13152   0.332E-04
   3 F= -.14226983E+03 E0= -.14226884E+03  d E =-.114594E-01  mag=     0.0000
       N       E                     dE             d eps       ncg     rms          rms(c)
DAV:   1    -0.140400464589E+03   -0.28542E-03   -0.29235E-02 14224   0.747E-01    0.321E-02
DAV:   2    -0.140400477746E+03   -0.13157E-04   -0.24326E-04 18400   0.677E-02    0.217E-02
DAV:   3    -0.140400480299E+03   -0.25532E-05   -0.23899E-05 15344   0.229E-02    0.498E-03
DAV:   4    -0.140400480060E+03    0.23934E-06   -0.51504E-06 17328   0.916E-03
   4 F= -.14227010E+03 E0= -.14226911E+03  d E =-.261655E-03  mag=     0.0000
       N       E                     dE             d eps       ncg     rms          rms(c)
DAV:   1    -0.140400508475E+03   -0.28176E-04   -0.31423E-03 14624   0.245E-01    0.104E-02
DAV:   2    -0.140400509947E+03   -0.14715E-05   -0.26947E-05 18432   0.224E-02    0.704E-03
DAV:   3    -0.140400510494E+03   -0.54734E-06   -0.23537E-06 14784   0.725E-03
   5 F= -.14227011E+03 E0= -.14226914E+03  d E =-.279422E-03  mag=    -0.0000
       N       E                     dE             d eps       ncg     rms          rms(c)
DAV:   1    -0.140400500785E+03    0.91615E-05   -0.15018E-02 16144   0.537E-01    0.308E-02
DAV:   2    -0.140400506132E+03   -0.53462E-05   -0.27922E-04 15552   0.723E-02    0.184E-02
DAV:   3    -0.140400504950E+03    0.11820E-05   -0.32058E-05 17024   0.231E-02    0.836E-03
DAV:   4    -0.140400505126E+03   -0.17649E-06   -0.56773E-06 16272   0.874E-03
   6 F= -.14227009E+03 E0= -.14226911E+03  d E =0.279001E-04  mag=    -0.0000
       N       E                     dE             d eps       ncg     rms          rms(c)
DAV:   1    -0.140400544473E+03   -0.39523E-04   -0.51593E-03 15536   0.315E-01    0.182E-02
DAV:   2    -0.140400545803E+03   -0.13306E-05   -0.98890E-05 14592   0.432E-02    0.110E-02
DAV:   3    -0.140400545462E+03    0.34106E-06   -0.11704E-05 16160   0.140E-02    0.497E-03
DAV:   4    -0.140400545617E+03   -0.15467E-06   -0.20424E-06 12288   0.530E-03
   7 F= -.14227014E+03 E0= -.14226916E+03  d E =-.259209E-04  mag=    -0.0000
       N       E                     dE             d eps       ncg     rms          rms(c)
DAV:   1    -0.140400576465E+03   -0.31003E-04   -0.77103E-04 14832   0.120E-01    0.624E-03
DAV:   2    -0.140400576584E+03   -0.11924E-06   -0.96433E-06 14608   0.122E-02
   8 F= -.14227014E+03 E0= -.14226917E+03  d E =-.453901E-05  mag=    -0.0000
       N       E                     dE             d eps       ncg     rms          rms(c)
DAV:   1    -0.140400574457E+03    0.20084E-05   -0.11205E-05 14752   0.143E-02    0.809E-04
DAV:   2    -0.140400574495E+03   -0.37833E-07   -0.42547E-07 11312   0.245E-03
   9 F= -.14227014E+03 E0= -.14226917E+03  d E =-.513350E-05  mag=    -0.0000
       N       E                     dE             d eps       ncg     rms          rms(c)
DAV:   1    -0.140400595329E+03   -0.20873E-04   -0.23464E-04 15136   0.678E-02    0.322E-03
DAV:   2    -0.140400595302E+03    0.26995E-07   -0.28770E-06 14624   0.714E-03
  10 F= -.14227015E+03 E0= -.14226917E+03  d E =-.282369E-05  mag=    -0.0000
       N       E                     dE             d eps       ncg     rms          rms(c)
DAV:   1    -0.140400604465E+03   -0.91356E-05   -0.51361E-05 15376   0.320E-02    0.187E-03
DAV:   2    -0.140400604389E+03    0.76234E-07   -0.45469E-07 10816   0.313E-03
  11 F= -.14227015E+03 E0= -.14226917E+03  d E =-.324291E-05  mag=    -0.0000
       N       E                     dE             d eps       ncg     rms          rms(c)
DAV:   1    -0.140400604263E+03    0.20199E-06   -0.22161E-07 10016   0.234E-03    0.219E-04
DAV:   2    -0.140400604292E+03   -0.29405E-07   -0.67508E-08  9792   0.144E-03
  12 F= -.14227015E+03 E0= -.14226917E+03  d E =-.338168E-05  mag=    -0.0000
       N       E                     dE             d eps       ncg     rms          rms(c)
DAV:   1    -0.140400612726E+03   -0.84628E-05   -0.48699E-06 15152   0.950E-03    0.472E-04
DAV:   2    -0.140400612733E+03   -0.70454E-08   -0.76952E-08 12384   0.127E-03
  13 F= -.14227015E+03 E0= -.14226917E+03  d E =-.123154E-06  mag=    -0.0000
       N       E                     dE             d eps       ncg     rms          rms(c)
DAV:   1    -0.140400637857E+03   -0.25131E-04   -0.43120E-05 15328   0.283E-02    0.150E-03
DAV:   2    -0.140400637843E+03    0.13032E-07   -0.60532E-07 10480   0.354E-03
  14 F= -.14227015E+03 E0= -.14226917E+03  d E =-.423166E-06  mag=    -0.0000
       N       E                     dE             d eps       ncg     rms          rms(c)
DAV:   1    -0.140400687606E+03   -0.49750E-04   -0.17104E-04 15680   0.564E-02    0.303E-03
DAV:   2    -0.140400687566E+03    0.39745E-07   -0.24652E-06 12480   0.689E-03
  15 F= -.14227015E+03 E0= -.14226917E+03  d E =-.667163E-06  mag=    -0.0000
       N       E                     dE             d eps       ncg     rms          rms(c)
DAV:   1    -0.140400690094E+03   -0.24879E-05   -0.36698E-07 12240   0.307E-03    0.542E-04
DAV:   2    -0.140400690099E+03   -0.46280E-08   -0.76308E-08 10240   0.133E-03
  16 F= -.14227015E+03 E0= -.14226917E+03  d E =-.108731E-06  mag=    -0.0000
       N       E                     dE             d eps       ncg     rms          rms(c)
DAV:   1    -0.140400697509E+03   -0.74150E-05   -0.35927E-06 15056   0.811E-03    0.498E-04
DAV:   2    -0.140400697508E+03    0.78444E-09   -0.72585E-08 10336   0.139E-03
  17 F= -.14227015E+03 E0= -.14226917E+03  d E =-.247895E-06  mag=    -0.0000
       N       E                     dE             d eps       ncg     rms          rms(c)
DAV:   1    -0.140400712308E+03   -0.14798E-04   -0.13187E-05 14768   0.155E-02    0.878E-04
DAV:   2    -0.140400712298E+03    0.94560E-08   -0.19163E-07 10400   0.216E-03
  18 F= -.14227015E+03 E0= -.14226917E+03  d E =-.496960E-06  mag=    -0.0000
       N       E                     dE             d eps       ncg     rms          rms(c)
DAV:   1    -0.140400741883E+03   -0.29575E-04   -0.52637E-05 14672   0.309E-02    0.170E-03
DAV:   2    -0.140400741850E+03    0.32651E-07   -0.70322E-07 10048   0.398E-03
  19 F= -.14227015E+03 E0= -.14226917E+03  d E =-.968653E-06  mag=    -0.0000
       N       E                     dE             d eps       ncg     rms          rms(c)
DAV:   1    -0.140400800957E+03   -0.59074E-04   -0.21040E-04 14512   0.617E-02    0.336E-03
DAV:   2    -0.140400800890E+03    0.66240E-07   -0.29738E-06 12224   0.770E-03
  20 F= -.14227015E+03 E0= -.14226917E+03  d E =-.185101E-05  mag=    -0.0000
       N       E                     dE             d eps       ncg     rms          rms(c)
DAV:   1    -0.140400918419E+03   -0.11746E-03   -0.84268E-04 14576   0.123E-01    0.673E-03
DAV:   2    -0.140400918308E+03    0.11117E-06   -0.11564E-05 14656   0.150E-02    0.430E-03
DAV:   3    -0.140400918449E+03   -0.14063E-06   -0.10525E-06 11904   0.534E-03
  21 F= -.14227015E+03 E0= -.14226917E+03  d E =-.310649E-05  mag=     0.0000
       N       E                     dE             d eps       ncg     rms          rms(c)
DAV:   1    -0.140401152087E+03   -0.23378E-03   -0.34649E-03 14304   0.249E-01    0.134E-02
DAV:   2    -0.140401151819E+03    0.26845E-06   -0.49083E-05 14656   0.306E-02    0.850E-03
DAV:   3    -0.140401151960E+03   -0.14118E-06   -0.44001E-06 15072   0.104E-02
  22 F= -.14227015E+03 E0= -.14226917E+03  d E =-.400185E-05  mag=    -0.0000
       N       E                     dE             d eps       ncg     rms          rms(c)
DAV:   1    -0.140401205374E+03   -0.53555E-04   -0.25244E-04 14672   0.694E-02    0.412E-03
DAV:   2    -0.140401205318E+03    0.55792E-07   -0.42864E-06 14624   0.978E-03
  23 F= -.14227015E+03 E0= -.14226917E+03  d E =-.163159E-05  mag=    -0.0000
       N       E                     dE             d eps       ncg     rms          rms(c)
DAV:   1    -0.140401240916E+03   -0.35542E-04   -0.10740E-04 14544   0.456E-02    0.287E-03
DAV:   2    -0.140401240835E+03    0.80850E-07   -0.19368E-06 14496   0.715E-03
  24 F= -.14227015E+03 E0= -.14226917E+03  d E =-.171445E-05  mag=    -0.0000
       N       E                     dE             d eps       ncg     rms          rms(c)
DAV:   1    -0.140401226505E+03    0.14411E-04   -0.20727E-05 14576   0.202E-02    0.896E-04
DAV:   2    -0.140401226490E+03    0.14416E-07   -0.10197E-06 12288   0.551E-03
  25 F= -.14227015E+03 E0= -.14226917E+03  d E =-.193045E-05  mag=    -0.0000
       N       E                     dE             d eps       ncg     rms          rms(c)
DAV:   1    -0.140401275313E+03   -0.48809E-04   -0.18651E-04 14832   0.587E-02    0.268E-03
DAV:   2    -0.140401275289E+03    0.24028E-07   -0.27914E-06 12640   0.743E-03
  26 F= -.14227016E+03 E0= -.14226917E+03  d E =-.152074E-05  mag=    -0.0000
       N       E                     dE             d eps       ncg     rms          rms(c)
DAV:   1    -0.140401398832E+03   -0.12352E-03   -0.12352E-03 14608   0.152E-01    0.761E-03
DAV:   2    -0.140401398728E+03    0.10363E-06   -0.17510E-05 14816   0.183E-02    0.501E-03
DAV:   3    -0.140401398893E+03   -0.16495E-06   -0.15113E-06 12880   0.636E-03
  27 F= -.14227016E+03 E0= -.14226917E+03  d E =-.223502E-05  mag=     0.0000
       N       E                     dE             d eps       ncg     rms          rms(c)
DAV:   1    -0.140401325920E+03    0.72809E-04   -0.43730E-04 14848   0.900E-02    0.394E-03
DAV:   2    -0.140401326015E+03   -0.95889E-07   -0.69783E-06 14816   0.116E-02
  28 F= -.14227016E+03 E0= -.14226918E+03  d E =-.281513E-05  mag=     0.0000
       N       E                     dE             d eps       ncg     rms          rms(c)
DAV:   1    -0.140401368336E+03   -0.42416E-04   -0.16162E-04 15136   0.544E-02    0.213E-03
DAV:   2    -0.140401368432E+03   -0.95979E-07   -0.27985E-06 13600   0.733E-03
  29 F= -.14227016E+03 E0= -.14226918E+03  d E =-.116768E-05  mag=     0.0000
       N       E                     dE             d eps       ncg     rms          rms(c)
DAV:   1    -0.140401479604E+03   -0.11127E-03   -0.10990E-03 14272   0.143E-01    0.715E-03
DAV:   2    -0.140401479451E+03    0.15305E-06   -0.15734E-05 14304   0.173E-02    0.475E-03
DAV:   3    -0.140401479562E+03   -0.11159E-06   -0.15410E-06 13024   0.632E-03
  30 F= -.14227016E+03 E0= -.14226918E+03  d E =-.172611E-05  mag=    -0.0000
       N       E                     dE             d eps       ncg     rms          rms(c)
DAV:   1    -0.140401433423E+03    0.46028E-04   -0.18873E-04 14720   0.593E-02    0.247E-03
DAV:   2    -0.140401433511E+03   -0.87747E-07   -0.32074E-06 14176   0.805E-03
  31 F= -.14227016E+03 E0= -.14226918E+03  d E =-.196789E-05  mag=    -0.0000
       N       E                     dE             d eps       ncg     rms          rms(c)
DAV:   1    -0.140401469635E+03   -0.36212E-04   -0.12249E-04 15152   0.478E-02    0.206E-03
DAV:   2    -0.140401469718E+03   -0.83267E-07   -0.22119E-06 13184   0.679E-03
  32 F= -.14227016E+03 E0= -.14226918E+03  d E =-.714339E-06  mag=    -0.0000
       N       E                     dE             d eps       ncg     rms          rms(c)
DAV:   1    -0.140401490555E+03   -0.20920E-04   -0.39018E-05 14368   0.275E-02    0.173E-03
DAV:   2    -0.140401490525E+03    0.29971E-07   -0.60660E-07  9536   0.410E-03
  33 F= -.14227016E+03 E0= -.14226918E+03  d E =-.719279E-06  mag=    -0.0000
       N       E                     dE             d eps       ncg     rms          rms(c)
DAV:   1    -0.140401529931E+03   -0.39377E-04   -0.11673E-04 14560   0.466E-02    0.242E-03
DAV:   2    -0.140401529917E+03    0.14157E-07   -0.18494E-06 13968   0.654E-03
  34 F= -.14227016E+03 E0= -.14226918E+03  d E =-.294589E-06  mag=    -0.0000
       N       E                     dE             d eps       ncg     rms          rms(c)
DAV:   1    -0.140401558562E+03   -0.28631E-04   -0.61739E-05 14464   0.340E-02    0.202E-03
DAV:   2    -0.140401558544E+03    0.18375E-07   -0.10067E-06 11792   0.539E-03
  35 F= -.14227016E+03 E0= -.14226918E+03  d E =-.357136E-06  mag=    -0.0000
       N       E                     dE             d eps       ncg     rms          rms(c)
DAV:   1    -0.140401593543E+03   -0.34981E-04   -0.88270E-05 14656   0.408E-02    0.228E-03
DAV:   2    -0.140401593541E+03    0.24525E-08   -0.15354E-06 12224   0.652E-03
  36 F= -.14227016E+03 E0= -.14226918E+03  d E =-.609003E-06  mag=    -0.0000
       N       E                     dE             d eps       ncg     rms          rms(c)
DAV:   1    -0.140401674412E+03   -0.80869E-04   -0.48475E-04 14480   0.951E-02    0.504E-03
DAV:   2    -0.140401674415E+03   -0.27590E-08   -0.76679E-06 14480   0.127E-02
  37 F= -.14227016E+03 E0= -.14226918E+03  d E =-.109748E-05  mag=    -0.0000
       N       E                     dE             d eps       ncg     rms          rms(c)
DAV:   1    -0.140401712237E+03   -0.37825E-04   -0.92726E-05 14656   0.419E-02    0.275E-03
DAV:   2    -0.140401712216E+03    0.21477E-07   -0.15996E-06 12192   0.701E-03
  38 F= -.14227016E+03 E0= -.14226918E+03  d E =-.470775E-06  mag=    -0.0000
       N       E                     dE             d eps       ncg     rms          rms(c)
DAV:   1    -0.140401778911E+03   -0.66674E-04   -0.30495E-04 14656   0.752E-02    0.419E-03
DAV:   2    -0.140401778915E+03   -0.37289E-08   -0.51353E-06 14656   0.111E-02
  39 F= -.14227016E+03 E0= -.14226918E+03  d E =-.835643E-06  mag=    -0.0000
       N       E                     dE             d eps       ncg     rms          rms(c)
DAV:   1    -0.140401827467E+03   -0.48556E-04   -0.15006E-04 14656   0.529E-02    0.335E-03
DAV:   2    -0.140401827442E+03    0.24611E-07   -0.29035E-06 14656   0.915E-03
  40 F= -.14227016E+03 E0= -.14226918E+03  d E =-.754397E-06  mag=    -0.0000
       N       E                     dE             d eps       ncg     rms          rms(c)
DAV:   1    -0.140401929234E+03   -0.10177E-03   -0.68964E-04 14464   0.112E-01    0.642E-03
DAV:   2    -0.140401929165E+03    0.69529E-07   -0.10777E-05 14544   0.157E-02    0.410E-03
DAV:   3    -0.140401929286E+03   -0.12112E-06   -0.19330E-06 12288   0.802E-03
  41 F= -.14227016E+03 E0= -.14226918E+03  d E =-.108782E-05  mag=     0.0000
       N       E                     dE             d eps       ncg     rms          rms(c)
DAV:   1    -0.140401899385E+03    0.29780E-04   -0.60975E-05 14208   0.340E-02    0.162E-03
DAV:   2    -0.140401899389E+03   -0.37262E-08   -0.16640E-06 12096   0.707E-03
  42 F= -.14227016E+03 E0= -.14226918E+03  d E =-.140820E-05  mag=     0.0000
       N       E                     dE             d eps       ncg     rms          rms(c)
DAV:   1    -0.140401907865E+03   -0.84803E-05   -0.58269E-06 14208   0.107E-02    0.449E-04
DAV:   2    -0.140401907905E+03   -0.40033E-07   -0.37047E-07 11552   0.343E-03
  43 F= -.14227016E+03 E0= -.14226918E+03  d E =-.145039E-05  mag=     0.0000
       N       E                     dE             d eps       ncg     rms          rms(c)
DAV:   1    -0.140401956758E+03   -0.48893E-04   -0.16095E-04 15696   0.544E-02    0.290E-03
DAV:   2    -0.140401956707E+03    0.51075E-07   -0.23899E-06 13312   0.676E-03
  44 F= -.14227016E+03 E0= -.14226918E+03  d E =-.156730E-06  mag=     0.0000
       N       E                     dE             d eps       ncg     rms          rms(c)
DAV:   1    -0.140402017026E+03   -0.60268E-04   -0.24023E-04 15024   0.667E-02    0.372E-03
DAV:   2    -0.140402016987E+03    0.39169E-07   -0.33597E-06 12848   0.805E-03
  45 F= -.14227016E+03 E0= -.14226918E+03  d E =-.429059E-07  mag=     0.0000
       N       E                     dE             d eps       ncg     rms          rms(c)
DAV:   1    -0.140401997444E+03    0.19582E-04   -0.29879E-05 14720   0.232E-02    0.105E-03
DAV:   2    -0.140401997461E+03   -0.16521E-07   -0.63361E-07  9952   0.348E-03
  46 F= -.14227016E+03 E0= -.14226918E+03  d E =-.271699E-06  mag=     0.0000
       N       E                     dE             d eps       ncg     rms          rms(c)
DAV:   1    -0.140401977161E+03    0.20283E-04   -0.26641E-05 15616   0.225E-02    0.124E-03
DAV:   2    -0.140401977154E+03    0.75970E-08   -0.36311E-07  9920   0.284E-03
  47 F= -.14227016E+03 E0= -.14226918E+03  d E =-.284685E-06  mag=     0.0000
       N       E                     dE             d eps       ncg     rms          rms(c)
DAV:   1    -0.140402021537E+03   -0.44376E-04   -0.14111E-04 14576   0.509E-02    0.258E-03
DAV:   2    -0.140402021508E+03    0.29109E-07   -0.22951E-06 12240   0.671E-03
  48 F= -.14227016E+03 E0= -.14226918E+03  d E =-.196544E-06  mag=    -0.0000
       N       E                     dE             d eps       ncg     rms          rms(c)
DAV:   1    -0.140402117324E+03   -0.95786E-04   -0.64991E-04 14208   0.110E-01    0.596E-03
DAV:   2    -0.140402117272E+03    0.51141E-07   -0.96548E-06 14208   0.136E-02
  49 F= -.14227016E+03 E0= -.14226918E+03  d E =0.566917E-06  mag=    -0.0000
       N       E                     dE             d eps       ncg     rms          rms(c)
DAV:   1    -0.140402061007E+03    0.56316E-04   -0.24225E-04 14208   0.665E-02    0.299E-03
DAV:   2    -0.140402061070E+03   -0.62851E-07   -0.45933E-06 14208   0.918E-03
  50 F= -.14227016E+03 E0= -.14226918E+03  d E =-.865458E-07  mag=     0.0000
       N       E                     dE             d eps       ncg     rms          rms(c)
DAV:   1    -0.140402048070E+03    0.12937E-04   -0.10699E-05 14992   0.146E-02    0.119E-03
DAV:   2    -0.140402048063E+03    0.67134E-08   -0.15016E-07  9696   0.218E-03
  51 F= -.14227016E+03 E0= -.14226918E+03  d E =-.503560E-07  mag=    -0.0000
       N       E                     dE             d eps       ncg     rms          rms(c)
DAV:   1    -0.140402093506E+03   -0.45436E-04   -0.14577E-04 14560   0.519E-02    0.258E-03
DAV:   2    -0.140402093507E+03   -0.11109E-08   -0.23563E-06 12192   0.701E-03
  52 F= -.14227016E+03 E0= -.14226918E+03  d E =-.310483E-06  mag=    -0.0000
       N       E                     dE             d eps       ncg     rms          rms(c)
DAV:   1    -0.140402176167E+03   -0.82661E-04   -0.47788E-04 14272   0.944E-02    0.510E-03
DAV:   2    -0.140402176143E+03    0.23332E-07   -0.71244E-06 14240   0.118E-02
  53 F= -.14227016E+03 E0= -.14226918E+03  d E =0.663049E-07  mag=    -0.0000
       N       E                     dE             d eps       ncg     rms          rms(c)
DAV:   1    -0.140402126181E+03    0.49985E-04   -0.18751E-04 14240   0.586E-02    0.252E-03
DAV:   2    -0.140402126262E+03   -0.80340E-07   -0.35778E-06 14192   0.843E-03
  54 F= -.14227016E+03 E0= -.14226918E+03  d E =-.382883E-06  mag=    -0.0000
       N       E                     dE             d eps       ncg     rms          rms(c)
DAV:   1    -0.140402117184E+03    0.89972E-05   -0.52854E-06 14944   0.106E-02    0.965E-04
DAV:   2    -0.140402117206E+03   -0.22115E-07   -0.19633E-07  9808   0.263E-03
  55 F= -.14227016E+03 E0= -.14226918E+03  d E =-.353251E-06  mag=    -0.0000
       N       E                     dE             d eps       ncg     rms          rms(c)
DAV:   1    -0.140402155562E+03   -0.38378E-04   -0.10736E-04 14240   0.446E-02    0.212E-03
DAV:   2    -0.140402155592E+03   -0.29816E-07   -0.18009E-06 12208   0.629E-03
  56 F= -.14227017E+03 E0= -.14226918E+03  d E =-.297630E-06  mag=     0.0000
       N       E                     dE             d eps       ncg     rms          rms(c)
DAV:   1    -0.140402249530E+03   -0.93968E-04   -0.64372E-04 14240   0.110E-01    0.580E-03
DAV:   2    -0.140402249503E+03    0.27041E-07   -0.98445E-06 14352   0.138E-02
  57 F= -.14227016E+03 E0= -.14226917E+03  d E =0.111788E-06  mag=    -0.0000
       N       E                     dE             d eps       ncg     rms          rms(c)
DAV:   1    -0.140402194267E+03    0.55263E-04   -0.23855E-04 14368   0.662E-02    0.282E-03
DAV:   2    -0.140402194364E+03   -0.97287E-07   -0.46323E-06 14208   0.950E-03
  58 F= -.14227017E+03 E0= -.14226918E+03  d E =-.390106E-06  mag=    -0.0000
       N       E                     dE             d eps       ncg     rms          rms(c)
DAV:   1    -0.140402184064E+03    0.10203E-04   -0.70335E-06 14656   0.122E-02    0.109E-03
DAV:   2    -0.140402184084E+03   -0.20191E-07   -0.22186E-07  9792   0.279E-03
  59 F= -.14227017E+03 E0= -.14226918E+03  d E =-.347199E-06  mag=    -0.0000
       N       E                     dE             d eps       ncg     rms          rms(c)
DAV:   1    -0.140402211265E+03   -0.27201E-04   -0.58406E-05 14272   0.331E-02    0.148E-03
DAV:   2    -0.140402211307E+03   -0.41383E-07   -0.10258E-06  9696   0.513E-03
  60 F= -.14227017E+03 E0= -.14226918E+03  d E =-.257327E-06  mag=    -0.0000
       N       E                     dE             d eps       ncg     rms          rms(c)
DAV:   1    -0.140402292024E+03   -0.80759E-04   -0.51238E-04 14224   0.984E-02    0.500E-03
DAV:   2    -0.140402291995E+03    0.29800E-07   -0.78144E-06 14448   0.124E-02
  61 F= -.14227017E+03 E0= -.14226917E+03  d E =-.544029E-07  mag=     0.0000
       N       E                     dE             d eps       ncg     rms          rms(c)
DAV:   1    -0.140402252203E+03    0.39821E-04   -0.13431E-04 14432   0.500E-02    0.197E-03
DAV:   2    -0.140402252318E+03   -0.11523E-06   -0.28241E-06 14176   0.759E-03
  62 F= -.14227017E+03 E0= -.14226917E+03  d E =-.391718E-06  mag=     0.0000
       N       E                     dE             d eps       ncg     rms          rms(c)
DAV:   1    -0.140402272893E+03   -0.20690E-04   -0.35189E-05 14624   0.255E-02    0.966E-04
DAV:   2    -0.140402272957E+03   -0.64077E-07   -0.70361E-07  9888   0.421E-03
  63 F= -.14227017E+03 E0= -.14226918E+03  d E =-.145918E-06  mag=     0.0000
       N       E                     dE             d eps       ncg     rms          rms(c)
DAV:   1    -0.140402334606E+03   -0.61712E-04   -0.29776E-04 14208   0.749E-02    0.379E-03
DAV:   2    -0.140402334537E+03    0.68099E-07   -0.45211E-06 14432   0.933E-03
  64 F= -.14227017E+03 E0= -.14226917E+03  d E =-.249830E-06  mag=     0.0000
       N       E                     dE             d eps       ncg     rms          rms(c)
DAV:   1    -0.140402361748E+03   -0.27142E-04   -0.56655E-05 14336   0.330E-02    0.209E-03
DAV:   2    -0.140402361713E+03    0.34951E-07   -0.79564E-07  9504   0.460E-03
  65 F= -.14227017E+03 E0= -.14226917E+03  d E =-.302244E-06  mag=    -0.0000
       N       E                     dE             d eps       ncg     rms          rms(c)
DAV:   1    -0.140402435908E+03   -0.74160E-04   -0.44712E-04 14368   0.919E-02    0.459E-03
DAV:   2    -0.140402435926E+03   -0.18487E-07   -0.69404E-06 14368   0.118E-02
  66 F= -.14227017E+03 E0= -.14226917E+03  d E =-.320980E-06  mag=     0.0000
       N       E                     dE             d eps       ncg     rms          rms(c)
DAV:   1    -0.140402406953E+03    0.28955E-04   -0.74403E-05 14464   0.373E-02    0.137E-03
DAV:   2    -0.140402407074E+03   -0.12084E-06   -0.18301E-06 14080   0.638E-03
  67 F= -.14227017E+03 E0= -.14226917E+03  d E =-.569661E-06  mag=     0.0000
       N       E                     dE             d eps       ncg     rms          rms(c)
DAV:   1    -0.140402432163E+03   -0.25210E-04   -0.54739E-05 14208   0.321E-02    0.134E-03
DAV:   2    -0.140402432208E+03   -0.44623E-07   -0.95506E-07  9824   0.480E-03
  68 F= -.14227017E+03 E0= -.14226917E+03  d E =-.126639E-06  mag=     0.0000
       N       E                     dE             d eps       ncg     rms          rms(c)
DAV:   1    -0.140402449645E+03   -0.17482E-04   -0.25153E-05 14336   0.223E-02    0.131E-03
DAV:   2    -0.140402449645E+03    0.57980E-09   -0.46239E-07  9504   0.359E-03
  69 F= -.14227017E+03 E0= -.14226917E+03  d E =-.121452E-06  mag=    -0.0000
       N       E                     dE             d eps       ncg     rms          rms(c)
DAV:   1    -0.140402478251E+03   -0.28606E-04   -0.64208E-05 14272   0.350E-02    0.184E-03
DAV:   2    -0.140402478256E+03   -0.48408E-08   -0.10765E-06  9520   0.525E-03
  70 F= -.14227017E+03 E0= -.14226917E+03  d E =-.323006E-06  mag=    -0.0000
       N       E                     dE             d eps       ncg     rms          rms(c)
DAV:   1    -0.140402498701E+03   -0.20450E-04   -0.32919E-05 14368   0.254E-02    0.146E-03
DAV:   2    -0.140402498718E+03   -0.16847E-07   -0.69809E-07  9984   0.454E-03
  71 F= -.14227017E+03 E0= -.14226917E+03  d E =-.332737E-06  mag=    -0.0000
       N       E                     dE             d eps       ncg     rms          rms(c)
DAV:   1    -0.140402530197E+03   -0.31495E-04   -0.73868E-05 14464   0.375E-02    0.206E-03
DAV:   2    -0.140402530211E+03   -0.14484E-07   -0.14116E-06 11760   0.609E-03
  72 F= -.14227017E+03 E0= -.14226917E+03  d E =-.126300E-06  mag=    -0.0000
       N       E                     dE             d eps       ncg     rms          rms(c)
DAV:   1    -0.140402540629E+03   -0.10432E-04   -0.81188E-06 14464   0.131E-02    0.101E-03
DAV:   2    -0.140402540656E+03   -0.27218E-07   -0.42908E-07 11744   0.379E-03
  73 F= -.14227017E+03 E0= -.14226917E+03  d E =-.173574E-06  mag=    -0.0000
       N       E                     dE             d eps       ncg     rms          rms(c)
DAV:   1    -0.140402563248E+03   -0.22619E-04   -0.41175E-05 14208   0.281E-02    0.165E-03
DAV:   2    -0.140402563261E+03   -0.12663E-07   -0.77006E-07  9696   0.456E-03
  74 F= -.14227017E+03 E0= -.14226917E+03  d E =-.355422E-06  mag=    -0.0000
