Lattice                                 
           1
     4.330127    2.500000    0.000000
    -4.330127    2.500000    0.000000
     0.000000    0.000000   15.000000
   B    C 
     4    11
Direct configuration=     1
   0.00415361  0.00267210  0.12034134
   0.35695335  0.00285503  0.09748893
   0.00423858  0.35550699  0.09749256
   0.65142295  0.65006557  0.09747688
   0.32808646  0.32671938  0.10030508
   0.68027775  0.00278085  0.10027562
   0.00416530  0.67883808  0.10026559
   0.99999933  0.49999967  0.32666667
   0.16666633  0.33333267  0.32666667
   0.99999933  0.99999967  0.32666667
   0.16666633  0.83333267  0.32666667
   0.49999933  0.49999967  0.32666667
   0.66666633  0.33333267  0.32666667
   0.49999933  0.99999967  0.32666667
   0.66666633  0.83333267  0.32666667
Lattice                                 
           1
     3.929891    2.269046    0.000051
    -3.929821    2.268926    0.000035
     0.000028    0.000257   15.005528
   B    C 
     4    11
Direct configuration=     2
   0.00416992  0.00272493  0.11840083
   0.35506848  0.00318520  0.09795588
   0.00383598  0.35325607  0.09795732
   0.65367104  0.65192645  0.09794713
   0.32224553  0.32036340  0.10024717
   0.68659757  0.00327937  0.10022787
   0.00369460  0.68469254  0.10022055
   0.00015394  0.49989870  0.32673422
   0.16681324  0.33401779  0.32684163
   0.00000332  0.99999609  0.32662915
   0.16719859  0.83318532  0.32684532
   0.50011906  0.50027356  0.32673784
   0.66666909  0.33333974  0.32666072
   0.49974534  0.99984124  0.32673330
   0.66597496  0.83278694  0.32684042
Lattice                                 
           1
     4.202798    2.426526    0.000016
    -4.202776    2.426488    0.000011
     0.000009    0.000082   15.001759
   B    C 
     4    11
Direct configuration=     3
   0.00415759  0.00268517  0.11972351
   0.35648459  0.00293712  0.09763760
   0.00413845  0.35494723  0.09764053
   0.65198211  0.65052840  0.09762661
   0.32663371  0.32513863  0.10028662
   0.68184956  0.00290495  0.10026043
   0.00404827  0.68029398  0.10025126
   0.00003779  0.49997456  0.32668817
   0.16670288  0.33350306  0.32672237
   0.00000032  0.99999878  0.32665472
   0.16679872  0.83329604  0.32672355
   0.50002912  0.50006779  0.32668933
   0.66666702  0.33333442  0.32666477
   0.49993616  0.99996026  0.32668788
   0.66649438  0.83319695  0.32672198
Lattice                                 
           1
     4.194018    2.421459    0.000017
    -4.193995    2.421419    0.000012
     0.000010    0.000087   15.001880
   B    C 
     4    11
Direct configuration=     4
   0.00415796  0.00268637  0.11968094
   0.35644199  0.00294458  0.09764784
   0.00412935  0.35489636  0.09765072
   0.65203292  0.65057046  0.09763692
   0.32650170  0.32499497  0.10028535
   0.68199239  0.00291622  0.10025939
   0.00403763  0.68042629  0.10025027
   0.00004128  0.49997228  0.32668966
   0.16670620  0.33351854  0.32672621
   0.00000041  0.99999870  0.32665390
   0.16681075  0.83329271  0.32672747
   0.50003182  0.50007398  0.32669089
   0.66666708  0.33333458  0.32666464
   0.49993042  0.99995668  0.32668934
   0.66647876  0.83318461  0.32672579
Lattice                                 
           1
     4.192706    2.420702    0.000017
    -4.192683    2.420661    0.000012
     0.000010    0.000088   15.001898
   B    C 
     4    11
Direct configuration=     5
   0.00415801  0.00268654  0.11967458
   0.35643561  0.00294570  0.09764937
   0.00412799  0.35488874  0.09765225
   0.65204053  0.65057676  0.09763847
   0.32648193  0.32497346  0.10028516
   0.68201378  0.00291791  0.10025923
   0.00403604  0.68044611  0.10025012
   0.00004181  0.49997194  0.32668988
   0.16670670  0.33352086  0.32672678
   0.00000043  0.99999868  0.32665377
   0.16681255  0.83329221  0.32672805
   0.50003223  0.50007490  0.32669112
   0.66666709  0.33333461  0.32666462
   0.49992956  0.99995615  0.32668956
   0.66647642  0.83318276  0.32672636
Lattice                                 
           1
     4.192156    2.420354    0.000057
    -4.192139    2.420323    0.000049
     0.000013    0.000326   15.008959
   B    C 
     4    11
Direct configuration=     6
   0.00417595  0.00274876  0.11900571
   0.35721130  0.00310443  0.09781761
   0.00388924  0.35547572  0.09781923
   0.65145543  0.64976780  0.09780895
   0.32746067  0.32567937  0.10018412
   0.68128305  0.00317317  0.10016397
   0.00380623  0.67947818  0.10015613
  -0.00000564  0.50004965  0.32675127
   0.16675677  0.33342418  0.32682188
  -0.00000374  0.99999804  0.32664591
   0.16667365  0.83324904  0.32682544
   0.49995111  0.49994681  0.32675475
   0.66666913  0.33333426  0.32665311
   0.50005202  0.00000551  0.32675040
   0.66658552  0.83333240  0.32682087
Lattice                                 
           1
     4.192016    2.420265    0.000067
    -4.192000    2.420237    0.000059
     0.000014    0.000387   15.010757
   B    C 
     4    11
Direct configuration=     7
   0.00418052  0.00276461  0.11883551
   0.35740879  0.00314485  0.09786042
   0.00382845  0.35562517  0.09786172
   0.65130646  0.64956184  0.09785233
   0.32770986  0.32585910  0.10015841
   0.68109701  0.00323816  0.10013973
   0.00374772  0.67923174  0.10013221
  -0.00001772  0.50006944  0.32676690
   0.16676952  0.33339957  0.32684607
  -0.00000480  0.99999787  0.32664391
   0.16663828  0.83323805  0.32685022
   0.49993045  0.49991419  0.32677095
   0.66666965  0.33333418  0.32665018
   0.50008319  0.00001807  0.32676587
   0.66661329  0.83337050  0.32684491
Lattice                                 
           1
     4.192086    2.420308    0.000092
    -4.192068    2.420277    0.000076
     0.000029    0.000519   15.015114
   B    C 
     4    11
Direct configuration=     8
   0.00418519  0.00278745  0.11836553
   0.35755363  0.00320541  0.09794851
   0.00373119  0.35569906  0.09794910
   0.65124193  0.64940367  0.09794163
   0.32772620  0.32577885  0.10012617
   0.68116834  0.00332154  0.10011088
   0.00366453  0.67922452  0.10010402
   0.00001686  0.50001768  0.32680820
   0.16672067  0.33344914  0.32689725
   0.00000200  0.00000016  0.32665694
   0.16673132  0.83328381  0.32690240
   0.49998912  0.50000219  0.32681319
   0.66666874  0.33333534  0.32665286
   0.50000369 -0.00001341  0.32680685
   0.66655724  0.83327192  0.32689580
Lattice                                 
           1
     4.192295    2.420436    0.000169
    -4.192272    2.420395    0.000127
     0.000076    0.000914   15.028183
   B    C 
     4    11
Direct configuration=     9
   0.00419925  0.00285598  0.11695600
   0.35798815  0.00338709  0.09821271
   0.00343940  0.35592075  0.09821118
   0.65104834  0.64892919  0.09820947
   0.32777524  0.32553809  0.10002948
   0.68138236  0.00357166  0.10002436
   0.00341497  0.67920285  0.10001947
   0.00012063  0.49986241  0.32693208
   0.16657412  0.33359787  0.32705072
   0.00002241  0.00000703  0.32669603
   0.16701045  0.83342112  0.32705890
   0.50016512  0.50026619  0.32693990
   0.66666600  0.33333883  0.32666090
   0.49976518 -0.00010788  0.32692974
   0.66638906  0.83297616  0.32704840
Lattice                                 
           1
     4.192714    2.420693    0.000323
    -4.192679    2.420633    0.000228
     0.000169    0.001705   15.054322
   B    C 
     4    11
Direct configuration=    10
   0.00422761  0.00299325  0.11413938
   0.35885711  0.00375039  0.09874066
   0.00285581  0.35636406  0.09873487
   0.65066113  0.64798023  0.09874467
   0.32787331  0.32505660  0.09983626
   0.68181038  0.00407191  0.09985146
   0.00291589  0.67915953  0.09985052
   0.00032812  0.49955187  0.32717962
   0.16628101  0.33389529  0.32735741
   0.00006322  0.00002076  0.32677413
   0.16756863  0.83369568  0.32737163
   0.50051707  0.50079413  0.32719310
   0.66666052  0.33334581  0.32667696
   0.49928816 -0.00029680  0.32717532
   0.66605271  0.83238464  0.32735336
Lattice                                 
           1
     4.192902    2.420790    0.000341
    -4.192875    2.420744    0.000237
     0.000185    0.001788   15.057141
   B    C 
     4    11
Direct configuration=    11
   0.00422898  0.00300163  0.11382845
   0.35891464  0.00376897  0.09878788
   0.00282244  0.35640036  0.09878175
   0.65063070  0.64791657  0.09879250
   0.32786297  0.32502185  0.09982566
   0.68184166  0.00408895  0.09984281
   0.00289471  0.67917437  0.09984220
   0.00030230  0.49959607  0.32720664
   0.16632284  0.33386030  0.32738627
   0.00005831  0.00001958  0.32679295
   0.16750010  0.83366010  0.32740086
   0.50046839  0.50072397  0.32722045
   0.66666378  0.33334612  0.32668669
   0.49935224 -0.00027304  0.32720217
   0.66609662  0.83246152  0.32738207
Lattice                                 
           1
     4.193465    2.421078    0.000394
    -4.193464    2.421076    0.000264
     0.000233    0.002036   15.065599
   B    C 
     4    11
Direct configuration=    12
   0.00423309  0.00302675  0.11289582
   0.35908722  0.00382472  0.09892953
   0.00272233  0.35650924  0.09892234
   0.65053940  0.64772561  0.09893596
   0.32783192  0.32491762  0.09979388
   0.68193551  0.00414008  0.09981686
   0.00283117  0.67921889  0.09981727
   0.00022483  0.49972870  0.32728770
   0.16644833  0.33375533  0.32747282
   0.00004360  0.00001606  0.32684940
   0.16729451  0.83355337  0.32748854
   0.50032236  0.50051349  0.32730248
   0.66667358  0.33334708  0.32671586
   0.49954449 -0.00020174  0.32728269
   0.66622833  0.83269214  0.32746819
Lattice                                 
           1
     4.194590    2.421654    0.000501
    -4.194641    2.421741    0.000317
     0.000328    0.002533   15.082515
   B    C 
     4    11
Direct configuration=    13
   0.00424141  0.00307708  0.11103162
   0.35943233  0.00393619  0.09921266
   0.00252212  0.35672697  0.09920336
   0.65035680  0.64734371  0.09922271
   0.32776984  0.32470919  0.09973034
   0.68212319  0.00424232  0.09976498
   0.00270410  0.67930791  0.09976744
   0.00006992  0.49999389  0.32744972
   0.16669927  0.33354541  0.32764583
   0.00001417  0.00000902  0.32696224
   0.16688337  0.83333994  0.32766380
   0.50003033  0.50009258  0.32746645
   0.66669317  0.33334898  0.32677419
   0.49992893 -0.00005918  0.32744365
   0.66649172  0.83315332  0.32764033
Lattice                                 
           1
     4.195077    2.421904    0.000547
    -4.195149    2.422029    0.000341
     0.000369    0.002747   15.089824
   B    C 
     4    11
Direct configuration=    14
   0.00424510  0.00309890  0.11022710
   0.35958138  0.00398433  0.09933485
   0.00243563  0.35682100  0.09932464
   0.65027791  0.64717874  0.09934646
   0.32774303  0.32461916  0.09970292
   0.68220426  0.00428649  0.09974259
   0.00264922  0.67934636  0.09974594
   0.00000300  0.50010843  0.32751964
   0.16680765  0.33345474  0.32772050
   0.00000145  0.00000597  0.32701094
   0.16670578  0.83324774  0.32773944
   0.49990418  0.49991077  0.32753722
   0.66670163  0.33334980  0.32679936
   0.50009497  0.00000240  0.32751312
   0.66660548  0.83335251  0.32771462
Lattice                                 
           1
     4.195230    2.422020    0.000565
    -4.195283    2.422113    0.000341
     0.000401    0.002806   15.091835
   B    C 
     4    11
Direct configuration=    15
   0.00424015  0.00307897  0.10995702
   0.35953561  0.00391365  0.09933163
   0.00253572  0.35685905  0.09932175
   0.65023605  0.64723018  0.09934281
   0.32779518  0.32480388  0.09973549
   0.68202518  0.00415763  0.09977527
   0.00276390  0.67928869  0.09977853
   0.00000538  0.50009293  0.32753973
   0.16677053  0.33341758  0.32772645
   0.00001125  0.00000931  0.32706902
   0.16668966  0.83327357  0.32774438
   0.49993145  0.49992381  0.32755618
   0.66669315  0.33334748  0.32684710
   0.50009553  0.00001409  0.32753322
   0.66663194  0.83335653  0.32772076
Lattice                                 
           1
     4.195690    2.422370    0.000620
    -4.195687    2.422365    0.000344
     0.000494    0.002982   15.097867
   B    C 
     4    11
Direct configuration=    16
   0.00422531  0.00301920  0.10914689
   0.35939829  0.00370162  0.09932196
   0.00283597  0.35697322  0.09931307
   0.65011045  0.64738447  0.09933185
   0.32795164  0.32535802  0.09983319
   0.68148796  0.00377107  0.09987328
   0.00310790  0.67911565  0.09987630
   0.00001251  0.50004643  0.32759998
   0.16665919  0.33330611  0.32774429
   0.00004064  0.00001931  0.32724324
   0.16664130  0.83335106  0.32775921
   0.50001326  0.49996294  0.32761306
   0.66666774  0.33334049  0.32699030
   0.50009720  0.00004916  0.32759353
   0.66671132  0.83336859  0.32773917
Lattice                                 
           1
     4.196609    2.423069    0.000729
    -4.196493    2.422869    0.000348
     0.000682    0.003334   15.109932
   B    C 
     4    11
Direct configuration=    17
   0.00419571  0.00289972  0.10752728
   0.35912369  0.00327761  0.09930262
   0.00343641  0.35720151  0.09929573
   0.64985930  0.64769302  0.09930995
   0.32826449  0.32646619  0.10002851
   0.68041365  0.00299804  0.10006924
   0.00379581  0.67876960  0.10007176
   0.00002675  0.49995343  0.32772042
   0.16643654  0.33308319  0.32777997
   0.00009941  0.00003929  0.32759156
   0.16654459  0.83350602  0.32778885
   0.50017686  0.50004120  0.32772676
   0.66661689  0.33332652  0.32727658
   0.50010053  0.00011929  0.32771410
   0.66687005  0.83339270  0.32777599
Lattice                                 
           1
     4.195464    2.422149    0.000764
    -4.195520    2.422247    0.000348
     0.000746    0.003445   15.112552
   B    C 
     4    11
Direct configuration=    18
   0.00418301  0.00285697  0.10701577
   0.35893786  0.00311779  0.09927592
   0.00369233  0.35718729  0.09927074
   0.64983055  0.64792028  0.09928125
   0.32797995  0.32641286  0.10009694
   0.68046947  0.00281660  0.10013390
   0.00398598  0.67898791  0.10013551
   0.00004469  0.50000418  0.32774350
   0.16676205  0.33349351  0.32779953
  -0.00001524  0.00000358  0.32771162
   0.16684068  0.83333586  0.32780562
   0.49998806  0.50006985  0.32774704
   0.66673795  0.33336556  0.32742767
   0.49992008 -0.00006093  0.32773800
   0.66660324  0.83325602  0.32779635
Lattice                                 
           1
     4.195324    2.422037    0.000769
    -4.195402    2.422172    0.000348
     0.000753    0.003459   15.112871
   B    C 
     4    11
Direct configuration=    19
   0.00418147  0.00285177  0.10695355
   0.35891524  0.00309834  0.09927267
   0.00372348  0.35718556  0.09926770
   0.64982705  0.64794794  0.09927776
   0.32794532  0.32640636  0.10010526
   0.68047626  0.00279452  0.10014176
   0.00400913  0.67901447  0.10014326
   0.00004688  0.50001036  0.32774630
   0.16680166  0.33354344  0.32780191
  -0.00002919 -0.00000077  0.32772623
   0.16687672  0.83331515  0.32780765
   0.49996509  0.50007334  0.32774950
   0.66675268  0.33337031  0.32744605
   0.49989812 -0.00008286  0.32774090
   0.66657077  0.83323939  0.32779883
Lattice                                 
           1
     4.194956    2.421993    0.000784
    -4.194928    2.421944    0.000347
     0.000783    0.003504   15.112635
   B    C 
     4    11
Direct configuration=    20
   0.00417282  0.00282965  0.10678816
   0.35890139  0.00305849  0.09926559
   0.00380306  0.35720326  0.09926191
   0.64977058  0.64798496  0.09926915
   0.32774157  0.32618780  0.10010846
   0.68069702  0.00284989  0.10014043
   0.00398700  0.67918232  0.10014118
   0.00007842  0.50002447  0.32774958
   0.16671810  0.33347099  0.32782269
   0.00004607  0.00002099  0.32775937
   0.16675887  0.83330254  0.32782733
   0.50004834  0.50005716  0.32775169
   0.66667578  0.33334603  0.32752879
   0.50001274 -0.00001151  0.32774480
   0.66654890  0.83326030  0.32782020
Lattice                                 
           1
     4.194877    2.421983    0.000787
    -4.194827    2.421896    0.000347
     0.000790    0.003513   15.112585
   B    C 
     4    11
Direct configuration=    21
   0.00417097  0.00282492  0.10675280
   0.35889843  0.00304996  0.09926407
   0.00382008  0.35720704  0.09926067
   0.64975851  0.64799288  0.09926731
   0.32769801  0.32614107  0.10010914
   0.68074422  0.00286172  0.10014014
   0.00398226  0.67921821  0.10014073
   0.00008517  0.50002749  0.32775028
   0.16670023  0.33345550  0.32782713
   0.00006216  0.00002564  0.32776645
   0.16673368  0.83329984  0.32783154
   0.50006614  0.50005370  0.32775216
   0.66665933  0.33334084  0.32754648
   0.50003724  0.00000374  0.32774563
   0.66654423  0.83326477  0.32782477
Lattice                                 
           1
     4.194720    2.421964    0.000794
    -4.194625    2.421799    0.000347
     0.000802    0.003532   15.112484
   B    C 
     4    11
Direct configuration=    22
   0.00416727  0.00281546  0.10668209
   0.35889250  0.00303292  0.09926105
   0.00385411  0.35721460  0.09925820
   0.64973437  0.64800871  0.09926363
   0.32761089  0.32604761  0.10011051
   0.68083862  0.00288540  0.10013957
   0.00397280  0.67928998  0.10013985
   0.00009866  0.50003352  0.32775168
   0.16666450  0.33342452  0.32783602
   0.00009435  0.00003494  0.32778062
   0.16668329  0.83329445  0.32783995
   0.50010174  0.50004678  0.32775310
   0.66662645  0.33333046  0.32758186
   0.50008625  0.00003425  0.32774729
   0.66653488  0.83327372  0.32783391
Lattice                                 
           1
     4.194832    2.421978    0.000789
    -4.194768    2.421868    0.000347
     0.000793    0.003519   15.112556
   B    C 
     4    11
Direct configuration=    23
   0.00416989  0.00282218  0.10673233
   0.35889671  0.00304503  0.09926320
   0.00382993  0.35720923  0.09925996
   0.64975152  0.64799746  0.09926625
   0.32767278  0.32611401  0.10010953
   0.68077156  0.00286858  0.10013998
   0.00397952  0.67923899  0.10014048
   0.00008907  0.50002924  0.32775068
   0.16668988  0.33344653  0.32782971
   0.00007148  0.00002833  0.32777055
   0.16671909  0.83329828  0.32783398
   0.50007645  0.50005170  0.32775244
   0.66664981  0.33333783  0.32755673
   0.50005144  0.00001258  0.32774611
   0.66654152  0.83326736  0.32782742
Lattice                                 
           1
     4.195198    2.422107    0.000806
    -4.195194    2.422101    0.000344
     0.000827    0.003561   15.111404
   B    C 
     4    11
Direct configuration=    24
   0.00415741  0.00278852  0.10659596
   0.35898163  0.00303362  0.09926279
   0.00386812  0.35730245  0.09926085
   0.64962530  0.64792856  0.09926416
   0.32764539  0.32600766  0.10008955
   0.68088716  0.00298301  0.10011407
   0.00390206  0.67924885  0.10011366
   0.00003109  0.49999464  0.32776225
   0.16667660  0.33337532  0.32785477
   0.00003318  0.00001801  0.32779469
   0.16672826  0.83336364  0.32785837
   0.50005843  0.50004231  0.32776345
   0.66668988  0.33334963  0.32763306
   0.50001075  0.00002216  0.32775853
   0.66666540  0.83330896  0.32785318
Lattice                                 
           1
     4.195562    2.422236    0.000822
    -4.195618    2.422334    0.000341
     0.000861    0.003603   15.110259
   B    C 
     4    11
Direct configuration=    25
   0.00414500  0.00275505  0.10646034
   0.35906607  0.00302228  0.09926238
   0.00390609  0.35739513  0.09926174
   0.64949980  0.64786004  0.09926209
   0.32761815  0.32590192  0.10006967
   0.68100211  0.00309678  0.10008830
   0.00382505  0.67925866  0.10008699
  -0.00002656  0.49996025  0.32777375
   0.16666340  0.33330451  0.32787969
  -0.00000491  0.00000775  0.32781870
   0.16673739  0.83342863  0.32788263
   0.50004051  0.50003297  0.32777440
   0.66672972  0.33336135  0.32770897
   0.49997029  0.00003168  0.32777087
   0.66678856  0.83335033  0.32787880
Lattice                                 
           1
     4.195738    2.422363    0.000836
    -4.195780    2.422436    0.000339
     0.000891    0.003640   15.108885
   B    C 
     4    11
Direct configuration=    26
   0.00413498  0.00272695  0.10634986
   0.35913977  0.00302564  0.09926308
   0.00391638  0.35746656  0.09926336
   0.64941022  0.64779352  0.09926147
   0.32767635  0.32589938  0.10004586
   0.68101359  0.00317603  0.10005949
   0.00376659  0.67919923  0.10005748
   0.00000722  0.49997723  0.32779414
   0.16667764  0.33334404  0.32789922
   0.00000385  0.00001073  0.32783916
   0.16675032  0.83340417  0.32790191
   0.50003630  0.50004806  0.32779466
   0.66672280  0.33336026  0.32775889
   0.49996669  0.00000772  0.32779193
   0.66673798  0.83332780  0.32789883
Lattice                                 
           1
     4.196268    2.422744    0.000878
    -4.196267    2.422742    0.000332
     0.000979    0.003753   15.104763
   B    C 
     4    11
Direct configuration=    27
   0.00410495  0.00264264  0.10601837
   0.35936085  0.00303574  0.09926517
   0.00394724  0.35768084  0.09926825
   0.64914148  0.64759397  0.09925961
   0.32785093  0.32589176  0.09997440
   0.68104805  0.00341376  0.09997305
   0.00359122  0.67902096  0.09996893
   0.00010855  0.50002818  0.32785534
   0.16672033  0.33346260  0.32795780
   0.00003012  0.00001970  0.32790054
   0.16678912  0.83333078  0.32795973
   0.50002367  0.50009334  0.32785547
   0.66670202  0.33335699  0.32790866
   0.49995591 -0.00006416  0.32785510
   0.66658623  0.83326023  0.32795892
Lattice                                 
           1
     4.195862    2.422544    0.000900
    -4.195833    2.422494    0.000332
     0.001020    0.003820   15.102133
   B    C 
     4    11
Direct configuration=    28
   0.00409768  0.00262221  0.10584279
   0.35936918  0.00305919  0.09926127
   0.00393344  0.35766985  0.09926526
   0.64914475  0.64759033  0.09925420
   0.32789844  0.32591275  0.09993578
   0.68103076  0.00344657  0.09992792
   0.00356317  0.67897449  0.09992293
   0.00009611  0.50002931  0.32790600
   0.16672261  0.33346979  0.32798608
   0.00004327  0.00002232  0.32793461
   0.16677252  0.83331401  0.32798821
   0.50004124  0.50007394  0.32790654
   0.66668834  0.33335166  0.32795357
   0.49999380 -0.00003134  0.32790646
   0.66656535  0.83326226  0.32798770
Lattice                                 
           1
     4.194646    2.421946    0.000966
    -4.194533    2.421750    0.000331
     0.001140    0.004024   15.094241
   B    C 
     4    11
Direct configuration=    29
   0.00407590  0.00256091  0.10531598
   0.35939415  0.00312955  0.09924957
   0.00389202  0.35763687  0.09925629
   0.64915459  0.64757941  0.09923798
   0.32804100  0.32597572  0.09981992
   0.68097888  0.00354503  0.09979252
   0.00347902  0.67883505  0.09978491
   0.00005878  0.50003269  0.32805802
   0.16672946  0.33349137  0.32807093
   0.00008269  0.00003020  0.32803686
   0.16672271  0.83326369  0.32807365
   0.50009394  0.50001571  0.32805979
   0.66664731  0.33333566  0.32808833
   0.50010750  0.00006713  0.32806054
   0.66650272  0.83326833  0.32807406
Lattice                                 
           1
     4.192214    2.420750    0.001098
    -4.191932    2.420262    0.000329
     0.001382    0.004431   15.078458
   B    C 
     4    11
Direct configuration=    30
   0.00403238  0.00243832  0.10426180
   0.35944412  0.00327032  0.09922616
   0.00380916  0.35757091  0.09923834
   0.64917426  0.64755755  0.09920551
   0.32832620  0.32610170  0.09958808
   0.68087511  0.00374202  0.09952158
   0.00331070  0.67855609  0.09950873
  -0.00001592  0.50003945  0.32836221
   0.16674314  0.33353455  0.32824071
   0.00016156  0.00004595  0.32824145
   0.16662306  0.83316302  0.32824461
   0.50019935  0.49989921  0.32836646
   0.66656520  0.33330366  0.32835799
   0.50033494  0.00026412  0.32836886
   0.66637742  0.83328048  0.32824686
Lattice                                 
           1
     4.193942    2.421600    0.001004
    -4.193780    2.421319    0.000331
     0.001210    0.004142   15.089674
   B    C 
     4    11
Direct configuration=    31
   0.00406324  0.00252545  0.10501171
   0.35940859  0.00317022  0.09924281
   0.00386807  0.35761781  0.09925111
   0.64916027  0.64757309  0.09922861
   0.32812340  0.32601212  0.09975301
   0.68094887  0.00360193  0.09971432
   0.00343036  0.67875443  0.09970520
   0.00003721  0.50003465  0.32814582
   0.16673343  0.33350385  0.32811993
   0.00010550  0.00003476  0.32809591
   0.16669392  0.83323461  0.32812299
   0.50012443  0.49998207  0.32814831
   0.66662360  0.33332643  0.32816616
   0.50017325  0.00012407  0.32814953
   0.66646652  0.83327185  0.32812393
Lattice                                 
           1
     4.193950    2.421572    0.001018
    -4.193807    2.421324    0.000332
     0.001234    0.004190   15.087826
   B    C 
     4    11
Direct configuration=    32
   0.00406226  0.00252338  0.10489472
   0.35939550  0.00318441  0.09923656
   0.00385742  0.35759155  0.09924526
   0.64918430  0.64758761  0.09922163
   0.32812339  0.32601695  0.09972963
   0.68094251  0.00359747  0.09968744
   0.00343253  0.67875080  0.09967784
   0.00002756  0.50002641  0.32817893
   0.16673387  0.33349201  0.32814210
   0.00009212  0.00003173  0.32811716
   0.16670765  0.83325389  0.32814537
   0.50011411  0.49998668  0.32818175
   0.66663950  0.33333198  0.32819169
   0.50015047  0.00011480  0.32818294
   0.66649747  0.83327766  0.32814632
Lattice                                 
           1
     4.193972    2.421487    0.001061
    -4.193886    2.421340    0.000335
     0.001305    0.004336   15.082280
   B    C 
     4    11
Direct configuration=    33
   0.00405934  0.00251719  0.10454371
   0.35935624  0.00322698  0.09921781
   0.00382546  0.35751275  0.09922770
   0.64925639  0.64763118  0.09920069
   0.32812335  0.32603145  0.09965948
   0.68092344  0.00358409  0.09960678
   0.00343906  0.67873990  0.09959577
  -0.00000140  0.50000170  0.32827829
   0.16673518  0.33345647  0.32820861
   0.00005198  0.00002265  0.32818092
   0.16674883  0.83331172  0.32821250
   0.50008315  0.50000050  0.32828210
   0.66668720  0.33334864  0.32826830
   0.50008213  0.00008701  0.32828317
   0.66659031  0.83329512  0.32821348
Lattice                                 
           1
     4.194016    2.421318    0.001146
    -4.194046    2.421370    0.000342
     0.001447    0.004627   15.071190
   B    C 
     4    11
Direct configuration=    34
   0.00405354  0.00250481  0.10384144
   0.35927771  0.00331212  0.09918029
   0.00376155  0.35735516  0.09919257
   0.64940058  0.64771830  0.09915880
   0.32812327  0.32606046  0.09951914
   0.68088531  0.00355733  0.09944541
   0.00345211  0.67871810  0.09943157
  -0.00005932  0.49995226  0.32847708
   0.16673781  0.33338538  0.32834167
  -0.00002831  0.00000449  0.32830849
   0.16683117  0.83342739  0.32834682
   0.50002122  0.50002815  0.32848288
   0.66678260  0.33338196  0.32842157
   0.49994544  0.00003140  0.32848372
   0.66677599  0.83333002  0.32834786
Lattice                                 
           1
     4.194103    2.420979    0.001317
    -4.194365    2.421432    0.000356
     0.001731    0.005209   15.049008
   B    C 
     4    11
Direct configuration=    35
   0.00404203  0.00248012  0.10243587
   0.35912067  0.00348238  0.09910520
   0.00363373  0.35703998  0.09912226
   0.64968897  0.64789257  0.09907495
   0.32812315  0.32611848  0.09923826
   0.68080907  0.00350382  0.09912243
   0.00347825  0.67867453  0.09910293
  -0.00017521  0.49985336  0.32887496
   0.16674303  0.33324320  0.32860800
  -0.00018892 -0.00003185  0.32856382
   0.16699586  0.83365871  0.32861566
   0.49989732  0.50008343  0.32888472
   0.66697337  0.33344858  0.32872834
   0.49967202 -0.00007982  0.32888511
   0.66714733  0.83339983  0.32861681
Lattice                                 
           1
     4.194051    2.421183    0.001215
    -4.194173    2.421395    0.000348
     0.001560    0.004858   15.062361
   B    C 
     4    11
Direct configuration=    36
   0.00404883  0.00249491  0.10328324
   0.35921520  0.00337990  0.09915047
   0.00371068  0.35722970  0.09916465
   0.64951535  0.64778765  0.09912550
   0.32812320  0.32608354  0.09940759
   0.68085494  0.00353601  0.09931714
   0.00346249  0.67870074  0.09930106
  -0.00010540  0.49991292  0.32863510
   0.16673991  0.33332880  0.32844744
  -0.00009221 -0.00000995  0.32840989
   0.16689674  0.83351948  0.32845359
   0.49997195  0.50005018  0.32864247
   0.66685855  0.33340849  0.32854340
   0.49983666 -0.00001284  0.32864312
   0.66692380  0.83335781  0.32845467
Lattice                                 
           1
     4.194355    2.421399    0.001244
    -4.194452    2.421567    0.000351
     0.001607    0.004963   15.058423
   B    C 
     4    11
Direct configuration=    37
   0.00405107  0.00250325  0.10304280
   0.35919888  0.00339653  0.09913103
   0.00369409  0.35719534  0.09914568
   0.64954718  0.64780172  0.09910505
   0.32810307  0.32609363  0.09936389
   0.68083938  0.00350255  0.09926796
   0.00348696  0.67871349  0.09925115
  -0.00006677  0.49992937  0.32869638
   0.16672352  0.33332579  0.32850140
  -0.00007150 -0.00000297  0.32845160
   0.16687875  0.83351244  0.32850788
   0.49998234  0.50006444  0.32870437
   0.66684070  0.33340422  0.32859652
   0.49984924 -0.00002469  0.32870473
   0.66690374  0.83335221  0.32850888
Lattice                                 
           1
     4.195270    2.422050    0.001332
    -4.195290    2.422085    0.000362
     0.001749    0.005275   15.046609
   B    C 
     4    11
Direct configuration=    38
   0.00405783  0.00252827  0.10232132
   0.35914994  0.00344643  0.09907270
   0.00364434  0.35709225  0.09908875
   0.64964268  0.64784393  0.09904368
   0.32804269  0.32612391  0.09923275
   0.68079273  0.00340219  0.09912039
   0.00356038  0.67875176  0.09910140
   0.00004911  0.49997870  0.32888029
   0.16667436  0.33331675  0.32866332
  -0.00000937  0.00001798  0.32857674
   0.16682477  0.83349135  0.32867082
   0.50001351  0.50010721  0.32889015
   0.66678714  0.33339141  0.32875590
   0.49988698 -0.00006024  0.32888960