 ----------------------------------------------------
    OOO  PPPP  EEEEE N   N M   M PPPP
   O   O P   P E     NN  N MM MM P   P
   O   O PPPP  EEEEE N N N M M M PPPP   -- VERSION
   O   O P     E     N  NN M   M P
    OOO  P     EEEEE N   N M   M P
 ----------------------------------------------------
 running   48 mpi-ranks, with    1 threads/rank
 distrk:  each k-point on   48 cores,    1 groups
 distr:  one band on    1 cores,   48 groups
 vasp.6.3.2 27Jun22 (build Dec 22 2022 13:13:19) complex                        
  
 POSCAR found type information on POSCAR B C 
 POSCAR found :  2 types and      16 ions
 Reading from existing POTCAR
 scaLAPACK will be used
 Reading from existing POTCAR
 LDA part: xc-table for Pade appr. of Perdew
 POSCAR found type information on POSCAR B C 
 POSCAR found :  2 types and      16 ions
 WARNING: stress and forces are not correct
 POSCAR, INCAR and KPOINTS ok, starting setup
 FFT: planning ... GRIDC
 FFT: planning ... GRID_SOFT
 FFT: planning ... GRID
 WAVECAR not read
 charge-density read from file: SC                                      
 entering main loop
       N       E                     dE             d eps       ncg     rms          rms(c)
DAV:   1     0.218432221046E+03    0.21843E+03   -0.26942E+04 18432   0.955E+02
DAV:   2    -0.125582355418E+03   -0.34401E+03   -0.34270E+03 29520   0.158E+02
DAV:   3    -0.139491293748E+03   -0.13909E+02   -0.13866E+02 32112   0.458E+01
DAV:   4    -0.139526544543E+03   -0.35251E-01   -0.35250E-01 30288   0.218E+00
DAV:   5    -0.139526583407E+03   -0.38863E-04   -0.38863E-04 29280   0.718E-02
DAV:   6    -0.139526583537E+03   -0.12999E-06   -0.13011E-06 30288   0.338E-03
   1 F= -.14140122E+03 E0= -.14139933E+03  d E =-.377481E-02
 writing wavefunctions
