BS                                      
           1
     4.368232    2.522000    0.000000
    -4.368232    2.522000    0.000000
     0.000000    0.000000   15.000000
   B    C 
     2    14
Direct configuration=     1
   0.33833471  0.66916725  0.10023575
   0.67166757  0.33583363  0.10023573
   0.16462551  0.32174470  0.09990966
   0.32424799  0.16212414  0.09990869
   0.16462646  0.84288115  0.09990965
   0.84538400  0.16212147  0.09991115
   0.68576589  0.84288201  0.09991175
   0.84538514  0.68326193  0.09991116
   0.16656476  0.33313675  0.32888425
   0.33313413  0.16656687  0.32888538
   0.16656476  0.83342759  0.32888425
   0.33332652  0.66666306  0.32858418
   0.66665991  0.33332974  0.32858418
   0.83342504  0.16656744  0.32888184
   0.66685458  0.83342708  0.32888054
   0.83342503  0.66685719  0.32888184
