   8   8   0   4
  0.3898738E+02  0.4900000E-09  0.4900000E-09  0.1500000E-08  0.5000000E-15
  1.000000000000000E-004
  CAR 
 Graphene                                
     13.76089734    -23.54512489  301     -2.17868616      1.00000000
    -23.545  0.0000E+00  0.0000E+00
    -23.421  0.0000E+00  0.0000E+00
    -23.296  0.0000E+00  0.0000E+00
    -23.172  0.0000E+00  0.0000E+00
    -23.048  0.0000E+00  0.0000E+00
    -22.923  0.0000E+00  0.0000E+00
    -22.799  0.0000E+00  0.0000E+00
    -22.675  0.0000E+00  0.0000E+00
    -22.550  0.0000E+00  0.0000E+00
    -22.426  0.1860E-18  0.2313E-19
    -22.302  0.9943E-13  0.1236E-13
    -22.177  0.2570E-08  0.3196E-09
    -22.053  0.4026E-05  0.5010E-06
    -21.929  0.4529E-03  0.5682E-04
    -21.804  0.5036E-02  0.6830E-03
    -21.680  0.1112E-01  0.2065E-02
    -21.555  0.1220E-01  0.3582E-02
    -21.431  0.1179E-01  0.5048E-02
    -21.307  0.1297E-01  0.6660E-02
    -21.182  0.1154E-01  0.8095E-02
    -21.058  0.1179E-01  0.9561E-02
    -20.934  0.1460E-01  0.1138E-01
    -20.809  0.8655E-02  0.1245E-01
    -20.685  0.1447E-01  0.1425E-01
    -20.561  0.1419E-01  0.1602E-01
    -20.436  0.7888E-02  0.1700E-01
    -20.312  0.1373E-01  0.1870E-01
    -20.188  0.1593E-01  0.2069E-01
    -20.063  0.1034E-01  0.2197E-01
    -19.939  0.7974E-02  0.2296E-01
    -19.815  0.1670E-01  0.2504E-01
    -19.690  0.1587E-01  0.2701E-01
    -19.566  0.7984E-02  0.2801E-01
    -19.441  0.1006E-01  0.2926E-01
    -19.317  0.1428E-01  0.3103E-01
    -19.193  0.1769E-01  0.3323E-01
    -19.068  0.1179E-01  0.3470E-01
    -18.944  0.5769E-02  0.3542E-01
    -18.820  0.1329E-01  0.3707E-01
    -18.695  0.1777E-01  0.3928E-01
    -18.571  0.1449E-01  0.4108E-01
    -18.447  0.1157E-01  0.4252E-01
    -18.322  0.7387E-02  0.4344E-01
    -18.198  0.9893E-02  0.4467E-01
    -18.074  0.2284E-01  0.4751E-01
    -17.949  0.1314E-01  0.4914E-01
    -17.825  0.1083E-01  0.5049E-01
    -17.701  0.1048E-01  0.5179E-01
    -17.576  0.8643E-02  0.5287E-01
    -17.452  0.1651E-01  0.5492E-01
    -17.327  0.2235E-01  0.5770E-01
    -17.203  0.1092E-01  0.5906E-01
    -17.079  0.1001E-01  0.6030E-01
    -16.954  0.1013E-01  0.6156E-01
    -16.830  0.1355E-01  0.6325E-01
    -16.706  0.2099E-01  0.6586E-01
    -16.581  0.2217E-01  0.6861E-01
    -16.457  0.1606E-01  0.7061E-01
    -16.333  0.1145E-01  0.7204E-01
    -16.208  0.2486E-02  0.7234E-01
    -16.084  0.1419E-01  0.7411E-01
    -15.960  0.2126E-01  0.7675E-01
    -15.835  0.3715E-02  0.7721E-01
    -15.711  0.2070E-03  0.7724E-01
    -15.587  0.3231E-02  0.7764E-01
    -15.462  0.1041E-01  0.7894E-01
    -15.338  0.1797E-01  0.8117E-01
    -15.213  0.1221E-01  0.8269E-01
    -15.089  0.1232E-01  0.8422E-01
    -14.965  0.1020E-01  0.8549E-01
    -14.840  0.1325E-01  0.8714E-01
    -14.716  0.1919E-01  0.8952E-01
    -14.592  0.1364E-01  0.9122E-01
    -14.467  0.1871E-01  0.9355E-01
    -14.343  0.1771E-01  0.9575E-01
    -14.219  0.1454E-01  0.9756E-01
    -14.094  0.1134E-01  0.9897E-01
    -13.970  0.1204E-01  0.1005E+00
    -13.846  0.2233E-01  0.1032E+00
    -13.721  0.8215E-02  0.1043E+00
    -13.597  0.8828E-02  0.1054E+00
    -13.472  0.1159E-01  0.1068E+00
    -13.348  0.1816E-01  0.1091E+00
    -13.224  0.1096E-01  0.1104E+00
    -13.099  0.5925E-02  0.1112E+00
    -12.975  0.1136E-01  0.1126E+00
    -12.851  0.1444E-01  0.1144E+00
    -12.726  0.1384E-01  0.1161E+00
    -12.602  0.1653E-01  0.1181E+00
    -12.478  0.1008E-01  0.1194E+00
    -12.353  0.1153E-01  0.1208E+00
    -12.229  0.1998E-01  0.1233E+00
    -12.105  0.1382E-01  0.1250E+00
    -11.980  0.9291E-02  0.1262E+00
    -11.856  0.1681E-01  0.1283E+00
    -11.732  0.2150E-01  0.1310E+00
    -11.607  0.1767E-01  0.1332E+00
    -11.483  0.4064E-02  0.1337E+00
    -11.358  0.7747E-02  0.1346E+00
    -11.234  0.2529E-01  0.1378E+00
    -11.110  0.2575E-01  0.1410E+00
    -10.985  0.8066E-02  0.1420E+00
    -10.861  0.1088E-01  0.1433E+00
    -10.737  0.2048E-01  0.1459E+00
    -10.612  0.1488E-01  0.1477E+00
    -10.488  0.1449E-01  0.1495E+00
    -10.364  0.1769E-01  0.1517E+00
    -10.239  0.1835E-01  0.1540E+00
    -10.115  0.2181E-01  0.1567E+00
     -9.991  0.1691E-01  0.1588E+00
     -9.866  0.1585E-01  0.1608E+00
     -9.742  0.2489E-01  0.1639E+00
     -9.618  0.4301E-01  0.1692E+00
     -9.493  0.2915E-01  0.1729E+00
     -9.369  0.1688E-01  0.1750E+00
     -9.244  0.3334E-01  0.1791E+00
     -9.120  0.4286E-01  0.1844E+00
     -8.996  0.3359E-01  0.1886E+00
     -8.871  0.3136E-01  0.1925E+00
     -8.747  0.3224E-01  0.1965E+00
     -8.623  0.4241E-01  0.2018E+00
     -8.498  0.5559E-01  0.2087E+00
     -8.374  0.4205E-01  0.2139E+00
     -8.250  0.2262E-01  0.2168E+00
     -8.125  0.2775E-01  0.2202E+00
     -8.001  0.3783E-01  0.2249E+00
     -7.877  0.3289E-01  0.2290E+00
     -7.752  0.2049E-01  0.2315E+00
     -7.628  0.3028E-01  0.2353E+00
     -7.504  0.3514E-01  0.2397E+00
     -7.379  0.2043E-01  0.2422E+00
     -7.255  0.2055E-01  0.2448E+00
     -7.130  0.3006E-01  0.2485E+00
     -7.006  0.2387E-01  0.2515E+00
     -6.882  0.2467E-01  0.2545E+00
     -6.757  0.2758E-01  0.2580E+00
     -6.633  0.2659E-01  0.2613E+00
     -6.509  0.1347E-01  0.2630E+00
     -6.384  0.1696E-01  0.2651E+00
     -6.260  0.3433E-01  0.2693E+00
     -6.136  0.3204E-01  0.2733E+00
     -6.011  0.1352E-01  0.2750E+00
     -5.887  0.1395E-01  0.2767E+00
     -5.763  0.2308E-01  0.2796E+00
     -5.638  0.2784E-01  0.2831E+00
     -5.514  0.2459E-01  0.2861E+00
     -5.390  0.2374E-01  0.2891E+00
     -5.265  0.1937E-01  0.2915E+00
     -5.141  0.1083E-01  0.2928E+00
     -5.016  0.1299E-01  0.2945E+00
     -4.892  0.2281E-01  0.2973E+00
     -4.768  0.2420E-01  0.3003E+00
     -4.643  0.1959E-01  0.3027E+00
     -4.519  0.1438E-01  0.3045E+00
     -4.395  0.8023E-02  0.3055E+00
     -4.270  0.2272E-01  0.3083E+00
     -4.146  0.2716E-01  0.3117E+00
     -4.022  0.5503E-02  0.3124E+00
     -3.897  0.4229E-02  0.3129E+00
     -3.773  0.3598E-02  0.3134E+00
     -3.649  0.9754E-02  0.3146E+00
     -3.524  0.1264E-01  0.3162E+00
     -3.400  0.7857E-02  0.3171E+00
     -3.276  0.1998E-02  0.3174E+00
     -3.151  0.4157E-02  0.3179E+00
     -3.027  0.1280E-02  0.3181E+00
     -2.902  0.3920E-02  0.3186E+00
     -2.778  0.7913E-02  0.3195E+00
     -2.654  0.1421E-02  0.3197E+00
     -2.529  0.1813E-04  0.3197E+00
     -2.405  0.3069E-05  0.3197E+00
     -2.281  0.3301E-03  0.3198E+00
     -2.156  0.2455E-02  0.3201E+00
     -2.032  0.1595E-02  0.3203E+00
     -1.908  0.8464E-04  0.3203E+00
     -1.783  0.9649E-06  0.3203E+00
     -1.659  0.2230E-03  0.3203E+00
     -1.535  0.4549E-02  0.3209E+00
     -1.410  0.7548E-02  0.3218E+00
     -1.286  0.2186E-02  0.3221E+00
     -1.162  0.4159E-02  0.3226E+00
     -1.037  0.1562E-02  0.3228E+00
     -0.913  0.6142E-02  0.3236E+00
     -0.788  0.2106E-01  0.3262E+00
     -0.664  0.1141E-01  0.3276E+00
     -0.540  0.1028E-01  0.3289E+00
     -0.415  0.2385E-01  0.3318E+00
     -0.291  0.2074E-01  0.3344E+00
     -0.167  0.2526E-01  0.3376E+00
     -0.042  0.1730E-01  0.3397E+00
      0.082  0.9036E-02  0.3408E+00
      0.206  0.1382E-01  0.3426E+00
      0.331  0.8357E-02  0.3436E+00
      0.455  0.9155E-02  0.3447E+00
      0.579  0.1452E-01  0.3465E+00
      0.704  0.2150E-01  0.3492E+00
      0.828  0.5239E-02  0.3499E+00
      0.952  0.4845E-02  0.3505E+00
      1.077  0.1591E-01  0.3524E+00
      1.201  0.1839E-01  0.3547E+00
      1.326  0.1637E-01  0.3568E+00
      1.450  0.1837E-01  0.3590E+00
      1.574  0.2252E-01  0.3618E+00
      1.699  0.2184E-01  0.3646E+00
      1.823  0.1520E-01  0.3665E+00
      1.947  0.1105E-01  0.3678E+00
      2.072  0.2374E-01  0.3708E+00
      2.196  0.3109E-01  0.3746E+00
      2.320  0.2969E-01  0.3783E+00
      2.445  0.2635E-01  0.3816E+00
      2.569  0.2661E-01  0.3849E+00
      2.693  0.3873E-01  0.3897E+00
      2.818  0.3554E-01  0.3942E+00
      2.942  0.2395E-01  0.3971E+00
      3.067  0.3059E-01  0.4009E+00
      3.191  0.4302E-01  0.4063E+00
      3.315  0.3484E-01  0.4106E+00
      3.440  0.3704E-01  0.4152E+00
      3.564  0.3048E-01  0.4190E+00
      3.688  0.2787E-01  0.4225E+00
      3.813  0.3357E-01  0.4267E+00
      3.937  0.3205E-01  0.4306E+00
      4.061  0.3763E-01  0.4353E+00
      4.186  0.3738E-01  0.4400E+00
      4.310  0.3812E-01  0.4447E+00
      4.434  0.2349E-01  0.4476E+00
      4.559  0.3291E-01  0.4517E+00
      4.683  0.5203E-01  0.4582E+00
      4.807  0.4941E-01  0.4643E+00
      4.932  0.3183E-01  0.4683E+00
      5.056  0.3346E-01  0.4725E+00
      5.181  0.4322E-01  0.4778E+00
      5.305  0.6485E-01  0.4859E+00
      5.429  0.6667E-01  0.4942E+00
      5.554  0.7170E-01  0.5031E+00
      5.678  0.6536E-01  0.5112E+00
      5.802  0.7052E-01  0.5200E+00
      5.927  0.5112E-01  0.5264E+00
      6.051  0.5836E-01  0.5336E+00
      6.175  0.1167E+00  0.5481E+00
      6.300  0.1046E+00  0.5611E+00
      6.424  0.8611E-01  0.5718E+00
      6.548  0.8518E-01  0.5824E+00
      6.673  0.7228E-01  0.5914E+00
      6.797  0.6596E-01  0.5996E+00
      6.921  0.7080E-01  0.6084E+00
      7.046  0.8588E-01  0.6191E+00
      7.170  0.9016E-01  0.6303E+00
      7.295  0.7539E-01  0.6397E+00
      7.419  0.7022E-01  0.6484E+00
      7.543  0.4073E-01  0.6535E+00
      7.668  0.4808E-01  0.6595E+00
      7.792  0.7010E-01  0.6682E+00
      7.916  0.7170E-01  0.6771E+00
      8.041  0.7134E-01  0.6860E+00
      8.165  0.8282E-01  0.6963E+00
      8.289  0.7264E-01  0.7053E+00
      8.414  0.6362E-01  0.7132E+00
      8.538  0.8725E-01  0.7241E+00
      8.662  0.7634E-01  0.7336E+00
      8.787  0.8692E-01  0.7444E+00
      8.911  0.7598E-01  0.7538E+00
      9.035  0.7344E-01  0.7630E+00
      9.160  0.7023E-01  0.7717E+00
      9.284  0.8464E-01  0.7822E+00
      9.409  0.9781E-01  0.7944E+00
      9.533  0.9213E-01  0.8058E+00
      9.657  0.6572E-01  0.8140E+00
      9.782  0.6592E-01  0.8222E+00
      9.906  0.6746E-01  0.8306E+00
     10.030  0.5575E-01  0.8375E+00
     10.155  0.8046E-01  0.8475E+00
     10.279  0.1103E+00  0.8613E+00
     10.403  0.8884E-01  0.8723E+00
     10.528  0.8971E-01  0.8835E+00
     10.652  0.8731E-01  0.8943E+00
     10.776  0.6247E-01  0.9021E+00
     10.901  0.1038E+00  0.9150E+00
     11.025  0.1043E+00  0.9280E+00
     11.149  0.5890E-01  0.9353E+00
     11.274  0.5025E-01  0.9415E+00
     11.398  0.6508E-01  0.9496E+00
     11.523  0.4223E-01  0.9549E+00
     11.647  0.1239E-01  0.9564E+00
     11.771  0.1191E-01  0.9579E+00
     11.896  0.3473E-02  0.9583E+00
     12.020  0.3476E-02  0.9588E+00
     12.144  0.8138E-02  0.9598E+00
     12.269  0.1736E-02  0.9600E+00
     12.393  0.2682E-04  0.9600E+00
     12.517  0.2376E-07  0.9600E+00
     12.642  0.1076E-11  0.9600E+00
     12.766  0.2976E-17  0.9600E+00
     12.890  0.0000E+00  0.9600E+00
     13.015  0.0000E+00  0.9600E+00
     13.139  0.0000E+00  0.9600E+00
     13.263  0.0000E+00  0.9600E+00
     13.388  0.0000E+00  0.9600E+00
     13.512  0.0000E+00  0.9600E+00
     13.637  0.0000E+00  0.9600E+00
     13.761  0.0000E+00  0.9600E+00
