Lattice                                 
           1
     4.359572    2.517000    0.000000
    -4.359572    2.517000    0.000000
     0.000000    0.000000   15.000000
   B    C 
     2    14
Direct configuration=     1
   0.33833034  0.66916432  0.10000000
   0.67165522  0.33584146  0.10000000
   0.16373946  0.31999962  0.10000000
   0.32250218  0.16126397  0.10000000
   0.16376430  0.84376384  0.10000000
   0.84623863  0.16123684  0.10000000
   0.68749850  0.84373000  0.10000000
   0.84626736  0.68499594  0.10000000
   0.16666600  0.33333300  0.32880000
   0.33333300  0.16666600  0.32880000
   0.16666600  0.83333300  0.32880000
   0.33333300  0.66666600  0.32880000
   0.66666600  0.33333300  0.32880000
   0.83333300  0.16666600  0.32880000
   0.66666600  0.83333300  0.32880000
   0.83333300  0.66666600  0.32880000
Direct configuration=     2
   0.33832843  0.66916305  0.10014630
   0.67167653  0.33581229  0.10014629
   0.16725165  0.32703450  0.09994774
   0.32953037  0.16477422  0.09994739
   0.16728242  0.84023542  0.09994776
   0.84271204  0.16475176  0.09994814
   0.68048770  0.84024414  0.09994832
   0.84273709  0.67798562  0.09994813
   0.16636131  0.33271994  0.32887029
   0.33271940  0.16636029  0.32887089
   0.16636135  0.83363926  0.32887028
   0.33332698  0.66666409  0.32860121
   0.66666153  0.33332974  0.32860121
   0.83363893  0.16636213  0.32886893
   0.66727736  0.83363765  0.32886819
   0.83363890  0.66727791  0.32886895
Direct configuration=     3
   0.33832983  0.66916398  0.10003914
   0.67166092  0.33583366  0.10003914
   0.16467905  0.32188161  0.09998602
   0.32438238  0.16220304  0.09998592
   0.16470548  0.84281991  0.09998602
   0.84529519  0.16217716  0.09998613
   0.68562296  0.84279746  0.09998618
   0.84532293  0.68312052  0.09998612
   0.16658449  0.33316899  0.32881880
   0.33316885  0.16658422  0.32881896
   0.16658450  0.83341493  0.32881880
   0.33333139  0.66666549  0.32874682
   0.66666480  0.33333213  0.32874682
   0.83341484  0.16658471  0.32881844
   0.66682955  0.83341450  0.32881824
   0.83341484  0.66682970  0.32881845
Direct configuration=     4
   0.33833488  0.66916456  0.10013850
   0.67166498  0.33583047  0.10013849
   0.16467337  0.32186902  0.09995060
   0.32437178  0.16219199  0.09995026
   0.16469168  0.84282236  0.09995060
   0.84531211  0.16217926  0.09995107
   0.68563057  0.84281133  0.09995121
   0.84532840  0.68313277  0.09995107
   0.16654894  0.33309963  0.32886419
   0.33309887  0.16654912  0.32886477
   0.16654893  0.83344900  0.32886419
   0.33333014  0.66666476  0.32861852
   0.66666345  0.33333155  0.32861852
   0.83344832  0.16654974  0.32886291
   0.66689725  0.83344846  0.32886219
   0.83344834  0.66689798  0.32886291
Direct configuration=     5
   0.33833669  0.66916477  0.10017404
   0.67166643  0.33582933  0.10017403
   0.16467133  0.32186452  0.09993793
   0.32436798  0.16218803  0.09993751
   0.16468674  0.84282324  0.09993793
   0.84531817  0.16218001  0.09993853
   0.68563330  0.84281629  0.09993870
   0.84533035  0.68313715  0.09993853
   0.16653622  0.33307481  0.32888043
   0.33307384  0.16653657  0.32888115
   0.16653620  0.83346118  0.32888043
   0.33332970  0.66666450  0.32857263
   0.66666297  0.33333135  0.32857263
   0.83346030  0.16653723  0.32887881
   0.66692147  0.83346061  0.32887791
   0.83346032  0.66692241  0.32887881
Direct configuration=     6
   0.33831965  0.66916573  0.10024066
   0.67166716  0.33583698  0.10024064
   0.16471137  0.32187908  0.09991399
   0.32437109  0.16219444  0.09991324
   0.16470501  0.84281596  0.09991400
   0.84529844  0.16217499  0.09991509
   0.68565340  0.84281071  0.09991540
   0.84529707  0.68313139  0.09991505
   0.16662724  0.33325881  0.32889380
   0.33325713  0.16662866  0.32889485
   0.16662726  0.83336740  0.32889380
   0.33332847  0.66666434  0.32853813
   0.66666216  0.33333059  0.32853813
   0.83336574  0.16662904  0.32889150
   0.66673509  0.83336704  0.32889024
   0.83336572  0.66673685  0.32889149
Direct configuration=     7
   0.33832987  0.66916515  0.10020069
   0.67166672  0.33583239  0.10020068
   0.16468735  0.32187034  0.09992835
   0.32436922  0.16219060  0.09992780
   0.16469405  0.84282033  0.09992836
   0.84531028  0.16217800  0.09992915
   0.68564134  0.84281406  0.09992938
   0.84531704  0.68313485  0.09992913
   0.16657263  0.33314842  0.32888578
   0.33314716  0.16657341  0.32888663
   0.16657263  0.83342367  0.32888578
   0.33332921  0.66666443  0.32855883
   0.66666264  0.33333104  0.32855883
   0.83342247  0.16657396  0.32888389
   0.66684691  0.83342318  0.32888284
   0.83342248  0.66684818  0.32888388
Direct configuration=     8
   0.33833003  0.66916515  0.10020007
   0.67166671  0.33583232  0.10020005
   0.16468697  0.32187021  0.09992858
   0.32436919  0.16219054  0.09992803
   0.16469388  0.84282040  0.09992858
   0.84531046  0.16217805  0.09992937
   0.68564115  0.84281411  0.09992960
   0.84531735  0.68313490  0.09992935
   0.16657178  0.33314670  0.32888565
   0.33314545  0.16657255  0.32888650
   0.16657178  0.83342454  0.32888565
   0.33332922  0.66666444  0.32855915
   0.66666265  0.33333105  0.32855915
   0.83342335  0.16657310  0.32888377
   0.66684865  0.83342405  0.32888273
   0.83342336  0.66684991  0.32888377
Direct configuration=     9
   0.33832996  0.66916515  0.10020036
   0.67166672  0.33583235  0.10020035
   0.16468715  0.32187027  0.09992847
   0.32436921  0.16219056  0.09992792
   0.16469396  0.84282036  0.09992848
   0.84531038  0.16217802  0.09992927
   0.68564124  0.84281409  0.09992950
   0.84531721  0.68313487  0.09992925
   0.16657218  0.33314750  0.32888571
   0.33314625  0.16657295  0.32888656
   0.16657218  0.83342413  0.32888571
   0.33332921  0.66666443  0.32855900
   0.66666265  0.33333105  0.32855900
   0.83342294  0.16657350  0.32888382
   0.66684784  0.83342364  0.32888278
   0.83342295  0.66684910  0.32888382
Direct configuration=    10
   0.33834043  0.66916791  0.10022275
   0.67166018  0.33583362  0.10022274
   0.16467061  0.32186857  0.09991985
   0.32438147  0.16218480  0.09991909
   0.16467694  0.84281702  0.09991984
   0.84533200  0.16218757  0.09992100
   0.68562440  0.84281686  0.09992141
   0.84533883  0.68313377  0.09992099
   0.16657107  0.33314722  0.32888244
   0.33314538  0.16657240  0.32888344
   0.16657108  0.83342358  0.32888244
   0.33332809  0.66666376  0.32857221
   0.66666140  0.33333057  0.32857221
   0.83342181  0.16657293  0.32888026
   0.66684650  0.83342312  0.32887908
   0.83342180  0.66684828  0.32888026
Direct configuration=    11
   0.33833985  0.66916776  0.10022151
   0.67166055  0.33583355  0.10022149
   0.16467153  0.32186866  0.09992032
   0.32438079  0.16218512  0.09991958
   0.16467789  0.84281721  0.09992032
   0.84533080  0.16218704  0.09992146
   0.68562534  0.84281671  0.09992186
   0.84533763  0.68313383  0.09992145
   0.16657113  0.33314723  0.32888262
   0.33314543  0.16657243  0.32888361
   0.16657114  0.83342361  0.32888262
   0.33332815  0.66666380  0.32857148
   0.66666147  0.33333060  0.32857148
   0.83342188  0.16657297  0.32888046
   0.66684657  0.83342315  0.32887928
   0.83342187  0.66684833  0.32888046
Direct configuration=    12
   0.33833641  0.66916780  0.10023256
   0.67166503  0.33583380  0.10023255
   0.16468232  0.32186947  0.09991592
   0.32437556  0.16218578  0.09991504
   0.16468533  0.84281821  0.09991592
   0.84532445  0.16218588  0.09991728
   0.68563317  0.84281739  0.09991779
   0.84532794  0.68313444  0.09991727
   0.16656853  0.33314311  0.32888086
   0.33314095  0.16657021  0.32888193
   0.16656854  0.83342512  0.32888086
   0.33332742  0.66666345  0.32857881
   0.66666073  0.33333022  0.32857881
   0.83342303  0.16657075  0.32887855
   0.66684959  0.83342465  0.32887730
   0.83342302  0.66685173  0.32887855
Direct configuration=    13
   0.33833460  0.66916782  0.10023837
   0.67166738  0.33583393  0.10023836
   0.16468799  0.32186990  0.09991360
   0.32437281  0.16218613  0.09991265
   0.16468925  0.84281873  0.09991360
   0.84532111  0.16218527  0.09991508
   0.68563728  0.84281775  0.09991565
   0.84532285  0.68313475  0.09991507
   0.16656716  0.33314095  0.32887994
   0.33313859  0.16656904  0.32888105
   0.16656717  0.83342591  0.32887994
   0.33332703  0.66666326  0.32858267
   0.66666035  0.33333003  0.32858266
   0.83342363  0.16656958  0.32887754
   0.66685118  0.83342544  0.32887626
   0.83342362  0.66685351  0.32887754
