Lattice                                 
           1
     4.185501    2.416500    0.000000
    -4.185501    2.416500    0.000000
     0.000000    0.000000   15.000000
   B    C 
     4    11
Direct configuration=     1
   0.00415361  0.00267210  0.12034134
   0.35695335  0.00285503  0.09748893
   0.00423858  0.35550699  0.09749256
   0.65142295  0.65006557  0.09747688
   0.32808646  0.32671938  0.10030508
   0.68027775  0.00278085  0.10027562
   0.00416530  0.67883808  0.10026559
   0.11111044  0.38888856  0.33726667
   0.27777744  0.22222156  0.33726667
   0.11111044  0.88888856  0.33726667
   0.27777744  0.72222156  0.33726667
   0.61111044  0.38888856  0.33726667
   0.77777744  0.22222156  0.33726667
   0.61111044  0.88888856  0.33726667
   0.77777744  0.72222156  0.33726667
Direct configuration=     2
   0.00416896  0.00269924  0.11914400
   0.35581547  0.00279052  0.09779891
   0.00418791  0.35459714  0.09785493
   0.65245055  0.65098384  0.09782552
   0.32501725  0.32348839  0.10031090
   0.68361218  0.00279504  0.10032429
   0.00422560  0.68192828  0.10027923
   0.11104024  0.38899213  0.33727883
   0.27791820  0.22234954  0.33735174
   0.11129734  0.88901578  0.33728904
   0.27796789  0.72221824  0.33720452
   0.61107050  0.38883618  0.33719968
   0.77773524  0.22226563  0.33728831
   0.61092697  0.88884147  0.33734128
   0.77741525  0.72207701  0.33728815
Direct configuration=     3
   0.00416122  0.00268555  0.11974795
   0.35638943  0.00282306  0.09764255
   0.00421347  0.35505608  0.09767215
   0.65193221  0.65052065  0.09764966
   0.32656541  0.32511815  0.10030796
   0.68193024  0.00278789  0.10029974
   0.00419519  0.68036953  0.10027235
   0.11107565  0.38893989  0.33727269
   0.27784720  0.22228498  0.33730883
   0.11120307  0.88895161  0.33727776
   0.27787183  0.72221991  0.33723587
   0.61109065  0.38886260  0.33723347
   0.77775653  0.22224340  0.33727739
   0.61101952  0.88886522  0.33730364
   0.77759795  0.72214992  0.33727731
Direct configuration=     4
   0.00417207  0.00272316  0.11865229
   0.35688091  0.00275473  0.09794402
   0.00420827  0.35554678  0.09802774
   0.65150708  0.64996157  0.09799059
   0.32670890  0.32513557  0.10028202
   0.68187767  0.00278297  0.10031593
   0.00424012  0.68027520  0.10025427
   0.11109211  0.38887750  0.33728759
   0.27767602  0.22224835  0.33738276
   0.11097587  0.88885796  0.33730380
   0.27765822  0.72226387  0.33718789
   0.61109152  0.38892397  0.33718406
   0.77773761  0.22222557  0.33729750
   0.61115269  0.88897446  0.33736997
   0.77787049  0.72232677  0.33729890
Direct configuration=     5
   0.00420462  0.00283591  0.11536774
   0.35835426  0.00254989  0.09884776
   0.00419268  0.35701779  0.09909373
   0.65023263  0.64828560  0.09901260
   0.32713903  0.32518779  0.10020425
   0.68172006  0.00276823  0.10036448
   0.00437484  0.67999242  0.10020009
   0.11114143  0.38869046  0.33733224
   0.27716288  0.22213853  0.33760438
   0.11029480  0.88857722  0.33738188
   0.27701790  0.72239565  0.33704407
   0.61109414  0.38910796  0.33703594
   0.77768089  0.22217213  0.33735776
   0.61155189  0.88930193  0.33756879
   0.77868752  0.72285694  0.33736364
Direct configuration=     6
   0.00421048  0.00284042  0.11499487
   0.35847211  0.00253284  0.09893201
   0.00420178  0.35711831  0.09919171
   0.65014363  0.64816111  0.09910679
   0.32722508  0.32524626  0.10021736
   0.68165145  0.00275717  0.10038916
   0.00438555  0.67991879  0.10021557
   0.11110006  0.38876781  0.33733711
   0.27725767  0.22216386  0.33761907
   0.11044376  0.88869404  0.33738996
   0.27714573  0.72239128  0.33703932
   0.61106000  0.38909704  0.33703161
   0.77767746  0.22221460  0.33736298
   0.61141948  0.88923188  0.33758218
   0.77845532  0.72274303  0.33736963
Direct configuration=     7
   0.00422804  0.00285396  0.11387626
   0.35882565  0.00248170  0.09918477
   0.00422908  0.35741988  0.09948567
   0.64987665  0.64778762  0.09938936
   0.32748323  0.32542168  0.10025669
   0.68144561  0.00272401  0.10046322
   0.00441769  0.67969792  0.10026204
   0.11097595  0.38899986  0.33735171
   0.27754202  0.22223985  0.33766313
   0.11089066  0.88904451  0.33741421
   0.27752923  0.72237816  0.33702508
   0.61095757  0.38906427  0.33701860
   0.77766720  0.22234199  0.33737863
   0.61102226  0.88902175  0.33762235
   0.77775871  0.72240129  0.33738760
Direct configuration=     8
   0.00426318  0.00288105  0.11163904
   0.35953273  0.00237943  0.09969030
   0.00428368  0.35802302  0.10007358
   0.64934269  0.64704064  0.09995450
   0.32799954  0.32577253  0.10033536
   0.68103392  0.00265767  0.10061133
   0.00448197  0.67925618  0.10035497
   0.11072773  0.38946395  0.33738091
   0.27811073  0.22239181  0.33775126
   0.11178446  0.88974545  0.33746270
   0.27829623  0.72235194  0.33699661
   0.61075272  0.38899873  0.33699259
   0.77764666  0.22259677  0.33740994
   0.61022782  0.88860147  0.33770270
   0.77636550  0.72171782  0.33742355
Direct configuration=     9
   0.00424336  0.00286577  0.11290108
   0.35913386  0.00243712  0.09940513
   0.00425288  0.35768278  0.09974193
   0.64964391  0.64746202  0.09963570
   0.32770828  0.32557461  0.10029098
   0.68126616  0.00269509  0.10052778
   0.00444571  0.67950537  0.10030254
   0.11086775  0.38920215  0.33736444
   0.27778992  0.22230609  0.33770155
   0.11128026  0.88935004  0.33743534
   0.27786355  0.72236673  0.33701267
   0.61086828  0.38903570  0.33700726
   0.77765825  0.22245304  0.33739228
   0.61067597  0.88883855  0.33765738
   0.77715143  0.72210337  0.33740327
Direct configuration=    10
   0.00425860  0.00284750  0.11242372
   0.35911269  0.00243093  0.09947186
   0.00428563  0.35762180  0.09981321
   0.64970037  0.64750090  0.09970548
   0.32778537  0.32564870  0.10035952
   0.68119484  0.00266272  0.10060319
   0.00445180  0.67942649  0.10037275
   0.11086926  0.38919099  0.33737006
   0.27779475  0.22240744  0.33769496
   0.11124657  0.88929282  0.33744248
   0.27786402  0.72238353  0.33703512
   0.61086604  0.38899881  0.33703168
   0.77760824  0.22244833  0.33739527
   0.61067559  0.88887953  0.33765201
   0.77713578  0.72213795  0.33740800
Direct configuration=    11
   0.00430430  0.00279270  0.11099162
   0.35904919  0.00241237  0.09967207
   0.00438389  0.35743887  0.10002705
   0.64986977  0.64761754  0.09991483
   0.32801663  0.32587098  0.10056515
   0.68098091  0.00256561  0.10082945
   0.00447008  0.67918983  0.10058339
   0.11087377  0.38915752  0.33738692
   0.27780924  0.22271148  0.33767520
   0.11114551  0.88912115  0.33746390
   0.27786543  0.72243391  0.33710245
   0.61085933  0.38888813  0.33710495
   0.77745822  0.22243419  0.33740425
   0.61067445  0.88900247  0.33763591
   0.77708884  0.72224170  0.33742221
Direct configuration=    12
   0.00439572  0.00268308  0.10812743
   0.35892219  0.00237523  0.10007247
   0.00458041  0.35707301  0.10045471
   0.65020857  0.64785081  0.10033351
   0.32847914  0.32631552  0.10097641
   0.68055304  0.00237140  0.10128195
   0.00450664  0.67871651  0.10100465
   0.11088280  0.38909057  0.33742064
   0.27783822  0.22331958  0.33763568
   0.11094339  0.88877783  0.33750675
   0.27786824  0.72253468  0.33723711
   0.61084592  0.38866678  0.33725149
   0.77715817  0.22240590  0.33742222
   0.61067215  0.88924834  0.33760370
   0.77699496  0.72244918  0.33745062
Direct configuration=    13
   0.00443806  0.00263191  0.10725391
   0.35893146  0.00237496  0.10020002
   0.00463213  0.35704492  0.10057359
   0.65022744  0.64786439  0.10045471
   0.32853980  0.32636492  0.10110889
   0.68053485  0.00232893  0.10141526
   0.00452859  0.67861069  0.10113864
   0.11079263  0.38915089  0.33742964
   0.27759434  0.22283485  0.33761317
   0.11081813  0.88902351  0.33751626
   0.27762090  0.72248444  0.33729482
   0.61082062  0.38898402  0.33730929
   0.77733120  0.22241614  0.33742921
   0.61076549  0.88928590  0.33758189
   0.77727391  0.72247798  0.33746003
Direct configuration=    14
   0.00446873  0.00259484  0.10662113
   0.35893818  0.00237476  0.10029242
   0.00466959  0.35702457  0.10065969
   0.65024111  0.64787424  0.10054251
   0.32858375  0.32640070  0.10120485
   0.68052168  0.00229816  0.10151183
   0.00454449  0.67853402  0.10123571
   0.11072731  0.38919458  0.33743616
   0.27741768  0.22248371  0.33759686
   0.11072740  0.88920148  0.33752316
   0.27744173  0.72244805  0.33733662
   0.61080229  0.38921382  0.33735116
   0.77745654  0.22242355  0.33743428
   0.61083310  0.88931311  0.33756609
   0.77747598  0.72249885  0.33746684
Direct configuration=    15
   0.00448569  0.00257095  0.10645862
   0.35905629  0.00238038  0.10034060
   0.00466186  0.35714525  0.10068836
   0.65010691  0.64775766  0.10057708
   0.32851667  0.32631406  0.10121790
   0.68062996  0.00231752  0.10151152
   0.00456141  0.67857026  0.10124782
   0.11074475  0.38918394  0.33743742
   0.27740354  0.22243463  0.33758920
   0.11078074  0.88924750  0.33752169
   0.27743324  0.72252096  0.33735644
   0.61076638  0.38921509  0.33736681
   0.77746990  0.22251776  0.33743873
   0.61078110  0.88918276  0.33755655
   0.77745112  0.72251971  0.33747062
Direct configuration=    16
   0.00451642  0.00252766  0.10616407
   0.35927036  0.00239059  0.10042794
   0.00464784  0.35736397  0.10074032
   0.64986367  0.64754637  0.10063973
   0.32839509  0.32615704  0.10124154
   0.68082623  0.00235261  0.10151095
   0.00459209  0.67863593  0.10126976
   0.11077634  0.38916466  0.33743969
   0.27737792  0.22234567  0.33757531
   0.11087741  0.88933091  0.33751902
   0.27741785  0.72265312  0.33739234
   0.61070130  0.38921740  0.33739516
   0.77749412  0.22268850  0.33744680
   0.61068686  0.88894650  0.33753924
   0.77740605  0.72255752  0.33747746
Direct configuration=    17
   0.00453242  0.00248863  0.10597735
   0.35947158  0.00239528  0.10050414
   0.00463049  0.35751891  0.10078053
   0.64966599  0.64736948  0.10069081
   0.32831913  0.32604915  0.10124549
   0.68095313  0.00238695  0.10148777
   0.00461445  0.67869916  0.10127182
   0.11078591  0.38919804  0.33744245
   0.27741653  0.22246118  0.33756671
   0.11083990  0.88928484  0.33751676
   0.27744146  0.72261997  0.33741631
   0.61069614  0.38919645  0.33741362
   0.77742703  0.22262066  0.33745382
   0.61068061  0.88904959  0.33752931
   0.77737479  0.72254015  0.33748244
Direct configuration=    18
   0.00455067  0.00244410  0.10576429
   0.35970117  0.00240063  0.10059108
   0.00461069  0.35769569  0.10082642
   0.64944045  0.64716766  0.10074910
   0.32823245  0.32592606  0.10124999
   0.68109792  0.00242612  0.10146132
   0.00463997  0.67877130  0.10127418
   0.11079682  0.38923613  0.33744561
   0.27746058  0.22259296  0.33755691
   0.11079710  0.88923228  0.33751418
   0.27746840  0.72258215  0.33744364
   0.61069025  0.38917254  0.33743469
   0.77735049  0.22254326  0.33746182
   0.61067348  0.88916722  0.33751797
   0.77733911  0.72252034  0.33748813
Direct configuration=    19
   0.00454817  0.00242468  0.10568983
   0.35973114  0.00239617  0.10063151
   0.00460972  0.35764336  0.10084554
   0.64945734  0.64717457  0.10077463
   0.32827952  0.32596126  0.10124653
   0.68105358  0.00242862  0.10143826
   0.00464167  0.67876083  0.10126959
   0.11071813  0.38922636  0.33744998
   0.27741360  0.22256199  0.33755792
   0.11075552  0.88924628  0.33751607
   0.27744049  0.72254510  0.33744525
   0.61072901  0.38920411  0.33743768
   0.77739014  0.22252562  0.33746486
   0.61072451  0.88924509  0.33752263
   0.77735702  0.72253440  0.33748906
Direct configuration=    20
   0.00454594  0.00240736  0.10562341
   0.35975787  0.00239219  0.10066757
   0.00460886  0.35759668  0.10086260
   0.64947241  0.64718074  0.10079740
   0.32832150  0.32599265  0.10124345
   0.68101404  0.00243086  0.10141769
   0.00464318  0.67875148  0.10126549
   0.11064796  0.38921766  0.33745388
   0.27737170  0.22253437  0.33755882
   0.11071843  0.88925876  0.33751775
   0.27741560  0.72251205  0.33744669
   0.61076358  0.38923226  0.33744035
   0.77742550  0.22250989  0.33746757
   0.61077002  0.88931454  0.33752679
   0.77737298  0.72254695  0.33748988
Direct configuration=    21
   0.00454867  0.00239366  0.10555212
   0.35973394  0.00238804  0.10070514
   0.00461339  0.35751881  0.10087927
   0.64953390  0.64722608  0.10082035
   0.32837439  0.32603411  0.10124154
   0.68096958  0.00242542  0.10139463
   0.00464425  0.67871799  0.10126241
   0.11064946  0.38921236  0.33745903
   0.27736232  0.22253649  0.33756267
   0.11072410  0.88926468  0.33752075
   0.27740798  0.72254278  0.33744449
   0.61075067  0.38922849  0.33744042
   0.77742102  0.22254368  0.33747080
   0.61075267  0.88928090  0.33753498
   0.77736322  0.72256494  0.33749075
Direct configuration=    22
   0.00455506  0.00236160  0.10538538
   0.35967799  0.00237834  0.10079299
   0.00462397  0.35733666  0.10091826
   0.64967773  0.64733212  0.10087402
   0.32849811  0.32613110  0.10123709
   0.68086558  0.00241271  0.10134070
   0.00464676  0.67863966  0.10125520
   0.11065296  0.38919998  0.33747106
   0.27734037  0.22254147  0.33757166
   0.11073736  0.88927854  0.33752778
   0.27739016  0.72261464  0.33743936
   0.61072046  0.38921969  0.33744058
   0.77741056  0.22262270  0.33747835
   0.61071209  0.88920221  0.33755413
   0.77734039  0.72260703  0.33749278
Direct configuration=    23
   0.00457987  0.00235981  0.10529042
   0.35960993  0.00237648  0.10082682
   0.00463787  0.35731053  0.10093166
   0.64973812  0.64737145  0.10089349
   0.32850106  0.32611527  0.10124497
   0.68090198  0.00239713  0.10132374
   0.00465697  0.67859041  0.10126161
   0.11071203  0.38926175  0.33747625
   0.27737893  0.22258070  0.33757986
   0.11073660  0.88929071  0.33753137
   0.27740091  0.72261162  0.33743675
   0.61066917  0.38923386  0.33743831
   0.77734670  0.22258772  0.33748392
   0.61066049  0.88921989  0.33756434
   0.77731893  0.72257110  0.33749581
Direct configuration=    24
   0.00459391  0.00235880  0.10523669
   0.35957142  0.00237542  0.10084595
   0.00464573  0.35729575  0.10093925
   0.64977229  0.64739370  0.10090451
   0.32850273  0.32610631  0.10124943
   0.68092257  0.00238832  0.10131415
   0.00466275  0.67856254  0.10126524
   0.11074545  0.38929670  0.33747919
   0.27740075  0.22260289  0.33758450
   0.11073618  0.88929759  0.33753341
   0.27740699  0.72260992  0.33743527
   0.61064015  0.38924188  0.33743702
   0.77731058  0.22256793  0.33748707
   0.61063129  0.88922989  0.33757012
   0.77730678  0.72255078  0.33749753
Direct configuration=    25
   0.00462316  0.00236315  0.10513515
   0.35955292  0.00236783  0.10086454
   0.00466528  0.35733232  0.10094590
   0.64977877  0.64737300  0.10091461
   0.32847987  0.32605955  0.10126724
   0.68098553  0.00236580  0.10131094
   0.00467910  0.67853660  0.10128191
   0.11070019  0.38929190  0.33748301
   0.27737349  0.22261065  0.33759447
   0.11071252  0.88930330  0.33753674
   0.27738791  0.72260816  0.33743529
   0.61064898  0.38925269  0.33743481
   0.77731840  0.22257652  0.33749383
   0.61064428  0.88926580  0.33757827
   0.77729915  0.72257118  0.33750260
Direct configuration=    26
   0.00468622  0.00237251  0.10491632
   0.35951306  0.00235148  0.10090461
   0.00470742  0.35741114  0.10096024
   0.64979273  0.64732837  0.10093639
   0.32843060  0.32595876  0.10130563
   0.68112121  0.00231725  0.10130402
   0.00471434  0.67848069  0.10131784
   0.11060263  0.38928157  0.33749124
   0.27731475  0.22262737  0.33761597
   0.11066153  0.88931560  0.33754393
   0.27734681  0.72260436  0.33743533
   0.61066802  0.38927600  0.33743004
   0.77733526  0.22259501  0.33750841
   0.61067227  0.88934318  0.33759583
   0.77728271  0.72261515  0.33751352
Direct configuration=    27
   0.00469502  0.00236865  0.10483983
   0.35955367  0.00233763  0.10091479
   0.00472139  0.35742410  0.10096572
   0.64978058  0.64728971  0.10094319
   0.32844138  0.32595087  0.10131891
   0.68112249  0.00230128  0.10130479
   0.00472479  0.67848268  0.10133060
   0.11059335  0.38928286  0.33749421
   0.27730159  0.22263097  0.33762206
   0.11065710  0.88932456  0.33754688
   0.27733773  0.72262334  0.33743703
   0.61065929  0.38928066  0.33743057
   0.77732902  0.22261713  0.33751286
   0.61065951  0.88933350  0.33760060
   0.77727265  0.72263052  0.33751730
Direct configuration=    28
   0.00472141  0.00235705  0.10461036
   0.35967552  0.00229609  0.10094535
   0.00476330  0.35746297  0.10098216
   0.64974412  0.64717372  0.10096358
   0.32847372  0.32592719  0.10135874
   0.68112631  0.00225336  0.10130707
   0.00475615  0.67848865  0.10136888
   0.11056549  0.38928674  0.33750312
   0.27726210  0.22264176  0.33764031
   0.11064383  0.88935144  0.33755573
   0.27731048  0.72268027  0.33744213
   0.61063312  0.38929462  0.33743217
   0.77731031  0.22268350  0.33752620
   0.61062122  0.88930445  0.33761490
   0.77724248  0.72267662  0.33752864
Direct configuration=    29
   0.00477420  0.00233385  0.10415144
   0.35991921  0.00221300  0.10100647
   0.00484712  0.35754073  0.10101503
   0.64967120  0.64694174  0.10100436
   0.32853839  0.32587983  0.10143841
   0.68113395  0.00215754  0.10131165
   0.00481885  0.67850060  0.10144544
   0.11050979  0.38929449  0.33752092
   0.27718313  0.22266335  0.33767681
   0.11061729  0.88940521  0.33757342
   0.27725599  0.72279412  0.33745233
   0.61058078  0.38932255  0.33743537
   0.77727288  0.22281623  0.33755288
   0.61054464  0.88924636  0.33764350
   0.77718213  0.72276883  0.33755132
Direct configuration=    30
   0.00478082  0.00232468  0.10406345
   0.35996094  0.00219603  0.10101883
   0.00486085  0.35753990  0.10102457
   0.64966789  0.64690908  0.10101464
   0.32855803  0.32587574  0.10145029
   0.68113101  0.00214265  0.10131213
   0.00483085  0.67850165  0.10145691
   0.11051109  0.38931925  0.33752485
   0.27718110  0.22267392  0.33768196
   0.11060434  0.88941857  0.33757744
   0.27724616  0.72279401  0.33745548
   0.61056160  0.38934014  0.33743838
   0.77725220  0.22280865  0.33755708
   0.61052926  0.88926858  0.33764814
   0.77717341  0.72276559  0.33755520
Direct configuration=    31
   0.00480071  0.00229717  0.10379948
   0.36008614  0.00214511  0.10105591
   0.00490204  0.35753741  0.10105320
   0.64965795  0.64681111  0.10104547
   0.32861694  0.32586348  0.10148591
   0.68112220  0.00209797  0.10131356
   0.00486686  0.67850481  0.10149131
   0.11051502  0.38939353  0.33753662
   0.27717500  0.22270563  0.33769742
   0.11056548  0.88945867  0.33758951
   0.27721666  0.72279366  0.33746493
   0.61050407  0.38939288  0.33744743
   0.77719014  0.22278591  0.33756970
   0.61048310  0.88933524  0.33766206
   0.77714725  0.72275585  0.33756684
Direct configuration=    32
   0.00484048  0.00224214  0.10327153
   0.36033653  0.00204328  0.10113008
   0.00498442  0.35753243  0.10111045
   0.64963807  0.64661517  0.10110713
   0.32873477  0.32583894  0.10155716
   0.68110459  0.00200863  0.10131643
   0.00493888  0.67851113  0.10156010
   0.11052286  0.38954209  0.33756016
   0.27716281  0.22276905  0.33772833
   0.11048776  0.88953886  0.33761364
   0.27715766  0.72279297  0.33748384
   0.61038900  0.38949837  0.33746553
   0.77706602  0.22274044  0.33759492
   0.61039079  0.88946856  0.33768990
   0.77709493  0.72273638  0.33759011
Direct configuration=    33
   0.00481315  0.00227995  0.10363428
   0.36016448  0.00211325  0.10107912
   0.00492781  0.35753585  0.10107111
   0.64965173  0.64674980  0.10106476
   0.32865381  0.32585580  0.10150821
   0.68111669  0.00207002  0.10131446
   0.00488939  0.67850679  0.10151283
   0.11051747  0.38944001  0.33754399
   0.27717119  0.22272547  0.33770709
   0.11054116  0.88948376  0.33759706
   0.27719820  0.72279345  0.33747085
   0.61046806  0.38942589  0.33745310
   0.77715130  0.22277169  0.33757759
   0.61045422  0.88937695  0.33767077
   0.77713088  0.72274976  0.33757412
Direct configuration=    34
   0.00481819  0.00226783  0.10359029
   0.36013960  0.00210747  0.10108873
   0.00492980  0.35750712  0.10108485
   0.64968468  0.64677478  0.10107720
   0.32866442  0.32584837  0.10150443
   0.68113336  0.00207134  0.10131239
   0.00489753  0.67848963  0.10150927
   0.11050537  0.38944677  0.33754708
   0.27716857  0.22274536  0.33770563
   0.11052728  0.88948125  0.33760034
   0.27719088  0.72278650  0.33747515
   0.61046475  0.38942951  0.33745985
   0.77714335  0.22276269  0.33757780
   0.61045751  0.88940769  0.33767119
   0.77712428  0.72275213  0.33757512
Direct configuration=    35
   0.00483328  0.00223148  0.10345832
   0.36006493  0.00209015  0.10111755
   0.00493576  0.35742091  0.10112606
   0.64978353  0.64684971  0.10111452
   0.32869624  0.32582607  0.10149310
   0.68118338  0.00207529  0.10130617
   0.00492195  0.67843815  0.10149859
   0.11046905  0.38946702  0.33755636
   0.27716071  0.22280503  0.33770122
   0.11048562  0.88947371  0.33761020
   0.27716893  0.72276565  0.33748806
   0.61045482  0.38944038  0.33748011
   0.77711951  0.22273571  0.33757845
   0.61046738  0.88949992  0.33767247
   0.77710447  0.72275927  0.33757814
Direct configuration=    36
   0.00486348  0.00215878  0.10319438
   0.35991561  0.00205549  0.10117520
   0.00494768  0.35724850  0.10120848
   0.64998124  0.64699958  0.10118916
   0.32875988  0.32578147  0.10147043
   0.68128342  0.00208320  0.10129374
   0.00497077  0.67833519  0.10147723
   0.11039642  0.38950754  0.33757493
   0.27714500  0.22292436  0.33769242
   0.11040232  0.88945863  0.33762992
   0.27712502  0.72272396  0.33751388
   0.61043495  0.38946212  0.33752062
   0.77707181  0.22268174  0.33757975
   0.61048711  0.88968436  0.33767502
   0.77706486  0.72277353  0.33758417
Direct configuration=    37
   0.00485265  0.00218485  0.10328902
   0.35996915  0.00206791  0.10115453
   0.00494340  0.35731032  0.10117893
   0.64991035  0.64694584  0.10116240
   0.32873706  0.32579746  0.10147856
   0.68124755  0.00208037  0.10129820
   0.00495327  0.67837211  0.10148489
   0.11042246  0.38949301  0.33756827
   0.27715063  0.22288157  0.33769558
   0.11043219  0.88946404  0.33762285
   0.27714076  0.72273891  0.33750463
   0.61044207  0.38945432  0.33750609
   0.77708891  0.22270109  0.33757929
   0.61048003  0.88961822  0.33767411
   0.77707906  0.72276842  0.33758201
Direct configuration=    38
   0.00486487  0.00216732  0.10322654
   0.35994224  0.00206162  0.10116884
   0.00494752  0.35726592  0.10120270
   0.64995069  0.64697482  0.10118328
   0.32876055  0.32579439  0.10146787
   0.68125920  0.00208471  0.10129613
   0.00496584  0.67834110  0.10147487
   0.11040969  0.38948843  0.33757228
   0.27713072  0.22287466  0.33769289
   0.11043612  0.88948054  0.33762727
   0.27713511  0.72277083  0.33751271
   0.61043551  0.38945666  0.33751688
   0.77708839  0.22274295  0.33757977
   0.61045952  0.88958473  0.33767323
   0.77706360  0.72278975  0.33758408
Direct configuration=    39
   0.00489819  0.00211954  0.10305616
   0.35986888  0.00204448  0.10120785
   0.00495873  0.35714487  0.10126753
   0.65006069  0.64705385  0.10124022
   0.32882460  0.32578600  0.10143873
   0.68129096  0.00209656  0.10129049
   0.00500012  0.67825655  0.10144756
   0.11037488  0.38947593  0.33758320
   0.27707642  0.22285582  0.33768557
   0.11044683  0.88952553  0.33763934
   0.27711969  0.72285788  0.33753474
   0.61041760  0.38946304  0.33754628
   0.77708695  0.22285708  0.33758108
   0.61040359  0.88949340  0.33767086
   0.77702143  0.72284793  0.33758973
Direct configuration=    40
   0.00491057  0.00211170  0.10301934
   0.35990631  0.00204198  0.10121376
   0.00496755  0.35713803  0.10128207
   0.65004565  0.64702687  0.10125222
   0.32884580  0.32579544  0.10143032
   0.68127204  0.00209415  0.10129463
   0.00500692  0.67824663  0.10143998
   0.11038763  0.38949808  0.33758380
   0.27707017  0.22283445  0.33768633
   0.11044362  0.88954834  0.33764037
   0.27711013  0.72286803  0.33754074
   0.61039867  0.38948644  0.33755031
   0.77707469  0.22285969  0.33758325
   0.61038479  0.88948395  0.33766925
   0.77702500  0.72284466  0.33759296
Direct configuration=    41
   0.00493539  0.00209597  0.10294553
   0.35998133  0.00203697  0.10122560
   0.00498523  0.35712432  0.10131123
   0.65001549  0.64697281  0.10127626
   0.32888829  0.32581436  0.10141346
   0.68123413  0.00208932  0.10130295
   0.00502056  0.67822675  0.10142479
   0.11041317  0.38954247  0.33758500
   0.27705765  0.22279163  0.33768787
   0.11043721  0.88959406  0.33764243
   0.27709098  0.72288838  0.33755278
   0.61036073  0.38953334  0.33755840
   0.77705012  0.22286493  0.33758758
   0.61034713  0.88946502  0.33766602
   0.77703214  0.72283810  0.33759944
Direct configuration=    42
   0.00495032  0.00208415  0.10289845
   0.36004951  0.00203449  0.10122867
   0.00500059  0.35714146  0.10132659
   0.64997979  0.64691860  0.10128807
   0.32889316  0.32580765  0.10140425
   0.68123363  0.00207697  0.10131598
   0.00502777  0.67823074  0.10141696
   0.11039952  0.38954489  0.33758477
   0.27705396  0.22282914  0.33769163
   0.11041509  0.88958039  0.33764288
   0.27707733  0.72288752  0.33755929
   0.61035389  0.38953178  0.33756030
   0.77703665  0.22285864  0.33759179
   0.61035275  0.88950142  0.33766499
   0.77702558  0.72285060  0.33760472
Direct configuration=    43
   0.00497619  0.00206366  0.10281685
   0.36016767  0.00203019  0.10123397
   0.00502722  0.35717118  0.10135321
   0.64991791  0.64682465  0.10130854
   0.32890160  0.32579601  0.10138829
   0.68123276  0.00205555  0.10133856
   0.00504026  0.67823766  0.10140340
   0.11037587  0.38954909  0.33758438
   0.27704758  0.22289414  0.33769815
   0.11037675  0.88955670  0.33764368
   0.27705368  0.72288604  0.33757057
   0.61034203  0.38952908  0.33756358
   0.77701331  0.22284775  0.33759907
   0.61036250  0.88956450  0.33766321
   0.77701422  0.72287225  0.33761388
Direct configuration=    44
   0.00499008  0.00204234  0.10275380
   0.36020125  0.00202497  0.10123359
   0.00504554  0.35719911  0.10136677
   0.64991036  0.64679287  0.10131825
   0.32887277  0.32574822  0.10138140
   0.68129885  0.00203147  0.10136290
   0.00505110  0.67824430  0.10139834
   0.11033566  0.38954746  0.33758604
   0.27702549  0.22290260  0.33770389
   0.11037987  0.88958054  0.33764629
   0.27705499  0.72290086  0.33757410
   0.61034612  0.38952912  0.33756453
   0.77701664  0.22288526  0.33760363
   0.61034470  0.88956189  0.33766670
   0.77697612  0.72288744  0.33761909
Direct configuration=    45
   0.00500384  0.00202121  0.10269133
   0.36023453  0.00201980  0.10123322
   0.00506369  0.35722678  0.10138020
   0.64990288  0.64676138  0.10132786
   0.32884420  0.32570088  0.10137457
   0.68136433  0.00200762  0.10138702
   0.00506184  0.67825087  0.10139334
   0.11029583  0.38954584  0.33758769
   0.27700361  0.22291098  0.33770958
   0.11038296  0.88960415  0.33764888
   0.27705628  0.72291555  0.33757760
   0.61035017  0.38952917  0.33756548
   0.77701995  0.22292242  0.33760814
   0.61032707  0.88955930  0.33767017
   0.77693837  0.72290249  0.33762426
Direct configuration=    46
   0.00502059  0.00199887  0.10261387
   0.36022996  0.00200561  0.10123186
   0.00508416  0.35722447  0.10139032
   0.64993588  0.64675906  0.10133504
   0.32883934  0.32566252  0.10137139
   0.68142365  0.00198002  0.10141835
   0.00508132  0.67823319  0.10139216
   0.11030889  0.38958660  0.33759312
   0.27699053  0.22289684  0.33771539
   0.11036190  0.88963492  0.33765512
   0.27703051  0.72293188  0.33757650
   0.61031289  0.38957113  0.33756725
   0.77698948  0.22292009  0.33761155
   0.61029871  0.88956843  0.33767989
   0.77694175  0.72290481  0.33762751
Direct configuration=    47
   0.00503068  0.00198542  0.10256724
   0.36022721  0.00199706  0.10123104
   0.00509648  0.35722309  0.10139641
   0.64995574  0.64675766  0.10133937
   0.32883641  0.32563942  0.10136947
   0.68145937  0.00196341  0.10143722
   0.00509305  0.67822255  0.10139145
   0.11031675  0.38961115  0.33759639
   0.27698265  0.22288833  0.33771889
   0.11034922  0.88965344  0.33765888
   0.27701499  0.72294170  0.33757585
   0.61029045  0.38959640  0.33756832
   0.77697114  0.22291868  0.33761360
   0.61028165  0.88957394  0.33768575
   0.77694378  0.72290621  0.33762947
Direct configuration=    48
   0.00505207  0.00197165  0.10248758
   0.36022452  0.00197291  0.10123289
   0.00511822  0.35717658  0.10140404
   0.65000297  0.64675851  0.10134581
   0.32888702  0.32564541  0.10136848
   0.68144832  0.00194223  0.10146485
   0.00511928  0.67818424  0.10139212
   0.11031164  0.38962089  0.33760351
   0.27696747  0.22292564  0.33772393
   0.11031672  0.88964557  0.33766626
   0.27698353  0.72296703  0.33757328
   0.61026333  0.38960670  0.33757101
   0.77694223  0.22293050  0.33761646
   0.61027122  0.88959426  0.33769758
   0.77694101  0.72293632  0.33763152
Direct configuration=    49
   0.00508641  0.00194954  0.10235973
   0.36022021  0.00193414  0.10123586
   0.00515310  0.35710195  0.10141630
   0.65007876  0.64675988  0.10135615
   0.32896824  0.32565502  0.10136689
   0.68143059  0.00190825  0.10150921
   0.00516138  0.67812278  0.10139321
   0.11030345  0.38963654  0.33761494
   0.27694309  0.22298552  0.33773201
   0.11026457  0.88963293  0.33767811
   0.27693305  0.72300768  0.33756915
   0.61021980  0.38962323  0.33757533
   0.77689584  0.22294946  0.33762105
   0.61025449  0.88962687  0.33771657
   0.77693658  0.72298466  0.33763481
Direct configuration=    50
   0.00510716  0.00193882  0.10228802
   0.36022960  0.00190870  0.10124281
   0.00517330  0.35705398  0.10142429
   0.65011732  0.64675257  0.10136429
   0.32901684  0.32565867  0.10136534
   0.68141497  0.00189290  0.10152604
   0.00518613  0.67809496  0.10139274
   0.11025545  0.38964973  0.33762017
   0.27691778  0.22299232  0.33773690
   0.11026120  0.88967021  0.33768314
   0.27693068  0.72301284  0.33756982
   0.61021961  0.38963674  0.33757786