Lattice                                 
           1
     4.165582    2.405000    0.000000
    -4.165582    2.405000    0.000000
     0.000000    0.000000   15.000000
   B    C 
     4    11
Direct configuration=     1
   0.00415361  0.00267210  0.12034134
   0.35695335  0.00285503  0.09748893
   0.00423858  0.35550699  0.09749256
   0.65142295  0.65006557  0.09747688
   0.32808646  0.32671938  0.10030508
   0.68027775  0.00278085  0.10027562
   0.00416530  0.67883808  0.10026559
   0.99999933  0.49999967  0.33373333
   0.16666633  0.33333267  0.33373333
   0.99999933  0.99999967  0.33373333
   0.16666633  0.83333267  0.33373333
   0.49999933  0.49999967  0.33373333
   0.66666633  0.33333267  0.33373333
   0.49999933  0.99999967  0.33373333
   0.66666633  0.83333267  0.33373333
Direct configuration=     2
   0.00418292  0.00275979  0.11947398
   0.35609307  0.00302309  0.09776497
   0.00396102  0.35442981  0.09776720
   0.65249297  0.65087848  0.09775623
   0.32543157  0.32372526  0.10029014
   0.68323194  0.00309940  0.10026799
   0.00389493  0.68151618  0.10026039
   0.00012739  0.49998154  0.33374069
   0.16688264  0.33395308  0.33379726
   0.99999884  0.99999333  0.33362908
   0.16706262  0.83311484  0.33380012
   0.50003380  0.50015812  0.33374355
   0.66666604  0.33333783  0.33368381
   0.49985609  0.99987094  0.33374025
   0.66604483  0.83292568  0.33379700
Direct configuration=     3
   0.00416629  0.00271003  0.11996612
   0.35658120  0.00292773  0.09760835
   0.00411851  0.35504101  0.09761137
   0.65188583  0.65041723  0.09759773
   0.32693798  0.32542414  0.10029862
   0.68155571  0.00291865  0.10027232
   0.00404834  0.67999660  0.10026334
   0.00005473  0.49999182  0.33373651
   0.16675991  0.33360105  0.33376099
   0.99999912  0.99999692  0.33368823
   0.16683777  0.83323843  0.33376222
   0.50001424  0.50006821  0.33373775
   0.66666621  0.33333490  0.33371191
   0.49993737  0.99994398  0.33373632
   0.66639747  0.83315661  0.33376088
Direct configuration=     4
   0.00418154  0.00277020  0.11924468
   0.35696262  0.00303152  0.09785767
   0.00392668  0.35529060  0.09785923
   0.65165245  0.65000349  0.09785034
   0.32697851  0.32525160  0.10026044
   0.68170473  0.00310444  0.10024143
   0.00387629  0.67997646  0.10023439
  -0.00008786  0.50000367  0.33375353
   0.16662734  0.33316903  0.33380445
   0.00000002  0.00000280  0.33361995
   0.16655087  0.83337845  0.33380794
   0.49999217  0.49990683  0.33375701
   0.66666934  0.33333220  0.33366464
   0.50008938  0.00008816  0.33375293
   0.66683658  0.83345789  0.33380405
Direct configuration=     5
   0.00419470  0.00282208  0.11862255
   0.35729154  0.00312102  0.09807268
   0.00376126  0.35550584  0.09807297
   0.65145120  0.64964670  0.09806817
   0.32701347  0.32510281  0.10022752
   0.68183324  0.00326464  0.10021478
   0.00372792  0.67995909  0.10020943
  -0.00021081  0.50001388  0.33376820
   0.16651302  0.33279647  0.33384192
   0.00000079  0.00000788  0.33356107
   0.16630348  0.83349918  0.33384736
   0.49997313  0.49976767  0.33377362
   0.66667204  0.33332987  0.33362388
   0.50022047  0.00021250  0.33376725
   0.66721523  0.83371769  0.33384128
Direct configuration=     6
   0.00419745  0.00283401  0.11842054
   0.35739198  0.00313807  0.09813485
   0.00372621  0.35558446  0.09813477
   0.65137790  0.64953949  0.09813113
   0.32706934  0.32512370  0.10022433
   0.68180787  0.00329256  0.10021351
   0.00369939  0.67990788  0.10020863
  -0.00018071  0.50001341  0.33377362
   0.16652413  0.33285350  0.33385061
   0.00000203  0.00000755  0.33354896
   0.16634719  0.83348727  0.33385652
   0.49997667  0.49979910  0.33377952
   0.66667170  0.33333060  0.33361320
   0.50019192  0.00018365  0.33377257
   0.66715760  0.83367210  0.33384990
Direct configuration=     7
   0.00420570  0.00286979  0.11781454
   0.35769331  0.00318921  0.09832135
   0.00362103  0.35582031  0.09832019
   0.65115800  0.64921784  0.09832001
   0.32723695  0.32518638  0.10021477
   0.68173179  0.00337629  0.10020970
   0.00361382  0.67975423  0.10020622
  -0.00009041  0.50001198  0.33378989
   0.16655745  0.33302458  0.33387669
   0.00000577  0.00000658  0.33351263
   0.16647833  0.83345151  0.33388403
   0.49998729  0.49989341  0.33379719
   0.66667067  0.33333280  0.33358118
   0.50010626  0.00009711  0.33378852
   0.66698470  0.83353531  0.33387576
Direct configuration=     8
   0.00422220  0.00294135  0.11660252
   0.35829598  0.00329148  0.09869435
   0.00341067  0.35629202  0.09869101
   0.65071821  0.64857455  0.09869778
   0.32757217  0.32531175  0.10019565
   0.68157962  0.00354377  0.10020208
   0.00344267  0.67944693  0.10020141
   0.00009019  0.50000913  0.33382242
   0.16662409  0.33336675  0.33392884
   0.00001325  0.00000464  0.33343998
   0.16674062  0.83338000  0.33393903
   0.50000854  0.50008202  0.33383255
   0.66666862  0.33333718  0.33351713
   0.49993493 -0.00007597  0.33382044
   0.66663892  0.83326175  0.33392748
Direct configuration=     9
   0.00422991  0.00297483  0.11603556
   0.35857789  0.00333932  0.09886883
   0.00331227  0.35651267  0.09886448
   0.65051249  0.64827363  0.09887449
   0.32772898  0.32537040  0.10018671
   0.68150844  0.00362211  0.10019851
   0.00336261  0.67930318  0.10019916
   0.00017467  0.50000779  0.33383764
   0.16665526  0.33352681  0.33395323
   0.00001674  0.00000374  0.33340599
   0.16686331  0.83334655  0.33396476
   0.50001848  0.50017024  0.33384908
   0.66666766  0.33333923  0.33348718
   0.49985479 -0.00015693  0.33383536
   0.66647716  0.83313378  0.33395168
Direct configuration=    10
   0.00422706  0.00296628  0.11560799
   0.35854982  0.00330089  0.09893945
   0.00336186  0.35653250  0.09893486
   0.65049937  0.64830162  0.09894560
   0.32776178  0.32548628  0.10024127
   0.68139626  0.00353348  0.10025567
   0.00342944  0.67927067  0.10025674
   0.00010169  0.50001639  0.33384883
   0.16671734  0.33354913  0.33394867
   0.00000994  0.00000321  0.33343008
   0.16683794  0.83329393  0.33396000
   0.50000387  0.50009289  0.33386001
   0.66667396  0.33334008  0.33349000
   0.49992622 -0.00008953  0.33384643
   0.66646411  0.83316950  0.33394706
Direct configuration=    11
   0.00421850  0.00294066  0.11432527
   0.35846561  0.00318559  0.09915132
   0.00351063  0.35659201  0.09914603
   0.65046004  0.64838558  0.09915895
   0.32786019  0.32583392  0.10040495
   0.68105971  0.00326760  0.10042715
   0.00362994  0.67917313  0.10042948
  -0.00011726  0.50004218  0.33388240
   0.16690360  0.33361610  0.33393496
  -0.00001048  0.00000165  0.33350232
   0.16676182  0.83313609  0.33394572
   0.49996005  0.49986082  0.33389280
   0.66669287  0.33334263  0.33349846
   0.50014049  0.00011268  0.33387964
   0.66642496  0.83327668  0.33393320
Direct configuration=    12
   0.00420138  0.00288941  0.11175983
   0.35829719  0.00295501  0.09957505
   0.00380817  0.35671102  0.09956837
   0.65038137  0.64855351  0.09958565
   0.32805699  0.32652921  0.10073230
   0.68038662  0.00273584  0.10077010
   0.00403093  0.67897805  0.10077496
  -0.00055515  0.50009377  0.33394954
   0.16727611  0.33375005  0.33390756
  -0.00005132 -0.00000148  0.33364682
   0.16660958  0.83282041  0.33391717
   0.49987239  0.49939669  0.33395838
   0.66673068  0.33334772  0.33351540
   0.50056904  0.00051710  0.33394605
   0.66634666  0.83349103  0.33390548
Direct configuration=    13
   0.00420655  0.00290489  0.11253463
   0.35834806  0.00302465  0.09944708
   0.00371831  0.35667507  0.09944082
   0.65040513  0.64850279  0.09945678
   0.32799756  0.32631922  0.10063344
   0.68058991  0.00289644  0.10066653
   0.00390983  0.67903696  0.10067062
  -0.00042290  0.50007819  0.33392926
   0.16716361  0.33370959  0.33391584
  -0.00003898 -0.00000053  0.33360318
   0.16665556  0.83291575  0.33392579
   0.49989887  0.49953687  0.33393857
   0.66671926  0.33334619  0.33351028
   0.50043961  0.00039496  0.33392599
   0.66637031  0.83342630  0.33391385
Direct configuration=    14
   0.00420432  0.00289249  0.11202541
   0.35832976  0.00297799  0.09951820
   0.00379425  0.35671228  0.09951208
   0.65035992  0.64852773  0.09952787
   0.32799804  0.32641761  0.10071046
   0.68049195  0.00280642  0.10074538
   0.00398828  0.67901999  0.10074968
  -0.00028760  0.50003313  0.33393373
   0.16699044  0.33360900  0.33391161
  -0.00001391  0.00000425  0.33364216
   0.16668918  0.83306553  0.33392086
   0.49996932  0.49970282  0.33394220
   0.66670125  0.33334461  0.33353300
   0.50029875  0.00028520  0.33393037
   0.66644670  0.83336829  0.33390967
Direct configuration=    15
   0.00419936  0.00286485  0.11088989
   0.35828896  0.00287393  0.09967678
   0.00396358  0.35679526  0.09967098
   0.65025911  0.64858333  0.09968639
   0.32799913  0.32663701  0.10088220
   0.68027352  0.00260567  0.10092124
   0.00416325  0.67898215  0.10092596
   0.00001412  0.49993265  0.33394369
   0.16660429  0.33338467  0.33390217
   0.00004200  0.00001491  0.33372909
   0.16676416  0.83339954  0.33390985
   0.50012642  0.50007290  0.33395030
   0.66666108  0.33334111  0.33358365
   0.49998465  0.00004043  0.33394013
   0.66661704  0.83323893  0.33390034
Direct configuration=    16
   0.00419897  0.00286000  0.11076484
   0.35837313  0.00288323  0.09969205
   0.00396963  0.35686487  0.09968680
   0.65016660  0.64850671  0.09970092
   0.32797486  0.32658290  0.10090117
   0.68032317  0.00265529  0.10093876
   0.00413759  0.67898734  0.10094312
   0.00005785  0.49998154  0.33393137
   0.16664464  0.33339069  0.33390913
   0.00002623  0.00001215  0.33374198
   0.16675871  0.83337795  0.33391626
   0.50005910  0.50007919  0.33393737
   0.66667868  0.33334449  0.33361353
   0.49996018 -0.00002111  0.33392794
   0.66663133  0.83326210  0.33390742
Direct configuration=    17
   0.00419794  0.00284724  0.11043613
   0.35859441  0.00290768  0.09973220
   0.00398552  0.35704786  0.09972840
   0.64992343  0.64830530  0.09973911
   0.32791104  0.32644068  0.10095101
   0.68045367  0.00278569  0.10098482
   0.00407014  0.67900099  0.10098824
   0.00017281  0.50011005  0.33389897
   0.16675068  0.33340654  0.33392743
  -0.00001522  0.00000490  0.33377587
   0.16674439  0.83332121  0.33393310
   0.49988215  0.50009571  0.33390337
   0.66672496  0.33335338  0.33369207
   0.49989586 -0.00018289  0.33389590
   0.66666890  0.83332300  0.33392603
Direct configuration=    18
   0.00418773  0.00282112  0.11027281
   0.35875052  0.00293768  0.09975643
   0.00397216  0.35716763  0.09975370
   0.64976989  0.64816104  0.09976164
   0.32789937  0.32634159  0.10096788
   0.68055673  0.00290272  0.10099768
   0.00399467  0.67900055  0.10100026
   0.00009948  0.50006027  0.33387986
   0.16672824  0.33341837  0.33393893
   0.00001489  0.00001062  0.33379892
   0.16672568  0.83331009  0.33394366
   0.49996834  0.50005070  0.33388318
   0.66669377  0.33334839  0.33374282
   0.49997713 -0.00007353  0.33387707
   0.66662206  0.83331009  0.33393781
Direct configuration=    19
   0.00418106  0.00280405  0.11016601
   0.35885261  0.00295731  0.09977227
   0.00396343  0.35724595  0.09977024
   0.64966948  0.64806671  0.09977638
   0.32789175  0.32627680  0.10097892
   0.68062412  0.00297925  0.10100609
   0.00394532  0.67900027  0.10100812
   0.00005152  0.50002772  0.33386737
   0.16671357  0.33342610  0.33394645
   0.00003459  0.00001437  0.33381399
   0.16671344  0.83330281  0.33395056
   0.50002470  0.50002126  0.33386998
   0.66667337  0.33334512  0.33377600
   0.50003027 -0.00000202  0.33386476
   0.66659143  0.83330164  0.33394552
Direct configuration=    20
   0.00416856  0.00277812  0.11011946
   0.35886368  0.00297222  0.09978606
   0.00394572  0.35724673  0.09978443
   0.64967107  0.64805818  0.09978921
   0.32792658  0.32627836  0.10097282
   0.68063498  0.00301191  0.10099714
   0.00391406  0.67898294  0.10099860
   0.00002001  0.49998945  0.33387213
   0.16669952  0.33342386  0.33394492
   0.00001943  0.00001199  0.33382776
   0.16675619  0.83333689  0.33394891
   0.50004538  0.50003951  0.33387457
   0.66668936  0.33334736  0.33378280
   0.49999425  0.00001141  0.33386974
   0.66661191  0.83327839  0.33394412
Direct configuration=    21
   0.00415891  0.00275812  0.11008356
   0.35887221  0.00298373  0.09979669
   0.00393207  0.35724733  0.09979538
   0.64967229  0.64805161  0.09979910
   0.32795345  0.32627956  0.10096811
   0.68064335  0.00303710  0.10099023
   0.00388995  0.67896957  0.10099125
  -0.00000430  0.49995994  0.33387581
   0.16668868  0.33342213  0.33394375
   0.00000773  0.00001015  0.33383839
   0.16678917  0.83336319  0.33394764
   0.50006132  0.50005358  0.33387811
   0.66670168  0.33334908  0.33378804
   0.49996646  0.00002178  0.33387358
   0.66662770  0.83326046  0.33394304
Direct configuration=    22
   0.00415098  0.00274149  0.11004204
   0.35886548  0.00299828  0.09981015
   0.00391689  0.35722926  0.09980925
   0.64969196  0.64806060  0.09981153
   0.32798159  0.32628733  0.10095957
   0.68064237  0.00305695  0.10097851
   0.00386966  0.67895111  0.10097891
   0.00001371  0.49997517  0.33388384
   0.16669209  0.33342043  0.33394204
   0.00001131  0.00001081  0.33385098
   0.16677835  0.83335654  0.33394591
   0.50005057  0.50005413  0.33388608
   0.66669886  0.33334889  0.33379057
   0.49997030  0.00000844  0.33388180
   0.66662656  0.83326791  0.33394147
Direct configuration=    23
   0.00412721  0.00269160  0.10991746
   0.35884526  0.00304192  0.09985056
   0.00387135  0.35717504  0.09985088
   0.64975100  0.64808757  0.09984885
   0.32806602  0.32631064  0.10093393
   0.68063944  0.00311649  0.10094336
   0.00380878  0.67889570  0.10094189
   0.00006773  0.50002087  0.33390796
   0.16670231  0.33341531  0.33393693
   0.00002205  0.00001280  0.33388874
   0.16674591  0.83333660  0.33394074
   0.50001830  0.50005579  0.33391001
   0.66669038  0.33334833  0.33379813
   0.49998182 -0.00003159  0.33390648
   0.66662313  0.83329026  0.33393675
Direct configuration=    24
   0.00413940  0.00271505  0.10986828
   0.35884176  0.00305022  0.09985862
   0.00387491  0.35715664  0.09985938
   0.64975491  0.64809236  0.09985578
   0.32804021  0.32630399  0.10092957
   0.68062910  0.00310681  0.10093546
   0.00382416  0.67889131  0.10093326
   0.00005046  0.50001812  0.33391399
   0.16670768  0.33341893  0.33394378
   0.00002684  0.00001429  0.33389207
   0.16673692  0.83332675  0.33394772
   0.50002615  0.50003794  0.33391621
   0.66668732  0.33334855  0.33380222
   0.50000523 -0.00000902  0.33391265
   0.66661560  0.83329539  0.33394370
Direct configuration=    25
   0.00416464  0.00276358  0.10976652
   0.35883452  0.00306739  0.09987529
   0.00388229  0.35711858  0.09987696
   0.64976301  0.64810226  0.09987012
   0.32798683  0.32629024  0.10092054
   0.68060770  0.00308678  0.10091910
   0.00385600  0.67888220  0.10091538
   0.00001475  0.50001245  0.33392649
   0.16671879  0.33342643  0.33395795
   0.00003676  0.00001736  0.33389897
   0.16671832  0.83330635  0.33396216
   0.50004241  0.50000102  0.33392903
   0.66668098  0.33334900  0.33381067
   0.50005366  0.00003768  0.33392541
   0.66660001  0.83330602  0.33395809
Direct configuration=    26
   0.00416922  0.00277309  0.10973203
   0.35883567  0.00306659  0.09987822
   0.00388571  0.35711870  0.09988009
   0.64975869  0.64809959  0.09987245
   0.32797566  0.32629428  0.10091941
   0.68059810  0.00307295  0.10091585
   0.00386852  0.67888379  0.10091173
   0.00001518  0.50000885  0.33393005
   0.16671785  0.33342787  0.33396436
   0.00003359  0.00001694  0.33389947
   0.16672816  0.83331236  0.33396867
   0.50004271  0.50000786  0.33393272
   0.66668484  0.33334954  0.33381405
   0.50004338  0.00003390  0.33392903
   0.66660338  0.83330103  0.33396454
Direct configuration=    27
   0.00418296  0.00280162  0.10962855
   0.35883910  0.00306421  0.09988701
   0.00389598  0.35711905  0.09988946
   0.64974572  0.64809158  0.09987946
   0.32794218  0.32630643  0.10091601
   0.68056929  0.00303146  0.10090612
   0.00390610  0.67888855  0.10090078
   0.00001648  0.49999805  0.33394074
   0.16671504  0.33343217  0.33398359
   0.00002407  0.00001567  0.33390098
   0.16675770  0.83333040  0.33398819
   0.50004360  0.50002839  0.33394380
   0.66669642  0.33335115  0.33382418
   0.50001252  0.00002256  0.33393990
   0.66661351  0.83328606  0.33398390
Direct configuration=    28
   0.00421044  0.00285868  0.10942159
   0.35884596  0.00305944  0.09990459
   0.00391652  0.35711975  0.09990820
   0.64971979  0.64807556  0.09989347
   0.32787520  0.32633071  0.10090922
   0.68051167  0.00294847  0.10088666
   0.00398125  0.67889807  0.10087888
   0.00001907  0.49997645  0.33396211
   0.16670942  0.33344079  0.33402204
   0.00000503  0.00001313  0.33390400
   0.16681678  0.83336646  0.33402725
   0.50004537  0.50006946  0.33396596
   0.66671957  0.33335438  0.33384445
   0.49995081 -0.00000012  0.33396163
   0.66663377  0.83325611  0.33402261
Direct configuration=    29
   0.00420882  0.00285694  0.10937633
   0.35884965  0.00305374  0.09990672
   0.00391801  0.35713079  0.09991046
   0.64971178  0.64806849  0.09989507
   0.32787605  0.32634327  0.10090869
   0.68050129  0.00293264  0.10088386
   0.00399070  0.67890210  0.10087566
   0.00002816  0.49998196  0.33396735
   0.16670765  0.33343819  0.33402989
   0.00000843  0.00001378  0.33390577
   0.16681139  0.83336589  0.33403519
   0.50004421  0.50007116  0.33397134
   0.66671715  0.33335428  0.33384892
   0.49995334 -0.00000500  0.33396692
   0.66663402  0.83325911  0.33403049
Direct configuration=    30
   0.00420397  0.00285171  0.10924054
   0.35886072  0.00303664  0.09991313
   0.00392246  0.35716392  0.09991724
   0.64968775  0.64804730  0.09989986
   0.32787860  0.32638094  0.10090713
   0.68047015  0.00288513  0.10087547
   0.00401903  0.67891418  0.10086602
   0.00005543  0.49999849  0.33398306
   0.16670232  0.33343040  0.33405343
   0.00001865  0.00001573  0.33391107
   0.16679523  0.83336419  0.33405901
   0.50004074  0.50007624  0.33398746
   0.66670991  0.33335400  0.33386234
   0.49996092 -0.00001964  0.33398278
   0.66663478  0.83326811  0.33405412
Direct configuration=    31
   0.00419426  0.00284126  0.10896896
   0.35888285  0.00300243  0.09992596
   0.00393137  0.35723018  0.09993079
   0.64963968  0.64800491  0.09990945
   0.32788370  0.32645629  0.10090400
   0.68040786  0.00279013  0.10085868
   0.00407570  0.67893835  0.10084673
   0.00010997  0.50003155  0.33401449
   0.16669166  0.33341481  0.33410052
   0.00003909  0.00001963  0.33392168
   0.16676292  0.83336079  0.33410665
   0.50003379  0.50008641  0.33401970
   0.66669542  0.33335343  0.33388918
   0.49997608 -0.00004893  0.33401450
   0.66663630  0.83328610  0.33410139
Direct configuration=    32
   0.00418945  0.00283608  0.10883439
   0.35889382  0.00298548  0.09993231
   0.00393579  0.35726302  0.09993751
   0.64961587  0.64798390  0.09991420
   0.32788622  0.32649362  0.10090245
   0.68037700  0.00274305  0.10085036
   0.00410378  0.67895032  0.10083717
   0.00013700  0.50004793  0.33403007
   0.16668638  0.33340708  0.33412385
   0.00004921  0.00002157  0.33392694
   0.16674690  0.83335911  0.33413025
   0.50003035  0.50009145  0.33403567
   0.66668824  0.33335315  0.33390247
   0.49998359 -0.00006344  0.33403021
   0.66663706  0.83329502  0.33412481
Direct configuration=    33
   0.00417035  0.00280417  0.10870584
   0.35890990  0.00296957  0.09993405
   0.00392656  0.35730274  0.09993920
   0.64959904  0.64796388  0.09991551
   0.32791842  0.32650588  0.10090194
   0.68037898  0.00274634  0.10084617
   0.00408555  0.67895503  0.10083236
   0.00009573  0.50004088  0.33405002
   0.16670716  0.33341173  0.33413834
   0.00004535  0.00002294  0.33394448
   0.16674328  0.83334645  0.33414469
   0.50003218  0.50006084  0.33405576
   0.66669669  0.33335589  0.33391489
   0.50001012 -0.00002672  0.33405017
   0.66664138  0.83330773  0.33413925
Direct configuration=    34
   0.00412675  0.00273135  0.10841243
   0.35894659  0.00293326  0.09993801
   0.00390550  0.35739340  0.09994307
   0.64956064  0.64791816  0.09991850
   0.32799191  0.32653386  0.10090077
   0.68038350  0.00275384  0.10083659
   0.00404393  0.67896576  0.10082137
   0.00000153  0.50002478  0.33409556
   0.16675459  0.33342235  0.33417143
   0.00003653  0.00002606  0.33398452
   0.16673500  0.83331756  0.33417765
   0.50003634  0.49999096  0.33410162
   0.66671597  0.33336217  0.33394322
   0.50007065  0.00005709  0.33409571
   0.66665125  0.83333673  0.33417221
Direct configuration=    35
   0.00411732  0.00271977  0.10823614
   0.35897298  0.00293296  0.09993797
   0.00388866  0.35741458  0.09994274
   0.64954129  0.64789481  0.09991921
   0.32801824  0.32648405  0.10089687
   0.68042413  0.00283109  0.10083196
   0.00397743  0.67894091  0.10081668
   0.00001876  0.50000694  0.33412647
   0.16673729  0.33343637  0.33418376
   0.00003997  0.00002685  0.33402396
   0.16676797  0.83333859  0.33418941
   0.50005943  0.50002588  0.33413235
   0.66671624  0.33336245  0.33396447
   0.50004072  0.00004603  0.33412639
   0.66664024  0.83330603  0.33418428
Direct configuration=    36
   0.00410374  0.00270308  0.10798204
   0.35901101  0.00293253  0.09993790
   0.00386438  0.35744512  0.09994227
   0.64951339  0.64786115  0.09992024
   0.32805618  0.32641225  0.10089124
   0.68048271  0.00294243  0.10082529
   0.00388158  0.67890511  0.10080992
   0.00004361  0.49998124  0.33417103
   0.16671236  0.33345657  0.33420152
   0.00004494  0.00002800  0.33408081
   0.16681550  0.83336891  0.33420635
   0.50009271  0.50007621  0.33417664
   0.66671663  0.33336286  0.33399509
   0.49999757  0.00003009  0.33417062
   0.66662437  0.83326178  0.33420168
Direct configuration=    37
   0.00412569  0.00274860  0.10782075
   0.35902777  0.00295667  0.09994034
   0.00385930  0.35741599  0.09994428
   0.64948765  0.64784079  0.09992468
   0.32805418  0.32634771  0.10087714
   0.68051510  0.00303739  0.10081611
   0.00382474  0.67884316  0.10080163
   0.00009276  0.50003407  0.33419395
   0.16672440  0.33342878  0.33421608
   0.00005390  0.00002966  0.33412162
   0.16676646  0.83335257  0.33422003
   0.50005323  0.50006917  0.33419905
   0.66671186  0.33336365  0.33402804
   0.50001645 -0.00000854  0.33419311
   0.66664716  0.83330767  0.33421587
Direct configuration=    38
   0.00413076  0.00275913  0.10778344
   0.35903165  0.00296226  0.09994090
   0.00385812  0.35740925  0.09994474
   0.64948170  0.64783607  0.09992570
   0.32805372  0.32633278  0.10087388
   0.68052259  0.00305935  0.10081399
   0.00381160  0.67882883  0.10079971
   0.00010413  0.50004629  0.33419924
   0.16672718  0.33342236  0.33421945
   0.00005598  0.00003004  0.33413106
   0.16675512  0.83334880  0.33422319
   0.50004409  0.50006754  0.33420423
   0.66671076  0.33336383  0.33403566
   0.50002082 -0.00001747  0.33419831
   0.66665244  0.83331828  0.33421916
Direct configuration=    39
   0.00414230  0.00277907  0.10771582
   0.35902466  0.00297811  0.09994542
   0.00386304  0.35738166  0.09994874
   0.64947441  0.64783528  0.09993231
   0.32805648  0.32633909  0.10085585
   0.68051062  0.00307291  0.10080341
   0.00380930  0.67879565  0.10079043
   0.00006942  0.50003433  0.33420225
   0.16673664  0.33341990  0.33423302
   0.00004899  0.00003049  0.33414666
   0.16675945  0.83334932  0.33423626
   0.50004788  0.50005078  0.33420679
   0.66672111  0.33336621  0.33406221
   0.50003040  0.00000957  0.33420100
   0.66666595  0.83332496  0.33423250
Direct configuration=    40
   0.00415131  0.00279463  0.10766300
   0.35901920  0.00299049  0.09994894
   0.00386689  0.35736011  0.09995187
   0.64946872  0.64783466  0.09993747
   0.32805864  0.32634402  0.10084176
   0.68050127  0.00308350  0.10079515
   0.00380750  0.67876974  0.10078318
   0.00004232  0.50002500  0.33420460
   0.16674403  0.33341798  0.33424361
   0.00004354  0.00003084  0.33415884
   0.16676283  0.83334973  0.33424647
   0.50005083  0.50003769  0.33420879
   0.66672919  0.33336806  0.33408294
   0.50003788  0.00003068  0.33420310
   0.66667651  0.83333017  0.33424293
Direct configuration=    41
   0.00413868  0.00276654  0.10759404
   0.35900485  0.00299395  0.09995500
   0.00387303  0.35735418  0.09995697
   0.64947932  0.64785067  0.09994675
   0.32806845  0.32638563  0.10081464
   0.68047142  0.00304728  0.10078011
   0.00382651  0.67877159  0.10077044
   0.00006941  0.50001488  0.33420750
   0.16672426  0.33343916  0.33426090
   0.00005835  0.00003280  0.33417367
   0.16678090  0.83335794  0.33426336
   0.50007850  0.50006505  0.33421112
   0.66671623  0.33336654  0.33411255
   0.50002752  0.00002223  0.33420563
   0.66664322  0.83329889  0.33425999
Direct configuration=    42
   0.00413727  0.00276338  0.10758630
   0.35900324  0.00299433  0.09995568
   0.00387372  0.35735351  0.09995754
   0.64948050  0.64785247  0.09994779
   0.32806955  0.32639030  0.10081160
   0.68046808  0.00304322  0.10077842
   0.00382864  0.67877180  0.10076901
   0.00007245  0.50001375  0.33420783
   0.16672205  0.33344154  0.33426284
   0.00006001  0.00003302  0.33417533
   0.16678293  0.83335886  0.33426526
   0.50008160  0.50006812  0.33421138
   0.66671478  0.33336637  0.33411587
   0.50002636  0.00002128  0.33420591
   0.66663949  0.83329539  0.33426190
Direct configuration=    43
   0.00411688  0.00272276  0.10754318
   0.35900285  0.00298745  0.09995757
   0.00387706  0.35737343  0.09995864
   0.64949004  0.64786389  0.09995218
   0.32806311  0.32641817  0.10079079
   0.68044892  0.00299470  0.10076793
   0.00385378  0.67880317  0.10076052
   0.00008556  0.50003481  0.33421559
   0.16673664  0.33343510  0.33427270
   0.00005487  0.00003251  0.33418571
   0.16677541  0.83335339  0.33427514
   0.50005613  0.50006576  0.33421884
   0.66672172  0.33336777  0.33412870
   0.50002360  0.00000239  0.33421347
   0.66665410  0.83331204  0.33427170
Direct configuration=    44
   0.00411303  0.00271509  0.10753504
   0.35900277  0.00298615  0.09995793
   0.00387769  0.35737719  0.09995885
   0.64949184  0.64786605  0.09995301
   0.32806189  0.32642343  0.10078686
   0.68044530  0.00298554  0.10076595
   0.00385853  0.67880909  0.10075892
   0.00008804  0.50003879  0.33421705
   0.16673939  0.33343389  0.33427456
   0.00005389  0.00003242  0.33418766
   0.16677399  0.83335235  0.33427701
   0.50005133  0.50006531  0.33422025
   0.66672303  0.33336803  0.33413112
   0.50002307 -0.00000117  0.33421490
   0.66665686  0.83331519  0.33427355
Direct configuration=    45
   0.00411183  0.00271386  0.10750673
   0.35901676  0.00298396  0.09995526
   0.00387990  0.35739304  0.09995579
   0.64947830  0.64785474  0.09995181
   0.32803929  0.32642215  0.10077347
   0.68044068  0.00296387  0.10076028
   0.00387763  0.67882664  0.10075474
   0.00007089  0.50003029  0.33422866
   0.16673457  0.33342436  0.33427935
   0.00005506  0.00003367  0.33419548
   0.16676923  0.83335712  0.33428208
   0.50006107  0.50005636  0.33423178
   0.66672413  0.33336882  0.33413238
   0.50003412  0.00001759  0.33422646
   0.66666721  0.83332086  0.33427839
Direct configuration=    46
   0.00411052  0.00271253  0.10747611
   0.35903189  0.00298159  0.09995237
   0.00388228  0.35741017  0.09995248
   0.64946365  0.64784251  0.09995052
   0.32801485  0.32642077  0.10075899
   0.68043568  0.00294045  0.10075416
   0.00389829  0.67884563  0.10075023
   0.00005235  0.50002111  0.33424120
   0.16672936  0.33341407  0.33428452
   0.00005633  0.00003502  0.33420394
   0.16676408  0.83336228  0.33428757
   0.50007160  0.50004669  0.33424424
   0.66672531  0.33336967  0.33413375
   0.50004606  0.00003787  0.33423896
   0.66667840  0.83332699  0.33428363
Direct configuration=    47
   0.00411088  0.00271290  0.10748456
   0.35902772  0.00298224  0.09995316
   0.00388162  0.35740544  0.09995340
   0.64946770  0.64784588  0.09995088
   0.32802159  0.32642115  0.10076298
   0.68043706  0.00294691  0.10075585
   0.00389259  0.67884039  0.10075147
   0.00005747  0.50002364  0.33423774
   0.16673080  0.33341691  0.33428309
   0.00005598  0.00003465  0.33420161
   0.16676550  0.83336085  0.33428605
   0.50006870  0.50004936  0.33424080
   0.66672498  0.33336944  0.33413338
   0.50004277  0.00003228  0.33423551
   0.66667532  0.83332529  0.33428219
Direct configuration=    48
   0.00411515  0.00272277  0.10746293
   0.35903734  0.00298267  0.09994937
   0.00388115  0.35741114  0.09994940
   0.64945319  0.64783220  0.09994797
   0.32800992  0.32641653  0.10075401
   0.68043678  0.00294349  0.10075233
   0.00390002  0.67884252  0.10074900
   0.00006425  0.50002351  0.33424692
   0.16673112  0.33342537  0.33428759
   0.00005799  0.00003497  0.33420679
   0.16677219  0.83336065  0.33429085
   0.50007143  0.50005539  0.33424996
   0.66672417  0.33336960  0.33413404
   0.50003908  0.00002834  0.33424471
   0.66666690  0.83331819  0.33428679
Direct configuration=    49
   0.00412628  0.00274849  0.10740658
   0.35906240  0.00298379  0.09993947
   0.00387991  0.35742598  0.09993899
   0.64941538  0.64779654  0.09994038
   0.32797952  0.32640448  0.10073061
   0.68043606  0.00293456  0.10074316
   0.00391937  0.67884808  0.10074256
   0.00008191  0.50002318  0.33427085
   0.16673198  0.33344743  0.33429934
   0.00006321  0.00003582  0.33422031
   0.16678962  0.83336010  0.33430337
   0.50007855  0.50007110  0.33427383
   0.66672205  0.33337004  0.33413578
   0.50002947  0.00001808  0.33426867
   0.66664495  0.83329966  0.33429877
Direct configuration=    50
   0.00412292  0.00274073  0.10742358
   0.35905484  0.00298345  0.09994246
   0.00388029  0.35742150  0.09994213
   0.64942679  0.64780730  0.09994267
   0.32798869  0.32640811  0.10073767
   0.68043627  0.00293725  0.10074593
   0.00391353  0.67884641  0.10074450
   0.00007658  0.50002328  0.33426363
   0.16673172  0.33344077  0.33429579
   0.00006163  0.00003557  0.33421623
   0.16678436  0.83336027  0.33429959
   0.50007640  0.50006636  0.33426662