  15  15   0   4
  0.2033749E+02  0.4846000E-09  0.4846000E-09  0.1500000E-08  0.5000000E-15
  1.000000000000000E-004
  CAR 
 Lattice                                 
     10.33467122    -21.69719082  301     -0.32327279      1.00000000
    -21.697  0.0000E+00  0.0000E+00  0.0000E+00  0.0000E+00
    -21.590  0.0000E+00  0.0000E+00  0.0000E+00  0.0000E+00
    -21.484  0.0000E+00  0.0000E+00  0.0000E+00  0.0000E+00
    -21.377  0.0000E+00  0.0000E+00  0.0000E+00  0.0000E+00
    -21.270  0.0000E+00  0.0000E+00  0.0000E+00  0.0000E+00
    -21.163  0.0000E+00  0.0000E+00  0.0000E+00  0.0000E+00
    -21.057  0.0000E+00  0.0000E+00  0.0000E+00  0.0000E+00
    -20.950  0.0000E+00  0.0000E+00  0.0000E+00  0.0000E+00
    -20.843  0.0000E+00  0.0000E+00  0.0000E+00  0.0000E+00
    -20.736  0.6914E-15  0.6914E-15  0.7382E-16  0.7382E-16
    -20.629  0.1188E-10  0.1188E-10  0.1269E-11  0.1269E-11
    -20.523  0.2454E-07  0.2454E-07  0.2622E-08  0.2622E-08
    -20.416  0.6698E-05  0.6698E-05  0.7178E-06  0.7178E-06
    -20.309  0.2701E-03  0.2701E-03  0.2955E-04  0.2955E-04
    -20.202  0.1971E-02  0.1971E-02  0.2400E-03  0.2400E-03
    -20.096  0.4148E-02  0.4148E-02  0.6829E-03  0.6829E-03
    -19.989  0.4516E-02  0.4516E-02  0.1165E-02  0.1165E-02
    -19.882  0.4933E-02  0.4933E-02  0.1692E-02  0.1692E-02
    -19.775  0.4151E-02  0.4151E-02  0.2135E-02  0.2135E-02
    -19.669  0.5379E-02  0.5379E-02  0.2709E-02  0.2709E-02
    -19.562  0.4214E-02  0.4214E-02  0.3159E-02  0.3159E-02
    -19.455  0.4247E-02  0.4247E-02  0.3613E-02  0.3613E-02
    -19.348  0.6006E-02  0.6006E-02  0.4254E-02  0.4254E-02
    -19.241  0.3813E-02  0.3813E-02  0.4661E-02  0.4661E-02
    -19.135  0.3871E-02  0.3871E-02  0.5075E-02  0.5075E-02
    -19.028  0.6109E-02  0.6109E-02  0.5727E-02  0.5727E-02
    -18.921  0.5208E-02  0.5208E-02  0.6283E-02  0.6283E-02
    -18.814  0.2961E-02  0.2961E-02  0.6599E-02  0.6599E-02
    -18.708  0.4358E-02  0.4358E-02  0.7064E-02  0.7064E-02
    -18.601  0.6911E-02  0.6911E-02  0.7802E-02  0.7802E-02
    -18.494  0.4566E-02  0.4566E-02  0.8290E-02  0.8290E-02
    -18.387  0.3794E-02  0.3794E-02  0.8695E-02  0.8695E-02
    -18.280  0.2970E-02  0.2970E-02  0.9012E-02  0.9012E-02
    -18.174  0.6611E-02  0.6611E-02  0.9718E-02  0.9718E-02
    -18.067  0.6612E-02  0.6612E-02  0.1042E-01  0.1042E-01
    -17.960  0.3541E-02  0.3541E-02  0.1080E-01  0.1080E-01
    -17.853  0.3279E-02  0.3279E-02  0.1115E-01  0.1115E-01
    -17.747  0.4096E-02  0.4096E-02  0.1159E-01  0.1159E-01
    -17.640  0.6199E-02  0.6199E-02  0.1225E-01  0.1225E-01
    -17.533  0.6770E-02  0.6770E-02  0.1297E-01  0.1297E-01
    -17.426  0.5564E-02  0.5564E-02  0.1357E-01  0.1357E-01
    -17.320  0.6520E-02  0.6520E-02  0.1426E-01  0.1426E-01
    -17.213  0.1018E-01  0.1018E-01  0.1535E-01  0.1535E-01
    -17.106  0.1458E-01  0.1458E-01  0.1691E-01  0.1691E-01
    -16.999  0.1562E-01  0.1562E-01  0.1858E-01  0.1858E-01
    -16.892  0.1707E-01  0.1707E-01  0.2040E-01  0.2040E-01
    -16.786  0.2079E-01  0.2079E-01  0.2262E-01  0.2262E-01
    -16.679  0.1637E-01  0.1637E-01  0.2437E-01  0.2437E-01
    -16.572  0.5067E-02  0.5067E-02  0.2491E-01  0.2491E-01
    -16.465  0.7220E-02  0.7220E-02  0.2568E-01  0.2568E-01
    -16.359  0.8170E-02  0.8170E-02  0.2655E-01  0.2655E-01
    -16.252  0.4568E-02  0.4568E-02  0.2704E-01  0.2704E-01
    -16.145  0.4148E-02  0.4148E-02  0.2748E-01  0.2748E-01
    -16.038  0.3864E-02  0.3864E-02  0.2789E-01  0.2789E-01
    -15.931  0.3814E-02  0.3814E-02  0.2830E-01  0.2830E-01
    -15.825  0.3640E-02  0.3640E-02  0.2869E-01  0.2869E-01
    -15.718  0.8037E-02  0.8037E-02  0.2955E-01  0.2955E-01
    -15.611  0.8095E-02  0.8095E-02  0.3041E-01  0.3041E-01
    -15.504  0.3942E-02  0.3942E-02  0.3083E-01  0.3083E-01
    -15.398  0.3864E-02  0.3864E-02  0.3124E-01  0.3124E-01
    -15.291  0.3362E-02  0.3362E-02  0.3160E-01  0.3160E-01
    -15.184  0.4610E-02  0.4610E-02  0.3210E-01  0.3210E-01
    -15.077  0.6161E-02  0.6161E-02  0.3275E-01  0.3275E-01
    -14.970  0.1068E-01  0.1068E-01  0.3389E-01  0.3389E-01
    -14.864  0.1688E-01  0.1688E-01  0.3570E-01  0.3570E-01
    -14.757  0.1831E-01  0.1831E-01  0.3765E-01  0.3765E-01
    -14.650  0.1736E-01  0.1736E-01  0.3950E-01  0.3950E-01
    -14.543  0.1113E-01  0.1113E-01  0.4069E-01  0.4069E-01
    -14.437  0.7672E-02  0.7672E-02  0.4151E-01  0.4151E-01
    -14.330  0.1473E-01  0.1473E-01  0.4309E-01  0.4309E-01
    -14.223  0.1551E-01  0.1551E-01  0.4474E-01  0.4474E-01
    -14.116  0.1115E-01  0.1115E-01  0.4593E-01  0.4593E-01
    -14.010  0.1077E-01  0.1077E-01  0.4708E-01  0.4708E-01
    -13.903  0.1242E-01  0.1242E-01  0.4841E-01  0.4841E-01
    -13.796  0.1966E-01  0.1966E-01  0.5051E-01  0.5051E-01
    -13.689  0.1984E-01  0.1984E-01  0.5262E-01  0.5262E-01
    -13.582  0.1809E-01  0.1809E-01  0.5456E-01  0.5456E-01
    -13.476  0.1111E-01  0.1111E-01  0.5574E-01  0.5574E-01
    -13.369  0.6767E-02  0.6767E-02  0.5646E-01  0.5646E-01
    -13.262  0.3281E-02  0.3281E-02  0.5682E-01  0.5682E-01
    -13.155  0.4037E-02  0.4037E-02  0.5725E-01  0.5725E-01
    -13.049  0.6819E-02  0.6819E-02  0.5797E-01  0.5797E-01
    -12.942  0.6913E-02  0.6913E-02  0.5871E-01  0.5871E-01
    -12.835  0.4819E-02  0.4819E-02  0.5923E-01  0.5923E-01
    -12.728  0.6714E-02  0.6714E-02  0.5994E-01  0.5994E-01
    -12.621  0.7058E-02  0.7058E-02  0.6070E-01  0.6070E-01
    -12.515  0.5591E-02  0.5591E-02  0.6129E-01  0.6129E-01
    -12.408  0.5385E-02  0.5385E-02  0.6187E-01  0.6187E-01
    -12.301  0.3350E-02  0.3350E-02  0.6223E-01  0.6223E-01
    -12.194  0.6307E-02  0.6307E-02  0.6290E-01  0.6290E-01
    -12.088  0.8039E-02  0.8039E-02  0.6376E-01  0.6376E-01
    -11.981  0.3400E-02  0.3400E-02  0.6412E-01  0.6412E-01
    -11.874  0.3351E-02  0.3351E-02  0.6448E-01  0.6448E-01
    -11.767  0.3386E-02  0.3386E-02  0.6484E-01  0.6484E-01
    -11.661  0.5925E-02  0.5925E-02  0.6547E-01  0.6547E-01
    -11.554  0.6767E-02  0.6767E-02  0.6620E-01  0.6620E-01
    -11.447  0.3856E-02  0.3856E-02  0.6661E-01  0.6661E-01
    -11.340  0.1854E-02  0.1854E-02  0.6681E-01  0.6681E-01
    -11.233  0.4697E-02  0.4697E-02  0.6731E-01  0.6731E-01
    -11.127  0.5816E-02  0.5816E-02  0.6793E-01  0.6793E-01
    -11.020  0.5164E-02  0.5164E-02  0.6848E-01  0.6848E-01
    -10.913  0.7724E-02  0.7724E-02  0.6930E-01  0.6930E-01
    -10.806  0.6105E-02  0.6105E-02  0.6996E-01  0.6996E-01
    -10.700  0.2474E-02  0.2474E-02  0.7022E-01  0.7022E-01
    -10.593  0.7956E-02  0.7956E-02  0.7107E-01  0.7107E-01
    -10.486  0.1267E-01  0.1267E-01  0.7242E-01  0.7242E-01
    -10.379  0.1536E-01  0.1536E-01  0.7406E-01  0.7406E-01
    -10.272  0.1493E-01  0.1493E-01  0.7566E-01  0.7566E-01
    -10.166  0.1455E-01  0.1455E-01  0.7721E-01  0.7721E-01
    -10.059  0.1798E-01  0.1798E-01  0.7913E-01  0.7913E-01
     -9.952  0.1857E-01  0.1857E-01  0.8111E-01  0.8111E-01
     -9.845  0.9744E-02  0.9744E-02  0.8215E-01  0.8215E-01
     -9.739  0.6934E-02  0.6934E-02  0.8289E-01  0.8289E-01
     -9.632  0.1412E-01  0.1412E-01  0.8440E-01  0.8440E-01
     -9.525  0.1533E-01  0.1533E-01  0.8604E-01  0.8604E-01
     -9.418  0.1636E-01  0.1636E-01  0.8778E-01  0.8778E-01
     -9.312  0.1563E-01  0.1563E-01  0.8945E-01  0.8945E-01
     -9.205  0.1410E-01  0.1410E-01  0.9096E-01  0.9096E-01
     -9.098  0.1048E-01  0.1048E-01  0.9208E-01  0.9208E-01
     -8.991  0.7540E-02  0.7540E-02  0.9288E-01  0.9288E-01
     -8.884  0.1557E-01  0.1557E-01  0.9455E-01  0.9455E-01
     -8.778  0.2065E-01  0.2065E-01  0.9675E-01  0.9675E-01
     -8.671  0.1522E-01  0.1522E-01  0.9838E-01  0.9838E-01
     -8.564  0.7633E-02  0.7633E-02  0.9919E-01  0.9919E-01
     -8.457  0.1082E-01  0.1082E-01  0.1003E+00  0.1003E+00
     -8.351  0.2082E-01  0.2082E-01  0.1026E+00  0.1026E+00
     -8.244  0.1863E-01  0.1863E-01  0.1046E+00  0.1046E+00
     -8.137  0.1164E-01  0.1164E-01  0.1058E+00  0.1058E+00
     -8.030  0.1629E-01  0.1629E-01  0.1075E+00  0.1075E+00
     -7.923  0.2495E-01  0.2494E-01  0.1102E+00  0.1102E+00
     -7.817  0.2447E-01  0.2447E-01  0.1128E+00  0.1128E+00
     -7.710  0.2021E-01  0.2021E-01  0.1150E+00  0.1150E+00
     -7.603  0.1013E-01  0.1013E-01  0.1161E+00  0.1161E+00
     -7.496  0.8347E-02  0.8347E-02  0.1169E+00  0.1169E+00
     -7.390  0.1873E-01  0.1873E-01  0.1189E+00  0.1189E+00
     -7.283  0.1793E-01  0.1793E-01  0.1209E+00  0.1209E+00
     -7.176  0.1171E-01  0.1171E-01  0.1221E+00  0.1221E+00
     -7.069  0.1119E-01  0.1119E-01  0.1233E+00  0.1233E+00
     -6.963  0.1700E-01  0.1700E-01  0.1251E+00  0.1251E+00
     -6.856  0.1802E-01  0.1802E-01  0.1270E+00  0.1270E+00
     -6.749  0.1984E-01  0.1984E-01  0.1292E+00  0.1292E+00
     -6.642  0.2091E-01  0.2091E-01  0.1314E+00  0.1314E+00
     -6.535  0.1853E-01  0.1853E-01  0.1334E+00  0.1334E+00
     -6.429  0.2038E-01  0.2038E-01  0.1356E+00  0.1356E+00
     -6.322  0.1702E-01  0.1702E-01  0.1374E+00  0.1374E+00
     -6.215  0.1844E-01  0.1844E-01  0.1393E+00  0.1393E+00
     -6.108  0.2617E-01  0.2617E-01  0.1421E+00  0.1421E+00
     -6.002  0.2272E-01  0.2272E-01  0.1446E+00  0.1446E+00
     -5.895  0.3145E-01  0.3145E-01  0.1479E+00  0.1479E+00
     -5.788  0.2849E-01  0.2849E-01  0.1510E+00  0.1510E+00
     -5.681  0.1616E-01  0.1616E-01  0.1527E+00  0.1527E+00
     -5.574  0.1858E-01  0.1858E-01  0.1547E+00  0.1547E+00
     -5.468  0.3292E-01  0.3292E-01  0.1582E+00  0.1582E+00
     -5.361  0.3582E-01  0.3582E-01  0.1620E+00  0.1620E+00
     -5.254  0.2331E-01  0.2331E-01  0.1645E+00  0.1645E+00
     -5.147  0.1679E-01  0.1679E-01  0.1663E+00  0.1663E+00
     -5.041  0.1043E-01  0.1043E-01  0.1674E+00  0.1674E+00
     -4.934  0.1045E-01  0.1045E-01  0.1685E+00  0.1685E+00
     -4.827  0.1432E-01  0.1432E-01  0.1700E+00  0.1700E+00
     -4.720  0.1109E-01  0.1109E-01  0.1712E+00  0.1712E+00
     -4.614  0.8050E-02  0.8050E-02  0.1721E+00  0.1721E+00
     -4.507  0.9081E-02  0.9081E-02  0.1731E+00  0.1731E+00
     -4.400  0.1626E-01  0.1626E-01  0.1748E+00  0.1748E+00
     -4.293  0.2229E-01  0.2229E-01  0.1772E+00  0.1772E+00
     -4.186  0.1850E-01  0.1850E-01  0.1792E+00  0.1792E+00
     -4.080  0.1891E-01  0.1891E-01  0.1812E+00  0.1812E+00
     -3.973  0.2215E-01  0.2215E-01  0.1835E+00  0.1835E+00
     -3.866  0.2398E-01  0.2398E-01  0.1861E+00  0.1861E+00
     -3.759  0.1827E-01  0.1827E-01  0.1881E+00  0.1881E+00
     -3.653  0.1808E-01  0.1808E-01  0.1900E+00  0.1900E+00
     -3.546  0.2034E-01  0.2034E-01  0.1922E+00  0.1922E+00
     -3.439  0.1581E-01  0.1581E-01  0.1938E+00  0.1938E+00
     -3.332  0.1381E-01  0.1381E-01  0.1953E+00  0.1953E+00
     -3.225  0.1310E-01  0.1310E-01  0.1967E+00  0.1967E+00
     -3.119  0.1728E-01  0.1728E-01  0.1986E+00  0.1986E+00
     -3.012  0.1823E-01  0.1823E-01  0.2005E+00  0.2005E+00
     -2.905  0.1185E-01  0.1185E-01  0.2018E+00  0.2018E+00
     -2.798  0.1190E-01  0.1190E-01  0.2030E+00  0.2030E+00
     -2.692  0.7468E-02  0.7468E-02  0.2038E+00  0.2038E+00
     -2.585  0.1010E-01  0.1010E-01  0.2049E+00  0.2049E+00
     -2.478  0.1962E-01  0.1962E-01  0.2070E+00  0.2070E+00
     -2.371  0.1432E-01  0.1432E-01  0.2085E+00  0.2085E+00
     -2.265  0.3990E-02  0.3990E-02  0.2090E+00  0.2090E+00
     -2.158  0.4718E-02  0.4718E-02  0.2095E+00  0.2095E+00
     -2.051  0.1034E-01  0.1034E-01  0.2106E+00  0.2106E+00
     -1.944  0.1024E-01  0.1024E-01  0.2117E+00  0.2117E+00
     -1.837  0.1117E-01  0.1117E-01  0.2129E+00  0.2129E+00
     -1.731  0.1154E-01  0.1154E-01  0.2141E+00  0.2141E+00
     -1.624  0.9531E-02  0.9531E-02  0.2151E+00  0.2151E+00
     -1.517  0.7144E-02  0.7144E-02  0.2159E+00  0.2159E+00
     -1.410  0.4522E-02  0.4522E-02  0.2164E+00  0.2164E+00
     -1.304  0.3945E-02  0.3945E-02  0.2168E+00  0.2168E+00
     -1.197  0.4028E-02  0.4028E-02  0.2172E+00  0.2172E+00
     -1.090  0.3933E-02  0.3933E-02  0.2176E+00  0.2176E+00
     -0.983  0.5864E-02  0.5864E-02  0.2183E+00  0.2183E+00
     -0.876  0.2936E-02  0.2936E-02  0.2186E+00  0.2186E+00
     -0.770  0.6247E-03  0.6247E-03  0.2186E+00  0.2186E+00
     -0.663  0.6936E-04  0.6936E-04  0.2186E+00  0.2186E+00
     -0.556  0.2422E-05  0.2422E-05  0.2186E+00  0.2186E+00
     -0.449  0.7600E-04  0.7600E-04  0.2186E+00  0.2186E+00
     -0.343  0.7211E-03  0.7211E-03  0.2187E+00  0.2187E+00
     -0.236  0.1012E-02  0.1012E-02  0.2188E+00  0.2188E+00
     -0.129  0.2156E-03  0.2156E-03  0.2189E+00  0.2189E+00
     -0.022  0.6335E-05  0.6335E-05  0.2189E+00  0.2189E+00
      0.084  0.2719E-06  0.2719E-06  0.2189E+00  0.2189E+00
      0.191  0.4586E-04  0.4586E-04  0.2189E+00  0.2189E+00
      0.298  0.1045E-02  0.1045E-02  0.2190E+00  0.2190E+00
      0.405  0.3316E-02  0.3316E-02  0.2193E+00  0.2193E+00
      0.512  0.1664E-02  0.1664E-02  0.2195E+00  0.2195E+00
      0.618  0.1181E-02  0.1181E-02  0.2196E+00  0.2196E+00
      0.725  0.3336E-02  0.3336E-02  0.2200E+00  0.2200E+00
      0.832  0.5215E-02  0.5215E-02  0.2205E+00  0.2205E+00
      0.939  0.9490E-02  0.9490E-02  0.2216E+00  0.2216E+00
      1.045  0.2529E-01  0.2529E-01  0.2243E+00  0.2243E+00
      1.152  0.2095E-01  0.2095E-01  0.2265E+00  0.2265E+00
      1.259  0.5157E-02  0.5157E-02  0.2270E+00  0.2270E+00
      1.366  0.4086E-02  0.4086E-02  0.2275E+00  0.2275E+00
      1.473  0.8253E-02  0.8253E-02  0.2284E+00  0.2284E+00
      1.579  0.1254E-01  0.1254E-01  0.2297E+00  0.2297E+00
      1.686  0.1910E-01  0.1910E-01  0.2317E+00  0.2317E+00
      1.793  0.1561E-01  0.1561E-01  0.2334E+00  0.2334E+00
      1.900  0.6638E-02  0.6638E-02  0.2341E+00  0.2341E+00
      2.006  0.6613E-02  0.6613E-02  0.2348E+00  0.2348E+00
      2.113  0.1000E-01  0.1000E-01  0.2359E+00  0.2359E+00
      2.220  0.7345E-02  0.7345E-02  0.2367E+00  0.2367E+00
      2.327  0.8186E-02  0.8186E-02  0.2376E+00  0.2376E+00
      2.433  0.7375E-02  0.7375E-02  0.2383E+00  0.2383E+00
      2.540  0.1029E-01  0.1029E-01  0.2394E+00  0.2394E+00
      2.647  0.1129E-01  0.1129E-01  0.2406E+00  0.2406E+00
      2.754  0.6798E-02  0.6798E-02  0.2414E+00  0.2414E+00
      2.861  0.4474E-02  0.4474E-02  0.2418E+00  0.2418E+00
      2.967  0.8877E-02  0.8877E-02  0.2428E+00  0.2428E+00
      3.074  0.1207E-01  0.1207E-01  0.2441E+00  0.2441E+00
      3.181  0.9753E-02  0.9753E-02  0.2451E+00  0.2451E+00
      3.288  0.9978E-02  0.9978E-02  0.2462E+00  0.2462E+00
      3.394  0.9932E-02  0.9932E-02  0.2473E+00  0.2473E+00
      3.501  0.1095E-01  0.1095E-01  0.2484E+00  0.2484E+00
      3.608  0.1665E-01  0.1665E-01  0.2502E+00  0.2502E+00
      3.715  0.2155E-01  0.2155E-01  0.2525E+00  0.2525E+00
      3.822  0.2456E-01  0.2456E-01  0.2551E+00  0.2551E+00
      3.928  0.2259E-01  0.2259E-01  0.2575E+00  0.2575E+00
      4.035  0.2342E-01  0.2342E-01  0.2600E+00  0.2600E+00
      4.142  0.2409E-01  0.2409E-01  0.2626E+00  0.2626E+00
      4.249  0.2608E-01  0.2608E-01  0.2654E+00  0.2654E+00
      4.355  0.2416E-01  0.2416E-01  0.2680E+00  0.2680E+00
      4.462  0.2330E-01  0.2331E-01  0.2705E+00  0.2705E+00
      4.569  0.2193E-01  0.2193E-01  0.2728E+00  0.2728E+00
      4.676  0.2169E-01  0.2169E-01  0.2751E+00  0.2751E+00
      4.782  0.2694E-01  0.2694E-01  0.2780E+00  0.2780E+00
      4.889  0.2408E-01  0.2408E-01  0.2806E+00  0.2806E+00
      4.996  0.2197E-01  0.2197E-01  0.2829E+00  0.2829E+00
      5.103  0.2559E-01  0.2559E-01  0.2856E+00  0.2856E+00
      5.210  0.2642E-01  0.2642E-01  0.2885E+00  0.2885E+00
      5.316  0.2365E-01  0.2365E-01  0.2910E+00  0.2910E+00
      5.423  0.2151E-01  0.2151E-01  0.2933E+00  0.2933E+00
      5.530  0.1988E-01  0.1989E-01  0.2954E+00  0.2954E+00
      5.637  0.2688E-01  0.2688E-01  0.2983E+00  0.2983E+00
      5.743  0.2552E-01  0.2552E-01  0.3010E+00  0.3010E+00
      5.850  0.2282E-01  0.2282E-01  0.3034E+00  0.3034E+00
      5.957  0.1901E-01  0.1901E-01  0.3055E+00  0.3055E+00
      6.064  0.1991E-01  0.1991E-01  0.3076E+00  0.3076E+00
      6.171  0.1525E-01  0.1525E-01  0.3092E+00  0.3092E+00
      6.277  0.1924E-01  0.1924E-01  0.3113E+00  0.3113E+00
      6.384  0.2324E-01  0.2324E-01  0.3138E+00  0.3138E+00
      6.491  0.2361E-01  0.2361E-01  0.3163E+00  0.3163E+00
      6.598  0.2421E-01  0.2421E-01  0.3189E+00  0.3189E+00
      6.704  0.2787E-01  0.2787E-01  0.3218E+00  0.3218E+00
      6.811  0.3285E-01  0.3285E-01  0.3253E+00  0.3253E+00
      6.918  0.2610E-01  0.2610E-01  0.3281E+00  0.3281E+00
      7.025  0.2557E-01  0.2557E-01  0.3309E+00  0.3309E+00
      7.131  0.2715E-01  0.2715E-01  0.3338E+00  0.3338E+00
      7.238  0.2109E-01  0.2109E-01  0.3360E+00  0.3360E+00
      7.345  0.1878E-01  0.1878E-01  0.3380E+00  0.3380E+00
      7.452  0.2122E-01  0.2122E-01  0.3403E+00  0.3403E+00
      7.559  0.2311E-01  0.2311E-01  0.3428E+00  0.3428E+00
      7.665  0.2412E-01  0.2412E-01  0.3453E+00  0.3453E+00
      7.772  0.3001E-01  0.3001E-01  0.3485E+00  0.3485E+00
      7.879  0.3384E-01  0.3384E-01  0.3521E+00  0.3521E+00
      7.986  0.2637E-01  0.2636E-01  0.3550E+00  0.3550E+00
      8.092  0.3207E-01  0.3207E-01  0.3584E+00  0.3584E+00
      8.199  0.3324E-01  0.3324E-01  0.3619E+00  0.3619E+00
      8.306  0.3201E-01  0.3201E-01  0.3654E+00  0.3654E+00
      8.413  0.3890E-01  0.3890E-01  0.3695E+00  0.3695E+00
      8.520  0.2657E-01  0.2657E-01  0.3723E+00  0.3723E+00
      8.626  0.1286E-01  0.1286E-01  0.3737E+00  0.3737E+00
      8.733  0.5662E-02  0.5662E-02  0.3743E+00  0.3743E+00
      8.840  0.3265E-02  0.3265E-02  0.3747E+00  0.3747E+00
      8.947  0.2537E-02  0.2537E-02  0.3749E+00  0.3749E+00
      9.053  0.5493E-03  0.5493E-03  0.3750E+00  0.3750E+00
      9.160  0.2088E-04  0.2088E-04  0.3750E+00  0.3750E+00
      9.267  0.1048E-06  0.1048E-06  0.3750E+00  0.3750E+00
      9.374  0.6080E-10  0.6081E-10  0.3750E+00  0.3750E+00
      9.480  0.3862E-14  0.3862E-14  0.3750E+00  0.3750E+00
      9.587  0.0000E+00  0.0000E+00  0.3750E+00  0.3750E+00
      9.694  0.0000E+00  0.0000E+00  0.3750E+00  0.3750E+00
      9.801  0.0000E+00  0.0000E+00  0.3750E+00  0.3750E+00
      9.908  0.0000E+00  0.0000E+00  0.3750E+00  0.3750E+00
     10.014  0.0000E+00  0.0000E+00  0.3750E+00  0.3750E+00
     10.121  0.0000E+00  0.0000E+00  0.3750E+00  0.3750E+00
     10.228  0.0000E+00  0.0000E+00  0.3750E+00  0.3750E+00
     10.335  0.0000E+00  0.0000E+00  0.3750E+00  0.3750E+00
