Lattice                                 
           1
     4.196759    2.423000    0.000000
    -4.196759    2.423000    0.000000
     0.000000    0.000000   15.000000
   B    C 
     4    11
Direct configuration=     1
   0.00415361  0.00267210  0.12034134
   0.35695335  0.00285503  0.09748893
   0.00423858  0.35550699  0.09749256
   0.65142295  0.65006557  0.09747688
   0.32808646  0.32671938  0.10030508
   0.68027775  0.00278085  0.10027562
   0.00416530  0.67883808  0.10026559
   0.11111044  0.38888856  0.33700000
   0.27777744  0.22222156  0.33700000
   0.11111044  0.88888856  0.33700000
   0.27777744  0.72222156  0.33700000
   0.61111044  0.38888856  0.33700000
   0.77777744  0.22222156  0.33700000
   0.61111044  0.88888856  0.33700000
   0.77777744  0.72222156  0.33700000
