   16   16    1    1
  0.2012733E+02  0.4979000E-09  0.4979000E-09  0.1500000E-08  0.5000000E-15
  1.000000000000000E-004
  CAR 
 SC                                      
     56    196     48
 
  0.0000000E+00  0.0000000E+00  0.0000000E+00  0.1371742E-02
      1        -19.729891   1.000000
      2        -15.956313   1.000000
      3        -14.617139   1.000000
      4        -14.614217   1.000000
      5        -14.612461   1.000000
      6        -13.492783   1.000000
      7        -13.488037   1.000000
      8        -13.487000   1.000000
      9        -11.754293   1.000000
     10        -11.603147   1.000000
     11        -11.601222   1.000000
     12         -9.401481   1.000000
     13         -9.397745   1.000000
     14         -8.035414   1.000000
     15         -7.405625   1.000000
     16         -6.768592   1.000000
     17         -6.768560   1.000000
     18         -6.765039   1.000000
     19         -6.621578   1.000000
     20         -3.483392   1.000000
     21         -3.473508   1.000000
     22         -2.803576   1.000000
     23         -2.786527   1.000000
     24         -2.773851   1.000000
     25         -1.607733   1.000000
     26         -1.604405   1.000000
     27         -0.344339   0.973054
     28         -0.215419   0.541616
     29         -0.160241   0.249572
     30          0.692462   0.000000
     31          0.792293   0.000000
     32          1.133472   0.000000
     33          1.184442   0.000000
     34          1.413572   0.000000
     35          1.493157   0.000000
     36          1.629717   0.000000
     37          2.962563   0.000000
     38          3.583381   0.000000
     39          4.479271   0.000000
     40          4.775556   0.000000
     41          6.651306   0.000000
     42          6.653629   0.000000
     43          6.657275   0.000000
     44          6.993048   0.000000
     45          7.693607   0.000000
     46          7.706409   0.000000
     47          7.711561   0.000000
     48          8.282529   0.000000
 
  0.3703704E-01  0.9414700E-18  0.0000000E+00  0.5486968E-02
      1        -19.721929   1.000000
      2        -15.949917   1.000000
      3        -14.738174   1.000000
      4        -14.643924   1.000000
      5        -14.640921   1.000000
      6        -13.451160   1.000000
      7        -13.446289   1.000000
      8        -13.353058   1.000000
      9        -11.929796   1.000000
     10        -11.610043   1.000000
     11        -11.430013   1.000000
     12         -9.414515   1.000000
     13         -9.381754   1.000000
     14         -8.025206   1.000000
     15         -7.373077   1.000000
     16         -6.793786   1.000000
     17         -6.790328   1.000000
     18         -6.760662   1.000000
     19         -6.611840   1.000000
     20         -3.511112   1.000000
     21         -3.496875   1.000000
     22         -2.848941   1.000000
     23         -2.800459   1.000000
     24         -2.780621   1.000000
     25         -1.701038   1.000000
     26         -1.682137   1.000000
     27         -0.539939   0.999999
     28         -0.207903   0.499285
     29          0.029099   0.000399
     30          0.699269   0.000000
     31          0.795674   0.000000
     32          1.174797   0.000000
     33          1.231804   0.000000
     34          1.399272   0.000000
     35          1.601766   0.000000
     36          1.721286   0.000000
     37          2.974992   0.000000
     38          3.596863   0.000000
     39          4.509597   0.000000
     40          4.788326   0.000000
     41          6.657477   0.000000
     42          6.690048   0.000000
     43          6.694525   0.000000
     44          7.002028   0.000000
     45          7.692411   0.000000
     46          7.727536   0.000000
     47          7.739225   0.000000
     48          8.223612   0.000000
 
 -0.3703704E-01  0.3703704E-01  0.0000000E+00  0.2743484E-02
      1        -19.721929   1.000000
      2        -15.949913   1.000000
      3        -14.736535   1.000000
      4        -14.644509   1.000000
      5        -14.642376   1.000000
      6        -13.446767   1.000000
      7        -13.446357   1.000000
      8        -13.356977   1.000000
      9        -11.930742   1.000000
     10        -11.607858   1.000000
     11        -11.431222   1.000000
     12         -9.411696   1.000000
     13         -9.384632   1.000000
     14         -8.025174   1.000000
     15         -7.373096   1.000000
     16         -6.793812   1.000000
     17         -6.793662   1.000000
     18         -6.757298   1.000000
     19         -6.611834   1.000000
     20         -3.517056   1.000000
     21         -3.490919   1.000000
     22         -2.835738   1.000000
     23         -2.801620   1.000000
     24         -2.793099   1.000000
     25         -1.699059   1.000000
     26         -1.684036   1.000000
     27         -0.548663   0.999999
     28         -0.204090   0.477787
     29          0.039467   0.000233
     30          0.696348   0.000000
     31          0.808410   0.000000
     32          1.170439   0.000000
     33          1.207801   0.000000
     34          1.390762   0.000000
     35          1.647664   0.000000
     36          1.697516   0.000000
     37          2.974764   0.000000
     38          3.596723   0.000000
     39          4.510068   0.000000
     40          4.788171   0.000000
     41          6.659909   0.000000
     42          6.690804   0.000000
     43          6.691323   0.000000
     44          7.002019   0.000000
     45          7.700267   0.000000
     46          7.728155   0.000000
     47          7.730645   0.000000
     48          8.223128   0.000000
 
  0.7407407E-01  0.1882940E-17  0.0000000E+00  0.5486968E-02
      1        -19.698004   1.000000
      2        -15.930759   1.000000
      3        -15.009653   1.000000
      4        -14.717707   1.000000
      5        -14.715133   1.000000
      6        -13.337717   1.000000
      7        -13.333307   1.000000
      8        -13.045976   1.000000
      9        -12.165505   1.000000
     10        -11.629094   1.000000
     11        -11.209727   1.000000
     12         -9.449513   1.000000
     13         -9.332182   1.000000
     14         -7.994795   1.000000
     15         -7.280719   1.000000
     16         -6.868280   1.000000
     17         -6.864845   1.000000
     18         -6.737094   1.000000
     19         -6.582607   1.000000
     20         -3.609384   1.000000
     21         -3.549254   1.000000
     22         -2.997924   1.000000
     23         -2.820403   1.000000
     24         -2.799703   1.000000
     25         -1.934509   1.000000
     26         -1.886951   1.000000
     27         -0.833725   1.000000
     28         -0.215999   0.544866
     29          0.229772   0.000000
     30          0.765393   0.000000
     31          0.868953   0.000000
     32          1.258414   0.000000
     33          1.389799   0.000000
     34          1.427759   0.000000
     35          1.834879   0.000000
     36          1.951547   0.000000
     37          3.012955   0.000000
     38          3.636629   0.000000
     39          4.597118   0.000000
     40          4.828350   0.000000
     41          6.670480   0.000000
     42          6.802161   0.000000
     43          6.806622   0.000000
     44          7.028866   0.000000
     45          7.694861   0.000000
     46          7.758971   0.000000
     47          7.840885   0.000000
     48          8.049898   0.000000
 
 -0.7407407E-01  0.7407407E-01  0.0000000E+00  0.2743484E-02
      1        -19.698005   1.000000
      2        -15.930743   1.000000
      3        -15.008738   1.000000
      4        -14.718238   1.000000
      5        -14.716251   1.000000
      6        -13.333662   1.000000
      7        -13.333387   1.000000
      8        -13.049194   1.000000
      9        -12.166777   1.000000
     10        -11.626952   1.000000
     11        -11.210462   1.000000
     12         -9.446959   1.000000
     13         -9.334971   1.000000
     14         -7.994690   1.000000
     15         -7.280796   1.000000
     16         -6.868333   1.000000
     17         -6.868153   1.000000
     18         -6.733717   1.000000
     19         -6.582574   1.000000
     20         -3.616310   1.000000
     21         -3.542283   1.000000
     22         -2.984112   1.000000
     23         -2.822916   1.000000
     24         -2.812642   1.000000
     25         -1.931482   1.000000
     26         -1.889890   1.000000
     27         -0.843666   1.000000
     28         -0.218588   0.559350
     29          0.266419   0.000000
     30          0.750636   0.000000
     31          0.900745   0.000000
     32          1.259455   0.000000
     33          1.266336   0.000000
     34          1.490595   0.000000
     35          1.884806   0.000000
     36          1.922268   0.000000
     37          3.012046   0.000000
     38          3.636090   0.000000
     39          4.599113   0.000000
     40          4.827649   0.000000
     41          6.672994   0.000000
     42          6.802883   0.000000
     43          6.803327   0.000000
     44          7.028825   0.000000
     45          7.703003   0.000000
     46          7.760118   0.000000
     47          7.830998   0.000000
     48          8.048633   0.000000
 
  0.1111111E+00 -0.5467310E-17  0.0000000E+00  0.5486968E-02
      1        -19.658127   1.000000
      2        -15.898962   1.000000
      3        -15.328153   1.000000
      4        -14.816861   1.000000
      5        -14.814715   1.000000
      6        -13.173085   1.000000
      7        -13.169123   1.000000
      8        -12.668364   1.000000
      9        -12.404305   1.000000
     10        -11.658491   1.000000
     11        -11.002968   1.000000
     12         -9.488464   1.000000
     13         -9.252286   1.000000
     14         -7.945017   1.000000
     15         -7.142050   1.000000
     16         -6.989237   1.000000
     17         -6.985846   1.000000
     18         -6.697896   1.000000
     19         -6.533988   1.000000
     20         -3.771176   1.000000
     21         -3.632568   1.000000
     22         -3.220937   1.000000
     23         -2.850876   1.000000
     24         -2.829939   1.000000
     25         -2.241855   1.000000
     26         -2.159724   1.000000
     27         -1.163459   1.000000
     28         -0.292714   0.884467
     29          0.298477   0.000000
     30          0.961158   0.000000
     31          1.060924   0.000000
     32          1.351926   0.000000
     33          1.503622   0.000000
     34          1.675350   0.000000
     35          2.131181   0.000000
     36          2.256398   0.000000
     37          3.078941   0.000000
     38          3.701113   0.000000
     39          4.727722   0.000000
     40          4.904204   0.000000
     41          6.691937   0.000000
     42          6.985367   0.000000
     43          6.989714   0.000000
     44          7.071650   0.000000
     45          7.662041   0.000000
     46          7.735606   0.000000
     47          7.872071   0.000000
     48          8.010191   0.000000
 
 -0.1111111E+00  0.1111111E+00  0.0000000E+00  0.2743484E-02
      1        -19.658131   1.000000
      2        -15.898926   1.000000
      3        -15.327664   1.000000
      4        -14.817326   1.000000
      5        -14.815505   1.000000
      6        -13.169347   1.000000
      7        -13.169223   1.000000
      8        -12.671149   1.000000
      9        -12.405815   1.000000
     10        -11.656413   1.000000
     11        -11.003225   1.000000
     12         -9.486264   1.000000
     13         -9.255021   1.000000
     14         -7.944823   1.000000
     15         -7.142238   1.000000
     16         -6.989334   1.000000
     17         -6.989122   1.000000
     18         -6.694491   1.000000
     19         -6.533896   1.000000
     20         -3.778056   1.000000
     21         -3.625591   1.000000
     22         -3.208472   1.000000
     23         -2.852535   1.000000
     24         -2.844316   1.000000
     25         -2.238082   1.000000
     26         -2.163092   1.000000
     27         -1.172138   1.000000
     28         -0.298801   0.900377
     29          0.346098   0.000000
     30          0.963159   0.000000
     31          1.078946   0.000000
     32          1.346733   0.000000
     33          1.397196   0.000000
     34          1.725049   0.000000
     35          2.155996   0.000000
     36          2.245267   0.000000
     37          3.076855   0.000000
     38          3.699952   0.000000
     39          4.732390   0.000000
     40          4.902521   0.000000
     41          6.694427   0.000000
     42          6.986095   0.000000
     43          6.986388   0.000000
     44          7.071501   0.000000
     45          7.667855   0.000000
     46          7.734189   0.000000
     47          7.874584   0.000000
     48          8.000253   0.000000
 
  0.1481481E+00 -0.4498500E-17  0.0000000E+00  0.5486968E-02
      1        -19.602342   1.000000
      2        -15.854869   1.000000
      3        -15.656788   1.000000
      4        -14.925268   1.000000
      5        -14.923448   1.000000
      6        -12.974015   1.000000
      7        -12.970368   1.000000
      8        -12.642008   1.000000
      9        -12.256842   1.000000
     10        -11.695347   1.000000
     11        -10.825360   1.000000
     12         -9.507743   1.000000
     13         -9.145710   1.000000
     14         -7.876445   1.000000
     15         -7.152169   1.000000
     16         -7.148849   1.000000
     17         -6.974167   1.000000
     18         -6.643255   1.000000
     19         -6.466182   1.000000
     20         -3.991476   1.000000
     21         -3.744135   1.000000
     22         -3.492083   1.000000
     23         -2.893063   1.000000
     24         -2.869841   1.000000
     25         -2.579051   1.000000
     26         -2.457060   1.000000
     27         -1.515305   1.000000
     28         -0.414705   0.998266
     29          0.273369   0.000000
     30          1.194446   0.000000
     31          1.335096   0.000000
     32          1.469630   0.000000
     33          1.688030   0.000000
     34          2.020815   0.000000
     35          2.468304   0.000000
     36          2.586204   0.000000
     37          3.179310   0.000000
     38          3.789130   0.000000
     39          4.866780   0.000000
     40          5.040667   0.000000
     41          6.721287   0.000000
     42          7.107678   0.000000
     43          7.235316   0.000000
     44          7.240060   0.000000
     45          7.337381   0.000000
     46          7.733352   0.000000
     47          7.906474   0.000000
     48          8.165137   0.000000
 
 -0.1481481E+00  0.1481481E+00  0.0000000E+00  0.2743484E-02
      1        -19.602348   1.000000
      2        -15.854805   1.000000
      3        -15.656534   1.000000
      4        -14.925665   1.000000
      5        -14.923985   1.000000
      6        -12.970488   1.000000
      7        -12.970472   1.000000
      8        -12.643588   1.000000
      9        -12.259543   1.000000
     10        -11.693341   1.000000
     11        -10.825017   1.000000
     12         -9.506034   1.000000
     13         -9.148400   1.000000
     14         -7.876156   1.000000
     15         -7.152356   1.000000
     16         -7.152065   1.000000
     17         -6.974536   1.000000
     18         -6.639814   1.000000
     19         -6.465998   1.000000
     20         -3.998131   1.000000
     21         -3.737316   1.000000
     22         -3.481130   1.000000
     23         -2.891482   1.000000
     24         -2.889679   1.000000
     25         -2.573206   1.000000
     26         -2.460227   1.000000
     27         -1.522332   1.000000
     28         -0.421407   0.998726
     29          0.315203   0.000000
     30          1.265596   0.000000
     31          1.268698   0.000000
     32          1.477303   0.000000
     33          1.618836   0.000000
     34          2.048996   0.000000
     35          2.480505   0.000000
     36          2.581885   0.000000
     37          3.175367   0.000000
     38          3.787118   0.000000
     39          4.873183   0.000000
     40          5.039733   0.000000
     41          6.723651   0.000000
     42          7.107258   0.000000
     43          7.235493   0.000000
     44          7.237302   0.000000
     45          7.336586   0.000000
     46          7.738535   0.000000
     47          7.907209   0.000000
     48          8.164886   0.000000
 
  0.1851852E+00 -0.1022536E-16  0.0000000E+00  0.5486968E-02
      1        -19.530663   1.000000
      2        -15.983783   1.000000
      3        -15.797723   1.000000
      4        -15.033186   1.000000
      5        -15.031589   1.000000
      6        -12.876392   1.000000
      7        -12.750531   1.000000
      8        -12.747506   1.000000
      9        -11.825227   1.000000
     10        -11.736567   1.000000
     11        -10.693985   1.000000
     12         -9.482006   1.000000
     13         -9.016650   1.000000
     14         -7.789256   1.000000
     15         -7.351237   1.000000
     16         -7.347992   1.000000
     17         -6.795109   1.000000
     18         -6.573376   1.000000
     19         -6.379528   1.000000
     20         -4.263453   1.000000
     21         -3.879859   1.000000
     22         -3.790978   1.000000
     23         -2.992307   1.000000
     24         -2.921173   1.000000
     25         -2.875594   1.000000
     26         -2.749437   1.000000
     27         -1.875869   1.000000
     28         -0.551277   0.999999
     29          0.216035   0.000000
     30          1.386474   0.000000
     31          1.511507   0.000000
     32          1.755995   0.000000
     33          1.966011   0.000000
     34          2.416406   0.000000
     35          2.831252   0.000000
     36          2.903475   0.000000
     37          3.329501   0.000000
     38          3.900782   0.000000
     39          4.992383   0.000000
     40          5.244727   0.000000
     41          6.757450   0.000000
     42          6.836536   0.000000
     43          7.244935   0.000000
     44          7.544395   0.000000
     45          7.549908   0.000000
     46          7.742993   0.000000
     47          7.837001   0.000000
     48          8.029601   0.000000
 
 -0.1851852E+00  0.1851852E+00  0.0000000E+00  0.2743484E-02
      1        -19.530673   1.000000
      2        -15.983678   1.000000
      3        -15.797605   1.000000
      4        -15.033515   1.000000
      5        -15.031952   1.000000
      6        -12.877914   1.000000
      7        -12.747558   1.000000
      8        -12.747404   1.000000
      9        -11.827825   1.000000
     10        -11.734629   1.000000
     11        -10.692922   1.000000
     12         -9.480899   1.000000
     13         -9.019309   1.000000
     14         -7.788869   1.000000
     15         -7.351516   1.000000
     16         -7.351167   1.000000
     17         -6.795762   1.000000
     18         -6.569889   1.000000
     19         -6.379194   1.000000
     20         -4.269810   1.000000
     21         -3.873264   1.000000
     22         -3.781477   1.000000
     23         -3.000597   1.000000
     24         -2.941528   1.000000
     25         -2.860177   1.000000
     26         -2.751405   1.000000
     27         -1.881513   1.000000
     28         -0.557533   1.000000
     29          0.250137   0.000000
     30          1.429188   0.000000
     31          1.474025   0.000000
     32          1.759057   0.000000
     33          1.928105   0.000000
     34          2.429953   0.000000
     35          2.838892   0.000000
     36          2.900227   0.000000
     37          3.322876   0.000000
     38          3.897584   0.000000
     39          4.998075   0.000000
     40          5.247863   0.000000
     41          6.758465   0.000000
     42          6.836265   0.000000
     43          7.245272   0.000000
     44          7.543876   0.000000
     45          7.547678   0.000000
     46          7.747491   0.000000
     47          7.832350   0.000000
     48          8.032653   0.000000
 
  0.2222222E+00 -0.1811674E-16  0.0000000E+00  0.5486968E-02
      1        -19.443145   1.000000
      2        -16.302004   1.000000
      3        -15.729768   1.000000
      4        -15.135079   1.000000
      5        -15.133620   1.000000
      6        -13.104946   1.000000
      7        -12.510360   1.000000
      8        -12.507354   1.000000
      9        -11.779275   1.000000
     10        -11.379042   1.000000
     11        -10.620285   1.000000
     12         -9.394161   1.000000
     13         -8.869664   1.000000
     14         -7.683594   1.000000
     15         -7.579899   1.000000
     16         -7.576745   1.000000
     17         -6.623257   1.000000
     18         -6.488579   1.000000
     19         -6.274679   1.000000
     20         -4.580879   1.000000
     21         -4.103213   1.000000
     22         -4.035729   1.000000
     23         -3.307291   1.000000
     24         -3.050299   1.000000
     25         -2.962967   1.000000
     26         -2.944898   1.000000
     27         -2.233827   1.000000
     28         -0.685645   1.000000
     29          0.148244   0.000000
     30          1.550366   0.000000
     31          1.631312   0.000000
     32          2.129541   0.000000
     33          2.306067   0.000000
     34          2.844309   0.000000
     35          3.155247   0.000000
     36          3.229045   0.000000
     37          3.551012   0.000000
     38          4.038042   0.000000
     39          5.121921   0.000000
     40          5.476718   0.000000
     41          6.384185   0.000000
     42          6.801586   0.000000
     43          7.311968   0.000000
     44          7.549865   0.000000
     45          7.748535   0.000000
     46          7.901838   0.000000
     47          7.911449   0.000000
     48          7.975076   0.000000
 
 -0.2222222E+00  0.2222222E+00  0.0000000E+00  0.2743484E-02
      1        -19.443160   1.000000
      2        -16.301977   1.000000
      3        -15.729592   1.000000
      4        -15.135335   1.000000
      5        -15.133874   1.000000
      6        -13.106715   1.000000
      7        -12.507295   1.000000
      8        -12.507265   1.000000
      9        -11.777391   1.000000
     10        -11.381630   1.000000
     11        -10.618523   1.000000
     12         -9.393612   1.000000
     13         -8.872317   1.000000
     14         -7.683106   1.000000
     15         -7.580306   1.000000
     16         -7.579881   1.000000
     17         -6.624327   1.000000
     18         -6.485042   1.000000
     19         -6.274097   1.000000
     20         -4.586902   1.000000
     21         -4.095043   1.000000
     22         -4.029393   1.000000
     23         -3.311161   1.000000
     24         -3.062324   1.000000
     25         -2.957161   1.000000
     26         -2.949264   1.000000
     27         -2.238561   1.000000
     28         -0.691195   1.000000
     29          0.175546   0.000000
     30          1.575471   0.000000
     31          1.613191   0.000000
     32          2.132663   0.000000
     33          2.287156   0.000000
     34          2.846305   0.000000
     35          3.168704   0.000000
     36          3.218090   0.000000
     37          3.542482   0.000000
     38          4.033011   0.000000
     39          5.127074   0.000000
     40          5.484623   0.000000
     41          6.382571   0.000000
     42          6.803655   0.000000
     43          7.312652   0.000000
     44          7.543450   0.000000
     45          7.753224   0.000000
     46          7.901058   0.000000
     47          7.911246   0.000000
     48          7.983748   0.000000
 
  0.2592593E+00 -0.3772139E-16  0.0000000E+00  0.5486968E-02
      1        -19.339829   1.000000
      2        -16.609890   1.000000
      3        -15.650611   1.000000
      4        -15.227763   1.000000
      5        -15.226368   1.000000
      6        -13.326835   1.000000
      7        -12.257630   1.000000
      8        -12.254777   1.000000
      9        -11.820964   1.000000
     10        -10.921599   1.000000
     11        -10.598669   1.000000
     12         -9.246833   1.000000
     13         -8.709666   1.000000
     14         -7.831411   1.000000
     15         -7.828359   1.000000
     16         -7.559580   1.000000
     17         -6.477918   1.000000
     18         -6.389354   1.000000
     19         -6.152700   1.000000
     20         -4.937137   1.000000
     21         -4.418783   1.000000
     22         -4.206975   1.000000
     23         -3.646498   1.000000
     24         -3.280735   1.000000
     25         -3.025434   1.000000
     26         -3.003339   1.000000
     27         -2.576164   1.000000
     28         -0.809714   1.000000
     29          0.078832   0.000025
     30          1.700731   0.000000
     31          1.752487   0.000000
     32          2.510104   0.000000
     33          2.680636   0.000000
     34          3.269578   0.000000
     35          3.404023   0.000000
     36          3.617801   0.000000
     37          3.828044   0.000000
     38          4.205892   0.000000
     39          5.265312   0.000000
     40          5.682766   0.000000
     41          5.945722   0.000000
     42          6.846028   0.000000
     43          7.178143   0.000000
     44          7.473212   0.000000
     45          7.692621   0.000000
     46          7.741436   0.000000
     47          7.920546   0.000000
     48          7.978437   0.000000
 
 -0.2592593E+00  0.2592593E+00  0.0000000E+00  0.2743484E-02
      1        -19.339848   1.000000
      2        -16.609912   1.000000
      3        -15.650352   1.000000
      4        -15.227928   1.000000
      5        -15.226578   1.000000
      6        -13.328747   1.000000
      7        -12.254666   1.000000
      8        -12.254541   1.000000
      9        -11.819096   1.000000
     10        -10.924217   1.000000
     11        -10.596404   1.000000
     12         -9.246624   1.000000
     13         -8.712354   1.000000
     14         -7.831988   1.000000
     15         -7.831456   1.000000
     16         -7.558981   1.000000
     17         -6.479529   1.000000
     18         -6.385768   1.000000
     19         -6.151779   1.000000
     20         -4.942812   1.000000
     21         -4.411819   1.000000
     22         -4.200910   1.000000
     23         -3.648958   1.000000
     24         -3.287190   1.000000
     25         -3.031278   1.000000
     26         -3.001655   1.000000
     27         -2.580782   1.000000
     28         -0.814575   1.000000
     29          0.100695   0.000006
     30          1.716810   0.000000
     31          1.745040   0.000000
     32          2.516495   0.000000
     33          2.672679   0.000000
     34          3.260861   0.000000
     35          3.415042   0.000000
     36          3.607975   0.000000
     37          3.820868   0.000000
     38          4.197714   0.000000
     39          5.270576   0.000000
     40          5.693142   0.000000
     41          5.947182   0.000000
     42          6.845585   0.000000
     43          7.176240   0.000000
     44          7.471010   0.000000
     45          7.692296   0.000000
     46          7.759993   0.000000
     47          7.921508   0.000000
     48          7.974291   0.000000
 
  0.2962963E+00 -0.1677493E-16  0.0000000E+00  0.5486968E-02
      1        -19.220775   1.000000
      2        -16.905805   1.000000
      3        -15.561537   1.000000
      4        -15.309298   1.000000
      5        -15.307861   1.000000
      6        -13.539936   1.000000
      7        -11.997170   1.000000
      8        -11.994495   1.000000
      9        -11.859320   1.000000
     10        -10.610945   1.000000
     11        -10.455040   1.000000
     12         -9.057988   1.000000
     13         -8.542237   1.000000
     14         -8.098144   1.000000
     15         -8.095218   1.000000
     16         -7.417451   1.000000
     17         -6.378458   1.000000
     18         -6.276032   1.000000
     19         -6.015128   1.000000
     20         -5.325995   1.000000
     21         -4.730797   1.000000
     22         -4.389461   1.000000
     23         -3.971410   1.000000
     24         -3.468358   1.000000
     25         -3.124562   1.000000
     26         -3.050510   1.000000
     27         -2.865175   1.000000
     28         -0.919408   1.000000
     29          0.012917   0.000890
     30          1.841486   0.000000
     31          1.874034   0.000000
     32          2.881403   0.000000
     33          3.075763   0.000000
     34          3.545975   0.000000
     35          3.799789   0.000000
     36          4.011401   0.000000
     37          4.112655   0.000000
     38          4.412560   0.000000
     39          5.411877   0.000000
     40          5.490845   0.000000
     41          5.879588   0.000000
     42          6.832740   0.000000
     43          6.971745   0.000000
     44          7.390558   0.000000
     45          7.522510   0.000000
     46          7.615935   0.000000
     47          7.714185   0.000000
     48          7.757630   0.000000
 
 -0.2962963E+00  0.2962963E+00  0.0000000E+00  0.2743484E-02
      1        -19.220801   1.000000
      2        -16.905855   1.000000
      3        -15.561164   1.000000
      4        -15.309303   1.000000
      5        -15.308126   1.000000
      6        -13.542003   1.000000
      7        -11.994712   1.000000
      8        -11.993822   1.000000