   8   8   0  16
  0.4338553E+02  0.5169000E-09  0.5169000E-09  0.1500000E-08  0.5000000E-15
  1.000000000000000E-004
  CAR 
 SC                                      
     12.50565753    -21.42719522  301     -3.47723294      1.00000000
    -21.427  0.0000E+00  0.0000E+00
    -21.314  0.0000E+00  0.0000E+00
    -21.201  0.0000E+00  0.0000E+00
    -21.088  0.0000E+00  0.0000E+00
    -20.975  0.0000E+00  0.0000E+00
    -20.862  0.0000E+00  0.0000E+00
    -20.749  0.0000E+00  0.0000E+00
    -20.635  0.0000E+00  0.0000E+00
    -20.522  0.0000E+00  0.0000E+00
    -20.409  0.1030E-13  0.1165E-14
    -20.296  0.5928E-09  0.6706E-10
    -20.183  0.3111E-05  0.3519E-06
    -20.070  0.1604E-02  0.1817E-03
    -19.957  0.9249E-01  0.1064E-01
    -19.844  0.8001E+00  0.1011E+00
    -19.731  0.1757E+01  0.2998E+00
    -19.617  0.2127E+01  0.5404E+00
    -19.504  0.2461E+01  0.8187E+00
    -19.391  0.3253E+01  0.1187E+01
    -19.278  0.4310E+01  0.1674E+01
    -19.165  0.2516E+01  0.1959E+01
    -19.052  0.3569E+00  0.1999E+01
    -18.939  0.8432E-02  0.2000E+01
    -18.826  0.2476E-04  0.2000E+01
    -18.713  0.7200E-08  0.2000E+01
    -18.599  0.1825E-12  0.2000E+01
    -18.486  0.0000E+00  0.2000E+01
    -18.373  0.0000E+00  0.2000E+01
    -18.260  0.0000E+00  0.2000E+01
    -18.147  0.2109E-14  0.2000E+01
    -18.034  0.2280E-09  0.2000E+01
    -17.921  0.2029E-05  0.2000E+01
    -17.808  0.1553E-02  0.2000E+01
    -17.695  0.1131E+00  0.2013E+01
    -17.581  0.1070E+01  0.2134E+01
    -17.468  0.2674E+01  0.2436E+01
    -17.355  0.3193E+01  0.2798E+01
    -17.242  0.2398E+01  0.3069E+01
    -17.129  0.1923E+01  0.3286E+01
    -17.016  0.1969E+01  0.3509E+01
    -16.903  0.1693E+01  0.3700E+01
    -16.790  0.2280E+01  0.3958E+01
    -16.677  0.2513E+01  0.4243E+01
    -16.563  0.2313E+01  0.4504E+01
    -16.450  0.3708E+01  0.4924E+01
    -16.337  0.3318E+01  0.5299E+01
    -16.224  0.2348E+01  0.5564E+01
    -16.111  0.1967E+01  0.5787E+01
    -15.998  0.1394E+01  0.5945E+01
    -15.885  0.4505E+00  0.5995E+01
    -15.772  0.3941E-01  0.6000E+01
    -15.659  0.5013E-03  0.6000E+01
    -15.546  0.7005E-06  0.6000E+01
    -15.432  0.9088E-10  0.6000E+01
    -15.319  0.9897E-15  0.6000E+01
    -15.206  0.0000E+00  0.6000E+01
    -15.093  0.0000E+00  0.6000E+01
    -14.980  0.0000E+00  0.6000E+01
    -14.867  0.0000E+00  0.6000E+01
    -14.754  0.1947E-15  0.6000E+01
    -14.641  0.2697E-10  0.6000E+01
    -14.528  0.3430E-06  0.6000E+01
    -14.414  0.3730E-03  0.6000E+01
    -14.301  0.3842E-01  0.6004E+01
    -14.188  0.4784E+00  0.6058E+01
    -14.075  0.1328E+01  0.6209E+01
    -13.962  0.2530E+01  0.6495E+01
    -13.849  0.2802E+01  0.6812E+01
    -13.736  0.2631E+01  0.7109E+01
    -13.623  0.3103E+01  0.7460E+01
    -13.510  0.3154E+01  0.7817E+01
    -13.396  0.1235E+01  0.7957E+01
    -13.283  0.8336E+00  0.8051E+01
    -13.170  0.1477E+01  0.8218E+01
    -13.057  0.2023E+01  0.8447E+01
    -12.944  0.1206E+01  0.8583E+01
    -12.831  0.4589E+00  0.8635E+01
    -12.718  0.1658E+01  0.8823E+01
    -12.605  0.3180E+01  0.9182E+01
    -12.492  0.1308E+01  0.9330E+01
    -12.378  0.1141E+01  0.9459E+01
    -12.265  0.2060E+01  0.9692E+01
    -12.152  0.1756E+01  0.9891E+01
    -12.039  0.1243E+01  0.1003E+02
    -11.926  0.1560E+01  0.1021E+02
    -11.813  0.8509E+00  0.1030E+02
    -11.700  0.9396E-01  0.1031E+02
    -11.587  0.2908E+00  0.1035E+02
    -11.474  0.1032E+01  0.1046E+02
    -11.360  0.7761E+00  0.1055E+02
    -11.247  0.5305E+00  0.1061E+02
    -11.134  0.2602E+00  0.1064E+02
    -11.021  0.5215E+00  0.1070E+02
    -10.908  0.8279E+00  0.1079E+02
    -10.795  0.2142E+01  0.1104E+02
    -10.682  0.1751E+01  0.1123E+02
    -10.569  0.1799E+01  0.1144E+02
    -10.456  0.1835E+01  0.1165E+02
    -10.342  0.8637E+00  0.1174E+02
    -10.229  0.1942E+01  0.1196E+02
    -10.116  0.2947E+01  0.1230E+02
    -10.003  0.1539E+01  0.1247E+02
     -9.890  0.2354E+01  0.1274E+02
     -9.777  0.2648E+01  0.1304E+02
     -9.664  0.9856E+00  0.1315E+02
     -9.551  0.1592E+01  0.1333E+02
     -9.438  0.2811E+01  0.1365E+02
     -9.324  0.3187E+01  0.1401E+02
     -9.211  0.1533E+01  0.1418E+02
     -9.098  0.1493E+01  0.1435E+02
     -8.985  0.2493E+01  0.1463E+02
     -8.872  0.2323E+01  0.1489E+02
     -8.759  0.2610E+01  0.1519E+02
     -8.646  0.2781E+01  0.1550E+02
     -8.533  0.2989E+01  0.1584E+02
     -8.420  0.2660E+01  0.1614E+02
     -8.306  0.2524E+01  0.1643E+02
     -8.193  0.1717E+01  0.1662E+02
     -8.080  0.2408E+01  0.1689E+02
     -7.967  0.2945E+01  0.1723E+02
     -7.854  0.2904E+01  0.1756E+02
     -7.741  0.4971E+01  0.1812E+02
     -7.628  0.4559E+01  0.1863E+02
     -7.515  0.3771E+01  0.1906E+02
     -7.402  0.2430E+01  0.1933E+02
     -7.289  0.1840E+01  0.1954E+02
     -7.175  0.1488E+01  0.1971E+02
     -7.062  0.2296E+01  0.1997E+02
     -6.949  0.2172E+01  0.2022E+02
     -6.836  0.1160E+01  0.2035E+02
     -6.723  0.1527E+01  0.2052E+02
     -6.610  0.2736E+01  0.2083E+02
     -6.497  0.3960E+01  0.2128E+02
     -6.384  0.7429E+01  0.2212E+02
     -6.271  0.7484E+01  0.2297E+02
     -6.157  0.4516E+01  0.2348E+02
     -6.044  0.3826E+01  0.2391E+02
     -5.931  0.3296E+01  0.2428E+02
     -5.818  0.2091E+01  0.2452E+02
     -5.705  0.1732E+01  0.2471E+02
     -5.592  0.2430E+01  0.2499E+02
     -5.479  0.2852E+01  0.2531E+02
     -5.366  0.3433E+01  0.2570E+02
     -5.253  0.2887E+01  0.2603E+02
     -5.139  0.2605E+01  0.2632E+02
     -5.026  0.3803E+01  0.2675E+02
     -4.913  0.4673E+01  0.2728E+02
     -4.800  0.4378E+01  0.2777E+02
     -4.687  0.5168E+01  0.2836E+02
     -4.574  0.4047E+01  0.2882E+02
     -4.461  0.2471E+01  0.2910E+02
     -4.348  0.2224E+01  0.2935E+02
     -4.235  0.1608E+01  0.2953E+02
     -4.121  0.7919E+00  0.2962E+02
     -4.008  0.1195E+01  0.2975E+02
     -3.895  0.1184E+01  0.2989E+02
     -3.782  0.7650E+00  0.2998E+02
     -3.669  0.2066E+00  0.3000E+02
     -3.556  0.1355E-01  0.3000E+02
     -3.443  0.1385E-03  0.3000E+02
     -3.330  0.4211E-02  0.3000E+02
     -3.217  0.1462E+00  0.3002E+02
     -3.103  0.7061E+00  0.3010E+02
     -2.990  0.9042E+00  0.3020E+02
     -2.877  0.1869E+01  0.3041E+02
     -2.764  0.2759E+01  0.3072E+02
     -2.651  0.1920E+01  0.3094E+02
     -2.538  0.1918E+01  0.3116E+02
     -2.425  0.2131E+01  0.3140E+02
     -2.312  0.2008E+01  0.3162E+02
     -2.199  0.9618E+00  0.3173E+02
     -2.085  0.5256E+00  0.3179E+02
     -1.972  0.5869E+00  0.3186E+02
     -1.859  0.3833E+00  0.3190E+02
     -1.746  0.4112E+00  0.3195E+02
     -1.633  0.3970E+00  0.3199E+02
     -1.520  0.4999E-01  0.3200E+02
     -1.407  0.6597E-03  0.3200E+02
     -1.294  0.1417E-04  0.3200E+02
     -1.181  0.4445E-02  0.3200E+02
     -1.067  0.1410E+00  0.3202E+02
     -0.954  0.5014E+00  0.3207E+02
     -0.841  0.3155E+00  0.3211E+02
     -0.728  0.4812E+00  0.3216E+02
     -0.615  0.2896E+00  0.3220E+02
     -0.502  0.1134E+00  0.3221E+02
     -0.389  0.1150E+01  0.3234E+02
     -0.276  0.2228E+01  0.3259E+02
     -0.163  0.1865E+01  0.3280E+02
     -0.049  0.2128E+01  0.3304E+02
      0.064  0.2200E+01  0.3329E+02
      0.177  0.2328E+01  0.3355E+02
      0.290  0.2169E+01  0.3380E+02
      0.403  0.1033E+01  0.3392E+02
      0.516  0.6897E+00  0.3399E+02
      0.629  0.1668E+01  0.3418E+02
      0.742  0.1663E+01  0.3437E+02
      0.855  0.1160E+01  0.3450E+02
      0.968  0.1564E+01  0.3468E+02
      1.082  0.1659E+01  0.3487E+02
      1.195  0.1866E+01  0.3508E+02
      1.308  0.2831E+01  0.3540E+02
      1.421  0.1739E+01  0.3560E+02
      1.534  0.1342E+01  0.3575E+02
      1.647  0.3289E+01  0.3612E+02
      1.760  0.2645E+01  0.3642E+02
      1.873  0.1568E+01  0.3660E+02
      1.986  0.3157E+01  0.3695E+02
      2.100  0.4182E+01  0.3743E+02
      2.213  0.2759E+01  0.3774E+02
      2.326  0.2408E+01  0.3801E+02
      2.439  0.3892E+01  0.3845E+02
      2.552  0.4882E+01  0.3900E+02
      2.665  0.3637E+01  0.3941E+02
      2.778  0.4008E+01  0.3987E+02
      2.891  0.2705E+01  0.4017E+02
      3.004  0.4288E+01  0.4066E+02
      3.118  0.5207E+01  0.4125E+02
      3.231  0.3302E+01  0.4162E+02
      3.344  0.2265E+01  0.4188E+02
      3.457  0.4254E+01  0.4236E+02
      3.570  0.5048E+01  0.4293E+02
      3.683  0.2776E+01  0.4324E+02
      3.796  0.3351E+01  0.4362E+02
      3.909  0.4732E+01  0.4416E+02
      4.022  0.4921E+01  0.4471E+02
      4.136  0.3337E+01  0.4509E+02
      4.249  0.2453E+01  0.4537E+02
      4.362  0.2905E+01  0.4570E+02
      4.475  0.4638E+01  0.4622E+02
      4.588  0.5757E+01  0.4687E+02
      4.701  0.6229E+01  0.4758E+02
      4.814  0.4994E+01  0.4814E+02
      4.927  0.5050E+01  0.4871E+02
      5.040  0.4729E+01  0.4925E+02
      5.154  0.4779E+01  0.4979E+02
      5.267  0.8884E+01  0.5079E+02
      5.380  0.8457E+01  0.5175E+02
      5.493  0.6808E+01  0.5252E+02
      5.606  0.7562E+01  0.5338E+02
      5.719  0.6571E+01  0.5412E+02
      5.832  0.7039E+01  0.5492E+02
      5.945  0.7425E+01  0.5576E+02
      6.058  0.7383E+01  0.5659E+02
      6.172  0.7067E+01  0.5739E+02
      6.285  0.5740E+01  0.5804E+02
      6.398  0.8741E+01  0.5903E+02
      6.511  0.8332E+01  0.5997E+02
      6.624  0.7477E+01  0.6082E+02
      6.737  0.7074E+01  0.6162E+02
      6.850  0.8201E+01  0.6254E+02
      6.963  0.9232E+01  0.6359E+02
      7.076  0.9696E+01  0.6468E+02
      7.190  0.9878E+01  0.6580E+02
      7.303  0.8994E+01  0.6682E+02
      7.416  0.7670E+01  0.6769E+02
      7.529  0.6410E+01  0.6841E+02
      7.642  0.8117E+01  0.6933E+02
      7.755  0.7759E+01  0.7021E+02
      7.868  0.9801E+01  0.7132E+02
      7.981  0.1017E+02  0.7247E+02
      8.094  0.9784E+01  0.7357E+02
      8.207  0.8373E+01  0.7452E+02
      8.321  0.6820E+01  0.7529E+02
      8.434  0.5757E+01  0.7594E+02
      8.547  0.9597E+01  0.7703E+02
      8.660  0.1054E+02  0.7822E+02
      8.773  0.6894E+01  0.7900E+02
      8.886  0.6601E+01  0.7975E+02
      8.999  0.6450E+01  0.8048E+02
      9.112  0.7927E+01  0.8137E+02
      9.225  0.8842E+01  0.8237E+02
      9.339  0.9084E+01  0.8340E+02
      9.452  0.9355E+01  0.8446E+02
      9.565  0.9228E+01  0.8550E+02
      9.678  0.1017E+02  0.8665E+02
      9.791  0.1129E+02  0.8793E+02
      9.904  0.9237E+01  0.8898E+02
     10.017  0.8688E+01  0.8996E+02
     10.130  0.6865E+01  0.9073E+02
     10.243  0.7166E+01  0.9155E+02
     10.357  0.6216E+01  0.9225E+02
     10.470  0.5542E+01  0.9288E+02
     10.583  0.7152E+01  0.9368E+02
     10.696  0.6970E+01  0.9447E+02
     10.809  0.6115E+01  0.9516E+02
     10.922  0.4504E+01  0.9567E+02
     11.035  0.2424E+01  0.9595E+02
     11.148  0.4479E+00  0.9600E+02
     11.261  0.1110E-01  0.9600E+02
     11.375  0.2766E-04  0.9600E+02
     11.488  0.6186E-08  0.9600E+02
     11.601  0.1174E-12  0.9600E+02
     11.714  0.0000E+00  0.9600E+02
     11.827  0.0000E+00  0.9600E+02
     11.940  0.0000E+00  0.9600E+02
     12.053  0.0000E+00  0.9600E+02
     12.166  0.0000E+00  0.9600E+02
     12.279  0.0000E+00  0.9600E+02
     12.393  0.0000E+00  0.9600E+02
     12.506  0.0000E+00  0.9600E+02
