Lattice                                 
           1
     4.197625    2.423500    0.000000
    -4.197625    2.423500    0.000000
     0.000000    0.000000   15.000000
   B    C 
     4    11
Direct configuration=     1
   0.00415361  0.00267210  0.12034134
   0.35695335  0.00285503  0.09748893
   0.00423858  0.35550699  0.09749256
   0.65142295  0.65006557  0.09747688
   0.32808646  0.32671938  0.10030508
   0.68027775  0.00278085  0.10027562
   0.00416530  0.67883808  0.10026559
   0.99999933  0.49999967  0.33373333
   0.16666633  0.33333267  0.33373333
   0.99999933  0.99999967  0.33373333
   0.16666633  0.83333267  0.33373333
   0.49999933  0.49999967  0.33373333
   0.66666633  0.33333267  0.33373333
   0.49999933  0.99999967  0.33373333
   0.66666633  0.83333267  0.33373333
Direct configuration=     2
   0.00418041  0.00275220  0.11922223
   0.35583902  0.00303372  0.09783399
   0.00395838  0.35416788  0.09783608
   0.65275530  0.65113679  0.09782541
   0.32468953  0.32297738  0.10029628
   0.68398101  0.00310673  0.10027481
   0.00388462  0.68225716  0.10026752
   0.00012691  0.49997530  0.33374238
   0.16687173  0.33394366  0.33380201
   0.99999923  0.99999368  0.33363305
   0.16706450  0.83312591  0.33380489
   0.50003987  0.50016412  0.33374525
   0.66666627  0.33333787  0.33368519
   0.49985004  0.99987116  0.33374191
   0.66605384  0.83292378  0.33380168
Direct configuration=     3
   0.00416611  0.00270947  0.11981925
   0.35643350  0.00293839  0.09764991
   0.00410786  0.35488227  0.09765282
   0.65204451  0.65056531  0.09763947
   0.32650174  0.32497367  0.10030097
   0.68200538  0.00293288  0.10027524
   0.00403436  0.68043314  0.10026649
   0.00005885  0.49998830  0.33373755
   0.16676216  0.33361771  0.33376537
   0.99999928  0.99999687  0.33368655
   0.16685209  0.83323621  0.33376672
   0.50001825  0.50007639  0.33373889
   0.66666630  0.33333509  0.33371087
   0.49992969  0.99993971  0.33373733
   0.66638060  0.83314191  0.33376522
Direct configuration=     4
   0.00418008  0.00276540  0.11890044
   0.35687388  0.00305501  0.09795590
   0.00390906  0.35518006  0.09795727
   0.65176144  0.65009475  0.09794881
   0.32660648  0.32486009  0.10026274
   0.68209798  0.00312643  0.10024475
   0.00385409  0.68034670  0.10023809
  -0.00008035  0.50001046  0.33375751
   0.16662179  0.33315238  0.33380988
   0.99999997  0.00000278  0.33362991
   0.16653969  0.83338398  0.33381339
   0.49998501  0.49990712  0.33376098
   0.66666941  0.33333223  0.33366674
   0.50008851  0.00008064  0.33375686
   0.66685362  0.83346930  0.33380939
Direct configuration=     5
   0.00419948  0.00284306  0.11762482
   0.35748527  0.00321692  0.09838073
   0.00363306  0.35559350  0.09837996
   0.65136844  0.64944145  0.09837827
   0.32675191  0.32470239  0.10020965
   0.68222655  0.00339513  0.10020241
   0.00360382  0.68022668  0.10019867
  -0.00027361  0.50004122  0.33378521
   0.16642692  0.33250635  0.33387169
   0.00000092  0.00001097  0.33355128
   0.16610599  0.83358914  0.33387818
   0.49993886  0.49967213  0.33379165
   0.66667372  0.33332826  0.33360547
   0.50030902  0.00027630  0.33378397
   0.66751033  0.83392382  0.33387072
Direct configuration=     6
   0.00420184  0.00285331  0.11738101
   0.35759355  0.00323623  0.09845190
   0.00359817  0.35567846  0.09845079
   0.65128817  0.64932728  0.09845018
   0.32681791  0.32473454  0.10020932
   0.68219063  0.00342288  0.10020396
   0.00357542  0.68016463  0.10020068
  -0.00024046  0.50003806  0.33379101
   0.16644424  0.33258435  0.33387996
   0.00000223  0.00001046  0.33354363
   0.16616399  0.83357073  0.33388685
   0.49994562  0.49970969  0.33379784
   0.66667321  0.33332909  0.33359695
   0.50027486  0.00024435  0.33378967
   0.66743129  0.83386329  0.33387891
Direct configuration=     7
   0.00420890  0.00288406  0.11664957
   0.35791838  0.00329417  0.09866543
   0.00349352  0.35593335  0.09866329
   0.65104736  0.64898476  0.09866593
   0.32701591  0.32483097  0.10020833
   0.68208289  0.00350612  0.10020861
   0.00349023  0.67997846  0.10020671
  -0.00014102  0.50002857  0.33380841
   0.16649620  0.33281834  0.33390478
   0.00000617  0.00000891  0.33352069
   0.16633799  0.83351550  0.33391287
   0.49996593  0.49982236  0.33381640
   0.66667169  0.33333155  0.33357138
   0.50017239  0.00014852  0.33380677
   0.66719414  0.83368169  0.33390350
Direct configuration=     8
   0.00422304  0.00294556  0.11518668
   0.35856804  0.00341004  0.09909249
   0.00328421  0.35644313  0.09908829
   0.65056573  0.64829971  0.09909742
   0.32741190  0.32502384  0.10020635
   0.68186741  0.00367260  0.10021791
   0.00331983  0.67960613  0.10021878
   0.00005786  0.50000959  0.33384321
   0.16660013  0.33328634  0.33395442
   0.00001404  0.00000582  0.33347481
   0.16668599  0.83340503  0.33396491
   0.50000654  0.50004771  0.33385352
   0.66666865  0.33333649  0.33352025
   0.49996744 -0.00004316  0.33384095
   0.66671985  0.83331850  0.33395268
Direct configuration=     9
   0.00425130  0.00306858  0.11226091
   0.35986736  0.00364178  0.09994661
   0.00286560  0.35746268  0.09993827
   0.64960247  0.64692962  0.09996041
   0.32820390  0.32540957  0.10020238
   0.68143645  0.00400556  0.10023651
   0.00297905  0.67886147  0.10024293
   0.00045562  0.49997163  0.33391280
   0.16680799  0.33422232  0.33405370
   0.00002978 -0.00000036  0.33338303
   0.16738198  0.83318410  0.33406899
   0.50008777  0.50049842  0.33392776
   0.66666258  0.33334636  0.33341799
   0.49955755 -0.00042651  0.33390933
   0.66577127  0.83259212  0.33405104
Direct configuration=    10
   0.00423336  0.00299047  0.11411859
   0.35904237  0.00349464  0.09940430
   0.00313139  0.35681533  0.09939858
   0.65021408  0.64779954  0.09941247
   0.32770103  0.32516466  0.10020490
   0.68171008  0.00379415  0.10022470
   0.00319542  0.67933428  0.10022760
   0.00020307  0.49999573  0.33386861
   0.16667601  0.33362803  0.33399067
   0.00001979  0.00000356  0.33344130
   0.16694007  0.83332438  0.33400291
   0.50003619  0.50021225  0.33388062
   0.66666644  0.33334009  0.33348292
   0.49981781 -0.00018311  0.33386591
   0.66637356  0.83305332  0.33398859
Direct configuration=    11
   0.00423074  0.00298224  0.11357555
   0.35903684  0.00346394  0.09948954
   0.00317183  0.35684956  0.09948368
   0.65018689  0.64780473  0.09949809
   0.32772819  0.32526920  0.10027752
   0.68160845  0.00371082  0.10029974
   0.00325821  0.67930842  0.10030300
   0.00013289  0.50000644  0.33388008
   0.16672899  0.33362928  0.33398699
   0.00001223  0.00000296  0.33347320
   0.16690358  0.83328138  0.33399891
   0.50001832  0.50013542  0.33389165
   0.66667332  0.33334103  0.33349257
   0.49988765 -0.00011912  0.33387726
   0.66638252  0.83310103  0.33398489
Direct configuration=    12
   0.00422289  0.00295755  0.11194644
   0.35902024  0.00337185  0.09974526
   0.00329315  0.35695225  0.09973896
   0.65010533  0.64782028  0.09975495
   0.32780966  0.32558284  0.10049537
   0.68130355  0.00346082  0.10052486
   0.00344658  0.67923082  0.10052922
  -0.00007762  0.50003858  0.33391448
   0.16688792  0.33363304  0.33397598
  -0.00001042  0.00000115  0.33356890
   0.16679412  0.83315239  0.33398689
   0.49996470  0.49990493  0.33392474
   0.66669397  0.33334383  0.33352152
   0.50009718  0.00007284  0.33391129
   0.66640941  0.83324416  0.33397380
Direct configuration=    13
   0.00420719  0.00290816  0.10868822
   0.35898704  0.00318766  0.10025669
   0.00353580  0.35715764  0.10024953
   0.64994220  0.64785139  0.10026867
   0.32797260  0.32621012  0.10093106
   0.68069376  0.00296082  0.10097512
   0.00382330  0.67907563  0.10098166
  -0.00049865  0.50010286  0.33398329
   0.16720579  0.33364055  0.33395395
  -0.00005573 -0.00000246  0.33376030
   0.16657520  0.83289442  0.33396287
   0.49985747  0.49944394  0.33399091
   0.66673527  0.33334944  0.33357942
   0.50051624  0.00045676  0.33397936
   0.66646319  0.83353041  0.33395161
Direct configuration=    14
   0.00420544  0.00289421  0.10776687
   0.35896682  0.00311862  0.10038326
   0.00364904  0.35721510  0.10037658
   0.64986611  0.64788325  0.10039473
   0.32792642  0.32629948  0.10106966
   0.68060210  0.00284195  0.10111521
   0.00393401  0.67909129  0.10112173
  -0.00019666  0.50001240  0.33398620
   0.16685761  0.33347995  0.33395529
   0.00000227  0.00000824  0.33382236
   0.16667154  0.83318637  0.33396297
   0.50000727  0.49980491  0.33399231
   0.66669176  0.33334466  0.33363017
   0.50021300  0.00021243  0.33398219
   0.66656395  0.83337447  0.33395314
Direct configuration=    15
   0.00420391  0.00288202  0.10696139
   0.35894915  0.00305825  0.10049390
   0.00374804  0.35726534  0.10048766
   0.64979959  0.64791110  0.10050494
   0.32788604  0.32637761  0.10119082
   0.68052197  0.00273804  0.10123768
   0.00403079  0.67910498  0.10124419
   0.00006734  0.49993332  0.33398874
   0.16655321  0.33333954  0.33395647
   0.00005298  0.00001760  0.33387662
   0.16675577  0.83344161  0.33396306
   0.50013823  0.50012048  0.33399354
   0.66665373  0.33334049  0.33367453
   0.49994789 -0.00000118  0.33398466
   0.66665203  0.83323813  0.33395448
Direct configuration=    16
   0.00420283  0.00287459  0.10673324
   0.35899109  0.00304160  0.10052804
   0.00379056  0.35731721  0.10052261
   0.64971481  0.64788127  0.10053783
   0.32782786  0.32630657  0.10121846
   0.68058866  0.00277953  0.10126269
   0.00401973  0.67913413  0.10126851
   0.00010586  0.49998643  0.33397366
   0.16661730  0.33336709  0.33397002
   0.00002718  0.00001271  0.33388864
   0.16676545  0.83340812  0.33397595
   0.50005485  0.50012369  0.33397773
   0.66668169  0.33334586  0.33371720
   0.49991547 -0.00006877  0.33396982
   0.66665736  0.83325731  0.33396827
Direct configuration=    17
   0.00420089  0.00286125  0.10632339
   0.35906642  0.00301168  0.10058938
   0.00386694  0.35741040  0.10058540
   0.64956251  0.64782767  0.10059692
   0.32772334  0.32617894  0.10126812
   0.68070847  0.00285407  0.10130761
   0.00399985  0.67918649  0.10131221
   0.00017505  0.50008184  0.33394657
   0.16673242  0.33341658  0.33399435
  -0.00001915  0.00000392  0.33391024
   0.16678284  0.83334796  0.33399911
   0.49990505  0.50012946  0.33394932
   0.66673191  0.33335551  0.33379385
   0.49985722 -0.00019019  0.33394316
   0.66666692  0.83329177  0.33399304
Direct configuration=    18
   0.00418711  0.00282405  0.10603310
   0.35916440  0.00299763  0.10064440
   0.00391150  0.35751680  0.10064191
   0.64941127  0.64774753  0.10064935
   0.32770882  0.32609892  0.10128588
   0.68079590  0.00296001  0.10131891
   0.00394307  0.67918172  0.10132205
   0.00007515  0.50005445  0.33392952
   0.16674296  0.33342795  0.33401442
   0.00001453  0.00001096  0.33392758
   0.16672377  0.83329855  0.33401828
   0.49997451  0.50003269  0.33393126
   0.66669590  0.33334941  0.33385587
   0.49999585 -0.00004823  0.33392658
   0.66661593  0.83331490  0.33401356
Direct configuration=    19
   0.00418044  0.00280603  0.10589245
   0.35921187  0.00299082  0.10067106
   0.00393309  0.35756836  0.10066929
   0.64933799  0.64770870  0.10067475
   0.32770178  0.32606015  0.10129449
   0.68083825  0.00301133  0.10132438
   0.00391557  0.67917941  0.10132681
   0.00002674  0.50004117  0.33392126
   0.16674807  0.33343346  0.33402415
   0.00003084  0.00001437  0.33393599
   0.16669516  0.83327461  0.33402757
   0.50000816  0.49998581  0.33392251
   0.66667845  0.33334645  0.33388591
   0.50006301  0.00002054  0.33391855
   0.66659123  0.83332611  0.33402350
Direct configuration=    20
   0.00416103  0.00276043  0.10573310
   0.35926336  0.00299726  0.10071299
   0.00393243  0.35761980  0.10071219
   0.64927908  0.64766468  0.10071464
   0.32777753  0.32608049  0.10128587
   0.68083563  0.00307625  0.10130986
   0.00386466  0.67912272  0.10131105
  -0.00000407  0.49996924  0.33393144
   0.16667913  0.33340673  0.33402710
   0.00003205  0.00001513  0.33395275
   0.16674194  0.83334680  0.33403037
   0.50008095  0.50002791  0.33393250
   0.66667891  0.33334625  0.33390290
   0.50002056  0.00005073  0.33392914
   0.66661748  0.83328291  0.33402676
Direct configuration=    21
   0.00414777  0.00272925  0.10562417
   0.35929856  0.00300166  0.10074165
   0.00393197  0.35765497  0.10074152
   0.64923881  0.64763459  0.10074192
   0.32782932  0.32609440  0.10127998
   0.68083383  0.00312064  0.10129993
   0.00382985  0.67908396  0.10130027
  -0.00002513  0.49992007  0.33393839
   0.16663200  0.33338846  0.33402913
   0.00003287  0.00001566  0.33396422
   0.16677391  0.83339615  0.33403228
   0.50013071  0.50005669  0.33393934
   0.66667923  0.33334610  0.33391451
   0.49999153  0.00007137  0.33393637
   0.66663543  0.83325337  0.33402900
Direct configuration=    22
   0.00413309  0.00269476  0.10546030
   0.35931317  0.00302478  0.10078731
   0.00391349  0.35765292  0.10078818
   0.64923882  0.64762581  0.10078537
   0.32789233  0.32611607  0.10126272
   0.68082387  0.00316585  0.10127549
   0.00378881  0.67903534  0.10127436
   0.00003217  0.49996926  0.33396403
   0.16666325  0.33339240  0.33402831
   0.00001805  0.00001272  0.33398289
   0.16677478  0.83338411  0.33403166
   0.50006435  0.50007607  0.33396521
   0.66669675  0.33334962  0.33391592
   0.49995537 -0.00000252  0.33396244
   0.66665237  0.83327014  0.33402849
Direct configuration=    23
   0.00411920  0.00266212  0.10530522
   0.35932699  0.00304665  0.10083053
   0.00389600  0.35765097  0.10083233
   0.64923883  0.64761750  0.10082648
   0.32795196  0.32613658  0.10124640
   0.68081444  0.00320863  0.10125237
   0.00374998  0.67898934  0.10124983
   0.00008640  0.50001581  0.33398829
   0.16669282  0.33339614  0.33402755
   0.00000403  0.00000995  0.33400056
   0.16677561  0.83337272  0.33403107
   0.50000154  0.50009441  0.33398969
   0.66671332  0.33335294  0.33391725
   0.49992115 -0.00007245  0.33398711
   0.66666839  0.83328602  0.33402800
Direct configuration=    24
   0.00412741  0.00267968  0.10514869
   0.35929408  0.00307993  0.10086288
   0.00387319  0.35758047  0.10086534
   0.64929956  0.64765252  0.10085709
   0.32791038  0.32610649  0.10123506
   0.68083117  0.00320213  0.10123452
   0.00375473  0.67900626  0.10123066
   0.00007856  0.50004515  0.33401459
   0.16671458  0.33340782  0.33403547
   0.00003350  0.00001616  0.33400843
   0.16671155  0.83331653  0.33403942
   0.50000763  0.50003575  0.33401665
   0.66668387  0.33334908  0.33391419
   0.50001592 -0.00002780  0.33401364
   0.66662455  0.83331716  0.33403606
Direct configuration=    25
   0.00412990  0.00268502  0.10510114
   0.35928408  0.00309004  0.10087271
   0.00386626  0.35755905  0.10087536
   0.64931801  0.64766316  0.10086639
   0.32789775  0.32609735  0.10123162
   0.68083625  0.00320015  0.10122909
   0.00375617  0.67901140  0.10122483
   0.00007618  0.50005406  0.33402257
   0.16672120  0.33341137  0.33403788
   0.00004245  0.00001804  0.33401082
   0.16669210  0.83329946  0.33404195
   0.50000948  0.50001794  0.33402484
   0.66667492  0.33334791  0.33391326
   0.50004470 -0.00001424  0.33402170
   0.66661124  0.83332661  0.33403850
Direct configuration=    26
   0.00414790  0.00272687  0.10495772
   0.35925185  0.00311370  0.10088595
   0.00384601  0.35749616  0.10088881
   0.64937547  0.64768953  0.10087874
   0.32783234  0.32608059  0.10123064
   0.68083239  0.00314919  0.10122334
   0.00379499  0.67904541  0.10121813
   0.00001361  0.49999374  0.33404076
   0.16670027  0.33341293  0.33405832
   0.00003129  0.00001705  0.33400763
   0.16674045  0.83333738  0.33406289
   0.50005667  0.50002471  0.33404382
   0.66668824  0.33335016  0.33391702
   0.50002480  0.00003437  0.33403995
   0.66662437  0.83329553  0.33405895
Direct configuration=    27
   0.00415700  0.00274804  0.10488518
   0.35923556  0.00312567  0.10089265
   0.00383576  0.35746435  0.10089561
   0.64940453  0.64770287  0.10088499
   0.32779926  0.32607212  0.10123014
   0.68083044  0.00312341  0.10122042
   0.00381463  0.67906261  0.10121474
  -0.00001803  0.49996323  0.33404996
   0.16668969  0.33341373  0.33406866
   0.00002565  0.00001656  0.33400601
   0.16676491  0.83335655  0.33407349
   0.50008054  0.50002814  0.33405341
   0.66669498  0.33335131  0.33391893
   0.50001473  0.00005895  0.33404918
   0.66663102  0.83327981  0.33406929
Direct configuration=    28
   0.00416554  0.00277236  0.10473850
   0.35923862  0.00312746  0.10089423
   0.00381822  0.35746569  0.10089701
   0.64941607  0.64768602  0.10088639
   0.32779786  0.32612140  0.10123545
   0.68077442  0.00305564  0.10122242
   0.00385806  0.67906509  0.10121613
   0.00002223  0.49997803  0.33406368
   0.16668654  0.33340928  0.33409640
   0.00001901  0.00001502  0.33400222
   0.16677955  0.83337128  0.33410158
   0.50005873  0.50006045  0.33406776
   0.66670438  0.33335299  0.33393118
   0.49997474  0.00001091  0.33406280
   0.66664670  0.83327572  0.33409693
Direct configuration=    29
   0.00417861  0.00280957  0.10451400
   0.35924331  0.00313020  0.10089665
   0.00379136  0.35746774  0.10089915
   0.64943371  0.64766024  0.10088853
   0.32779571  0.32619684  0.10124357
   0.68068869  0.00295193  0.10122548
   0.00392452  0.67906887  0.10121827
   0.00008385  0.50000069  0.33408467
   0.16668173  0.33340248  0.33413886
   0.00000885  0.00001266  0.33399640
   0.16680196  0.83339383  0.33414457
   0.50002536  0.50010989  0.33408971
   0.66671877  0.33335557  0.33394993
   0.49991354 -0.00006261  0.33408364
   0.66667069  0.83326945  0.33413923
Direct configuration=    30
   0.00417597  0.00281027  0.10437738
   0.35926196  0.00311530  0.10089557
   0.00378228  0.35750478  0.10089773
   0.64941660  0.64762991  0.10088771
   0.32781988  0.32623982  0.10124690
   0.68064822  0.00291424  0.10122709
   0.00394253  0.67906565  0.10121960
   0.00009375  0.50002889  0.33409947
   0.16669276  0.33340005  0.33416094
   0.00002969  0.00001734  0.33400434
   0.16675172  0.83335967  0.33416667
   0.50002218  0.50007680  0.33410474
   0.66669928  0.33335346  0.33396509
   0.49997199 -0.00004647  0.33409826
   0.66665187  0.83329764  0.33416118
Direct configuration=    31
   0.00417355  0.00281090  0.10425191
   0.35927908  0.00310162  0.10089458
   0.00377393  0.35753880  0.10089643
   0.64940088  0.64760206  0.10088695
   0.32784207  0.32627929  0.10124995
   0.68061106  0.00287962  0.10122856
   0.00395908  0.67906268  0.10122083
   0.00010283  0.50005479  0.33411306
   0.16670288  0.33339783  0.33418122
   0.00004883  0.00002163  0.33401163
   0.16670558  0.83332830  0.33418697
   0.50001925  0.50004641  0.33411854
   0.66668138  0.33335152  0.33397902
   0.50002568 -0.00003164  0.33411169
   0.66663460  0.83332353  0.33418133
Direct configuration=    32
   0.00416627  0.00280072  0.10412840
   0.35929535  0.00307779  0.10089487
   0.00377809  0.35757923  0.10089634
   0.64937142  0.64758135  0.10088788
   0.32785119  0.32626622  0.10124663
   0.68062609  0.00289371  0.10122537
   0.00394277  0.67907067  0.10121773
   0.00004951  0.50002610  0.33413102
   0.16671203  0.33340691  0.33419365
   0.00004167  0.00002180  0.33403627
   0.16672273  0.83333055  0.33419904
   0.50003938  0.50002672  0.33413630
   0.66669035  0.33335364  0.33399613
   0.50003746  0.00001376  0.33412947
   0.66663636  0.83331816  0.33419358
Direct configuration=    33
   0.00415329  0.00278255  0.10390796
   0.35932438  0.00303525  0.10089538
   0.00378550  0.35765138  0.10089619
   0.64931885  0.64754440  0.10088954
   0.32786746  0.32624289  0.10124069
   0.68065293  0.00291886  0.10121969
   0.00391366  0.67908493  0.10121219
  -0.00004565  0.49997490  0.33416309
   0.16672836  0.33342311  0.33421582
   0.00002889  0.00002211  0.33408026
   0.16675334  0.83333456  0.33422057
   0.50007531  0.49999158  0.33416799
   0.66670635  0.33335743  0.33402666
   0.50005849  0.00009481  0.33416120
   0.66663951  0.83330858  0.33421544
Direct configuration=    34
   0.00415098  0.00278103  0.10379772
   0.35932941  0.00301825  0.10089836
   0.00379615  0.35766907  0.10089888
   0.64929570  0.64753890  0.10089317
   0.32786083  0.32620569  0.10123185
   0.68068634  0.00295340  0.10121188
   0.00388852  0.67908883  0.10120462
  -0.00002196  0.49997519  0.33418029
   0.16671913  0.33342368  0.33422522
   0.00002824  0.00002169  0.33410861
   0.16676808  0.83334827  0.33422953
   0.50007481  0.50001757  0.33418483
   0.66670952  0.33335805  0.33404476
   0.50003215  0.00007034  0.33417824
   0.66664277  0.83329735  0.33422471
Direct configuration=    35
   0.00414414  0.00277654  0.10347084
   0.35934433  0.00296785  0.10090718
   0.00382772  0.35772151  0.10090684
   0.64922705  0.64752258  0.10090396
   0.32784118  0.32609540  0.10120564
   0.68078541  0.00305582  0.10118873
   0.00381401  0.67910039  0.10118219
   0.00004828  0.49997605  0.33423129
   0.16669177  0.33342537  0.33425309
   0.00002629  0.00002045  0.33419268
   0.16681182  0.83338893  0.33425608
   0.50007333  0.50009465  0.33423476
   0.66671890  0.33335990  0.33409842
   0.49995403 -0.00000218  0.33422877
   0.66665241  0.83326407  0.33425219
Direct configuration=    36
   0.00414760  0.00278413  0.10333470
   0.35933447  0.00296574  0.10091590
   0.00384335  0.35770685  0.10091537
   0.64921453  0.64753351  0.10091340
   0.32784366  0.32607495  0.10118489
   0.68079877  0.00309554  0.10117040
   0.00379044  0.67907252  0.10116436
   0.00009187  0.50002400  0.33424974
   0.16670017  0.33340843  0.33427030
   0.00004390  0.00002408  0.33422498
   0.16675672  0.83336185  0.33427284
   0.50004765  0.50007863  0.33425275
   0.66670352  0.33335850  0.33412661
   0.49999120 -0.00002363  0.33424710
   0.66665281  0.83330226  0.33426933
Direct configuration=    37
   0.00415030  0.00279003  0.10322873
   0.35932680  0.00296410  0.10092268
   0.00385551  0.35769544  0.10092200
   0.64920479  0.64754201  0.10092075
   0.32784559  0.32605904  0.10116874
   0.68080917  0.00312646  0.10115612
   0.00377209  0.67905082  0.10115048
   0.00012579  0.50006131  0.33426411
   0.16670671  0.33339524  0.33428369
   0.00005761  0.00002690  0.33425012
   0.16671384  0.83334077  0.33428589
   0.50002767  0.50006616  0.33426675
   0.66669155  0.33335740  0.33414856
   0.50002013 -0.00004032  0.33426136
   0.66665312  0.83333198  0.33428266
Direct configuration=    38
   0.00415084  0.00278714  0.10308664
   0.35930496  0.00297973  0.10093512
   0.00386618  0.35765810  0.10093443
   0.64921431  0.64756675  0.10093374
   0.32786874  0.32608552  0.10113928
   0.68078117  0.00313930  0.10113012
   0.00376538  0.67900336  0.10112520
   0.00008220  0.50004810  0.33428054
   0.16672287  0.33339654  0.33430946
   0.00004912  0.00002727  0.33427575
   0.16671975  0.83333836  0.33431151
   0.50003117  0.50004187  0.33428286
   0.66670303  0.33336035  0.33418174
   0.50003505 -0.00000562  0.33427780
   0.66666591  0.83334057  0.33430847
Direct configuration=    39
   0.00415157  0.00278321  0.10289301
   0.35927520  0.00300103  0.10095206
   0.00388072  0.35760722  0.10095138
   0.64922728  0.64760048  0.10095144
   0.32790030  0.32612161  0.10109914
   0.68074302  0.00315679  0.10109469
   0.00375624  0.67893868  0.10109076
   0.00002279  0.50003008  0.33430294
   0.16674490  0.33339830  0.33434458
   0.00003755  0.00002777  0.33431067
   0.16672781  0.83333508  0.33434642
   0.50003594  0.50000878  0.33430481
   0.66671866  0.33336436  0.33422696
   0.50005537  0.00004166  0.33430019
   0.66668333  0.83335228  0.33434364
Direct configuration=    40
   0.00413581  0.00274413  0.10273714
   0.35925992  0.00302471  0.10096138
   0.00387458  0.35758321  0.10096086
   0.64925658  0.64762370  0.10096098
   0.32790951  0.32616458  0.10106725
   0.68070907  0.00312094  0.10106684
   0.00377376  0.67893831  0.10106375
   0.00004897  0.49999211  0.33432497
   0.16670433  0.33342374  0.33437695
   0.00004486  0.00002799  0.33433052
   0.16678802  0.83337564  0.33437915
   0.50008273  0.50007277  0.33432681
   0.66671621  0.33336376  0.33425752
   0.50000147  0.00002329  0.33432236
   0.66665485  0.83328848  0.33437618
Direct configuration=    41
   0.00413483  0.00274172  0.10272751
   0.35925897  0.00302617  0.10096195
   0.00387420  0.35758173  0.10096144
   0.64925839  0.64762513  0.10096157
   0.32791008  0.32616723  0.10106528
   0.68070697  0.00311873  0.10106512
   0.00377484  0.67893828  0.10106208
   0.00005059  0.49998976  0.33432633
   0.16670183  0.33342531  0.33437895
   0.00004531  0.00002800  0.33433175
   0.16679174  0.83337814  0.33438117
   0.50008562  0.50007672  0.33432817
   0.66671606  0.33336372  0.33425941
   0.49999814  0.00002215  0.33432373
   0.66665309  0.83328454  0.33437820
Direct configuration=    42
   0.00411856  0.00270509  0.10261861
   0.35927102  0.00304479  0.10096087
   0.00385578  0.35758944  0.10096064
   0.64927374  0.64761946  0.10096026
   0.32788465  0.32618404  0.10104735
   0.68069716  0.00306430  0.10104978
   0.00380577  0.67898461  0.10104728
   0.00009389  0.50001828  0.33434871
   0.16670220  0.33342251  0.33440188
   0.00005438  0.00002936  0.33434151
   0.16677612  0.83337112  0.33440480
   0.50006954  0.50008731  0.33435085
   0.66670957  0.33336312  0.33427241
   0.49999891 -0.00000974  0.33434633
   0.66664939  0.83329365  0.33440137
Direct configuration=    43
   0.00410660  0.00267816  0.10253856
   0.35927987  0.00305847  0.10096008
   0.00384223  0.35759510  0.10096005
   0.64928501  0.64761529  0.10095929
   0.32786595  0.32619640  0.10103417
   0.68068994  0.00302430  0.10103851
   0.00382851  0.67901866  0.10103640
   0.00012571  0.50003924  0.33436516
   0.16670248  0.33342046  0.33441874
   0.00006104  0.00003035  0.33434869
   0.16676465  0.83336596  0.33442217
   0.50005772  0.50009510  0.33436752
   0.66670479  0.33336267  0.33428197
   0.49999948 -0.00003318  0.33436295
   0.66664667  0.83330034  0.33441840
Direct configuration=    44
   0.00410754  0.00268258  0.10242333
   0.35931891  0.00307865  0.10095137
   0.00382107  0.35761319  0.10095175
   0.64926486  0.64757341  0.10094999
   0.32782527  0.32619515  0.10102097
   0.68068499  0.00298501  0.10102732
   0.00386215  0.67905021  0.10102564
   0.00006764  0.50003895  0.33439436
   0.16673382  0.33340453  0.33444099
   0.00004582  0.00003063  0.33436026
   0.16675043  0.83335519  0.33444528
   0.50004024  0.50004666  0.33439722
   0.66672298  0.33336719  0.33429079
   0.50003023  0.00000867  0.33439246
   0.66668471  0.83333731  0.33444095
Direct configuration=    45
   0.00410768  0.00268324  0.10240626
   0.35932470  0.00308164  0.10095008
   0.00381794  0.35761588  0.10095051
   0.64926188  0.64756720  0.10094861
   0.32781925  0.32619497  0.10101902
   0.68068425  0.00297919  0.10102566
   0.00386713  0.67905488  0.10102404
   0.00005904  0.50003890  0.33439868
   0.16673846  0.33340216  0.33444428
   0.00004356  0.00003067  0.33436197
   0.16674833  0.83335360  0.33444870
   0.50003765  0.50003948  0.33440162
   0.66672568  0.33336786  0.33429210
   0.50003478  0.00001487  0.33439683
   0.66669035  0.83334279  0.33444429
Direct configuration=    46
   0.00412337  0.00272321  0.10232041
   0.35935731  0.00308765  0.10093776
   0.00380724  0.35762769  0.10093853
   0.64922433  0.64752212  0.10093565
   0.32780038  0.32618336  0.10101223
   0.68068178  0.00298201  0.10101944
   0.00387736  0.67904415  0.10101793
   0.00004407  0.50000971  0.33442286
   0.16671982  0.33341221  0.33446019
   0.00005115  0.00003272  0.33437440
   0.16676819  0.83336823  0.33446512
   0.50007482  0.50005002  0.33442612
   0.66672146  0.33336783  0.33430038
   0.50003372  0.00003867  0.33442123
   0.66667566  0.83331776  0.33446042
Direct configuration=    47
   0.00412808  0.00273518  0.10229470
   0.35936709  0.00308945  0.10093407
   0.00380404  0.35763123  0.10093494
   0.64921308  0.64750862  0.10093177
   0.32779472  0.32617988  0.10101020
   0.68068103  0.00298286  0.10101757
   0.00388043  0.67904093  0.10101610
   0.00003959  0.50000096  0.33443010
   0.16671424  0.33341522  0.33446495
   0.00005342  0.00003333  0.33437812
   0.16677414  0.83337262  0.33447004
   0.50008595  0.50005317  0.33443346
   0.66672020  0.33336782  0.33430286
   0.50003340  0.00004580  0.33442853
   0.66667126  0.83331026  0.33446525
Direct configuration=    48
   0.00413471  0.00275700  0.10222923
   0.35936369  0.00307487  0.10092214
   0.00380120  0.35763305  0.10092321
   0.64920279  0.64750005  0.10091930
   0.32780735  0.32616858  0.10100414
   0.68068539  0.00300604  0.10101096
   0.00386362  0.67902249  0.10100937
   0.00008904  0.50002404  0.33444717
   0.16671514  0.33342536  0.33447885
   0.00005928  0.00003326  0.33439186
   0.16677587  0.83336852  0.33448406
   0.50007203  0.50007832  0.33445059
   0.66671655  0.33336724  0.33431679
   0.50001635  0.00000375  0.33444572
   0.66665767  0.83330476  0.33447927
Direct configuration=    49
   0.00413596  0.00276113  0.10221687
   0.35936304  0.00307212  0.10091989
   0.00380067  0.35763339  0.10092099
   0.64920084  0.64749843  0.10091695
   0.32780973  0.32616644  0.10100300
   0.68068621  0.00301042  0.10100971
   0.00386044  0.67901901  0.10100810
   0.00009838  0.50002840  0.33445039
   0.16671531  0.33342727  0.33448148
   0.00006038  0.00003325  0.33439446
   0.16677619  0.83336775  0.33448671
   0.50006939  0.50008308  0.33445383
   0.66671586  0.33336713  0.33431942
   0.50001313 -0.00000420  0.33444897
   0.66665510  0.83330372  0.33448192
Direct configuration=    50
   0.00412918  0.00275436  0.10215537
   0.35932889  0.00304259  0.10090867
   0.00380276  0.35762886  0.10090986
   0.64922158  0.64752521  0.10090529
   0.32784008  0.32615671  0.10099341
   0.68069649  0.00303619  0.10099874
   0.00382729  0.67901041  0.10099683
   0.00009305  0.50004411  0.33446422
   0.16673406  0.33341530  0.33449725
   0.00005244  0.00003298  0.33441146
   0.16676425  0.83336100  0.33450231
   0.50004576  0.50006803  0.33446750