   8   8   0   0
  0.4338553E+02  0.5169000E-09  0.5169000E-09  0.1500000E-08  0.5000000E-15
  1.000000000000000E-004
  CAR 
 BC3                                     
      9.52960659    -21.28556199  301     -3.47641078      1.00000000
    -21.286  0.0000E+00  0.0000E+00
    -21.183  0.0000E+00  0.0000E+00
    -21.080  0.0000E+00  0.0000E+00
    -20.977  0.0000E+00  0.0000E+00
    -20.875  0.0000E+00  0.0000E+00
    -20.772  0.0000E+00  0.0000E+00
    -20.669  0.0000E+00  0.0000E+00
    -20.567  0.0000E+00  0.0000E+00
    -20.464  0.2053E-18  0.2109E-19
    -20.361  0.1487E-13  0.1528E-14
    -20.258  0.1444E-09  0.1483E-10
    -20.156  0.1913E-06  0.1966E-07
    -20.053  0.3712E-04  0.3832E-05
    -19.950  0.1199E-02  0.1270E-03
    -19.848  0.8107E-02  0.9597E-03
    -19.745  0.1714E-01  0.2720E-02
    -19.642  0.2080E-01  0.4856E-02
    -19.539  0.2343E-01  0.7263E-02
    -19.437  0.2879E-01  0.1022E-01
    -19.334  0.3995E-01  0.1432E-01
    -19.231  0.3924E-01  0.1835E-01
    -19.129  0.1456E-01  0.1985E-01
    -19.026  0.1436E-02  0.2000E-01
    -18.923  0.2904E-04  0.2000E-01
    -18.820  0.9782E-07  0.2000E-01
    -18.718  0.4821E-10  0.2000E-01
    -18.615  0.3237E-14  0.2000E-01
    -18.512  0.0000E+00  0.2000E-01
    -18.409  0.0000E+00  0.2000E-01
    -18.307  0.0000E+00  0.2000E-01
    -18.204  0.9474E-19  0.2000E-01
    -18.101  0.8449E-14  0.2000E-01
    -17.999  0.9847E-10  0.2000E-01
    -17.896  0.1560E-06  0.2000E-01
    -17.793  0.3594E-04  0.2000E-01
    -17.690  0.1361E-02  0.2014E-01
    -17.588  0.1059E-01  0.2123E-01
    -17.485  0.2528E-01  0.2383E-01
    -17.382  0.3226E-01  0.2714E-01
    -17.280  0.2729E-01  0.2995E-01
    -17.177  0.1970E-01  0.3197E-01
    -17.074  0.1846E-01  0.3386E-01
    -16.971  0.1912E-01  0.3583E-01
    -16.869  0.2010E-01  0.3789E-01
    -16.766  0.2148E-01  0.4010E-01
    -16.663  0.2362E-01  0.4253E-01
    -16.561  0.2775E-01  0.4538E-01
    -16.458  0.3445E-01  0.4891E-01
    -16.355  0.3395E-01  0.5240E-01
    -16.252  0.2597E-01  0.5507E-01
    -16.150  0.2055E-01  0.5718E-01
    -16.047  0.1643E-01  0.5887E-01
    -15.944  0.9082E-02  0.5980E-01
    -15.842  0.1855E-02  0.5999E-01
    -15.739  0.8727E-04  0.6000E-01
    -15.636  0.7205E-06  0.6000E-01
    -15.533  0.8961E-09  0.6000E-01
    -15.431  0.1546E-12  0.6000E-01
    -15.328  0.3284E-17  0.6000E-01
    -15.225  0.0000E+00  0.6000E-01
    -15.123  0.0000E+00  0.6000E-01
    -15.020  0.0000E+00  0.6000E-01
    -14.917  0.0000E+00  0.6000E-01
    -14.814  0.0000E+00  0.6000E-01
    -14.712  0.1017E-15  0.6000E-01
    -14.609  0.2553E-11  0.6000E-01
    -14.506  0.8603E-08  0.6000E-01
    -14.404  0.4093E-05  0.6000E-01
    -14.301  0.3024E-03  0.6003E-01
    -14.198  0.4136E-02  0.6046E-01
    -14.095  0.1428E-01  0.6192E-01
    -13.993  0.2103E-01  0.6408E-01
    -13.890  0.2432E-01  0.6658E-01
    -13.787  0.2997E-01  0.6966E-01
    -13.684  0.3532E-01  0.7329E-01
    -13.582  0.2750E-01  0.7611E-01
    -13.479  0.1841E-01  0.7800E-01
    -13.376  0.1559E-01  0.7961E-01
    -13.274  0.1448E-01  0.8109E-01
    -13.171  0.1381E-01  0.8251E-01
    -13.068  0.1328E-01  0.8388E-01
    -12.965  0.1281E-01  0.8519E-01
    -12.863  0.1268E-01  0.8649E-01
    -12.760  0.1443E-01  0.8798E-01
    -12.657  0.1858E-01  0.8988E-01
    -12.555  0.1998E-01  0.9194E-01
    -12.452  0.1882E-01  0.9387E-01
    -12.349  0.1743E-01  0.9566E-01
    -12.246  0.1613E-01  0.9732E-01
    -12.144  0.1510E-01  0.9887E-01
    -12.041  0.1423E-01  0.1003E+00
    -11.938  0.1313E-01  0.1017E+00
    -11.836  0.1011E-01  0.1027E+00
    -11.733  0.5812E-02  0.1033E+00
    -11.630  0.4554E-02  0.1038E+00
    -11.527  0.4593E-02  0.1043E+00
    -11.425  0.4635E-02  0.1047E+00
    -11.322  0.5132E-02  0.1053E+00
    -11.219  0.6042E-02  0.1059E+00
    -11.117  0.8071E-02  0.1067E+00
    -11.014  0.8374E-02  0.1076E+00
    -10.911  0.1018E-01  0.1086E+00
    -10.808  0.1270E-01  0.1099E+00
    -10.706  0.1565E-01  0.1115E+00
    -10.603  0.1622E-01  0.1132E+00
    -10.500  0.1800E-01  0.1150E+00
    -10.398  0.1918E-01  0.1170E+00
    -10.295  0.2261E-01  0.1193E+00
    -10.192  0.2244E-01  0.1216E+00
    -10.089  0.1683E-01  0.1234E+00
     -9.987  0.1318E-01  0.1247E+00
     -9.884  0.1662E-01  0.1264E+00
     -9.781  0.2640E-01  0.1291E+00
     -9.679  0.2661E-01  0.1319E+00
     -9.576  0.2259E-01  0.1342E+00
     -9.473  0.2044E-01  0.1363E+00
     -9.370  0.1870E-01  0.1382E+00
     -9.268  0.1884E-01  0.1401E+00
     -9.165  0.1957E-01  0.1422E+00
     -9.062  0.2188E-01  0.1444E+00
     -8.959  0.2437E-01  0.1469E+00
     -8.857  0.2623E-01  0.1496E+00
     -8.754  0.2486E-01  0.1522E+00
     -8.651  0.2648E-01  0.1549E+00
     -8.549  0.3003E-01  0.1580E+00
     -8.446  0.2816E-01  0.1609E+00
     -8.343  0.2330E-01  0.1632E+00
     -8.240  0.2059E-01  0.1654E+00
     -8.138  0.1999E-01  0.1674E+00
     -8.035  0.2471E-01  0.1700E+00
     -7.932  0.3162E-01  0.1732E+00
     -7.830  0.3998E-01  0.1773E+00
     -7.727  0.4402E-01  0.1818E+00
     -7.624  0.4350E-01  0.1863E+00
     -7.521  0.3886E-01  0.1903E+00
     -7.419  0.2587E-01  0.1929E+00
     -7.316  0.1734E-01  0.1947E+00
     -7.213  0.2002E-01  0.1968E+00
     -7.111  0.2093E-01  0.1989E+00
     -7.008  0.1749E-01  0.2007E+00
     -6.905  0.1615E-01  0.2024E+00
     -6.802  0.1630E-01  0.2041E+00
     -6.700  0.1851E-01  0.2060E+00
     -6.597  0.2693E-01  0.2087E+00
     -6.494  0.4211E-01  0.2131E+00
     -6.392  0.6810E-01  0.2200E+00
     -6.289  0.7942E-01  0.2282E+00
     -6.186  0.5799E-01  0.2342E+00
     -6.083  0.3942E-01  0.2382E+00
     -5.981  0.2696E-01  0.2410E+00
     -5.878  0.2334E-01  0.2434E+00
     -5.775  0.2360E-01  0.2458E+00
     -5.673  0.2436E-01  0.2483E+00
     -5.570  0.2526E-01  0.2509E+00
     -5.467  0.2650E-01  0.2536E+00
     -5.364  0.2778E-01  0.2565E+00
     -5.262  0.2979E-01  0.2595E+00
     -5.159  0.3251E-01  0.2629E+00
     -5.056  0.3715E-01  0.2667E+00
     -4.954  0.4176E-01  0.2710E+00
     -4.851  0.4351E-01  0.2755E+00
     -4.748  0.4733E-01  0.2803E+00
     -4.645  0.4622E-01  0.2851E+00
     -4.543  0.3948E-01  0.2891E+00
     -4.440  0.2800E-01  0.2920E+00
     -4.337  0.1606E-01  0.2936E+00
     -4.235  0.1269E-01  0.2949E+00
     -4.132  0.1207E-01  0.2962E+00
     -4.029  0.1163E-01  0.2974E+00
     -3.926  0.1117E-01  0.2985E+00
     -3.824  0.9426E-02  0.2995E+00
     -3.721  0.4312E-02  0.2999E+00
     -3.618  0.5936E-03  0.3000E+00
     -3.515  0.1678E-04  0.3000E+00
     -3.413  0.4245E-06  0.3000E+00
     -3.310  0.5060E-04  0.3000E+00
     -3.207  0.1270E-02  0.3001E+00
     -3.105  0.7032E-02  0.3009E+00
     -3.002  0.1332E-01  0.3022E+00
     -2.899  0.1603E-01  0.3039E+00
     -2.796  0.1849E-01  0.3058E+00
     -2.694  0.2299E-01  0.3081E+00
     -2.591  0.2717E-01  0.3109E+00
     -2.488  0.2240E-01  0.3132E+00
     -2.386  0.1610E-01  0.3149E+00
     -2.283  0.1252E-01  0.3162E+00
     -2.180  0.1005E-01  0.3172E+00
     -2.077  0.8363E-02  0.3181E+00
     -1.975  0.6399E-02  0.3187E+00
     -1.872  0.4421E-02  0.3192E+00
     -1.769  0.3016E-02  0.3195E+00
     -1.667  0.2235E-02  0.3197E+00
     -1.564  0.1577E-02  0.3199E+00
     -1.461  0.8959E-03  0.3200E+00
     -1.358  0.4372E-03  0.3200E+00
     -1.256  0.5261E-03  0.3201E+00
     -1.153  0.1072E-02  0.3202E+00
     -1.050  0.1754E-02  0.3203E+00
     -0.948  0.2494E-02  0.3206E+00
     -0.845  0.3184E-02  0.3209E+00
     -0.742  0.4134E-02  0.3214E+00
     -0.639  0.4928E-02  0.3219E+00
     -0.537  0.6171E-02  0.3225E+00
     -0.434  0.7423E-02  0.3233E+00
     -0.331  0.9532E-02  0.3242E+00
     -0.229  0.1571E-01  0.3259E+00
     -0.126  0.2740E-01  0.3287E+00
     -0.023  0.2967E-01  0.3317E+00
      0.080  0.2149E-01  0.3339E+00
      0.182  0.1717E-01  0.3357E+00
      0.285  0.1445E-01  0.3372E+00
      0.388  0.1383E-01  0.3386E+00
      0.490  0.1429E-01  0.3401E+00
      0.593  0.1527E-01  0.3416E+00
      0.696  0.1352E-01  0.3430E+00
      0.799  0.1138E-01  0.3442E+00
      0.901  0.1379E-01  0.3456E+00
      1.004  0.1773E-01  0.3474E+00
      1.107  0.1878E-01  0.3494E+00
      1.210  0.1941E-01  0.3513E+00
      1.312  0.2014E-01  0.3534E+00
      1.415  0.2106E-01  0.3556E+00
      1.518  0.2279E-01  0.3579E+00
      1.620  0.2430E-01  0.3604E+00
      1.723  0.2365E-01  0.3628E+00
      1.826  0.2415E-01  0.3653E+00
      1.929  0.2767E-01  0.3682E+00
      2.031  0.3019E-01  0.3713E+00
      2.134  0.2985E-01  0.3743E+00
      2.237  0.3226E-01  0.3776E+00
      2.339  0.3616E-01  0.3814E+00
      2.442  0.3895E-01  0.3854E+00
      2.545  0.3855E-01  0.3893E+00
      2.648  0.3873E-01  0.3933E+00
      2.750  0.3841E-01  0.3972E+00
      2.853  0.3834E-01  0.4012E+00
      2.956  0.3830E-01  0.4051E+00
      3.058  0.3804E-01  0.4090E+00
      3.161  0.3816E-01  0.4129E+00
      3.264  0.3789E-01  0.4168E+00
      3.367  0.3804E-01  0.4207E+00
      3.469  0.3803E-01  0.4247E+00
      3.572  0.3775E-01  0.4285E+00
      3.675  0.3790E-01  0.4324E+00
      3.777  0.3795E-01  0.4363E+00
      3.880  0.3905E-01  0.4403E+00
      3.983  0.4034E-01  0.4445E+00
      4.086  0.3929E-01  0.4485E+00
      4.188  0.3215E-01  0.4518E+00
      4.291  0.3334E-01  0.4552E+00
      4.394  0.4274E-01  0.4596E+00
      4.496  0.4988E-01  0.4648E+00
      4.599  0.4722E-01  0.4696E+00
      4.702  0.4837E-01  0.4746E+00
      4.805  0.4969E-01  0.4797E+00
      4.907  0.5441E-01  0.4853E+00
      5.010  0.5925E-01  0.4913E+00
      5.113  0.6126E-01  0.4976E+00
      5.215  0.6574E-01  0.5044E+00
      5.318  0.7154E-01  0.5117E+00
      5.421  0.7470E-01  0.5194E+00
      5.524  0.8174E-01  0.5278E+00
      5.626  0.7470E-01  0.5355E+00
      5.729  0.5966E-01  0.5416E+00
      5.832  0.6685E-01  0.5485E+00
      5.935  0.7987E-01  0.5567E+00
      6.037  0.7760E-01  0.5647E+00
      6.140  0.7154E-01  0.5720E+00
      6.243  0.6816E-01  0.5790E+00
      6.345  0.7308E-01  0.5865E+00
      6.448  0.7447E-01  0.5942E+00
      6.551  0.6952E-01  0.6013E+00
      6.654  0.6381E-01  0.6079E+00
      6.756  0.6284E-01  0.6143E+00
      6.859  0.6876E-01  0.6214E+00
      6.962  0.6196E-01  0.6277E+00
      7.064  0.4552E-01  0.6324E+00
      7.167  0.2642E-01  0.6351E+00
      7.270  0.1397E-01  0.6366E+00
      7.373  0.1050E-01  0.6376E+00
      7.475  0.6631E-02  0.6383E+00
      7.578  0.4220E-02  0.6388E+00
      7.681  0.3337E-02  0.6391E+00
      7.783  0.2750E-02  0.6394E+00
      7.886  0.1972E-02  0.6396E+00
      7.989  0.2184E-02  0.6398E+00
      8.092  0.1494E-02  0.6400E+00
      8.194  0.3265E-03  0.6400E+00
      8.297  0.3302E-04  0.6400E+00
      8.400  0.1292E-05  0.6400E+00
      8.502  0.9183E-08  0.6400E+00
      8.605  0.9081E-11  0.6400E+00
      8.708  0.1166E-14  0.6400E+00
      8.811  0.1579E-19  0.6400E+00
      8.913  0.0000E+00  0.6400E+00
      9.016  0.0000E+00  0.6400E+00
      9.119  0.0000E+00  0.6400E+00
      9.221  0.0000E+00  0.6400E+00
      9.324  0.0000E+00  0.6400E+00
      9.427  0.0000E+00  0.6400E+00
      9.530  0.0000E+00  0.6400E+00
