  16  16   0  16
  0.2064809E+02  0.5043000E-09  0.5043000E-09  0.1500000E-08  0.5000000E-15
  1.000000000000000E-004
  CAR 
 Lattice                                 
      9.76126170    -21.30095962  301     -0.97126615      1.00000000
    -21.301  0.0000E+00  0.0000E+00  0.0000E+00  0.0000E+00
    -21.197  0.0000E+00  0.0000E+00  0.0000E+00  0.0000E+00
    -21.094  0.0000E+00  0.0000E+00  0.0000E+00  0.0000E+00
    -20.990  0.0000E+00  0.0000E+00  0.0000E+00  0.0000E+00
    -20.887  0.0000E+00  0.0000E+00  0.0000E+00  0.0000E+00
    -20.783  0.0000E+00  0.0000E+00  0.0000E+00  0.0000E+00
    -20.680  0.0000E+00  0.0000E+00  0.0000E+00  0.0000E+00
    -20.576  0.0000E+00  0.0000E+00  0.0000E+00  0.0000E+00
    -20.473  0.2909E-19  0.2909E-19  0.3012E-20  0.3012E-20
    -20.369  0.3277E-14  0.3277E-14  0.3393E-15  0.3393E-15
    -20.266  0.3283E-10  0.3283E-10  0.3400E-11  0.3400E-11
    -20.162  0.4529E-07  0.4529E-07  0.4693E-08  0.4693E-08
    -20.058  0.9302E-05  0.9302E-05  0.9678E-06  0.9678E-06
    -19.955  0.3137E-03  0.3137E-03  0.3345E-04  0.3345E-04
    -19.851  0.2127E-02  0.2127E-02  0.2537E-03  0.2537E-03
    -19.748  0.4404E-02  0.4404E-02  0.7097E-03  0.7097E-03
    -19.644  0.4904E-02  0.4904E-02  0.1217E-02  0.1217E-02
    -19.541  0.5166E-02  0.5166E-02  0.1752E-02  0.1752E-02
    -19.437  0.4647E-02  0.4647E-02  0.2233E-02  0.2233E-02
    -19.334  0.5673E-02  0.5673E-02  0.2821E-02  0.2821E-02
    -19.230  0.4272E-02  0.4272E-02  0.3263E-02  0.3263E-02
    -19.127  0.5261E-02  0.5261E-02  0.3808E-02  0.3808E-02
    -19.023  0.5902E-02  0.5902E-02  0.4419E-02  0.4419E-02
    -18.920  0.3659E-02  0.3659E-02  0.4798E-02  0.4798E-02
    -18.816  0.5325E-02  0.5325E-02  0.5349E-02  0.5349E-02
    -18.712  0.6356E-02  0.6356E-02  0.6007E-02  0.6007E-02
    -18.609  0.4428E-02  0.4428E-02  0.6466E-02  0.6466E-02
    -18.505  0.3396E-02  0.3396E-02  0.6818E-02  0.6818E-02
    -18.402  0.6752E-02  0.6752E-02  0.7517E-02  0.7517E-02
    -18.298  0.5998E-02  0.5998E-02  0.8138E-02  0.8138E-02
    -18.195  0.4239E-02  0.4239E-02  0.8577E-02  0.8577E-02
    -18.091  0.3511E-02  0.3511E-02  0.8940E-02  0.8940E-02
    -17.988  0.7761E-02  0.7761E-02  0.9744E-02  0.9744E-02
    -17.884  0.1275E-01  0.1275E-01  0.1106E-01  0.1106E-01
    -17.781  0.1150E-01  0.1150E-01  0.1225E-01  0.1225E-01
    -17.677  0.1134E-01  0.1134E-01  0.1343E-01  0.1343E-01
    -17.573  0.1332E-01  0.1332E-01  0.1481E-01  0.1481E-01
    -17.470  0.1744E-01  0.1744E-01  0.1661E-01  0.1661E-01
    -17.366  0.2161E-01  0.2161E-01  0.1885E-01  0.1885E-01
    -17.263  0.1855E-01  0.1855E-01  0.2077E-01  0.2077E-01
    -17.159  0.7418E-02  0.7418E-02  0.2154E-01  0.2154E-01
    -17.056  0.4633E-02  0.4633E-02  0.2202E-01  0.2202E-01
    -16.952  0.7238E-02  0.7238E-02  0.2277E-01  0.2277E-01
    -16.849  0.6767E-02  0.6767E-02  0.2347E-01  0.2347E-01
    -16.745  0.5539E-02  0.5539E-02  0.2404E-01  0.2404E-01
    -16.642  0.4591E-02  0.4591E-02  0.2452E-01  0.2452E-01
    -16.538  0.2721E-02  0.2721E-02  0.2480E-01  0.2480E-01
    -16.435  0.4340E-02  0.4340E-02  0.2525E-01  0.2525E-01
    -16.331  0.9272E-02  0.9272E-02  0.2621E-01  0.2621E-01
    -16.227  0.6318E-02  0.6318E-02  0.2686E-01  0.2686E-01
    -16.124  0.4789E-02  0.4789E-02  0.2736E-01  0.2736E-01
    -16.020  0.4306E-02  0.4306E-02  0.2781E-01  0.2781E-01
    -15.917  0.4196E-02  0.4196E-02  0.2824E-01  0.2824E-01
    -15.813  0.3800E-02  0.3800E-02  0.2863E-01  0.2863E-01
    -15.710  0.9327E-02  0.9327E-02  0.2960E-01  0.2960E-01
    -15.606  0.1368E-01  0.1368E-01  0.3102E-01  0.3102E-01
    -15.503  0.1429E-01  0.1429E-01  0.3250E-01  0.3250E-01
    -15.399  0.1637E-01  0.1637E-01  0.3419E-01  0.3419E-01
    -15.296  0.1396E-01  0.1396E-01  0.3564E-01  0.3564E-01
    -15.192  0.1200E-01  0.1200E-01  0.3688E-01  0.3688E-01
    -15.089  0.1421E-01  0.1421E-01  0.3835E-01  0.3835E-01
    -14.985  0.1859E-01  0.1859E-01  0.4027E-01  0.4027E-01
    -14.881  0.1520E-01  0.1520E-01  0.4185E-01  0.4185E-01
    -14.778  0.1342E-01  0.1342E-01  0.4324E-01  0.4324E-01
    -14.674  0.9945E-02  0.9945E-02  0.4427E-01  0.4427E-01
    -14.571  0.1041E-01  0.1041E-01  0.4534E-01  0.4534E-01
    -14.467  0.1606E-01  0.1606E-01  0.4701E-01  0.4701E-01
    -14.364  0.2069E-01  0.2069E-01  0.4915E-01  0.4915E-01
    -14.260  0.1424E-01  0.1424E-01  0.5062E-01  0.5062E-01
    -14.157  0.9211E-02  0.9211E-02  0.5158E-01  0.5158E-01
    -14.053  0.7489E-02  0.7489E-02  0.5235E-01  0.5235E-01
    -13.950  0.8137E-02  0.8137E-02  0.5320E-01  0.5320E-01
    -13.846  0.7674E-02  0.7674E-02  0.5399E-01  0.5399E-01
    -13.742  0.5380E-02  0.5380E-02  0.5455E-01  0.5455E-01
    -13.639  0.3221E-02  0.3221E-02  0.5488E-01  0.5488E-01
    -13.535  0.4663E-02  0.4663E-02  0.5536E-01  0.5536E-01
    -13.432  0.4469E-02  0.4469E-02  0.5583E-01  0.5583E-01
    -13.328  0.6130E-02  0.6130E-02  0.5646E-01  0.5646E-01
    -13.225  0.5895E-02  0.5895E-02  0.5707E-01  0.5707E-01
    -13.121  0.6389E-02  0.6389E-02  0.5773E-01  0.5773E-01
    -13.018  0.8108E-02  0.8108E-02  0.5857E-01  0.5857E-01
    -12.914  0.7473E-02  0.7473E-02  0.5935E-01  0.5935E-01
    -12.811  0.8422E-02  0.8422E-02  0.6022E-01  0.6022E-01
    -12.707  0.5932E-02  0.5932E-02  0.6083E-01  0.6083E-01
    -12.604  0.6812E-02  0.6812E-02  0.6154E-01  0.6154E-01
    -12.500  0.5219E-02  0.5219E-02  0.6208E-01  0.6208E-01
    -12.396  0.4115E-02  0.4115E-02  0.6250E-01  0.6250E-01
    -12.293  0.8618E-02  0.8618E-02  0.6340E-01  0.6340E-01
    -12.189  0.6996E-02  0.6996E-02  0.6412E-01  0.6412E-01
    -12.086  0.6942E-02  0.6942E-02  0.6484E-01  0.6484E-01
    -11.982  0.1220E-01  0.1220E-01  0.6610E-01  0.6610E-01
    -11.879  0.1634E-01  0.1634E-01  0.6780E-01  0.6780E-01
    -11.775  0.1511E-01  0.1511E-01  0.6936E-01  0.6936E-01
    -11.672  0.1468E-01  0.1468E-01  0.7088E-01  0.7088E-01
    -11.568  0.1632E-01  0.1632E-01  0.7257E-01  0.7257E-01
    -11.465  0.1524E-01  0.1524E-01  0.7415E-01  0.7415E-01
    -11.361  0.8138E-02  0.8138E-02  0.7499E-01  0.7499E-01
    -11.258  0.9389E-02  0.9389E-02  0.7596E-01  0.7596E-01
    -11.154  0.1176E-01  0.1176E-01  0.7718E-01  0.7718E-01
    -11.050  0.1191E-01  0.1191E-01  0.7841E-01  0.7841E-01
    -10.947  0.6016E-02  0.6016E-02  0.7904E-01  0.7904E-01
    -10.843  0.5739E-02  0.5739E-02  0.7963E-01  0.7963E-01
    -10.740  0.1502E-01  0.1502E-01  0.8119E-01  0.8119E-01
    -10.636  0.1829E-01  0.1829E-01  0.8308E-01  0.8308E-01
    -10.533  0.8625E-02  0.8625E-02  0.8397E-01  0.8397E-01
    -10.429  0.6127E-02  0.6127E-02  0.8461E-01  0.8461E-01
    -10.326  0.1151E-01  0.1151E-01  0.8580E-01  0.8580E-01
    -10.222  0.1934E-01  0.1934E-01  0.8780E-01  0.8780E-01
    -10.119  0.1589E-01  0.1589E-01  0.8945E-01  0.8945E-01
    -10.015  0.8587E-02  0.8587E-02  0.9034E-01  0.9034E-01
     -9.911  0.8783E-02  0.8783E-02  0.9125E-01  0.9125E-01
     -9.808  0.9992E-02  0.9992E-02  0.9228E-01  0.9228E-01
     -9.704  0.1157E-01  0.1157E-01  0.9348E-01  0.9348E-01
     -9.601  0.8915E-02  0.8915E-02  0.9440E-01  0.9440E-01
     -9.497  0.1053E-01  0.1053E-01  0.9549E-01  0.9549E-01
     -9.394  0.9801E-02  0.9801E-02  0.9651E-01  0.9651E-01
     -9.290  0.9767E-02  0.9767E-02  0.9752E-01  0.9752E-01
     -9.187  0.9138E-02  0.9138E-02  0.9846E-01  0.9846E-01
     -9.083  0.3149E-02  0.3149E-02  0.9879E-01  0.9879E-01
     -8.980  0.5063E-02  0.5063E-02  0.9931E-01  0.9931E-01
     -8.876  0.1319E-01  0.1319E-01  0.1007E+00  0.1007E+00
     -8.773  0.1898E-01  0.1898E-01  0.1026E+00  0.1026E+00
     -8.669  0.1616E-01  0.1616E-01  0.1043E+00  0.1043E+00
     -8.565  0.8677E-02  0.8677E-02  0.1052E+00  0.1052E+00
     -8.462  0.8502E-02  0.8502E-02  0.1061E+00  0.1061E+00
     -8.358  0.1025E-01  0.1025E-01  0.1072E+00  0.1072E+00
     -8.255  0.1830E-01  0.1830E-01  0.1091E+00  0.1091E+00
     -8.151  0.2340E-01  0.2340E-01  0.1115E+00  0.1115E+00
     -8.048  0.2286E-01  0.2286E-01  0.1138E+00  0.1138E+00
     -7.944  0.1579E-01  0.1579E-01  0.1155E+00  0.1155E+00
     -7.841  0.1353E-01  0.1353E-01  0.1169E+00  0.1169E+00
     -7.737  0.1439E-01  0.1439E-01  0.1184E+00  0.1184E+00
     -7.634  0.2539E-01  0.2539E-01  0.1210E+00  0.1210E+00
     -7.530  0.2786E-01  0.2786E-01  0.1239E+00  0.1239E+00
     -7.427  0.2114E-01  0.2114E-01  0.1261E+00  0.1261E+00
     -7.323  0.2081E-01  0.2081E-01  0.1282E+00  0.1282E+00
     -7.219  0.2404E-01  0.2404E-01  0.1307E+00  0.1307E+00
     -7.116  0.2428E-01  0.2428E-01  0.1332E+00  0.1332E+00
     -7.012  0.2653E-01  0.2653E-01  0.1360E+00  0.1360E+00
     -6.909  0.2234E-01  0.2234E-01  0.1383E+00  0.1383E+00
     -6.805  0.2013E-01  0.2013E-01  0.1404E+00  0.1404E+00
     -6.702  0.2760E-01  0.2760E-01  0.1432E+00  0.1432E+00
     -6.598  0.2328E-01  0.2328E-01  0.1456E+00  0.1456E+00
     -6.495  0.2187E-01  0.2187E-01  0.1479E+00  0.1479E+00
     -6.391  0.2513E-01  0.2513E-01  0.1505E+00  0.1505E+00
     -6.288  0.2420E-01  0.2420E-01  0.1530E+00  0.1530E+00
     -6.184  0.2285E-01  0.2285E-01  0.1554E+00  0.1554E+00
     -6.080  0.1795E-01  0.1795E-01  0.1572E+00  0.1572E+00
     -5.977  0.1717E-01  0.1717E-01  0.1590E+00  0.1590E+00
     -5.873  0.2148E-01  0.2148E-01  0.1612E+00  0.1612E+00
     -5.770  0.2639E-01  0.2639E-01  0.1640E+00  0.1640E+00
     -5.666  0.2030E-01  0.2030E-01  0.1661E+00  0.1661E+00
     -5.563  0.1993E-01  0.1993E-01  0.1681E+00  0.1681E+00
     -5.459  0.2243E-01  0.2243E-01  0.1705E+00  0.1705E+00
     -5.356  0.2767E-01  0.2767E-01  0.1733E+00  0.1733E+00
     -5.252  0.2680E-01  0.2680E-01  0.1761E+00  0.1761E+00
     -5.149  0.1549E-01  0.1549E-01  0.1777E+00  0.1777E+00
     -5.045  0.1169E-01  0.1170E-01  0.1789E+00  0.1789E+00
     -4.942  0.1765E-01  0.1765E-01  0.1807E+00  0.1807E+00
     -4.838  0.1910E-01  0.1910E-01  0.1827E+00  0.1827E+00
     -4.734  0.1736E-01  0.1736E-01  0.1845E+00  0.1845E+00
     -4.631  0.1595E-01  0.1595E-01  0.1862E+00  0.1862E+00
     -4.527  0.1659E-01  0.1659E-01  0.1879E+00  0.1879E+00
     -4.424  0.1917E-01  0.1917E-01  0.1899E+00  0.1899E+00
     -4.320  0.2041E-01  0.2041E-01  0.1920E+00  0.1920E+00
     -4.217  0.2631E-01  0.2631E-01  0.1947E+00  0.1947E+00
     -4.113  0.4068E-01  0.4068E-01  0.1989E+00  0.1989E+00
     -4.010  0.3672E-01  0.3672E-01  0.2027E+00  0.2027E+00
     -3.906  0.2646E-01  0.2646E-01  0.2055E+00  0.2055E+00
     -3.803  0.1778E-01  0.1778E-01  0.2073E+00  0.2073E+00
     -3.699  0.1355E-01  0.1355E-01  0.2087E+00  0.2087E+00
     -3.595  0.1467E-01  0.1467E-01  0.2102E+00  0.2102E+00
     -3.492  0.1762E-01  0.1762E-01  0.2121E+00  0.2121E+00
     -3.388  0.2222E-01  0.2222E-01  0.2144E+00  0.2144E+00
     -3.285  0.1604E-01  0.1604E-01  0.2160E+00  0.2160E+00
     -3.181  0.1435E-01  0.1435E-01  0.2175E+00  0.2175E+00
     -3.078  0.1623E-01  0.1623E-01  0.2192E+00  0.2192E+00
     -2.974  0.1993E-01  0.1993E-01  0.2212E+00  0.2212E+00
     -2.871  0.2589E-01  0.2589E-01  0.2239E+00  0.2239E+00
     -2.767  0.1611E-01  0.1611E-01  0.2256E+00  0.2256E+00
     -2.664  0.1360E-01  0.1360E-01  0.2270E+00  0.2270E+00
     -2.560  0.2120E-01  0.2120E-01  0.2292E+00  0.2292E+00
     -2.457  0.2140E-01  0.2140E-01  0.2314E+00  0.2314E+00
     -2.353  0.1884E-01  0.1884E-01  0.2334E+00  0.2334E+00
     -2.249  0.2190E-01  0.2190E-01  0.2356E+00  0.2356E+00
     -2.146  0.1767E-01  0.1767E-01  0.2375E+00  0.2375E+00
     -2.042  0.5743E-02  0.5743E-02  0.2381E+00  0.2381E+00
     -1.939  0.3746E-02  0.3746E-02  0.2384E+00  0.2384E+00
     -1.835  0.8108E-02  0.8108E-02  0.2393E+00  0.2393E+00
     -1.732  0.5817E-02  0.5817E-02  0.2399E+00  0.2399E+00
     -1.628  0.4480E-02  0.4480E-02  0.2403E+00  0.2403E+00
     -1.525  0.7503E-02  0.7503E-02  0.2411E+00  0.2411E+00
     -1.421  0.5701E-02  0.5701E-02  0.2417E+00  0.2417E+00
     -1.318  0.2760E-02  0.2760E-02  0.2420E+00  0.2420E+00
     -1.214  0.7118E-03  0.7118E-03  0.2421E+00  0.2421E+00
     -1.111  0.7491E-04  0.7491E-04  0.2421E+00  0.2421E+00
     -1.007  0.4646E-03  0.4646E-03  0.2421E+00  0.2421E+00
     -0.903  0.2539E-02  0.2539E-02  0.2424E+00  0.2424E+00
     -0.800  0.3922E-02  0.3922E-02  0.2428E+00  0.2428E+00
     -0.696  0.4821E-02  0.4821E-02  0.2433E+00  0.2433E+00
     -0.593  0.1003E-01  0.1003E-01  0.2443E+00  0.2443E+00
     -0.489  0.1049E-01  0.1049E-01  0.2454E+00  0.2454E+00
     -0.386  0.9812E-02  0.9812E-02  0.2464E+00  0.2464E+00
     -0.282  0.1261E-01  0.1261E-01  0.2477E+00  0.2477E+00
     -0.179  0.1151E-01  0.1151E-01  0.2489E+00  0.2489E+00
     -0.075  0.6690E-02  0.6690E-02  0.2496E+00  0.2496E+00
      0.028  0.2651E-02  0.2651E-02  0.2499E+00  0.2499E+00
      0.132  0.8396E-03  0.8396E-03  0.2500E+00  0.2500E+00
      0.236  0.1059E-02  0.1059E-02  0.2501E+00  0.2501E+00
      0.339  0.5565E-02  0.5565E-02  0.2507E+00  0.2507E+00
      0.443  0.1013E-01  0.1013E-01  0.2517E+00  0.2517E+00
      0.546  0.7937E-02  0.7937E-02  0.2525E+00  0.2525E+00
      0.650  0.3527E-02  0.3527E-02  0.2529E+00  0.2529E+00
      0.753  0.5808E-02  0.5808E-02  0.2535E+00  0.2535E+00
      0.857  0.1212E-01  0.1212E-01  0.2548E+00  0.2548E+00
      0.960  0.1332E-01  0.1332E-01  0.2561E+00  0.2561E+00
      1.064  0.1158E-01  0.1158E-01  0.2573E+00  0.2573E+00
      1.167  0.5507E-02  0.5507E-02  0.2579E+00  0.2579E+00
      1.271  0.4623E-02  0.4623E-02  0.2584E+00  0.2584E+00
      1.374  0.5491E-02  0.5491E-02  0.2590E+00  0.2590E+00
      1.478  0.5141E-02  0.5141E-02  0.2595E+00  0.2595E+00
      1.582  0.6442E-02  0.6442E-02  0.2602E+00  0.2602E+00
      1.685  0.1045E-01  0.1045E-01  0.2612E+00  0.2612E+00
      1.789  0.9874E-02  0.9874E-02  0.2623E+00  0.2623E+00
      1.892  0.4033E-02  0.4033E-02  0.2627E+00  0.2627E+00
      1.996  0.2444E-02  0.2444E-02  0.2629E+00  0.2629E+00
      2.099  0.7588E-02  0.7587E-02  0.2637E+00  0.2637E+00
      2.203  0.1615E-01  0.1615E-01  0.2654E+00  0.2654E+00
      2.306  0.1457E-01  0.1457E-01  0.2669E+00  0.2669E+00
      2.410  0.1136E-01  0.1136E-01  0.2681E+00  0.2681E+00
      2.513  0.1160E-01  0.1160E-01  0.2693E+00  0.2693E+00
      2.617  0.1196E-01  0.1196E-01  0.2705E+00  0.2705E+00
      2.720  0.1125E-01  0.1125E-01  0.2717E+00  0.2717E+00
      2.824  0.7659E-02  0.7658E-02  0.2725E+00  0.2725E+00
      2.928  0.7254E-02  0.7252E-02  0.2732E+00  0.2732E+00
      3.031  0.1268E-01  0.1268E-01  0.2745E+00  0.2745E+00
      3.135  0.1331E-01  0.1331E-01  0.2759E+00  0.2759E+00
      3.238  0.1356E-01  0.1356E-01  0.2773E+00  0.2773E+00
      3.342  0.1241E-01  0.1241E-01  0.2786E+00  0.2786E+00
      3.445  0.7859E-02  0.7859E-02  0.2794E+00  0.2794E+00
      3.549  0.1029E-01  0.1028E-01  0.2805E+00  0.2805E+00
      3.652  0.1285E-01  0.1286E-01  0.2818E+00  0.2818E+00
      3.756  0.1017E-01  0.1017E-01  0.2829E+00  0.2829E+00
      3.859  0.1113E-01  0.1113E-01  0.2840E+00  0.2840E+00
      3.963  0.1781E-01  0.1781E-01  0.2859E+00  0.2859E+00
      4.067  0.1695E-01  0.1696E-01  0.2876E+00  0.2876E+00
      4.170  0.1215E-01  0.1216E-01  0.2889E+00  0.2889E+00
      4.274  0.1573E-01  0.1572E-01  0.2905E+00  0.2905E+00
      4.377  0.1749E-01  0.1749E-01  0.2923E+00  0.2923E+00
      4.481  0.1334E-01  0.1334E-01  0.2937E+00  0.2937E+00
      4.584  0.1365E-01  0.1366E-01  0.2951E+00  0.2951E+00
      4.688  0.1274E-01  0.1273E-01  0.2964E+00  0.2964E+00
      4.791  0.1594E-01  0.1592E-01  0.2981E+00  0.2981E+00
      4.895  0.1793E-01  0.1792E-01  0.2999E+00  0.2999E+00
      4.998  0.2009E-01  0.2010E-01  0.3020E+00  0.3020E+00
      5.102  0.1774E-01  0.1774E-01  0.3039E+00  0.3039E+00
      5.205  0.1630E-01  0.1631E-01  0.3055E+00  0.3055E+00
      5.309  0.1432E-01  0.1432E-01  0.3070E+00  0.3070E+00
      5.413  0.1823E-01  0.1821E-01  0.3089E+00  0.3089E+00
      5.516  0.1990E-01  0.1991E-01  0.3110E+00  0.3110E+00
      5.620  0.1524E-01  0.1525E-01  0.3126E+00  0.3126E+00
      5.723  0.1422E-01  0.1420E-01  0.3140E+00  0.3140E+00
      5.827  0.1813E-01  0.1813E-01  0.3159E+00  0.3159E+00
      5.930  0.2311E-01  0.2314E-01  0.3183E+00  0.3183E+00
      6.034  0.2461E-01  0.2461E-01  0.3208E+00  0.3208E+00
      6.137  0.2827E-01  0.2825E-01  0.3238E+00  0.3238E+00
      6.241  0.2678E-01  0.2678E-01  0.3265E+00  0.3265E+00
      6.344  0.2510E-01  0.2511E-01  0.3291E+00  0.3291E+00
      6.448  0.2125E-01  0.2127E-01  0.3313E+00  0.3313E+00
      6.551  0.1679E-01  0.1679E-01  0.3331E+00  0.3331E+00
      6.655  0.2573E-01  0.2570E-01  0.3357E+00  0.3357E+00
      6.759  0.3398E-01  0.3399E-01  0.3393E+00  0.3393E+00
      6.862  0.2923E-01  0.2926E-01  0.3423E+00  0.3423E+00
      6.966  0.2916E-01  0.2915E-01  0.3453E+00  0.3453E+00
      7.069  0.3382E-01  0.3382E-01  0.3488E+00  0.3488E+00
      7.173  0.3150E-01  0.3150E-01  0.3521E+00  0.3521E+00
      7.276  0.2738E-01  0.2736E-01  0.3549E+00  0.3549E+00
      7.380  0.3790E-01  0.3790E-01  0.3588E+00  0.3588E+00
      7.483  0.3538E-01  0.3538E-01  0.3625E+00  0.3625E+00
      7.587  0.2505E-01  0.2506E-01  0.3651E+00  0.3651E+00
      7.690  0.2595E-01  0.2593E-01  0.3678E+00  0.3678E+00
      7.794  0.2658E-01  0.2659E-01  0.3705E+00  0.3705E+00
      7.898  0.1904E-01  0.1905E-01  0.3725E+00  0.3725E+00
      8.001  0.1242E-01  0.1243E-01  0.3738E+00  0.3738E+00
      8.105  0.6185E-02  0.6197E-02  0.3744E+00  0.3744E+00
      8.208  0.1960E-02  0.1969E-02  0.3746E+00  0.3746E+00
      8.312  0.1316E-02  0.1316E-02  0.3748E+00  0.3748E+00
      8.415  0.1687E-02  0.1688E-02  0.3749E+00  0.3749E+00
      8.519  0.5246E-03  0.5258E-03  0.3750E+00  0.3750E+00
      8.622  0.2567E-04  0.2578E-04  0.3750E+00  0.3750E+00
      8.726  0.1757E-06  0.1769E-06  0.3750E+00  0.3750E+00
      8.829  0.1565E-09  0.1578E-09  0.3750E+00  0.3750E+00
      8.933  0.1741E-13  0.1760E-13  0.3750E+00  0.3750E+00
      9.036  0.0000E+00  0.0000E+00  0.3750E+00  0.3750E+00
      9.140  0.0000E+00  0.0000E+00  0.3750E+00  0.3750E+00
      9.244  0.0000E+00  0.0000E+00  0.3750E+00  0.3750E+00
      9.347  0.0000E+00  0.0000E+00  0.3750E+00  0.3750E+00
      9.451  0.0000E+00  0.0000E+00  0.3750E+00  0.3750E+00
      9.554  0.0000E+00  0.0000E+00  0.3750E+00  0.3750E+00
      9.658  0.0000E+00  0.0000E+00  0.3750E+00  0.3750E+00
      9.761  0.0000E+00  0.0000E+00  0.3750E+00  0.3750E+00
