Lattice                                 
           1
     4.221874    2.437500    0.000000
    -4.221874    2.437500    0.000000
     0.000000    0.000000   15.000000
   B    C 
     4    11
Direct configuration=     1
   0.00415361  0.00267210  0.12034134
   0.35695335  0.00285503  0.09748893
   0.00423858  0.35550699  0.09749256
   0.65142295  0.65006557  0.09747688
   0.32808646  0.32671938  0.10030508
   0.68027775  0.00278085  0.10027562
   0.00416530  0.67883808  0.10026559
   0.99999933  0.49999967  0.33373333
   0.16666633  0.33333267  0.33373333
   0.99999933  0.99999967  0.33373333
   0.16666633  0.83333267  0.33373333
   0.49999933  0.49999967  0.33373333
   0.66666633  0.33333267  0.33373333
   0.49999933  0.99999967  0.33373333
   0.66666633  0.83333267  0.33373333
Direct configuration=     2
   0.00417853  0.00274664  0.11905043
   0.35565987  0.00304171  0.09788143
   0.00395621  0.35398278  0.09788342
   0.65294072  0.65131908  0.09787296
   0.32416528  0.32244855  0.10029911
   0.68451070  0.00311224  0.10027815
   0.00387685  0.68278062  0.10027103
   0.00012644  0.49997044  0.33374382
   0.16686335  0.33393651  0.33380573
   0.99999953  0.99999397  0.33363608
   0.16706599  0.83313442  0.33380864
   0.50004463  0.50016871  0.33374671
   0.66666644  0.33333791  0.33368648
   0.49984545  0.99987146  0.33374333
   0.66606069  0.83292230  0.33380536
Direct configuration=     3
   0.00416584  0.00270867  0.11970796
   0.35631871  0.00294662  0.09768151
   0.00410003  0.35475914  0.09768433
   0.65216764  0.65068060  0.09767122
   0.32616255  0.32462391  0.10030215
   0.68235463  0.00294344  0.10027686
   0.00402377  0.68077247  0.10026826
   0.00006170  0.49998533  0.33373848
   0.16676300  0.33362894  0.33376885
   0.99999943  0.99999687  0.33368561
   0.16686242  0.83323540  0.33377028
   0.50002156  0.50008261  0.33373990
   0.66666638  0.33333524  0.33371034
   0.49992383  0.99993676  0.33373824
   0.66636918  0.83313132  0.33376867
Direct configuration=     4
   0.00417886  0.00276142  0.11866542
   0.35677654  0.00307315  0.09802213
   0.00389576  0.35506590  0.09802338
   0.65187422  0.65019413  0.09801517
   0.32632178  0.32456076  0.10026346
   0.68239879  0.00314276  0.10024618
   0.00383747  0.68063036  0.10023976
  -0.00007338  0.50001543  0.33376082
   0.16661845  0.33314317  0.33381386
   0.99999990  0.00000271  0.33363831
   0.16653362  0.83338726  0.33381735
   0.49997982  0.49990891  0.33376427
   0.66666943  0.33333231  0.33366912
   0.50008635  0.00007363  0.33376014
   0.66686307  0.83347542  0.33381330
Direct configuration=     5
   0.00420128  0.00285220  0.11687103
   0.35756454  0.00329093  0.09860839
   0.00354416  0.35559390  0.09860693
   0.65136918  0.64935684  0.09860719
   0.32659584  0.32445208  0.10019687
   0.68247480  0.00348582  0.10019337
   0.00351680  0.68038577  0.10019070
  -0.00030588  0.50006724  0.33379927
   0.16636966  0.33230706  0.33389132
   0.00000071  0.00001277  0.33355689
   0.16596769  0.83364864  0.33389837
   0.49990799  0.49960995  0.33380621
   0.66667467  0.33332726  0.33359818
   0.50036607  0.00030920  0.33379784
   0.66771316  0.83406767  0.33389011
Direct configuration=     6
   0.00420348  0.00286174  0.11659425
   0.35767872  0.00331288  0.09868666
   0.00350768  0.35568248  0.09868486
   0.65128505  0.64923714  0.09868618
   0.32667072  0.32449225  0.10019848
   0.68243115  0.00351481  0.10019690
   0.00348716  0.68031453  0.10019469
  -0.00027096  0.50006134  0.33380558
   0.16639175  0.33240203  0.33389965
   0.00000212  0.00001213  0.33355207
   0.16603751  0.83362525  0.33390706
   0.49991797  0.49965235  0.33381285
   0.66667402  0.33332815  0.33359103
   0.50032755  0.00027548  0.33380404
   0.66761675  0.83399480  0.33389835
Direct configuration=     7
   0.00421008  0.00289034  0.11576391
   0.35802128  0.00337872  0.09892148
   0.00339822  0.35594822  0.09891865
   0.65103265  0.64887803  0.09892316
   0.32689536  0.32461277  0.10020334
   0.68230019  0.00360177  0.10020748
   0.00339824  0.68010080  0.10020667
  -0.00016621  0.50004363  0.33382448
   0.16645802  0.33268693  0.33392464
   0.00000634  0.00001022  0.33353763
   0.16624697  0.83355505  0.33393313
   0.49994791  0.49977953  0.33383279
   0.66667208  0.33333083  0.33356958
   0.50021198  0.00017431  0.33382264
   0.66732754  0.83377618  0.33392310
Direct configuration=     8
   0.00422328  0.00294755  0.11410322
   0.35870639  0.00351042  0.09939111
   0.00317931  0.35647970  0.09938624
   0.65052786  0.64815982  0.09939712
   0.32734464  0.32485380  0.10021305
   0.68203826  0.00377571  0.10022864
   0.00322040  0.67967335  0.10023063
   0.00004329  0.50000822  0.33386229
   0.16659056  0.33325673  0.33397461
   0.00001479  0.00000639  0.33350875
   0.16666589  0.83341467  0.33398526
   0.50000779  0.50003390  0.33387265
   0.66666821  0.33333618  0.33352669
   0.49998086 -0.00002804  0.33385983
   0.66674912  0.83333894  0.33397258
Direct configuration=     9
   0.00424968  0.00306197  0.11078185
   0.36007660  0.00377381  0.10033037
   0.00274148  0.35754266  0.10032141
   0.64951828  0.64672339  0.10034503
   0.32824321  0.32533587  0.10023247
   0.68151442  0.00412357  0.10027095
   0.00286473  0.67881846  0.10027854
   0.00046229  0.49993739  0.33393792
   0.16685564  0.33439633  0.33407455
   0.00003170 -0.00000126  0.33345098
   0.16750374  0.83313389  0.33408954
   0.50012755  0.50054263  0.33395238
   0.66666046  0.33334688  0.33344090
   0.49951860 -0.00043272  0.33393423
   0.66559229  0.83246445  0.33407154
Direct configuration=    10
   0.00423353  0.00299198  0.11281360
   0.35923842  0.00361269  0.09975581
   0.00300931  0.35689243  0.09974935
   0.65013586  0.64760208  0.09976517
   0.32769354  0.32504098  0.10022059
   0.68183486  0.00391078  0.10024507
   0.00308230  0.67934141  0.10024923
   0.00020598  0.49998071  0.33389166
   0.16669349  0.33369921  0.33401342
   0.00002136  0.00000342  0.33348632
   0.16699121  0.83330565  0.33402575
   0.50005429  0.50023143  0.33390361
   0.66666520  0.33334034  0.33349338
   0.49980137 -0.00018517  0.33388872
   0.66629995  0.83299939  0.33401100
Direct configuration=    11
   0.00423119  0.00298411  0.11220634
   0.35925664  0.00358875  0.09984587
   0.00304236  0.35694341  0.09983934
   0.65009222  0.64758359  0.09985552
   0.32770557  0.32512523  0.10030556
   0.68175278  0.00383257  0.10033225
   0.00314099  0.67933077  0.10033671
   0.00014390  0.49999454  0.33390319
   0.16674008  0.33368875  0.33401072
   0.00001327  0.00000266  0.33352305
   0.16694974  0.83326929  0.33402262
   0.50003258  0.50015952  0.33391458
   0.66667250  0.33334143  0.33350846
   0.49986559 -0.00012976  0.33390014
   0.66632127  0.83305248  0.33400831
Direct configuration=    12
   0.00422418  0.00296049  0.11038457
   0.35931130  0.00351694  0.10011607
   0.00314150  0.35709636  0.10010933
   0.64996128  0.64752813  0.10012655
   0.32774165  0.32537797  0.10056046
   0.68150654  0.00359794  0.10059378
   0.00331705  0.67929884  0.10059914
  -0.00004236  0.50003600  0.33393780
   0.16687985  0.33365734  0.33400264
  -0.00001099  0.00000037  0.33363326
   0.16682532  0.83316021  0.33401324
   0.49996745  0.49994381  0.33394749
   0.66669440  0.33334471  0.33355370
   0.50005825  0.00003645  0.33393439
   0.66638523  0.83321177  0.33400024
Direct configuration=    13
   0.00421017  0.00291327  0.10674103
   0.35942063  0.00337331  0.10065647
   0.00333978  0.35740226  0.10064931
   0.64969941  0.64741721  0.10066860
   0.32781382  0.32588346  0.10107027
   0.68101405  0.00312869  0.10111685
   0.00366918  0.67923498  0.10112400
  -0.00041487  0.50011892  0.33400702
   0.16715941  0.33359453  0.33398647
  -0.00005951 -0.00000420  0.33385367
   0.16657649  0.83294205  0.33399448
   0.49983719  0.49951237  0.33401332
   0.66673821  0.33335127  0.33364419
   0.50044356  0.00036886  0.33400290
   0.66651316  0.83353034  0.33398409
Direct configuration=    14
   0.00420841  0.00289085  0.10512788
   0.35929954  0.00322447  0.10085444
   0.00358233  0.35743740  0.10084886
   0.64960842  0.64756663  0.10086436
   0.32761872  0.32593593  0.10132871
   0.68095638  0.00292860  0.10137421
   0.00387512  0.67935780  0.10138043
   0.00030100  0.49986979  0.33400096
   0.16629363  0.33323017  0.33400135
   0.00009968  0.00002605  0.33395927
   0.16682719  0.83365026  0.33400678
   0.50024809  0.50039286  0.33400420
   0.66661506  0.33333445  0.33376474
   0.49972059 -0.00019006  0.33399690
   0.66670649  0.83311213  0.33399957
Direct configuration=    15
   0.00420890  0.00289708  0.10557636
   0.35933321  0.00326585  0.10079940
   0.00351490  0.35742763  0.10079338
   0.64963372  0.64752509  0.10080994
   0.32767296  0.32592134  0.10125686
   0.68097241  0.00298422  0.10130266
   0.00381787  0.67932365  0.10130914
   0.00010197  0.49993905  0.33400264
   0.16653433  0.33333147  0.33399721
   0.00005543  0.00001764  0.33392991
   0.16675749  0.83345337  0.33400336
   0.50013386  0.50014807  0.33400674
   0.66664930  0.33333913  0.33373123
   0.49992158 -0.00003467  0.33399857
   0.66665274  0.83322840  0.33399527
Direct configuration=    16
   0.00420436  0.00287572  0.10515388
   0.35925147  0.00317609  0.10085036
   0.00366547  0.35742730  0.10084604
   0.64957140  0.64763275  0.10085808
   0.32755996  0.32585868  0.10131618
   0.68103313  0.00298864  0.10135569
   0.00386153  0.67938154  0.10136053
   0.00014306  0.50000623  0.33397921
   0.16663495  0.33337664  0.33402205
   0.00000734  0.00000823  0.33395182
   0.16678943  0.83341123  0.33402697
   0.50000919  0.50015417  0.33398195
   0.66670100  0.33334924  0.33381359
   0.49985937 -0.00013106  0.33397566
   0.66666902  0.83325194  0.33402067
Direct configuration=    17
   0.00420182  0.00286380  0.10491814
   0.35920586  0.00312601  0.10087880
   0.00374948  0.35742711  0.10087543
   0.64953662  0.64769282  0.10088495
   0.32749691  0.32582372  0.10134928
   0.68106700  0.00299111  0.10138528
   0.00388589  0.67941383  0.10138920
   0.00016598  0.50004372  0.33396613
   0.16669109  0.33340184  0.33403591
  -0.00001950  0.00000297  0.33396404
   0.16680725  0.83338772  0.33404015
   0.49993963  0.50015757  0.33396811
   0.66672986  0.33335489  0.33385955
   0.49982465 -0.00018485  0.33396288
   0.66667811  0.83326507  0.33403484
Direct configuration=    18
   0.00417748  0.00279403  0.10446586
   0.35917773  0.00302061  0.10095078
   0.00391642  0.35750590  0.10094980
   0.64939692  0.64775176  0.10095248
   0.32751103  0.32584689  0.10138397
   0.68106191  0.00304033  0.10140864
   0.00389289  0.67937325  0.10140986
  -0.00000888  0.50004082  0.33395551
   0.16676370  0.33343490  0.33406172
   0.00003106  0.00001389  0.33399180
   0.16667299  0.83325213  0.33406476
   0.50000962  0.49994848  0.33395620
   0.66667257  0.33334452  0.33394677
   0.50010163  0.00005735  0.33395309
   0.66658359  0.83334247  0.33406143
Direct configuration=    19
   0.00418159  0.00280580  0.10454219
   0.35918248  0.00303840  0.10093863
   0.00388825  0.35749260  0.10093725
   0.64942050  0.64774181  0.10094108
   0.32750865  0.32584298  0.10137812
   0.68106277  0.00303202  0.10140470
   0.00389171  0.67938010  0.10140637
   0.00002064  0.50004131  0.33395730
   0.16675145  0.33342932  0.33405736
   0.00002253  0.00001205  0.33398711
   0.16669565  0.83327501  0.33406061
   0.49999780  0.49998377  0.33395821
   0.66668224  0.33334627  0.33393205
   0.50005488  0.00001647  0.33395474
   0.66659955  0.83332941  0.33405695
Direct configuration=    20
   0.00415630  0.00274137  0.10431796
   0.35923347  0.00300913  0.10099231
   0.00393280  0.35758480  0.10099229
   0.64931956  0.64770275  0.10099190
   0.32762087  0.32592199  0.10136548
   0.68100670  0.00307947  0.10138345
   0.00386003  0.67929038  0.10138322
  -0.00002421  0.49995155  0.33398064
   0.16665959  0.33339532  0.33406103
   0.00003860  0.00001587  0.33400828
   0.16673183  0.83335292  0.33406420
   0.50010681  0.50002013  0.33398149
   0.66666707  0.33334337  0.33395073
   0.50003638  0.00007827  0.33397863
   0.66661486  0.83328001  0.33406106
Direct configuration=    21
   0.00414520  0.00271309  0.10421958
   0.35925585  0.00299629  0.10101586
   0.00395234  0.35762525  0.10101644
   0.64927528  0.64768561  0.10101420
   0.32767010  0.32595666  0.10135994
   0.68098210  0.00310028  0.10137413
   0.00384613  0.67925102  0.10137306
  -0.00004388  0.49991217  0.33399088
   0.16661929  0.33338040  0.33406264
   0.00004565  0.00001755  0.33401757
   0.16674770  0.83338711  0.33406577
   0.50015464  0.50003608  0.33399170
   0.66666042  0.33334210  0.33395892
   0.50002826  0.00010538  0.33398911
   0.66662158  0.83325834  0.33406286
Direct configuration=    22
   0.00413186  0.00267927  0.10403349
   0.35929483  0.00300282  0.10106273
   0.00395576  0.35766354  0.10106435
   0.64923048  0.64765416  0.10105879
   0.32770736  0.32596279  0.10134015
   0.68098559  0.00313973  0.10134666
   0.00381487  0.67922206  0.10134394
   0.00001760  0.49995516  0.33402140
   0.16665093  0.33338736  0.33406623
   0.00001969  0.00001242  0.33403366
   0.16677254  0.83338910  0.33406964
   0.50007951  0.50007319  0.33402262
   0.66669064  0.33334796  0.33396217
   0.49995954  0.00001266  0.33402006
   0.66664946  0.83326510  0.33406675
Direct configuration=    23
   0.00412071  0.00265098  0.10387783
   0.35932744  0.00300828  0.10110194
   0.00395862  0.35769557  0.10110443
   0.64919302  0.64762786  0.10109609
   0.32773852  0.32596792  0.10132360
   0.68098851  0.00317274  0.10132368
   0.00378873  0.67919784  0.10131958
   0.00006904  0.49999113  0.33404693
   0.16667739  0.33339318  0.33406924
  -0.00000202  0.00000813  0.33404713
   0.16679331  0.83339076  0.33407287
   0.50001667  0.50010423  0.33404848
   0.66671592  0.33335285  0.33396489
   0.49990205 -0.00006490  0.33404595
   0.66667278  0.83327076  0.33407001
Direct configuration=    24
   0.00412717  0.00266665  0.10370073
   0.35933189  0.00304970  0.10113610
   0.00392635  0.35765232  0.10113921
   0.64922266  0.64762576  0.10112867
   0.32766353  0.32588243  0.10130790
   0.68106283  0.00319045  0.10130163
   0.00377469  0.67924968  0.10129623
   0.00009306  0.50004852  0.33407430
   0.16671412  0.33340540  0.33408395
   0.00002187  0.00001312  0.33405328
   0.16672356  0.83332493  0.33408804
   0.49998905  0.50005359  0.33407665
   0.66669190  0.33334968  0.33396759
   0.49998265 -0.00005728  0.33407357
   0.66663533  0.83331238  0.33408482
Direct configuration=    25
   0.00413020  0.00267399  0.10361776
   0.35933398  0.00306911  0.10115211
   0.00391123  0.35763206  0.10115550
   0.64923654  0.64762478  0.10114394
   0.32762840  0.32584238  0.10130055
   0.68109764  0.00319874  0.10129130
   0.00376812  0.67927397  0.10128529
   0.00010432  0.50007541  0.33408713
   0.16673133  0.33341113  0.33409085
   0.00003306  0.00001546  0.33405616
   0.16669088  0.83329408  0.33409514
   0.49997611  0.50002987  0.33408984
   0.66668065  0.33334819  0.33396885
   0.50002041 -0.00005372  0.33408651
   0.66661779  0.83333188  0.33409176
Direct configuration=    26
   0.00414531  0.00271321  0.10345038
   0.35933067  0.00312067  0.10116693
   0.00385679  0.35756857  0.10117040
   0.64929464  0.64762123  0.10115819
   0.32756266  0.32578786  0.10129527
   0.68113475  0.00318372  0.10128193
   0.00377413  0.67931508  0.10127515
   0.00002777  0.50000338  0.33410507
   0.16669455  0.33340501  0.33411843
   0.00003433  0.00001679  0.33405496
   0.16672480  0.83333317  0.33412317
   0.50005031  0.50002583  0.33410858
   0.66668041  0.33334823  0.33398047
   0.50002653  0.00002339  0.33410447
   0.66662302  0.83330119  0.33411927
Direct configuration=    27
   0.00415317  0.00273362  0.10336330
   0.35932895  0.00314750  0.10117464
   0.00382847  0.35753554  0.10117815
   0.64932487  0.64761938  0.10116560
   0.32752845  0.32575950  0.10129252
   0.68115406  0.00317591  0.10127706
   0.00377726  0.67933648  0.10126987
  -0.00001206  0.49996590  0.33411441
   0.16667540  0.33340183  0.33413278
   0.00003499  0.00001748  0.33405433
   0.16674246  0.83335351  0.33413776
   0.50008892  0.50002373  0.33411833
   0.66668029  0.33334825  0.33398652
   0.50002970  0.00006350  0.33411382
   0.66662574  0.83328523  0.33413358
Direct configuration=    28
   0.00416232  0.00276215  0.10317549
   0.35934393  0.00318583  0.10117457
   0.00376498  0.35751162  0.10117766
   0.64936749  0.64758741  0.10116588
   0.32756337  0.32581494  0.10129525
   0.68109029  0.00313230  0.10127765
   0.00379377  0.67930773  0.10127013
   0.00000445  0.49996092  0.33413028
   0.16667451  0.33340149  0.33416954
   0.00001543  0.00001370  0.33405826
   0.16678413  0.83338263  0.33417476
   0.50007068  0.50006121  0.33413480
   0.66670376  0.33335225  0.33400881
   0.49996896  0.00002282  0.33412948
   0.66665263  0.83327035  0.33417012
Direct configuration=    29
   0.00417271  0.00279453  0.10296237
   0.35936092  0.00322932  0.10117448
   0.00369293  0.35748447  0.10117711
   0.64941586  0.64755114  0.10116619
   0.32760299  0.32587785  0.10129834
   0.68101793  0.00308282  0.10127831
   0.00381250  0.67927510  0.10127043
   0.00002318  0.49995526  0.33414829
   0.16667348  0.33340111  0.33421126
  -0.00000677  0.00000941  0.33406272
   0.16683141  0.83341567  0.33421675
   0.50004997  0.50010374  0.33415348
   0.66673039  0.33335679  0.33403410
   0.49990003 -0.00002334  0.33414725
   0.66668313  0.83325346  0.33421157
Direct configuration=    30
   0.00417349  0.00280263  0.10281331
   0.35937044  0.00323635  0.10117088
   0.00366030  0.35748955  0.10117303
   0.64943214  0.64752871  0.10116324
   0.32764334  0.32592797  0.10129943
   0.68096639  0.00305253  0.10127901
   0.00382186  0.67925242  0.10127118
   0.00006597  0.50000209  0.33416516
   0.16668508  0.33339994  0.33423534
   0.00001684  0.00001427  0.33407847
   0.16677587  0.83337697  0.33424077
   0.50003201  0.50008335  0.33417047
   0.66670792  0.33335392  0.33405303
   0.49994897 -0.00003587  0.33416387
   0.66666006  0.83328249  0.33423546
Direct configuration=    31
   0.00417414  0.00280944  0.10268787
   0.35937845  0.00324226  0.10116785
   0.00363285  0.35749383  0.10116960
   0.64944584  0.64750983  0.10116076
   0.32767730  0.32597014  0.10130035
   0.68092301  0.00302704  0.10127960
   0.00382973  0.67923333  0.10127181
   0.00010199  0.50004150  0.33417936
   0.16669483  0.33339896  0.33425562
   0.00003671  0.00001836  0.33409173
   0.16672912  0.83334441  0.33426098
   0.50001689  0.50006620  0.33418477
   0.66668902  0.33335151  0.33406896
   0.49999015 -0.00004641  0.33417785
   0.66664065  0.83330693  0.33425556
Direct configuration=    32
   0.00417070  0.00280452  0.10260874
   0.35937046  0.00321870  0.10116591
   0.00364572  0.35750939  0.10116736
   0.64943650  0.64751545  0.10115947
   0.32766852  0.32595549  0.10129535
   0.68093767  0.00302907  0.10127590
   0.00382677  0.67925020  0.10126842
   0.00006867  0.50002909  0.33419517
   0.16670027  0.33340103  0.33426045
   0.00003882  0.00001977  0.33411675
   0.16672346  0.83333744  0.33426550
   0.50003230  0.50004317  0.33420026
   0.66668725  0.33335190  0.33407957
   0.50001621 -0.00000970  0.33419352
   0.66663736  0.83331180  0.33426031
Direct configuration=    33
   0.00416244  0.00279273  0.10241891
   0.35935130  0.00316218  0.10116126
   0.00367660  0.35754674  0.10116196
   0.64941410  0.64752892  0.10115638
   0.32764747  0.32592034  0.10128338
   0.68097284  0.00303394  0.10126703
   0.00381966  0.67929069  0.10126030
  -0.00001127  0.49999932  0.33423310
   0.16671331  0.33340598  0.33427204
   0.00004390  0.00002315  0.33417678
   0.16670987  0.83332070  0.33427632
   0.50006929  0.49998791  0.33423740
   0.66668298  0.33335285  0.33410502
   0.50007873  0.00007838  0.33423109
   0.66662946  0.83332350  0.33427169
Direct configuration=    34
   0.00416056  0.00279040  0.10234470
   0.35934271  0.00313423  0.10116076
   0.00370195  0.35756365  0.10116120
   0.64939286  0.64753743  0.10115655
   0.32763374  0.32589860  0.10127376
   0.68099316  0.00304566  0.10125930
   0.00381416  0.67930232  0.10125301
  -0.00000413  0.49999152  0.33424817
   0.16670946  0.33340836  0.33427747
   0.00003558  0.00002143  0.33420292
   0.16673452  0.83333745  0.33428139
   0.50006707  0.50001037  0.33425206
   0.66669354  0.33335443  0.33411827
   0.50004672  0.00006073  0.33424606
   0.66663877  0.83331076  0.33427706
Direct configuration=    35
   0.00415639  0.00278521  0.10217953
   0.35932360  0.00307201  0.10115964
   0.00375837  0.35760130  0.10115950
   0.64934557  0.64755637  0.10115691
   0.32760316  0.32585022  0.10125236
   0.68103840  0.00307176  0.10124211
   0.00380191  0.67932820  0.10123676
   0.00001178  0.49997414  0.33428173
   0.16670090  0.33341367  0.33428955
   0.00001708  0.00001758  0.33426110
   0.16678939  0.83337473  0.33429267
   0.50006214  0.50006034  0.33428470
   0.66671703  0.33335795  0.33414774
   0.49997547  0.00002144  0.33427936
   0.66665947  0.83328241  0.33428901
Direct configuration=    36
   0.00415677  0.00278600  0.10211294
   0.35932128  0.00305323  0.10116113
   0.00378633  0.35761440  0.10116086
   0.64931638  0.64756031  0.10115890
   0.32760677  0.32584983  0.10123679
   0.68103712  0.00308643  0.10122883
   0.00379716  0.67931143  0.10122396
   0.00006038  0.50000213  0.33429130
   0.16669426  0.33340688  0.33430262
   0.00002974  0.00001951  0.33427828
   0.16676786  0.83336818  0.33430554
   0.50004978  0.50007356  0.33429393
   0.66670597  0.33335626  0.33416662
   0.49997703 -0.00001184  0.33428888
   0.66665383  0.83329102  0.33430209
Direct configuration=    37
   0.00415727  0.00278704  0.10202609
   0.35931824  0.00302875  0.10116308
   0.00382278  0.35763147  0.10116263
   0.64927832  0.64756545  0.10116150
   0.32761147  0.32584932  0.10121650
   0.68103545  0.00310555  0.10121151
   0.00379096  0.67928955  0.10120727
   0.00012377  0.50003864  0.33430378
   0.16668560  0.33339804  0.33431966
   0.00004626  0.00002203  0.33430068
   0.16673979  0.83335964  0.33432232
   0.50003368  0.50009081  0.33430598
   0.66669154  0.33335406  0.33419125
   0.49997908 -0.00005524  0.33430130
   0.66664648  0.83330223  0.33431914
Direct configuration=    38
   0.00415517  0.00278011  0.10194749
   0.35931593  0.00302106  0.10116521
   0.00384760  0.35763701  0.10116476
   0.64925455  0.64757165  0.10116402
   0.32762720  0.32586675  0.10119279
   0.68101852  0.00311547  0.10119074
   0.00378774  0.67926023  0.10118712
   0.00009458  0.50003614  0.33431254
   0.16669885  0.33339619  0.33434379
   0.00004438  0.00002292  0.33431201
   0.16673049  0.83335007  0.33434648
   0.50003464  0.50006486  0.33431456
   0.66669467  0.33335563  0.33421769
   0.50000323 -0.00002707  0.33431012
   0.66665312  0.83331632  0.33434335
Direct configuration=    39
   0.00415234  0.00277075  0.10184131
   0.35931280  0.00301068  0.10116809
   0.00388113  0.35764449  0.10116763
   0.64922244  0.64758003  0.10116742
   0.32764845  0.32589029  0.10116076
   0.68099566  0.00312889  0.10116268
   0.00378341  0.67922062  0.10115991
   0.00005516  0.50003276  0.33432438
   0.16671675  0.33339369  0.33437639
   0.00004184  0.00002413  0.33432731
   0.16671793  0.83333713  0.33437912
   0.50003594  0.50002981  0.33432615
   0.66669889  0.33335774  0.33425341
   0.50003586  0.00001098  0.33432204
   0.66666208  0.83333535  0.33437606
Direct configuration=    40
   0.00414318  0.00274726  0.10176500
   0.35930297  0.00302404  0.10116517
   0.00387862  0.35762918  0.10116486
   0.64923867  0.64759549  0.10116452
   0.32764102  0.32589238  0.10113755
   0.68099744  0.00311978  0.10114191
   0.00378559  0.67923219  0.10113965
   0.00003104  0.49999563  0.33434035
   0.16670744  0.33341020  0.33440035
   0.00003220  0.00002261  0.33433642
   0.16676665  0.83336297  0.33440346
   0.50006103  0.50005177  0.33434225
   0.66671143  0.33335969  0.33427288
   0.50000391  0.00002301  0.33433815
   0.66665949  0.83330113  0.33440015
Direct configuration=    41
   0.00414005  0.00273923  0.10173889
   0.35929961  0.00302861  0.10116417
   0.00387776  0.35762394  0.10116392
   0.64924422  0.64760078  0.10116352
   0.32763847  0.32589310  0.10112961
   0.68099806  0.00311666  0.10113480
   0.00378634  0.67923615  0.10113271
   0.00002278  0.49998293  0.33434581
   0.16670425  0.33341585  0.33440855
   0.00002891  0.00002209  0.33433954
   0.16678331  0.83337181  0.33441179
   0.50006961  0.50005928  0.33434776
   0.66671572  0.33336036  0.33427955
   0.49999298  0.00002712  0.33434366
   0.66665860  0.83328943  0.33440839
Direct configuration=    42
   0.00413060  0.00271653  0.10166528
   0.35929572  0.00305891  0.10115406
   0.00385108  0.35759832  0.10115409
   0.64927949  0.64760870  0.10115307
   0.32761484  0.32588435  0.10110960
   0.68100946  0.00309650  0.10111636
   0.00379371  0.67926922  0.10111459
   0.00006207  0.49999889  0.33437149
   0.16669397  0.33341582  0.33442818
   0.00004107  0.00002404  0.33435192
   0.16677560  0.83337184  0.33443205
   0.50006852  0.50007640  0.33437381
   0.66670615  0.33335894  0.33429043
   0.49999042  0.00000227  0.33436955
   0.66664796  0.83328660  0.33442819
Direct configuration=    43
   0.00412193  0.00269569  0.10159771
   0.35929215  0.00308671  0.10114479
   0.00382660  0.35757481  0.10114507
   0.64931186  0.64761598  0.10114349
   0.32759314  0.32587633  0.10109123
   0.68101994  0.00307800  0.10109944
   0.00380049  0.67929958  0.10109796
   0.00009812  0.50001354  0.33439506
   0.16668453  0.33341580  0.33444619
   0.00005224  0.00002583  0.33436329
   0.16676852  0.83337187  0.33445063
   0.50006752  0.50009212  0.33439771
   0.66669736  0.33335763  0.33430042
   0.49998807 -0.00002054  0.33439331
   0.66663819  0.83328400  0.33444636
Direct configuration=    44
   0.00412220  0.00269790  0.10152917
   0.35931054  0.00311801  0.10112996
   0.00379667  0.35756165  0.10113053
   0.64932133  0.64759571  0.10112815
   0.32758706  0.32588295  0.10107530
   0.68100982  0.00306628  0.10108417
   0.00380864  0.67929857  0.10108281
   0.00008246  0.50003018  0.33442269
   0.16670725  0.33340445  0.33446283
   0.00004600  0.00002601  0.33437918
   0.16674828  0.83335769  0.33446779
   0.50004511  0.50006346  0.33442572
   0.66670535  0.33336025  0.33431009
   0.50000972 -0.00001045  0.33442113
   0.66666024  0.83331469  0.33446314
Direct configuration=    45
   0.00412246  0.00269994  0.10146551
   0.35932762  0.00314708  0.10111619
   0.00376888  0.35754942  0.10111703
   0.64933011  0.64757689  0.10111391
   0.32758141  0.32588910  0.10106050
   0.68100043  0.00305538  0.10106998
   0.00381621  0.67929764  0.10106874
   0.00006792  0.50004564  0.33444834
   0.16672835  0.33339391  0.33447828
   0.00004020  0.00002617  0.33439395
   0.16672949  0.83334451  0.33448373
   0.50002429  0.50003684  0.33445173
   0.66671276  0.33336268  0.33431907
   0.50002983 -0.00000107  0.33444697
   0.66668071  0.83334319  0.33447873
Direct configuration=    46
   0.00412910  0.00271962  0.10139321
   0.35935596  0.00316858  0.10109663
   0.00374388  0.35754921  0.10109775
   0.64931733  0.64754103  0.10109376
   0.32759033  0.32590319  0.10104458
   0.68097890  0.00305440  0.10105390
   0.00382028  0.67927242  0.10105261
   0.00004893  0.50002492  0.33447587
   0.16672269  0.33339992  0.33449792
   0.00003947  0.00002696  0.33441408
   0.16674742  0.83335554  0.33450366
   0.50004390  0.50004034  0.33447952
   0.66671667  0.33336397  0.33433606
   0.50002638  0.00001744  0.33447465
   0.66667945  0.83332979  0.33449847
Direct configuration=    47
   0.00413659  0.00274181  0.10131174
   0.35938789  0.00319281  0.10107459
   0.00371571  0.35754897  0.10107602
   0.64930293  0.64750061  0.10107105
   0.32760038  0.32591908  0.10102663
   0.68095462  0.00305329  0.10103577
   0.00382486  0.67924399  0.10103444
   0.00002753  0.50000157  0.33450690
   0.16671630  0.33340670  0.33452005
   0.00003864  0.00002786  0.33443676
   0.16676762  0.83336796  0.33452611
   0.50006600  0.50004428  0.33451083
   0.66672108  0.33336542  0.33435521
   0.50002250  0.00003830  0.33450585
   0.66667802  0.83331470  0.33452073
Direct configuration=    48
   0.00413809  0.00275189  0.10124222
   0.35938814  0.00318220  0.10105371
   0.00371001  0.35755504  0.10105530
   0.64929614  0.64749119  0.10104970
   0.32760200  0.32590935  0.10100866
   0.68095964  0.00306015  0.10101668
   0.00381656  0.67924294  0.10101511
   0.00007071  0.50000800  0.33452719
   0.16670051  0.33341799  0.33454511
   0.00005344  0.00002995  0.33445945
   0.16677378  0.83337268  0.33455102
   0.50007761  0.50007434  0.33453103
   0.66670980  0.33336344  0.33438549
   0.50001050  0.00001216  0.33452616
   0.66665373  0.83329601  0.33454583
Direct configuration=    49
   0.00413915  0.00275907  0.10119268
   0.35938832  0.00317464  0.10103884
   0.00370595  0.35755937  0.10104053
   0.64929131  0.64748448  0.10103449
   0.32760316  0.32590241  0.10099586
   0.68096321  0.00306504  0.10100309
   0.00381064  0.67924219  0.10100134
   0.00010148  0.50001258  0.33454164
   0.16668925  0.33342603  0.33456297
   0.00006398  0.00003144  0.33447562
   0.16677818  0.83337604  0.33456876
   0.50008588  0.50009577  0.33454542
   0.66670176  0.33336202  0.33440707
   0.50000196 -0.00000646  0.33454063
   0.66663643  0.83328270  0.33456372
Direct configuration=    50
   0.00413665  0.00275862  0.10114158
   0.35937266  0.00315222  0.10102314
   0.00371231  0.35756514  0.10102488
   0.64929238  0.64749421  0.10101856
   0.32760074  0.32588654  0.10097955
   0.68097690  0.00307099  0.10098555
   0.00380003  0.67925315  0.10098353
   0.00010429  0.50002415  0.33455520
   0.16670145  0.33342281  0.33458384
   0.00006031  0.00003138  0.33449515
   0.16677317  0.83337110  0.33458933
   0.50007134  0.50009042  0.33455877