 ----------------------------------------------------
    OOO  PPPP  EEEEE N   N M   M PPPP
   O   O P   P E     NN  N MM MM P   P
   O   O PPPP  EEEEE N N N M M M PPPP   -- VERSION
   O   O P     E     N  NN M   M P
    OOO  P     EEEEE N   N M   M P
 ----------------------------------------------------
 running   48 mpi-ranks, with    1 threads/rank
 distrk:  each k-point on   48 cores,    1 groups
 distr:  one band on    1 cores,   48 groups
 vasp.6.3.2 27Jun22 (build Dec 22 2022 13:13:19) complex                        
  
 POSCAR found type information on POSCAR B C 
 POSCAR found :  2 types and      16 ions
 Reading from existing POTCAR
 -----------------------------------------------------------------------------
|                                                                             |
|           W    W    AA    RRRRR   N    N  II  N    N   GGGG   !!!           |
|           W    W   A  A   R    R  NN   N  II  NN   N  G    G  !!!           |
|           W    W  A    A  R    R  N N  N  II  N N  N  G       !!!           |
|           W WW W  AAAAAA  RRRRR   N  N N  II  N  N N  G  GGG   !            |
|           WW  WW  A    A  R   R   N   NN  II  N   NN  G    G                |
|           W    W  A    A  R    R  N    N  II  N    N   GGGG   !!!           |
|                                                                             |
|     You use a magnetic or noncollinear calculation, but did not specify     |
|     the initial magnetic moment with the MAGMOM tag. Note that a            |
|     default of 1 will be used for all atoms. This ferromagnetic setup       |
|     may break the symmetry of the crystal, in particular it may rule        |
|     out finding an antiferromagnetic solution. Thence, we recommend         |
|     setting the initial magnetic moment manually or verifying carefully     |
|     that this magnetic setup is desired.                                    |
|                                                                             |
 -----------------------------------------------------------------------------

 scaLAPACK will be used
 Reading from existing POTCAR
 LDA part: xc-table for Pade appr. of Perdew
 POSCAR found type information on POSCAR B C 
 POSCAR found :  2 types and      16 ions
 POSCAR, INCAR and KPOINTS ok, starting setup
 FFT: planning ... GRIDC
 FFT: planning ... GRID_SOFT
 FFT: planning ... GRID
 WAVECAR not read
 entering main loop
       N       E                     dE             d eps       ncg     rms          rms(c)
DAV:   1     0.185770228172E+03    0.18577E+03   -0.25182E+04  8256   0.860E+02
DAV:   2    -0.117870938036E+03   -0.30364E+03   -0.30284E+03 13008   0.156E+02
DAV:   3    -0.127182048150E+03   -0.93111E+01   -0.92826E+01 13728   0.365E+01
DAV:   4    -0.127210819453E+03   -0.28771E-01   -0.28760E-01 13200   0.184E+00
DAV:   5    -0.127210849752E+03   -0.30298E-04   -0.30298E-04 12432   0.649E-02    0.223E+01
DAV:   6    -0.942572930827E+02    0.32954E+02   -0.58430E+01 11040   0.216E+01    0.121E+01
DAV:   7    -0.105513437190E+03   -0.11256E+02   -0.13644E+01 12336   0.109E+01    0.662E+00
DAV:   8    -0.111385659542E+03   -0.58722E+01   -0.50464E+00 12624   0.641E+00    0.371E+00
DAV:   9    -0.116638698251E+03   -0.52530E+01   -0.27817E+00 10464   0.467E+00    0.253E+00
DAV:  10    -0.120825055188E+03   -0.41864E+01   -0.32146E+00 12288   0.473E+00    0.135E+00
DAV:  11    -0.122736159378E+03   -0.19111E+01   -0.15044E+00 11664   0.286E+00    0.815E-01
DAV:  12    -0.123725148447E+03   -0.98899E+00   -0.78972E-01 13872   0.193E+00    0.406E-01
DAV:  13    -0.124032147973E+03   -0.30700E+00   -0.19172E-01 11184   0.964E-01    0.195E-01
DAV:  14    -0.124088672302E+03   -0.56524E-01   -0.32539E-02 11232   0.415E-01    0.108E-01
DAV:  15    -0.124110768078E+03   -0.22096E-01   -0.13278E-02  9456   0.290E-01    0.575E-02
DAV:  16    -0.124112596268E+03   -0.18282E-02   -0.24831E-03 10176   0.179E-01    0.358E-02
DAV:  17    -0.124113387827E+03   -0.79156E-03   -0.68962E-04  9744   0.913E-02    0.159E-02
DAV:  18    -0.124113381260E+03    0.65675E-05   -0.17897E-04  8688   0.491E-02    0.837E-03
DAV:  19    -0.124113417187E+03   -0.35927E-04   -0.40946E-05  8928   0.286E-02    0.484E-03
DAV:  20    -0.124113440679E+03   -0.23492E-04   -0.21501E-05  8256   0.194E-02    0.355E-03
DAV:  21    -0.124113488715E+03   -0.48037E-04   -0.19727E-05  8592   0.177E-02    0.220E-03
DAV:  22    -0.124113515257E+03   -0.26542E-04   -0.66384E-06  9792   0.107E-02    0.128E-03
DAV:  23    -0.124113518659E+03   -0.34018E-05   -0.22771E-06 10608   0.608E-03    0.635E-04
DAV:  24    -0.124113522229E+03   -0.35708E-05   -0.68304E-07 10704   0.323E-03    0.327E-04
DAV:  25    -0.124113523329E+03   -0.10998E-05   -0.24006E-07 12096   0.194E-03    0.171E-04
DAV:  26    -0.124113523654E+03   -0.32463E-06   -0.11921E-07 12288   0.143E-03    0.897E-05
DAV:  27    -0.124113523726E+03   -0.72217E-07   -0.48642E-08 12672   0.933E-04    0.442E-05
DAV:  28    -0.124113523741E+03   -0.14728E-07   -0.16355E-08 11856   0.540E-04    0.213E-05
DAV:  29    -0.124113523740E+03    0.30968E-09   -0.34313E-09 14640   0.256E-04
   1 F= -.12558500E+03 E0= -.12558197E+03  d E =-.125585E+03  mag=     0.0000
 curvature:   0.00 expect dE= 0.000E+00 dE for cont linesearch  0.000E+00
 trial: gam= 0.00000 g(F)=  0.153E-02 g(S)=  0.000E+00 ort = 0.000E+00 (trialstep = 0.100E+01)
 search vector abs. value=  0.153E-02
 bond charge predicted
       N       E                     dE             d eps       ncg     rms          rms(c)
DAV:   1    -0.124114186496E+03   -0.66276E-03   -0.11311E-01  8448   0.922E-01    0.110E-01
DAV:   2    -0.124113670576E+03    0.51592E-03   -0.26087E-03 12528   0.133E-01    0.491E-02
DAV:   3    -0.124113584634E+03    0.85942E-04   -0.42601E-04 13680   0.465E-02    0.133E-02
DAV:   4    -0.124113581728E+03    0.29060E-05   -0.30928E-05 12192   0.140E-02    0.498E-03
DAV:   5    -0.124113581675E+03    0.53464E-07   -0.19031E-06 11904   0.348E-03    0.149E-03
DAV:   6    -0.124113581792E+03   -0.11701E-06   -0.60406E-07  9168   0.177E-03    0.409E-04
DAV:   7    -0.124113582035E+03   -0.24283E-06   -0.30812E-08 10176   0.518E-04    0.260E-04
DAV:   8    -0.124113582228E+03   -0.19298E-06   -0.98688E-09  9888   0.239E-04    0.141E-04
DAV:   9    -0.124113582401E+03   -0.17327E-06   -0.10136E-08 10368   0.188E-04    0.973E-05
DAV:  10    -0.124113582506E+03   -0.10566E-06   -0.96001E-09 10176   0.190E-04    0.517E-05
DAV:  11    -0.124113582543E+03   -0.36973E-07   -0.37466E-09 11472   0.174E-04    0.255E-05
DAV:  12    -0.124113582553E+03   -0.92800E-08   -0.15208E-09 11760   0.145E-04
   2 F= -.12558519E+03 E0= -.12558217E+03  d E =-.187622E-03  mag=     0.0000
 trial-energy change:   -0.000188  1 .order   -0.000191   -0.001529    0.001146
 step:   0.5695(harm=  0.5715)  dis= 0.00196  next Energy=  -125.585434 (dE=-0.435E-03)
 bond charge predicted
       N       E                     dE             d eps       ncg     rms          rms(c)
DAV:   1    -0.124113995160E+03   -0.41262E-03   -0.20947E-02  8448   0.396E-01    0.471E-02
DAV:   2    -0.124113900863E+03    0.94297E-04   -0.48521E-04 12528   0.575E-02    0.211E-02
DAV:   3    -0.124113885209E+03    0.15654E-04   -0.79732E-05 14352   0.201E-02    0.569E-03
DAV:   4    -0.124113884722E+03    0.48679E-06   -0.55819E-06 12528   0.597E-03    0.215E-03
DAV:   5    -0.124113884760E+03   -0.37599E-07   -0.34626E-07 13056   0.148E-03    0.647E-04
DAV:   6    -0.124113884780E+03   -0.20232E-07   -0.11052E-07  9648   0.775E-04    0.173E-04
DAV:   7    -0.124113884821E+03   -0.40915E-07   -0.64585E-09  9792   0.286E-04    0.109E-04
DAV:   8    -0.124113884846E+03   -0.25230E-07   -0.28062E-09 10464   0.208E-04    0.587E-05
DAV:   9    -0.124113884867E+03   -0.20302E-07   -0.19893E-09  9696   0.153E-04    0.417E-05
DAV:  10    -0.124113884882E+03   -0.15525E-07   -0.21664E-09 10608   0.145E-04    0.212E-05
DAV:  11    -0.124113884887E+03   -0.51525E-08   -0.17917E-09 10080   0.172E-04
   3 F= -.12558543E+03 E0= -.12558241E+03  d E =-.434648E-03  mag=    -0.0000
 curvature:  -0.29 expect dE=-0.159E-04 dE for cont linesearch -0.152E-08
 trial: gam= 0.03453 g(F)=  0.556E-04 g(S)=  0.000E+00 ort = 0.285E-05 (trialstep = 0.914E+00)
 search vector abs. value=  0.577E-04
 bond charge predicted
       N       E                     dE             d eps       ncg     rms          rms(c)
DAV:   1    -0.124113891448E+03   -0.65654E-05   -0.46953E-03  8256   0.253E-01    0.118E-02
DAV:   2    -0.124113890930E+03    0.51765E-06   -0.54143E-05  8736   0.288E-02    0.733E-03
DAV:   3    -0.124113890233E+03    0.69651E-06   -0.66930E-06  9600   0.892E-03    0.184E-03
DAV:   4    -0.124113890280E+03   -0.46485E-07   -0.86367E-07 12576   0.317E-03    0.761E-04
DAV:   5    -0.124113890283E+03   -0.27192E-08   -0.34365E-08 11424   0.655E-04
   4 F= -.12558548E+03 E0= -.12558247E+03  d E =-.508669E-04  mag=     0.0000
 ZBRENT: can't locate minimum, use default step
 trial-energy change:   -0.000051  1 .order   -0.000051   -0.000051   -0.000051
 step:   3.6556(harm=177.3389)  dis= 0.00194  next Energy=  -125.590376 (dE=-0.494E-02)
 bond charge predicted
       N       E                     dE             d eps       ncg     rms          rms(c)
DAV:   1    -0.124113916031E+03   -0.25751E-04   -0.42278E-02  8256   0.759E-01    0.353E-02
DAV:   2    -0.124113910475E+03    0.55557E-05   -0.48656E-04  8736   0.865E-02    0.219E-02
DAV:   3    -0.124113904633E+03    0.58419E-05   -0.60296E-05 10656   0.267E-02    0.545E-03
DAV:   4    -0.124113905181E+03   -0.54797E-06   -0.73670E-06  9504   0.937E-03    0.229E-03
DAV:   5    -0.124113905309E+03   -0.12843E-06   -0.38366E-07  9024   0.226E-03    0.518E-04
DAV:   6    -0.124113905289E+03    0.20793E-07   -0.81347E-08 11616   0.114E-03    0.305E-04
DAV:   7    -0.124113905307E+03   -0.17947E-07   -0.34393E-08 11280   0.679E-04    0.151E-04
DAV:   8    -0.124113905391E+03   -0.84313E-07   -0.20618E-08  9936   0.560E-04    0.115E-04
DAV:   9    -0.124113905458E+03   -0.66988E-07   -0.27396E-08 10752   0.703E-04    0.660E-05
DAV:  10    -0.124113905515E+03   -0.56850E-07   -0.44560E-08  9888   0.914E-04    0.347E-05
DAV:  11    -0.124113905526E+03   -0.11348E-07   -0.19758E-08 11424   0.599E-04    0.358E-05
DAV:  12    -0.124113905532E+03   -0.62230E-08   -0.11859E-09 11856   0.134E-04
   5 F= -.12558564E+03 E0= -.12558262E+03  d E =-.202698E-03  mag=     0.0000
 curvature:  -2.83 expect dE=-0.183E-03 dE for cont linesearch -0.149E-03
 ZBRENT: increasing intervall
 opt :   9.1390  next Energy=  -125.585937 (dE=-0.504E-03)
 bond charge predicted
       N       E                     dE             d eps       ncg     rms          rms(c)
DAV:   1    -0.124113974669E+03   -0.69143E-04   -0.16904E-01  8256   0.152E+00    0.706E-02
DAV:   2    -0.124113955657E+03    0.19012E-04   -0.19420E-03  8640   0.173E-01    0.439E-02
DAV:   3    -0.124113928867E+03    0.26789E-04   -0.24392E-04 11424   0.535E-02    0.108E-02
DAV:   4    -0.124113930570E+03   -0.17022E-05   -0.27840E-05  9216   0.183E-02    0.461E-03
DAV:   5    -0.124113931159E+03   -0.58967E-06   -0.13730E-06  8640   0.396E-03    0.822E-04
DAV:   6    -0.124113931060E+03    0.99384E-07   -0.28461E-07 14352   0.143E-03    0.442E-04
DAV:   7    -0.124113931156E+03   -0.96346E-07   -0.30576E-08 10848   0.561E-04    0.251E-04
DAV:   8    -0.124113931350E+03   -0.19384E-06   -0.14739E-08 10224   0.345E-04    0.210E-04
DAV:   9    -0.124113931575E+03   -0.22534E-06   -0.94272E-09  9984   0.203E-04    0.113E-04
DAV:  10    -0.124113931825E+03   -0.24966E-06   -0.21419E-08 10368   0.297E-04    0.759E-05
DAV:  11    -0.124113931868E+03   -0.42978E-07   -0.89105E-09 12096   0.378E-04    0.470E-05
DAV:  12    -0.124113931883E+03   -0.14603E-07   -0.95327E-09 11280   0.414E-04    0.162E-05
DAV:  13    -0.124113931884E+03   -0.10666E-08   -0.33439E-09 13008   0.249E-04
   6 F= -.12558594E+03 E0= -.12558292E+03  d E =-.503121E-03  mag=    -0.0000
 curvature:  -5.70 expect dE=-0.660E-03 dE for cont linesearch -0.292E-03
 ZBRENT: increasing intervall
 opt :  20.1058  next Energy=  -125.586523 (dE=-0.109E-02)
 bond charge predicted
       N       E                     dE             d eps       ncg     rms          rms(c)
DAV:   1    -0.124114135232E+03   -0.20335E-03   -0.67614E-01  8256   0.303E+00    0.141E-01
DAV:   2    -0.124114070947E+03    0.64286E-04   -0.77893E-03  9216   0.346E-01    0.877E-02
DAV:   3    -0.124113957851E+03    0.11310E-03   -0.96648E-04 11808   0.106E-01    0.215E-02
DAV:   4    -0.124113961224E+03   -0.33723E-05   -0.10697E-04 11520   0.359E-02    0.925E-03
DAV:   5    -0.124113960964E+03    0.25994E-06   -0.49112E-06 10272   0.717E-03    0.163E-03
DAV:   6    -0.124113960362E+03    0.60168E-06   -0.10838E-06 13056   0.275E-03    0.852E-04
DAV:   7    -0.124113961067E+03   -0.70509E-06   -0.17136E-07  9456   0.124E-03    0.471E-04
DAV:   8    -0.124113962359E+03   -0.12918E-05   -0.81750E-08 10176   0.827E-04    0.413E-04
DAV:   9    -0.124113963772E+03   -0.14132E-05   -0.67203E-08 10080   0.587E-04    0.213E-04
DAV:  10    -0.124113965208E+03   -0.14360E-05   -0.13197E-07  9984   0.669E-04    0.164E-04
DAV:  11    -0.124113965411E+03   -0.20280E-06   -0.37453E-08 12672   0.738E-04    0.856E-05
DAV:  12    -0.124113965457E+03   -0.46469E-07   -0.41102E-08 11712   0.866E-04    0.325E-05
DAV:  13    -0.124113965458E+03   -0.11551E-09   -0.12273E-08 12528   0.477E-04
   7 F= -.12558652E+03 E0= -.12558350E+03  d E =-.108860E-02  mag=     0.0000
 curvature: -11.46 expect dE=-0.406E-02 dE for cont linesearch -0.549E-03
 ZBRENT: increasing intervall
 opt :  42.0394  next Energy=  -125.587637 (dE=-0.220E-02)
 bond charge predicted
       N       E                     dE             d eps       ncg     rms          rms(c)
DAV:   1    -0.124114635756E+03   -0.67030E-03   -0.27043E+00  8256   0.607E+00    0.282E-01
DAV:   2    -0.124114395470E+03    0.24029E-03   -0.31262E-02  9984   0.692E-01    0.175E-01
DAV:   3    -0.124113942642E+03    0.45283E-03   -0.38336E-03 11712   0.210E-01    0.429E-02
DAV:   4    -0.124113953135E+03   -0.10494E-04   -0.41854E-04 14448   0.713E-02    0.187E-02
DAV:   5    -0.124113947648E+03    0.54875E-05   -0.17481E-05 10080   0.130E-02    0.338E-03
DAV:   6    -0.124113946380E+03    0.12682E-05   -0.43697E-06 13440   0.547E-03    0.174E-03
DAV:   7    -0.124113948021E+03   -0.16410E-05   -0.58079E-07  9168   0.212E-03    0.101E-03
DAV:   8    -0.124113950296E+03   -0.22754E-05   -0.17497E-07 10464   0.947E-04    0.878E-04
DAV:   9    -0.124113953795E+03   -0.34993E-05   -0.17495E-07 10032   0.746E-04    0.390E-04
DAV:  10    -0.124113959704E+03   -0.59088E-05   -0.60724E-07 10368   0.115E-03    0.314E-04
DAV:  11    -0.124113961079E+03   -0.13754E-05   -0.10349E-07 11088   0.677E-04    0.206E-04
DAV:  12    -0.124113961409E+03   -0.32945E-06   -0.40632E-08 12528   0.578E-04    0.622E-05
DAV:  13    -0.124113961443E+03   -0.34477E-07   -0.13222E-08 12096   0.460E-04    0.247E-05
DAV:  14    -0.124113961445E+03   -0.20241E-08   -0.55911E-09 13824   0.323E-04
   8 F= -.12558764E+03 E0= -.12558462E+03  d E =-.220328E-02  mag=     0.0000
 curvature: -23.26 expect dE=-0.320E-01 dE for cont linesearch -0.968E-03
 ZBRENT: increasing intervall
 opt :  85.9067  next Energy=  -125.589628 (dE=-0.419E-02)
 bond charge predicted
       N       E                     dE             d eps       ncg     rms          rms(c)
DAV:   1    -0.124116264262E+03   -0.23028E-02   -0.10813E+01  8256   0.121E+01    0.564E-01
DAV:   2    -0.124115455616E+03    0.80865E-03   -0.12536E-01  9408   0.139E+00    0.351E-01
DAV:   3    -0.124113602998E+03    0.18526E-02   -0.15466E-02 12768   0.421E-01    0.861E-02
DAV:   4    -0.124113631853E+03   -0.28855E-04   -0.15547E-03 13872   0.139E-01    0.381E-02
DAV:   5    -0.124113603487E+03    0.28366E-04   -0.72405E-05 10656   0.265E-02    0.703E-03
DAV:   6    -0.124113599516E+03    0.39715E-05   -0.17756E-05 13008   0.111E-02    0.345E-03
DAV:   7    -0.124113606121E+03   -0.66048E-05   -0.29910E-06  9504   0.465E-03    0.201E-03
DAV:   8    -0.124113612597E+03   -0.64761E-05   -0.56469E-07 10656   0.186E-03    0.170E-03
DAV:   9    -0.124113620081E+03   -0.74840E-05   -0.48269E-07 10176   0.147E-03    0.752E-04
DAV:  10    -0.124113629935E+03   -0.98544E-05   -0.10035E-06 10320   0.179E-03    0.614E-04
DAV:  11    -0.124113636278E+03   -0.63425E-05   -0.80676E-07 10176   0.180E-03    0.273E-04
DAV:  12    -0.124113637351E+03   -0.10729E-05   -0.29505E-07 12144   0.204E-03    0.105E-04
DAV:  13    -0.124113637376E+03   -0.25750E-07   -0.12264E-07 11856   0.151E-03    0.436E-05
DAV:  14    -0.124113637381E+03   -0.49267E-08   -0.15661E-08 13584   0.541E-04
   9 F= -.12558961E+03 E0= -.12558660E+03  d E =-.417725E-02  mag=     0.0000
 curvature: -47.87 expect dE=-0.268E+00 dE for cont linesearch -0.139E-02
 ZBRENT: increasing intervall
 opt : 173.6412  next Energy=  -125.592493 (dE=-0.706E-02)
 bond charge predicted
       N       E                     dE             d eps       ncg     rms          rms(c)
DAV:   1    -0.124121559934E+03   -0.79226E-02   -0.43184E+01  8256   0.242E+01    0.113E+00
DAV:   2    -0.124119143488E+03    0.24164E-02   -0.50661E-01  8640   0.280E+00    0.703E-01
DAV:   3    -0.124111687479E+03    0.74560E-02   -0.62132E-02 13920   0.845E-01    0.174E-01
DAV:   4    -0.124111762523E+03   -0.75044E-04   -0.56420E-03 12960   0.269E-01    0.777E-02
DAV:   5    -0.124111672851E+03    0.89673E-04   -0.30610E-04 11040   0.534E-02    0.148E-02
DAV:   6    -0.124111659966E+03    0.12885E-04   -0.68484E-05 13728   0.219E-02    0.701E-03
DAV:   7    -0.124111682775E+03   -0.22809E-04   -0.12873E-05  9120   0.965E-03    0.396E-03
DAV:   8    -0.124111702600E+03   -0.19825E-04   -0.24086E-06 11040   0.349E-03    0.323E-03
DAV:   9    -0.124111720986E+03   -0.18386E-04   -0.15339E-06 10080   0.277E-03    0.143E-03
DAV:  10    -0.124111740238E+03   -0.19253E-04   -0.21243E-06 10272   0.281E-03    0.113E-03
DAV:  11    -0.124111751094E+03   -0.10855E-04   -0.13036E-06 10032   0.242E-03    0.470E-04
DAV:  12    -0.124111756777E+03   -0.56837E-05   -0.91560E-07 10224   0.244E-03    0.192E-04
DAV:  13    -0.124111757225E+03   -0.44810E-06   -0.21462E-07 12912   0.194E-03    0.834E-05
DAV:  14    -0.124111757291E+03   -0.65987E-07   -0.55616E-08 11280   0.102E-03    0.436E-05
DAV:  15    -0.124111757301E+03   -0.95238E-08   -0.13010E-08 14400   0.496E-04
  10 F= -.12559258E+03 E0= -.12558960E+03  d E =-.714613E-02  mag=    -0.0000
 curvature: -99.28 expect dE=-0.226E+01 dE for cont linesearch -0.127E-02
 ZBRENT: increasing intervall
 opt : 349.1102  next Energy=  -125.594932 (dE=-0.950E-02)
 bond charge predicted
       N       E                     dE             d eps       ncg     rms          rms(c)
DAV:   1    -0.124133811014E+03   -0.22054E-01   -0.17166E+02  8256   0.483E+01    0.224E+00
DAV:   2    -0.124132423032E+03    0.13880E-02   -0.20940E+00  8544   0.575E+00    0.141E+00
DAV:   3    -0.124103067180E+03    0.29356E-01   -0.24041E-01 14112   0.167E+00    0.373E-01
DAV:   4    -0.124103498833E+03   -0.43165E-03   -0.20859E-02 12960   0.514E-01    0.160E-01
DAV:   5    -0.124103029105E+03    0.46973E-03   -0.13992E-03 12672   0.103E-01    0.312E-02
DAV:   6    -0.124102979771E+03    0.49333E-04   -0.22607E-04 13344   0.406E-02    0.146E-02
DAV:   7    -0.124103041037E+03   -0.61265E-04   -0.60591E-05  9888   0.214E-02    0.856E-03
DAV:   8    -0.124103088087E+03   -0.47051E-04   -0.76855E-06 10320   0.677E-03    0.702E-03
DAV:   9    -0.124103133702E+03   -0.45615E-04   -0.54493E-06 10752   0.522E-03    0.296E-03
DAV:  10    -0.124103176781E+03   -0.43079E-04   -0.58389E-06 10848   0.483E-03    0.211E-03
DAV:  11    -0.124103201270E+03   -0.24489E-04   -0.36267E-06 10512   0.372E-03    0.105E-03
DAV:  12    -0.124103210312E+03   -0.90422E-05   -0.11251E-06 11184   0.231E-03    0.349E-04
DAV:  13    -0.124103213147E+03   -0.28351E-05   -0.29549E-07 10176   0.158E-03    0.160E-04
DAV:  14    -0.124103214154E+03   -0.10068E-05   -0.10362E-07 11040   0.987E-04    0.759E-05
DAV:  15    -0.124103214290E+03   -0.13552E-06   -0.27459E-08 13728   0.663E-04    0.431E-05
DAV:  16    -0.124103214309E+03   -0.19569E-07   -0.69628E-09 12192   0.350E-04    0.209E-05
DAV:  17    -0.124103214315E+03   -0.62078E-08   -0.11493E-09 13104   0.127E-04
  11 F= -.12559484E+03 E0= -.12559192E+03  d E =-.940389E-02  mag=     0.0000
 curvature: ****** expect dE=-0.169E+02 dE for cont linesearch -0.217E-05
 trial: gam=******** g(F)=  0.918E-01 g(S)=  0.000E+00 ort =-0.824E-06 (trialstep = 0.259E-04)
 search vector abs. value=  0.157E+03
 bond charge predicted
       N       E                     dE             d eps       ncg     rms          rms(c)
DAV:   1    -0.124103213833E+03    0.47655E-06   -0.10279E-05 11280   0.118E-02    0.553E-04
DAV:   2    -0.124103213830E+03    0.21505E-08   -0.10855E-07 14688   0.127E-03    0.335E-04
DAV:   3    -0.124103213829E+03    0.13165E-08   -0.14178E-08 14208   0.395E-04
  12 F= -.12559484E+03 E0= -.12559192E+03  d E =-.234307E-05  mag=    -0.0000
 ZBRENT: can't locate minimum, use default step
 trial-energy change:   -0.000002  1 .order   -0.000002   -0.000002   -0.000002
 step:   0.0001(harm=  0.0248)  dis= 0.00009  next Energy=  -125.595959 (dE=-0.112E-02)
 bond charge predicted
       N       E                     dE             d eps       ncg     rms          rms(c)
DAV:   1    -0.124103212390E+03    0.14401E-05   -0.92713E-05  8688   0.355E-02    0.168E-03
DAV:   2    -0.124103212377E+03    0.12937E-07   -0.10467E-06 10512   0.402E-03    0.104E-03
DAV:   3    -0.124103212364E+03    0.13146E-07   -0.13323E-07 12192   0.124E-03    0.250E-04
DAV:   4    -0.124103212365E+03   -0.52933E-09   -0.15796E-08 11664   0.481E-04
  13 F= -.12559485E+03 E0= -.12559193E+03  d E =-.936723E-05  mag=    -0.0000
 curvature:  -0.13 expect dE=-0.124E-01 dE for cont linesearch -0.702E-05
 ZBRENT: increasing intervall
 opt :   0.0003  next Energy=  -125.594861 (dE=-0.234E-04)
 bond charge predicted
       N       E                     dE             d eps       ncg     rms          rms(c)
DAV:   1    -0.124103209528E+03    0.28358E-05   -0.36972E-04  8304   0.709E-02    0.330E-03
DAV:   2    -0.124103209482E+03    0.46815E-07   -0.42379E-06  9888   0.812E-03    0.205E-03
DAV:   3    -0.124103209432E+03    0.50051E-07   -0.52489E-07  9984   0.251E-03    0.509E-04
DAV:   4    -0.124103209436E+03   -0.47244E-08   -0.76940E-08 10512   0.112E-03
  14 F= -.12559486E+03 E0= -.12559194E+03  d E =-.234203E-04  mag=    -0.0000
 curvature:  -0.27 expect dE=-0.248E-01 dE for cont linesearch -0.141E-04
 ZBRENT: increasing intervall
 opt :   0.0006  next Energy=  -125.594889 (dE=-0.515E-04)
 bond charge predicted
       N       E                     dE             d eps       ncg     rms          rms(c)
DAV:   1    -0.124103203950E+03    0.54817E-05   -0.14789E-03  8352   0.142E-01    0.662E-03
DAV:   2    -0.124103203735E+03    0.21441E-06   -0.16933E-05  9504   0.163E-02    0.411E-03
DAV:   3    -0.124103203559E+03    0.17641E-06   -0.21283E-06  9504   0.511E-03    0.103E-03
DAV:   4    -0.124103203589E+03   -0.29871E-07   -0.36443E-07 10512   0.253E-03    0.447E-04
DAV:   5    -0.124103203615E+03   -0.26383E-07   -0.16654E-07  9024   0.181E-03    0.199E-04
DAV:   6    -0.124103203562E+03    0.53548E-07   -0.68879E-08  8736   0.114E-03    0.616E-05
DAV:   7    -0.124103203564E+03   -0.25316E-08   -0.64143E-09 11808   0.334E-04
  15 F= -.12559489E+03 E0= -.12559197E+03  d E =-.515183E-04  mag=     0.0000
 curvature:  -0.54 expect dE=-0.496E-01 dE for cont linesearch -0.281E-04
 ZBRENT: increasing intervall
 opt :   0.0012  next Energy=  -125.594945 (dE=-0.108E-03)
 bond charge predicted
       N       E                     dE             d eps       ncg     rms          rms(c)
DAV:   1    -0.124103193421E+03    0.10141E-04   -0.59122E-03  8352   0.284E-01    0.132E-02
DAV:   2    -0.124103192506E+03    0.91504E-06   -0.67435E-05  9408   0.323E-02    0.820E-03
DAV:   3    -0.124103191691E+03    0.81487E-06   -0.84540E-06 10176   0.996E-03    0.202E-03
DAV:   4    -0.124103191787E+03   -0.96237E-07   -0.10606E-06  9600   0.365E-03    0.848E-04
DAV:   5    -0.124103191826E+03   -0.38482E-07   -0.99325E-08  9840   0.134E-03    0.207E-04
DAV:   6    -0.124103191806E+03    0.20094E-07   -0.48399E-08  9504   0.955E-04    0.113E-04
DAV:   7    -0.124103191808E+03   -0.25279E-08   -0.12818E-08 11136   0.460E-04
  16 F= -.12559495E+03 E0= -.12559203E+03  d E =-.107743E-03  mag=    -0.0000
 curvature:  -1.08 expect dE=-0.993E-01 dE for cont linesearch -0.564E-04
 ZBRENT: increasing intervall
 opt :   0.0024  next Energy=  -125.595058 (dE=-0.220E-03)
 bond charge predicted
       N       E                     dE             d eps       ncg     rms          rms(c)
DAV:   1    -0.124103174548E+03    0.17258E-04   -0.23646E-02  8256   0.567E-01    0.264E-02
DAV:   2    -0.124103170808E+03    0.37395E-05   -0.27047E-04  9504   0.647E-02    0.164E-02
DAV:   3    -0.124103167770E+03    0.30386E-05   -0.33633E-05 10176   0.199E-02    0.404E-03
DAV:   4    -0.124103168072E+03   -0.30267E-06   -0.42650E-06 10176   0.717E-03    0.168E-03
DAV:   5    -0.124103168209E+03   -0.13611E-06   -0.26484E-07  9408   0.202E-03    0.328E-04
DAV:   6    -0.124103168200E+03    0.81172E-08   -0.13834E-07 10512   0.159E-03    0.208E-04
DAV:   7    -0.124103168198E+03    0.25334E-08   -0.63631E-08 10368   0.108E-03
  17 F= -.12559506E+03 E0= -.12559214E+03  d E =-.220240E-03  mag=     0.0000
 curvature:  -2.16 expect dE=-0.199E+00 dE for cont linesearch -0.113E-03
 ZBRENT: increasing intervall
 opt :   0.0049  next Energy=  -125.595284 (dE=-0.446E-03)
 bond charge predicted
       N       E                     dE             d eps       ncg     rms          rms(c)
DAV:   1    -0.124103145908E+03    0.22292E-04   -0.94583E-02  8256   0.113E+00    0.529E-02
DAV:   2    -0.124103132648E+03    0.13260E-04   -0.10825E-03  9552   0.129E-01    0.328E-02
DAV:   3    -0.124103118474E+03    0.14174E-04   -0.13443E-04 10272   0.396E-02    0.806E-03
DAV:   4    -0.124103120003E+03   -0.15290E-05   -0.16449E-05  9264   0.141E-02    0.338E-03
DAV:   5    -0.124103120346E+03   -0.34310E-06   -0.91393E-07 10992   0.352E-03    0.626E-04
DAV:   6    -0.124103120369E+03   -0.23516E-07   -0.33313E-07 10800   0.237E-03    0.392E-04
DAV:   7    -0.124103120434E+03   -0.64395E-07   -0.18832E-07  9456   0.185E-03    0.215E-04
DAV:   8    -0.124103120676E+03   -0.24235E-06   -0.76114E-08  9936   0.113E-03    0.175E-04
DAV:   9    -0.124103120936E+03   -0.26003E-06   -0.50275E-08  9840   0.914E-04    0.838E-05
DAV:  10    -0.124103121086E+03   -0.15001E-06   -0.38398E-08 10224   0.796E-04    0.591E-05
DAV:  11    -0.124103121150E+03   -0.64001E-07   -0.91979E-09 10656   0.349E-04    0.542E-05
DAV:  12    -0.124103121166E+03   -0.16168E-07   -0.13871E-09 12576   0.127E-04    0.206E-05
DAV:  13    -0.124103121172E+03   -0.55029E-08   -0.48019E-10 10848   0.613E-05
  18 F= -.12559528E+03 E0= -.12559237E+03  d E =-.446180E-03  mag=    -0.0000
 curvature:  -4.31 expect dE=-0.399E+00 dE for cont linesearch -0.227E-03
 ZBRENT: increasing intervall
 opt :   0.0099  next Energy=  -125.595737 (dE=-0.900E-03)
 bond charge predicted
       N       E                     dE             d eps       ncg     rms          rms(c)
DAV:   1    -0.124103125148E+03   -0.39816E-05   -0.37832E-01  8256   0.227E+00    0.106E-01
DAV:   2    -0.124103084620E+03    0.40528E-04   -0.43334E-03  9504   0.258E-01    0.656E-02
DAV:   3    -0.124103020604E+03    0.64016E-04   -0.54367E-04 11568   0.791E-02    0.160E-02
DAV:   4    -0.124103023103E+03   -0.24993E-05   -0.59985E-05 11760   0.269E-02    0.692E-03
DAV:   5    -0.124103023644E+03   -0.54048E-06   -0.26751E-06  9216   0.532E-03    0.124E-03
DAV:   6    -0.124103023362E+03    0.28216E-06   -0.66990E-07 14016   0.216E-03    0.629E-04
DAV:   7    -0.124103023680E+03   -0.31838E-06   -0.85682E-08  8976   0.840E-04    0.398E-04
DAV:   8    -0.124103024258E+03   -0.57830E-06   -0.16439E-08  9888   0.275E-04    0.312E-04
DAV:   9    -0.124103025462E+03   -0.12038E-05   -0.61038E-08  9552   0.382E-04    0.981E-05
DAV:  10    -0.124103026234E+03   -0.77132E-06   -0.47439E-08  9936   0.313E-04    0.137E-04
DAV:  11    -0.124103026391E+03   -0.15693E-06   -0.73927E-09 11664   0.143E-04    0.837E-05
DAV:  12    -0.124103026440E+03   -0.49220E-07   -0.26489E-09 11184   0.926E-05    0.239E-05
DAV:  13    -0.124103026451E+03   -0.10862E-07   -0.86275E-10 12336   0.627E-05    0.957E-06
DAV:  14    -0.124103026451E+03   -0.72032E-09   -0.85816E-11 12528   0.367E-05
  19 F= -.12559574E+03 E0= -.12559282E+03  d E =-.899965E-03  mag=    -0.0000
 curvature:  -8.60 expect dE=-0.805E+00 dE for cont linesearch -0.459E-03
 ZBRENT: increasing intervall
 opt :   0.0198  next Energy=  -125.596653 (dE=-0.182E-02)
 bond charge predicted
       N       E                     dE             d eps       ncg     rms          rms(c)
DAV:   1    -0.124103225565E+03   -0.19911E-03   -0.15132E+00  8256   0.454E+00    0.211E-01
DAV:   2    -0.124103073304E+03    0.15226E-03   -0.17354E-02  9600   0.517E-01    0.131E-01
DAV:   3    -0.124102820269E+03    0.25304E-03   -0.21717E-03 11712   0.158E-01    0.320E-02
DAV:   4    -0.124102826598E+03   -0.63290E-05   -0.24357E-04 13344   0.538E-02    0.139E-02
DAV:   5    -0.124102824561E+03    0.20369E-05   -0.99634E-06  9888   0.999E-03    0.253E-03
DAV:   6    -0.124102823921E+03    0.63991E-06   -0.26516E-06 14592   0.427E-03    0.125E-03
DAV:   7    -0.124102824791E+03   -0.86929E-06   -0.34785E-07  9360   0.167E-03    0.789E-04
DAV:   8    -0.124102826239E+03   -0.14482E-05   -0.57988E-08 10800   0.572E-04    0.626E-04
DAV:   9    -0.124102829390E+03   -0.31512E-05   -0.18357E-07  9600   0.755E-04    0.196E-04
DAV:  10    -0.124102832083E+03   -0.26925E-05   -0.20166E-07 10368   0.647E-04    0.278E-04
DAV:  11    -0.124102833092E+03   -0.10088E-05   -0.65402E-08  9840   0.413E-04    0.152E-04
DAV:  12    -0.124102833291E+03   -0.19944E-06   -0.11661E-08 12912   0.213E-04    0.463E-05
DAV:  13    -0.124102833332E+03   -0.40667E-07   -0.32358E-09 11280   0.139E-04    0.183E-05
DAV:  14    -0.124102833335E+03   -0.35425E-08   -0.45283E-10 13440   0.820E-05
  20 F= -.12559665E+03 E0= -.12559374E+03  d E =-.181540E-02  mag=    -0.0000
 curvature: -17.16 expect dE=-0.164E+01 dE for cont linesearch -0.935E-03
 ZBRENT: increasing intervall
 opt :   0.0397  next Energy=  -125.598511 (dE=-0.367E-02)
 bond charge predicted
       N       E                     dE             d eps       ncg     rms          rms(c)
DAV:   1    -0.124103957536E+03   -0.11242E-02   -0.60511E+00  8256   0.908E+00    0.423E-01
DAV:   2    -0.124103370639E+03    0.58690E-03   -0.69622E-02  9408   0.103E+00    0.263E-01
DAV:   3    -0.124102402823E+03    0.96782E-03   -0.87583E-03 12864   0.316E-01    0.637E-02
DAV:   4    -0.124102415108E+03   -0.12285E-04   -0.86416E-04 14304   0.103E-01    0.283E-02
DAV:   5    -0.124102399912E+03    0.15196E-04   -0.41101E-05 10464   0.198E-02    0.527E-03
DAV:   6    -0.124102398012E+03    0.18995E-05   -0.10444E-05 13776   0.855E-03    0.248E-03
DAV:   7    -0.124102402167E+03   -0.41544E-05   -0.16312E-06  9264   0.354E-03    0.162E-03
DAV:   8    -0.124102406207E+03   -0.40404E-05   -0.21906E-07 11136   0.114E-03    0.117E-03
DAV:   9    -0.124102412036E+03   -0.58289E-05   -0.41793E-07 10272   0.127E-03    0.397E-04
DAV:  10    -0.124102417419E+03   -0.53826E-05   -0.43113E-07 11088   0.110E-03    0.512E-04
DAV:  11    -0.124102420595E+03   -0.31766E-05   -0.25648E-07  9600   0.863E-04    0.250E-04
DAV:  12    -0.124102421681E+03   -0.10855E-05   -0.80903E-08 11232   0.570E-04    0.917E-05
DAV:  13    -0.124102421863E+03   -0.18242E-06   -0.17112E-08 12240   0.342E-04    0.344E-05
DAV:  14    -0.124102421876E+03   -0.12460E-07   -0.22293E-09 12384   0.190E-04    0.239E-05
DAV:  15    -0.124102421879E+03   -0.32019E-08   -0.73803E-10 13440   0.110E-04
  21 F= -.12559850E+03 E0= -.12559559E+03  d E =-.366613E-02  mag=     0.0000
 curvature: -34.11 expect dE=-0.338E+01 dE for cont linesearch -0.190E-02
 ZBRENT: increasing intervall
 opt :   0.0794  next Energy=  -125.602266 (dE=-0.743E-02)
 bond charge predicted
       N       E                     dE             d eps       ncg     rms          rms(c)
DAV:   1    -0.124107326075E+03   -0.49042E-02   -0.24181E+01  8256   0.181E+01    0.843E-01
DAV:   2    -0.124105568099E+03    0.17580E-02   -0.28041E-01  8640   0.208E+00    0.526E-01
DAV:   3    -0.124101417352E+03    0.41507E-02   -0.35349E-02 13920   0.637E-01    0.129E-01
DAV:   4    -0.124101501596E+03   -0.84244E-04   -0.31927E-03 13536   0.199E-01    0.576E-02
DAV:   5    -0.124101447566E+03    0.54030E-04   -0.17145E-04 12000   0.399E-02    0.112E-02
DAV:   6    -0.124101441624E+03    0.59424E-05   -0.40904E-05 12720   0.170E-02    0.498E-03
DAV:   7    -0.124101456322E+03   -0.14698E-04   -0.68447E-06  9312   0.719E-03    0.334E-03
DAV:   8    -0.124101469769E+03   -0.13447E-04   -0.11359E-06 12000   0.255E-03    0.206E-03
DAV:   9    -0.124101482655E+03   -0.12885E-04   -0.11051E-06 10608   0.216E-03    0.836E-04
DAV:  10    -0.124101492616E+03   -0.99618E-05   -0.92115E-07 11232   0.171E-03    0.894E-04
DAV:  11    -0.124101499095E+03   -0.64786E-05   -0.60614E-07  9840   0.141E-03    0.419E-04
DAV:  12    -0.124101502703E+03   -0.36083E-05   -0.40233E-07 10368   0.112E-03    0.114E-04
DAV:  13    -0.124101503047E+03   -0.34387E-06   -0.35526E-08 13488   0.649E-04    0.699E-05
DAV:  14    -0.124101503113E+03   -0.65922E-07   -0.78717E-09 10848   0.334E-04    0.342E-05
DAV:  15    -0.124101503125E+03   -0.12150E-07   -0.27386E-09 14160   0.215E-04    0.152E-05
DAV:  16    -0.124101503128E+03   -0.26926E-08   -0.61607E-10 12192   0.988E-05
  22 F= -.12560230E+03 E0= -.12559938E+03  d E =-.745899E-02  mag=     0.0000
 curvature: -67.51 expect dE=-0.720E+01 dE for cont linesearch -0.410E-02
 ZBRENT: increasing intervall
 opt :   0.1589  next Energy=  -125.610397 (dE=-0.156E-01)
 bond charge predicted
       N       E                     dE             d eps       ncg     rms          rms(c)
DAV:   1    -0.124119426707E+03   -0.17924E-01   -0.96376E+01  8256   0.362E+01    0.168E+00
DAV:   2    -0.124115222409E+03    0.42043E-02   -0.11492E+00  8736   0.424E+00    0.105E+00
DAV:   3    -0.124099306135E+03    0.15916E-01   -0.13809E-01 13920   0.126E+00    0.267E-01
DAV:   4    -0.124099507226E+03   -0.20109E-03   -0.12175E-02 13632   0.391E-01    0.119E-01
DAV:   5    -0.124099278256E+03    0.22897E-03   -0.73838E-04 13344   0.785E-02    0.242E-02
DAV:   6    -0.124099254581E+03    0.23675E-04   -0.14055E-04 12720   0.317E-02    0.105E-02
DAV:   7    -0.124099298840E+03   -0.44258E-04   -0.29836E-05  9504   0.152E-02    0.670E-03
DAV:   8    -0.124099336900E+03   -0.38061E-04   -0.49929E-06 11232   0.548E-03    0.415E-03
DAV:   9    -0.124099367289E+03   -0.30389E-04   -0.34419E-06 11328   0.392E-03    0.170E-03
DAV:  10    -0.124099388982E+03   -0.21692E-04   -0.24200E-06 10704   0.294E-03    0.147E-03
DAV:  11    -0.124099403574E+03   -0.14593E-04   -0.17905E-06 11232   0.244E-03    0.830E-04
DAV:  12    -0.124099410169E+03   -0.65948E-05   -0.70398E-07 10560   0.149E-03    0.209E-04
DAV:  13    -0.124099411648E+03   -0.14785E-05   -0.80788E-08 11664   0.561E-04    0.122E-04
DAV:  14    -0.124099412352E+03   -0.70441E-06   -0.40107E-08 10176   0.376E-04    0.536E-05
DAV:  15    -0.124099412464E+03   -0.11156E-06   -0.68840E-09 13488   0.207E-04    0.246E-05
DAV:  16    -0.124099412474E+03   -0.10309E-07   -0.11604E-09 12576   0.130E-04    0.124E-05
DAV:  17    -0.124099412476E+03   -0.25907E-08   -0.37797E-10 14112   0.688E-05
  23 F= -.12561043E+03 E0= -.12560749E+03  d E =-.155894E-01  mag=    -0.0000
 curvature: ****** expect dE=-0.164E+02 dE for cont linesearch -0.951E-02
 ZBRENT: increasing intervall
 opt :   0.3179  next Energy=  -125.628558 (dE=-0.337E-01)
 bond charge predicted
       N       E                     dE             d eps       ncg     rms          rms(c)
DAV:   1    -0.124135812644E+03   -0.36400E-01   -0.38011E+02  8256   0.717E+01    0.331E+00
DAV:   2    -0.124159055419E+03   -0.23243E-01   -0.49105E+00  8736   0.893E+00    0.212E+00
DAV:   3    -0.124092706786E+03    0.66349E-01   -0.50140E-01 13920   0.241E+00    0.626E-01
DAV:   4    -0.124094418463E+03   -0.17117E-02   -0.42089E-02 13728   0.734E-01    0.246E-01
DAV:   5    -0.124093468490E+03    0.94997E-03   -0.36722E-03 13440   0.155E-01    0.459E-02
DAV:   6    -0.124093384556E+03    0.83934E-04   -0.41516E-04 13056   0.573E-02    0.215E-02
DAV:   7    -0.124093512488E+03   -0.12793E-03   -0.15178E-04  9840   0.356E-02    0.136E-02
DAV:   8    -0.124093597506E+03   -0.85018E-04   -0.18196E-05 11712   0.112E-02    0.930E-03
DAV:   9    -0.124093669855E+03   -0.72349E-04   -0.12402E-05 10896   0.842E-03    0.381E-03
DAV:  10    -0.124093714089E+03   -0.44234E-04   -0.61293E-06 11712   0.513E-03    0.336E-03
DAV:  11    -0.124093744498E+03   -0.30409E-04   -0.53735E-06 12192   0.465E-03    0.192E-03
DAV:  12    -0.124093755535E+03   -0.11037E-04   -0.13566E-06 11712   0.250E-03    0.487E-04
DAV:  13    -0.124093758674E+03   -0.31383E-05   -0.16325E-07 10944   0.966E-04    0.251E-04
DAV:  14    -0.124093760425E+03   -0.17510E-05   -0.85306E-08 11136   0.624E-04    0.138E-04
DAV:  15    -0.124093761500E+03   -0.10758E-05   -0.74687E-08 10656   0.450E-04    0.532E-05
DAV:  16    -0.124093761618E+03   -0.11778E-06   -0.68174E-09 13920   0.196E-04    0.295E-05
DAV:  17    -0.124093761634E+03   -0.15338E-07   -0.12429E-09 11760   0.981E-05    0.174E-05
DAV:  18    -0.124093761638E+03   -0.42555E-08   -0.55722E-10 14448   0.647E-05
  24 F= -.12562884E+03 E0= -.12562585E+03  d E =-.340042E-01  mag=    -0.0000
 curvature: ****** expect dE=-0.406E+02 dE for cont linesearch -0.258E-01
 ZBRENT: increasing intervall
 opt :   0.6359  next Energy=  -125.675427 (dE=-0.806E-01)
 bond charge predicted
       N       E                     dE             d eps       ncg     rms          rms(c)
DAV:   1    -0.123800121642E+03    0.29364E+00   -0.14370E+03  8256   0.138E+02    0.642E+00
DAV:   2    -0.124350027605E+03   -0.54991E+00   -0.23297E+01  8928   0.201E+01    0.424E+00
DAV:   3    -0.124088339316E+03    0.26169E+00   -0.15385E+00 14880   0.432E+00    0.173E+00
DAV:   4    -0.124076842066E+03    0.11497E-01   -0.17378E-01 14016   0.154E+00    0.471E-01
DAV:   5    -0.124073442101E+03    0.34000E-02   -0.20838E-02 12864   0.396E-01    0.845E-02
DAV:   6    -0.124073195186E+03    0.24692E-03   -0.97519E-04 15360   0.974E-02    0.441E-02
DAV:   7    -0.124073446768E+03   -0.25158E-03   -0.63139E-04  9504   0.727E-02    0.231E-02
DAV:   8    -0.124073641707E+03   -0.19494E-03   -0.96782E-05  9552   0.245E-02    0.138E-02
DAV:   9    -0.124073818549E+03   -0.17684E-03   -0.69285E-05 10464   0.218E-02    0.997E-03
DAV:  10    -0.124073874197E+03   -0.55649E-04   -0.12616E-05 12528   0.795E-03    0.741E-03
DAV:  11    -0.124073915398E+03   -0.41201E-04   -0.13278E-05 11232   0.836E-03    0.248E-03
DAV:  12    -0.124073934414E+03   -0.19015E-04   -0.28170E-06 12672   0.428E-03    0.118E-03
DAV:  13    -0.124073941622E+03   -0.72082E-05   -0.68346E-07 12864   0.193E-03    0.859E-04
DAV:  14    -0.124073944464E+03   -0.28420E-05   -0.13316E-07 10368   0.887E-04    0.366E-04
DAV:  15    -0.124073946053E+03   -0.15894E-05   -0.81671E-08 10752   0.607E-04    0.113E-04
DAV:  16    -0.124073946602E+03   -0.54861E-06   -0.18647E-08 12000   0.242E-04    0.671E-05
DAV:  17    -0.124073946931E+03   -0.32871E-06   -0.16449E-08 11184   0.210E-04    0.354E-05
DAV:  18    -0.124073946962E+03   -0.31733E-07   -0.31677E-09 13776   0.926E-05    0.175E-05
DAV:  19    -0.124073946969E+03   -0.69904E-08   -0.48229E-10 12384   0.354E-05
  25 F= -.12567572E+03 E0= -.12567241E+03  d E =-.808843E-01  mag=     0.0000
 curvature: ****** expect dE=-0.116E+03 dE for cont linesearch -0.828E-01
 ZBRENT: increasing intervall
 opt :   1.2718  next Energy=  -125.809406 (dE=-0.215E+00)
 bond charge predicted
       N       E                     dE             d eps       ncg     rms          rms(c)
DAV:   1    -0.119485630252E+03    0.45883E+01   -0.46335E+03  8256   0.229E+02    0.138E+01
DAV:   2    -0.125113472207E+03   -0.56278E+01   -0.11331E+02  8256   0.451E+01    0.842E+00
DAV:   3    -0.124280778117E+03    0.83269E+00   -0.36708E+00 15936   0.727E+00    0.551E+00
DAV:   4    -0.123892384488E+03    0.38839E+00   -0.19856E+00 11904   0.450E+00    0.801E-01
DAV:   5    -0.123895956575E+03   -0.35721E-02   -0.87085E-02 13344   0.109E+00    0.441E-01
DAV:   6    -0.123890914182E+03    0.50424E-02   -0.22146E-02 14592   0.431E-01    0.985E-02
DAV:   7    -0.123890174619E+03    0.73956E-03   -0.23069E-03 13728   0.154E-01    0.463E-02
DAV:   8    -0.123890426212E+03   -0.25159E-03   -0.81189E-04 12384   0.757E-02    0.298E-02
DAV:   9    -0.123890583503E+03   -0.15729E-03   -0.12777E-04 13056   0.287E-02    0.201E-02
DAV:  10    -0.123890714928E+03   -0.13142E-03   -0.10567E-04 10752   0.265E-02    0.132E-02
DAV:  11    -0.123890783936E+03   -0.69008E-04   -0.41768E-05 12384   0.148E-02    0.996E-03
DAV:  12    -0.123890813725E+03   -0.29789E-04   -0.18690E-05 12576   0.111E-02    0.463E-03
DAV:  13    -0.123890823674E+03   -0.99488E-05   -0.23896E-06 13344   0.429E-03    0.342E-03
DAV:  14    -0.123890829426E+03   -0.57517E-05   -0.72268E-07 13920   0.272E-03    0.118E-03
DAV:  15    -0.123890833155E+03   -0.37292E-05   -0.43217E-07 13104   0.176E-03    0.803E-04
DAV:  16    -0.123890834599E+03   -0.14438E-05   -0.98926E-08 13584   0.785E-04    0.398E-04
DAV:  17    -0.123890835357E+03   -0.75869E-06   -0.42516E-08 13008   0.464E-04    0.136E-04
DAV:  18    -0.123890835947E+03   -0.58924E-06   -0.32205E-08 12384   0.306E-04    0.798E-05
DAV:  19    -0.123890836183E+03   -0.23606E-06   -0.12411E-08 13872   0.188E-04    0.576E-05
DAV:  20    -0.123890836332E+03   -0.14884E-06   -0.96608E-09 10608   0.144E-04    0.315E-05
DAV:  21    -0.123890836382E+03   -0.50602E-07   -0.20178E-09 13776   0.788E-05    0.264E-05
DAV:  22    -0.123890836399E+03   -0.17007E-07   -0.29229E-10 12816   0.346E-05    0.169E-05
DAV:  23    -0.123890836405E+03   -0.59763E-08   -0.14435E-10 13392   0.255E-05
  26 F= -.12573281E+03 E0= -.12573066E+03  d E =-.137976E+00  mag=     0.0000
 curvature: ****** expect dE=-0.395E+03 dE for cont linesearch -0.300E+00
 ZBRENT: bracketing found
 ZBRENT: interpolating
 opt :   0.8905  next Energy=  -125.697140 (dE=-0.102E+00)
 bond charge predicted
       N       E                     dE             d eps       ncg     rms          rms(c)
DAV:   1    -0.123363030373E+03    0.52781E+00   -0.19953E+03  8256   0.161E+02    0.776E+00
DAV:   2    -0.124438315908E+03   -0.10753E+01   -0.35731E+01  8448   0.255E+01    0.510E+00
DAV:   3    -0.124082543297E+03    0.35577E+00   -0.19158E+00 15360   0.492E+00    0.246E+00
DAV:   4    -0.124043303445E+03    0.39240E-01   -0.32284E-01 13056   0.204E+00    0.572E-01
DAV:   5    -0.124041179226E+03    0.21242E-02   -0.31733E-02 14592   0.561E-01    0.125E-01
DAV:   6    -0.124040532653E+03    0.64657E-03   -0.25810E-03 12480   0.147E-01    0.668E-02
DAV:   7    -0.124040460014E+03    0.72639E-04   -0.71708E-04 11424   0.873E-02    0.299E-02
DAV:   8    -0.124040513308E+03   -0.53294E-04   -0.11728E-04  9408   0.304E-02    0.172E-02
DAV:   9    -0.124040637711E+03   -0.12440E-03   -0.50855E-05 11568   0.188E-02    0.107E-02
DAV:  10    -0.124040801044E+03   -0.16333E-03   -0.16740E-05 12096   0.105E-02    0.847E-03
DAV:  11    -0.124040926318E+03   -0.12527E-03   -0.82475E-06 13968   0.733E-03    0.384E-03
DAV:  12    -0.124040994751E+03   -0.68433E-04   -0.20379E-06 12432   0.426E-03    0.177E-03
DAV:  13    -0.124041029254E+03   -0.34503E-04   -0.68117E-07 13056   0.269E-03    0.138E-03
DAV:  14    -0.124041037646E+03   -0.83921E-05   -0.10105E-07 14160   0.889E-04    0.643E-04
DAV:  15    -0.124041041904E+03   -0.42585E-05   -0.87078E-08 12960   0.647E-04    0.201E-04
DAV:  16    -0.124041042875E+03   -0.97086E-06   -0.19287E-08 13440   0.253E-04    0.139E-04
DAV:  17    -0.124041043220E+03   -0.34536E-06   -0.14592E-08 12048   0.205E-04    0.861E-05
DAV:  18    -0.124041043263E+03   -0.42726E-07   -0.52667E-09 13008   0.121E-04    0.448E-05
DAV:  19    -0.124041043347E+03   -0.83789E-07   -0.49414E-09 10560   0.102E-04    0.288E-05
DAV:  20    -0.124041043370E+03   -0.23319E-07   -0.94995E-10 12672   0.470E-05    0.251E-05
DAV:  21    -0.124041043378E+03   -0.73237E-08   -0.28298E-10 11856   0.295E-05
  27 F= -.12571983E+03 E0= -.12571627E+03  d E =-.124992E+00  mag=     0.0000
 curvature: -53.09 expect dE=-0.184E+02 dE for cont linesearch -0.930E-02
 ZBRENT: bisectioning
 opt :   1.0811  next Energy=  -125.751314 (dE=-0.156E+00)
 bond charge predicted
       N       E                     dE             d eps       ncg     rms          rms(c)
DAV:   1    -0.124031790975E+03    0.92524E-02   -0.54048E+02  8256   0.856E+01    0.396E+00
DAV:   2    -0.124084942174E+03   -0.53151E-01   -0.73563E+00 10080   0.110E+01    0.255E+00
DAV:   3    -0.123991187739E+03    0.93754E-01   -0.62824E-01 15168   0.271E+00    0.832E-01
DAV:   4    -0.123992336869E+03   -0.11491E-02   -0.56637E-02 13968   0.868E-01    0.292E-01
DAV:   5    -0.123991212013E+03    0.11249E-02   -0.55946E-03 15072   0.194E-01    0.530E-02
DAV:   6    -0.123991095383E+03    0.11663E-03   -0.46099E-04 11712   0.634E-02    0.244E-02
DAV:   7    -0.123991200545E+03   -0.10516E-03   -0.15083E-04 12480   0.357E-02    0.137E-02
DAV:   8    -0.123991283982E+03   -0.83437E-04   -0.27647E-05 10464   0.129E-02    0.127E-02
DAV:   9    -0.123991367367E+03   -0.83385E-04   -0.17456E-05 11088   0.995E-03    0.614E-03
DAV:  10    -0.123991437886E+03   -0.70518E-04   -0.18095E-05 12432   0.948E-03    0.379E-03
DAV:  11    -0.123991466257E+03   -0.28371E-04   -0.71294E-06 12192   0.536E-03    0.215E-03
DAV:  12    -0.123991473498E+03   -0.72412E-05   -0.85902E-07 14928   0.235E-03    0.111E-03
DAV:  13    -0.123991478484E+03   -0.49861E-05   -0.44658E-07 13200   0.149E-03    0.564E-04
DAV:  14    -0.123991480696E+03   -0.22120E-05   -0.12253E-07 14208   0.773E-04    0.290E-04
DAV:  15    -0.123991481480E+03   -0.78398E-06   -0.29587E-08 12384   0.398E-04    0.134E-04
DAV:  16    -0.123991481973E+03   -0.49247E-06   -0.18214E-08 13728   0.274E-04    0.550E-05
DAV:  17    -0.123991482287E+03   -0.31399E-06   -0.12014E-08 11760   0.191E-04    0.334E-05
DAV:  18    -0.123991482351E+03   -0.64520E-07   -0.34934E-09 13632   0.969E-05    0.181E-05
DAV:  19    -0.123991482363E+03   -0.12018E-07   -0.72107E-10 11664   0.392E-05    0.119E-05
DAV:  20    -0.123991482374E+03   -0.11024E-07   -0.49726E-10 13248   0.319E-05    0.696E-06
DAV:  21    -0.123991482377E+03   -0.32214E-08   -0.11045E-10 11520   0.166E-05
  28 F= -.12574459E+03 E0= -.12574134E+03  d E =-.149757E+00  mag=     0.0000
 curvature: ****** expect dE=-0.776E+02 dE for cont linesearch -0.576E-02
 ZBRENT: bisectioning
 opt :   1.1765  next Energy=  -125.749095 (dE=-0.154E+00)
 bond charge predicted
       N       E                     dE             d eps       ncg     rms          rms(c)
DAV:   1    -0.123977576812E+03    0.13906E-01   -0.13775E+02  8256   0.435E+01    0.202E+00
DAV:   2    -0.123972665027E+03    0.49118E-02   -0.16979E+00 10848   0.515E+00    0.126E+00
DAV:   3    -0.123950418022E+03    0.22247E-01   -0.17340E-01 15168   0.140E+00    0.349E-01
DAV:   4    -0.123950547047E+03   -0.12903E-03   -0.16591E-02 14640   0.454E-01    0.139E-01
DAV:   5    -0.123950306074E+03    0.24097E-03   -0.99545E-04 15168   0.928E-02    0.282E-02
DAV:   6    -0.123950276590E+03    0.29484E-04   -0.15721E-04 11904   0.360E-02    0.126E-02
DAV:   7    -0.123950320887E+03   -0.44297E-04   -0.37142E-05 12288   0.179E-02    0.638E-03
DAV:   8    -0.123950357527E+03   -0.36640E-04   -0.63195E-06 11472   0.619E-03    0.556E-03
DAV:   9    -0.123950387485E+03   -0.29958E-04   -0.38194E-06 12528   0.430E-03    0.286E-03
DAV:  10    -0.123950416185E+03   -0.28700E-04   -0.55066E-06 12144   0.454E-03    0.161E-03
DAV:  11    -0.123950427860E+03   -0.11675E-04   -0.18188E-06 13536   0.263E-03    0.105E-03
DAV:  12    -0.123950432127E+03   -0.42671E-05   -0.41893E-07 14976   0.140E-03    0.548E-04
DAV:  13    -0.123950433980E+03   -0.18530E-05   -0.96732E-08 14208   0.662E-04    0.259E-04
DAV:  14    -0.123950435213E+03   -0.12334E-05   -0.73045E-08 13584   0.523E-04    0.136E-04
DAV:  15    -0.123950435565E+03   -0.35124E-06   -0.98036E-09 13968   0.212E-04    0.794E-05
DAV:  16    -0.123950435924E+03   -0.35964E-06   -0.13567E-08 13392   0.209E-04    0.312E-05
DAV:  17    -0.123950436003E+03   -0.78639E-07   -0.25282E-09 12912   0.872E-05    0.185E-05
DAV:  18    -0.123950436019E+03   -0.16244E-07   -0.12324E-09 13776   0.529E-05    0.114E-05
DAV:  19    -0.123950436025E+03   -0.55643E-08   -0.21825E-10 12816   0.212E-05
  29 F= -.12574625E+03 E0= -.12574349E+03  d E =-.151411E+00  mag=    -0.0000
 curvature: ****** expect dE=-0.675E+02 dE for cont linesearch -0.204E-02
 ZBRENT:  can not reach accuracy
 opt :   0.0000  next Energy=     0.000000 (dE= 0.126E+03)
 bond charge predicted
       N       E                     dE             d eps       ncg     rms          rms(c)
DAV:   1    -0.119024680321E+03    0.49258E+01   -0.10206E+04 12384   0.279E+02    0.205E+01
DAV:   2    -0.127383961143E+03   -0.83593E+01   -0.19973E+02  9120   0.581E+01    0.120E+01
DAV:   3    -0.125016585654E+03    0.23674E+01   -0.54749E+00 14736   0.905E+00    0.803E+00
DAV:   4    -0.124086138803E+03    0.93045E+00   -0.64618E+00 13728   0.744E+00    0.101E+00
DAV:   5    -0.124097305455E+03   -0.11167E-01   -0.14736E-01 11040   0.145E+00    0.612E-01
DAV:   6    -0.124102922463E+03   -0.56170E-02   -0.41978E-02 14784   0.689E-01    0.161E-01
DAV:   7    -0.124102088781E+03    0.83368E-03   -0.37969E-03 11376   0.226E-01    0.647E-02
DAV:   8    -0.124101669691E+03    0.41909E-03   -0.17654E-03 12864   0.106E-01    0.583E-02
DAV:   9    -0.124101911513E+03   -0.24182E-03   -0.20472E-04  9120   0.384E-02    0.290E-02
DAV:  10    -0.124102541125E+03   -0.62961E-03   -0.31636E-04 11424   0.494E-02    0.276E-02
DAV:  11    -0.124102923243E+03   -0.38212E-03   -0.35529E-05 10800   0.186E-02    0.158E-02
DAV:  12    -0.124103168317E+03   -0.24507E-03   -0.17603E-05 10800   0.152E-02    0.792E-03
DAV:  13    -0.124103197837E+03   -0.29520E-04   -0.27622E-06 11232   0.591E-03    0.693E-03
DAV:  14    -0.124103206435E+03   -0.85979E-05   -0.63743E-07 12768   0.250E-03    0.247E-03
DAV:  15    -0.124103211969E+03   -0.55338E-05   -0.33915E-07 11424   0.170E-03    0.442E-04
DAV:  16    -0.124103213455E+03   -0.14865E-05   -0.70915E-08 11808   0.830E-04    0.373E-04
DAV:  17    -0.124103214136E+03   -0.68056E-06   -0.43960E-08 11376   0.486E-04    0.228E-04
DAV:  18    -0.124103214279E+03   -0.14388E-06   -0.17159E-08 13152   0.385E-04    0.710E-05
DAV:  19    -0.124103214307E+03   -0.27116E-07   -0.68735E-09 12864   0.309E-04    0.578E-05
DAV:  20    -0.124103214312E+03   -0.59163E-08   -0.34986E-09 12864   0.247E-04
  30 F= -.12559484E+03 E0= -.12559192E+03  d E =0.281534E-08  mag=     0.0000
 curvature:   0.00 expect dE= 0.000E+00 dE for cont linesearch  0.000E+00
 -----------------------------------------------------------------------------
|                                                                             |
|     EEEEEEE  RRRRRR   RRRRRR   OOOOOOO  RRRRRR      ###     ###     ###     |
|     E        R     R  R     R  O     O  R     R     ###     ###     ###     |
|     E        R     R  R     R  O     O  R     R     ###     ###     ###     |
|     EEEEE    RRRRRR   RRRRRR   O     O  RRRRRR       #       #       #      |
|     E        R   R    R   R    O     O  R   R                               |
|     E        R    R   R    R   O     O  R    R      ###     ###     ###     |
|     EEEEEEE  R     R  R     R  OOOOOOO  R     R     ###     ###     ###     |
|                                                                             |
|     ZBRENT: fatal error in bracketing                                       |
|      please rerun with smaller EDIFF, or copy CONTCAR                       |
|      to POSCAR and continue                                                 |
|                                                                             |
|       ---->  I REFUSE TO CONTINUE WITH THIS SICK JOB ... BYE!!! <----       |
|                                                                             |
 -----------------------------------------------------------------------------

