Lattice                                 
           1
     4.347448    2.510000    0.000000
    -4.347448    2.510000    0.000000
     0.000000    0.000000   15.000000
   B    C 
     8     8
Direct configuration=     1
   0.66888689  0.00000000  0.10000000
   0.33111211  0.00000000  0.10000000
   0.00000000  0.33111211  0.10000000
   0.00000000  0.66888689  0.10000000
   0.33111211  0.33111211  0.10000000
   0.66888689  0.66888689  0.10000000
   0.66666600  0.33333300  0.09922189
   0.33333300  0.66666600  0.10077811
   0.27777711  0.22222189  0.46960000
   0.44444411  0.05555489  0.46960000
   0.27777711  0.72222189  0.46960000
   0.44444411  0.55555489  0.46960000
   0.77777711  0.22222189  0.46960000
   0.94444411  0.05555489  0.46960000
   0.77777711  0.72222189  0.46960000
   0.94444411  0.55555489  0.46960000
Direct configuration=     2
   0.66957283 -0.00000016  0.10002581
   0.33042625 -0.00000016  0.10002588
   0.00000016  0.33042617  0.10002581
   0.00000016  0.66957275  0.10002588
   0.33042591  0.33042593  0.10002591
   0.66957307  0.66957309  0.10002591
   0.66666612  0.33333288  0.09925487
   0.33333261  0.66666639  0.10080410
   0.27777237  0.22221761  0.46957354
   0.44444197  0.05555713  0.46957292
   0.27777716  0.72222184  0.46957242
   0.44444495  0.55555405  0.46957315
   0.77778043  0.22221857  0.46957336
   0.94444465  0.05555435  0.46957400
   0.77778139  0.72222663  0.46957354
   0.94444187  0.55555703  0.46957292
Direct configuration=     3
   0.66927754 -0.00000009  0.10001470
   0.33072151 -0.00000009  0.10001474
   0.00000009  0.33072146  0.10001470
   0.00000009  0.66927749  0.10001474
   0.33072132  0.33072133  0.10001475
   0.66927767  0.66927768  0.10001475
   0.66666607  0.33333293  0.09924067
   0.33333278  0.66666622  0.10079291
   0.27777441  0.22221945  0.46958493
   0.44444289  0.05555616  0.46958458
   0.27777714  0.72222186  0.46958429
   0.44444459  0.55555441  0.46958471
   0.77777900  0.22222000  0.46958483
   0.94444442  0.05555458  0.46958519
   0.77777955  0.72222459  0.46958493
   0.94444284  0.55555611  0.46958458
Direct configuration=     4
   0.66927766 -0.00000011  0.10003920
   0.33072151 -0.00000006  0.10003930
   0.00000011  0.33072134  0.10003920
   0.00000006  0.66927749  0.10003930
   0.33072136  0.33072135  0.10003934
   0.66927765  0.66927764  0.10003934
   0.66666604  0.33333296  0.09927301
   0.33333276  0.66666624  0.10081584
   0.27777797  0.22222331  0.46955983
   0.44444488  0.05555378  0.46955904
   0.27777667  0.72222233  0.46955842
   0.44444415  0.55555485  0.46955932
   0.77777582  0.22222318  0.46955961
   0.94444435  0.05555465  0.46956039
   0.77777569  0.72222103  0.46955983
   0.94444522  0.55555412  0.46955904
Direct configuration=     5
   0.66927803 -0.00000018  0.10011269
   0.33072151  0.00000003  0.10011297
   0.00000018  0.33072097  0.10011269
  -0.00000003  0.66927749  0.10011297
   0.33072150  0.33072141  0.10011310
   0.66927759  0.66927750  0.10011310
   0.66666596  0.33333304  0.09937000
   0.33333270  0.66666630  0.10088462
   0.27778864  0.22223489  0.46948455
   0.44445083  0.05554664  0.46948242
   0.27777525  0.72222375  0.46948083
   0.44444284  0.55555616  0.46948316
   0.77776630  0.22223270  0.46948394
   0.94444413  0.05555487  0.46948601
   0.77776411  0.72221036  0.46948455
   0.94445236  0.55554817  0.46948242
Direct configuration=     6
   0.66927877 -0.00000031  0.10025968
   0.33072151  0.00000022  0.10026032
   0.00000031  0.33072023  0.10025968
  -0.00000022  0.66927749  0.10026032
   0.33072178  0.33072153  0.10026061
   0.66927747  0.66927722  0.10026061
   0.66666579  0.33333321  0.09956400
   0.33333259  0.66666641  0.10102217
   0.27780998  0.22225805  0.46933397
   0.44446274  0.05553236  0.46932918
   0.27777243  0.72222657  0.46932563
   0.44444022  0.55555878  0.46933083
   0.77774724  0.22225176  0.46933261
   0.94444370  0.05555530  0.46933723
   0.77774095  0.72218902  0.46933397
   0.94446664  0.55553626  0.46932918
Direct configuration=     7
   0.66928025 -0.00000058  0.10055367
   0.33072151  0.00000058  0.10055502
   0.00000058  0.33071875  0.10055367
  -0.00000058  0.66927749  0.10055502
   0.33072234  0.33072178  0.10055564
   0.66927722  0.66927666  0.10055564
   0.66666546  0.33333354  0.09995199
   0.33333236  0.66666664  0.10129728
   0.27785266  0.22230436  0.46903281
   0.44448655  0.05550379  0.46902270
   0.27776677  0.72223223  0.46901525
   0.44443499  0.55556401  0.46902618
   0.77770914  0.22228986  0.46902994
   0.94444283  0.05555617  0.46903967
   0.77769464  0.72214634  0.46903281
   0.94449521  0.55551245  0.46902270
Direct configuration=     8
   0.66928321 -0.00000110  0.10114163
   0.33072151  0.00000132  0.10114443
   0.00000110  0.33071579  0.10114163
  -0.00000132  0.66927749  0.10114443
   0.33072344  0.33072227  0.10114570
   0.66927673  0.66927556  0.10114570
   0.66666480  0.33333420  0.10072797
   0.33333190  0.66666710  0.10184751
   0.27793801  0.22239699  0.46843050
   0.44453417  0.05544666  0.46840974
   0.27775546  0.72224354  0.46839447
   0.44442451  0.55557449  0.46841689
   0.77763292  0.22236608  0.46842460
   0.94444109  0.05555791  0.46844457
   0.77760201  0.72206099  0.46843050
   0.94455234  0.55546483  0.46840974
Direct configuration=     9
   0.66928913 -0.00000216  0.10231756
   0.33072151  0.00000279  0.10232323
   0.00000216  0.33070987  0.10231756
  -0.00000279  0.66927749  0.10232323
   0.33072566  0.33072325  0.10232581
   0.66927575  0.66927334  0.10232581
   0.66666347  0.33333553  0.10227993
   0.33333098  0.66666802  0.10294796
   0.27810873  0.22258224  0.46722588
   0.44462941  0.05533240  0.46718383
   0.27773284  0.72226616  0.46715291
   0.44440356  0.55559544  0.46719829
   0.77748050  0.22251850  0.46721393
   0.94443761  0.05556139  0.46725435
   0.77741676  0.72189027  0.46722588
   0.94466660  0.55536959  0.46718383
Direct configuration=    10
   0.66930098 -0.00000428  0.10466942
   0.33072150  0.00000573  0.10468085
   0.00000428  0.33069802  0.10466942
  -0.00000573  0.66927750  0.10468085
   0.33073010  0.33072521  0.10468604
   0.66927379  0.66926890  0.10468604
   0.66666082  0.33333818  0.10538385
   0.33332915  0.66666985  0.10514886
   0.27845016  0.22295275  0.46481664
   0.44481990  0.05510388  0.46473199
   0.27768760  0.72231140  0.46466981
   0.44436166  0.55563734  0.46476110
   0.77717565  0.22282335  0.46479259
   0.94443066  0.05556834  0.46487391
   0.77704625  0.72154884  0.46481664
   0.94489512  0.55517910  0.46473199
Direct configuration=    11
   0.66932467 -0.00000851  0.10937314
   0.33072150  0.00001162  0.10939607
   0.00000851  0.33067433  0.10937314
  -0.00001162  0.66927750  0.10939607
   0.33073898  0.33072913  0.10940649
   0.66926987  0.66926002  0.10940649
   0.66665551  0.33334349  0.11159169
   0.33332549  0.66667351  0.10955066
   0.27913303  0.22369376  0.45999816
   0.44520087  0.05464684  0.45982833
   0.27759713  0.72240187  0.45970359
   0.44427785  0.55572115  0.45988672
   0.77656594  0.22343306  0.45994990
   0.94441676  0.05558224  0.46011304
   0.77630524  0.72086597  0.45999816
   0.94535216  0.55479813  0.45982833
Direct configuration=    12
   0.66932467 -0.00000851  0.10937429
   0.33072150  0.00001162  0.10939722
   0.00000851  0.33067433  0.10937429
  -0.00001162  0.66927750  0.10939722
   0.33073898  0.33072913  0.10940765
   0.66926987  0.66926002  0.10940765
   0.66665551  0.33334349  0.11159320
   0.33332549  0.66667351  0.10955173
   0.27913308  0.22369381  0.45999699
   0.44520089  0.05464682  0.45982713
   0.27759713  0.72240187  0.45970238
   0.44427784  0.55572116  0.45988553
   0.77656591  0.22343309  0.45994872
   0.94441675  0.05558225  0.46011188
   0.77630519  0.72086592  0.45999699
   0.94535218  0.55479811  0.45982713
Direct configuration=    13
   0.66932468 -0.00000851  0.10937773
   0.33072150  0.00001162  0.10940067
   0.00000851  0.33067432  0.10937773
  -0.00001162  0.66927750  0.10940067
   0.33073899  0.33072913  0.10941110
   0.66926987  0.66926001  0.10941110
   0.66665551  0.33334349  0.11159773
   0.33332549  0.66667351  0.10955494
   0.27913324  0.22369393  0.45999346
   0.44520094  0.05464676  0.45982355
   0.27759714  0.72240186  0.45969876
   0.44427780  0.55572120  0.45988197
   0.77656581  0.22343319  0.45994518
   0.94441672  0.05558228  0.46010839
   0.77630507  0.72086576  0.45999346
   0.94535224  0.55479806  0.45982355
Direct configuration=    14
   0.66932471 -0.00000851  0.10938461
   0.33072151  0.00001163  0.10940757
   0.00000851  0.33067429  0.10938461
  -0.00001163  0.66927749  0.10940757
   0.33073901  0.33072914  0.10941800
   0.66926986  0.66925999  0.10941800
   0.66665551  0.33334349  0.11160679
   0.33332549  0.66667351  0.10956136
   0.27913357  0.22369418  0.45998641
   0.44520104  0.05464664  0.45981639
   0.27759716  0.72240184  0.45969152
   0.44427771  0.55572129  0.45987485
   0.77656562  0.22343338  0.45993810
   0.94441665  0.05558235  0.46010142
   0.77630482  0.72086543  0.45998641
   0.94535236  0.55479796  0.45981639
Direct configuration=    15
   0.66932475 -0.00000851  0.10939837
   0.33072154  0.00001165  0.10942136
   0.00000851  0.33067425  0.10939837
  -0.00001165  0.66927746  0.10942136
   0.33073905  0.33072915  0.10943181
   0.66926985  0.66925995  0.10943181
   0.66665550  0.33334350  0.11162490
   0.33332547  0.66667353  0.10957421
   0.27913422  0.22369469  0.45997231
   0.44520125  0.05464641  0.45980207
   0.27759721  0.72240179  0.45967703
   0.44427753  0.55572147  0.45986060
   0.77656523  0.22343377  0.45992394
   0.94441653  0.05558247  0.46008747
   0.77630431  0.72086478  0.45997231
   0.94535259  0.55479775  0.45980207
Direct configuration=    16
   0.66932483 -0.00000851  0.10942589
   0.33072158  0.00001169  0.10944895
   0.00000851  0.33067417  0.10942589
  -0.00001169  0.66927742  0.10944895
   0.33073912  0.33072918  0.10945943
   0.66926982  0.66925988  0.10945943
   0.66665549  0.33334351  0.11166113
   0.33332545  0.66667355  0.10959989
   0.27913553  0.22369570  0.45994411
   0.44520167  0.05464595  0.45977342
   0.27759730  0.72240170  0.45964806
   0.44427718  0.55572182  0.45983211
   0.77656446  0.22343454  0.45989561
   0.94441628  0.05558272  0.46005957
   0.77630330  0.72086347  0.45994411
   0.94535305  0.55479733  0.45977342
Direct configuration=    17
   0.66932500 -0.00000852  0.10948094
   0.33072167  0.00001177  0.10950413
   0.00000852  0.33067400  0.10948094
  -0.00001177  0.66927733  0.10950413
   0.33073928  0.33072924  0.10951466
   0.66926976  0.66925972  0.10951466
   0.66665547  0.33334353  0.11173360
   0.33332541  0.66667359  0.10965127
   0.27913813  0.22369771  0.45988772
   0.44520250  0.05464502  0.45971613
   0.27759748  0.72240152  0.45959012
   0.44427649  0.55572251  0.45977512
   0.77656292  0.22343608  0.45983896
   0.94441578  0.05558322  0.46000378
   0.77630129  0.72086087  0.45988772
   0.94535398  0.55479650  0.45971613
Direct configuration=    18
   0.66932533 -0.00000852  0.10959102
   0.33072184  0.00001192  0.10961448
   0.00000852  0.33067367  0.10959102
  -0.00001192  0.66927716  0.10961448
   0.33073959  0.33072936  0.10962514
   0.66926964  0.66925941  0.10962514
   0.66665542  0.33334358  0.11187852
   0.33332533  0.66667367  0.10975403
   0.27914335  0.22370175  0.45977492
   0.44520418  0.05464317  0.45960155
   0.27759783  0.72240117  0.45947423
   0.44427509  0.55572391  0.45966114
   0.77655983  0.22343917  0.45972566
   0.94441477  0.05558423  0.45989218
   0.77629725  0.72085565  0.45977492
   0.94535583  0.55479482  0.45960155
Direct configuration=    19
   0.66932600 -0.00000854  0.10981120
   0.33072218  0.00001223  0.10983519
   0.00000854  0.33067300  0.10981120
  -0.00001223  0.66927682  0.10983519
   0.33074021  0.33072959  0.10984608
   0.66926941  0.66925879  0.10984608
   0.66665532  0.33334368  0.11216838
   0.33332516  0.66667384  0.10995954
   0.27915378  0.22370982  0.45954933
   0.44520752  0.05463946  0.45937239
   0.27759855  0.72240045  0.45924246
   0.44427230  0.55572670  0.45943319
   0.77655366  0.22344534  0.45949906
   0.94441277  0.05558623  0.45966900
   0.77628918  0.72084522  0.45954933
   0.94535954  0.55479148  0.45937239
Direct configuration=    20
   0.66932734 -0.00000856  0.11025156
   0.33072287  0.00001284  0.11027659
   0.00000856  0.33067166  0.11025156
  -0.00001284  0.66927613  0.11027659
   0.33074145  0.33073005  0.11028796
   0.66926895  0.66925755  0.11028796
   0.66665513  0.33334387  0.11274809
   0.33332482  0.66667418  0.11037057
   0.27917464  0.22372596  0.45909815
   0.44521420  0.05463205  0.45891406
   0.27759998  0.72239902  0.45877892
   0.44426671  0.55573229  0.45897728
   0.77654132  0.22345768  0.45904585
   0.94440876  0.05559024  0.45922264
   0.77627304  0.72082436  0.45909815
   0.94536695  0.55478480  0.45891406
Direct configuration=    21
   0.66933001 -0.00000861  0.11113227
   0.33072425  0.00001407  0.11115941
   0.00000861  0.33066899  0.11113227
  -0.00001407  0.66927475  0.11115941
   0.33074392  0.33073097  0.11117173
   0.66926803  0.66925508  0.11117173
   0.66665475  0.33334425  0.11390750
   0.33332415  0.66667485  0.11119262
   0.27921637  0.22375825  0.45819579
   0.44522757  0.05461722  0.45799741
   0.27760285  0.72239615  0.45785184
   0.44425553  0.55574347  0.45806547
   0.77651664  0.22348236  0.45813944
   0.94440074  0.05559826  0.45832991
   0.77624075  0.72078263  0.45819579
   0.94538178  0.55477143  0.45799741
Direct configuration=    22
   0.66933536 -0.00000871  0.11289369
   0.33072702  0.00001652  0.11292505
   0.00000871  0.33066364  0.11289369
  -0.00001652  0.66927198  0.11292505
   0.33074888  0.33073282  0.11293927
   0.66926618  0.66925012  0.11293927
   0.66665398  0.33334502  0.11622634
   0.33332281  0.66667619  0.11283672
   0.27929982  0.22382281  0.45639107
   0.44525431  0.05458757  0.45616410
   0.27760858  0.72239042  0.45599767
   0.44423318  0.55576582  0.45624184
   0.77646727  0.22353173  0.45632662
   0.94438470  0.05561430  0.45654445
   0.77617619  0.72069918  0.45639107
   0.94541143  0.55474469  0.45616410
Direct configuration=    23
   0.66934606 -0.00000892  0.11641653
   0.33073254  0.00002143  0.11645633
   0.00000892  0.33065294  0.11641653
  -0.00002143  0.66926646  0.11645633
   0.33075879  0.33073652  0.11647435
   0.66926248  0.66924021  0.11647435
   0.66665244  0.33334656  0.12086401
   0.33332012  0.66667888  0.11612493
   0.27946672  0.22395195  0.45278163
   0.44530779  0.05452827  0.45249748
   0.27762005  0.72237895  0.45228933
   0.44418848  0.55581052  0.45259458
   0.77636853  0.22363047  0.45270097
   0.94435262  0.05564638  0.45297354
   0.77604705  0.72053228  0.45278163
   0.94547073  0.55469121  0.45249748
Direct configuration=    24
   0.66936745 -0.00000932  0.12346222
   0.33074359  0.00003124  0.12351888
   0.00000932  0.33063155  0.12346222
  -0.00003124  0.66925541  0.12351888
   0.33077860  0.33074391  0.12354451
   0.66925509  0.66922040  0.12354451
   0.66664936  0.33334964  0.13013935
   0.33331474  0.66668426  0.12270133
   0.27980053  0.22421021  0.44556275
   0.44541474  0.05440965  0.44516425
   0.27764298  0.72235602  0.44487266
   0.44409908  0.55589992  0.44530005
   0.77617105  0.22382795  0.44544967
   0.94428846  0.05571054  0.44583171
   0.77578879  0.72019847  0.44556275
   0.94558935  0.55458426  0.44516425
Direct configuration=    25
   0.66941024 -0.00001013  0.13755359
   0.33076568  0.00005086  0.13764399
   0.00001013  0.33058876  0.13755359
  -0.00005086  0.66923332  0.13764399
   0.33081823  0.33075869  0.13768483
   0.66924031  0.66918077  0.13768483
   0.66664321  0.33335579  0.14869004
   0.33330398  0.66669502  0.13585415
   0.28046814  0.22472675  0.43112498
   0.44562864  0.05417243  0.43049779
   0.27768885  0.72231015  0.43003930
   0.44392028  0.55607872  0.43071101
   0.77577610  0.22422290  0.43094708
   0.94416013  0.05583887  0.43154805
   0.77527225  0.71953086  0.43112498
   0.94582657  0.55437036  0.43049779
Direct configuration=    26
   0.66949581 -0.00001176  0.16573633
   0.33080987  0.00009011  0.16589420
   0.00001176  0.33050319  0.16573633
  -0.00009011  0.66918913  0.16589420
   0.33089750  0.33078826  0.16596548
   0.66921074  0.66910150  0.16596548
   0.66663092  0.33336808  0.18579140
   0.33328246  0.66671654  0.16215978
   0.28180337  0.22575982  0.40224946
   0.44605645  0.05369799  0.40116487
   0.27778058  0.72221842  0.40037260
   0.44356268  0.55643632  0.40153293
   0.77498618  0.22501282  0.40194189
   0.94390349  0.05609551  0.40298073
   0.77423918  0.71819563  0.40224946
   0.94630101  0.55394255  0.40116487
Direct configuration=    27
   0.66944451 -0.00001078  0.14883949
   0.33078338  0.00006658  0.14895690
   0.00001078  0.33055449  0.14883949
  -0.00006658  0.66921562  0.14895690
   0.33084998  0.33077053  0.14900994
   0.66922847  0.66914902  0.14900994
   0.66663829  0.33336071  0.16354743
   0.33329536  0.66670364  0.14638835
   0.28100284  0.22514045  0.41956166
   0.44579996  0.05398244  0.41875130
   0.27772558  0.72227342  0.41815915
   0.44377708  0.55622192  0.41902653
   0.77545977  0.22453923  0.41933183
   0.94405736  0.05594164  0.42010814
   0.77485855  0.71899616  0.41956166
   0.94601656  0.55419904  0.41875130
Direct configuration=    28
   0.66947016 -0.00001127  0.15728791
   0.33079662  0.00007835  0.15742555
   0.00001127  0.33052884  0.15728791
  -0.00007835  0.66920238  0.15742555
   0.33087374  0.33077939  0.15748771
   0.66921961  0.66912526  0.15748771
   0.66663460  0.33336440  0.17466942
   0.33328891  0.66671009  0.15427407
   0.28140311  0.22545013  0.41090556
   0.44592820  0.05384021  0.40995808
   0.27775308  0.72224592  0.40926588
   0.44366988  0.55632912  0.41027973
   0.77522298  0.22477602  0.41063686
   0.94398042  0.05601858  0.41154444
   0.77454887  0.71859589  0.41090556
   0.94615879  0.55407080  0.40995808
Direct configuration=    29
   0.66948299 -0.00001151  0.16151212
   0.33080325  0.00008423  0.16165987
   0.00001151  0.33051601  0.16151212
  -0.00008423  0.66919575  0.16165987
   0.33088562  0.33078382  0.16172659
   0.66921518  0.66911338  0.16172659
   0.66663276  0.33336624  0.18023041
   0.33328568  0.66671332  0.15821693
   0.28160324  0.22560497  0.40657751
   0.44599233  0.05376910  0.40556148
   0.27776683  0.72223217  0.40481924
   0.44361628  0.55638272  0.40590633
   0.77510458  0.22489442  0.40628937
   0.94394196  0.05605704  0.40726258
   0.77439403  0.71839576  0.40657751
   0.94622990  0.55400667  0.40556148
