  16  16   0   4
  0.2062353E+02  0.5040000E-09  0.5040000E-09  0.1500000E-08  0.5000000E-15
  1.000000000000000E-004
  CAR 
 Lattice                                 
      9.26910379    -20.92354837  301     -0.25792805      1.00000000
    -20.924  0.0000E+00  0.0000E+00  0.0000E+00  0.0000E+00
    -20.823  0.0000E+00  0.0000E+00  0.0000E+00  0.0000E+00
    -20.722  0.0000E+00  0.0000E+00  0.0000E+00  0.0000E+00
    -20.622  0.0000E+00  0.0000E+00  0.0000E+00  0.0000E+00
    -20.521  0.0000E+00  0.0000E+00  0.0000E+00  0.0000E+00
    -20.420  0.0000E+00  0.0000E+00  0.0000E+00  0.0000E+00
    -20.320  0.0000E+00  0.0000E+00  0.0000E+00  0.0000E+00
    -20.219  0.0000E+00  0.0000E+00  0.0000E+00  0.0000E+00
    -20.118  0.2693E-18  0.2693E-18  0.2711E-19  0.2711E-19
    -20.018  0.1249E-13  0.1249E-13  0.1257E-14  0.1257E-14
    -19.917  0.7704E-10  0.7703E-10  0.7754E-11  0.7754E-11
    -19.816  0.7349E-07  0.7349E-07  0.7404E-08  0.7404E-08
    -19.716  0.1166E-04  0.1166E-04  0.1181E-05  0.1181E-05
    -19.615  0.3366E-03  0.3366E-03  0.3506E-04  0.3506E-04
    -19.515  0.2132E-02  0.2132E-02  0.2497E-03  0.2497E-03
    -19.414  0.4372E-02  0.4372E-02  0.6897E-03  0.6897E-03
    -19.313  0.4878E-02  0.4878E-02  0.1181E-02  0.1181E-02
    -19.213  0.5197E-02  0.5197E-02  0.1704E-02  0.1704E-02
    -19.112  0.4585E-02  0.4585E-02  0.2165E-02  0.2165E-02
    -19.011  0.5654E-02  0.5654E-02  0.2734E-02  0.2734E-02
    -18.911  0.4489E-02  0.4489E-02  0.3186E-02  0.3186E-02
    -18.810  0.4793E-02  0.4793E-02  0.3668E-02  0.3668E-02
    -18.709  0.6208E-02  0.6208E-02  0.4293E-02  0.4293E-02
    -18.609  0.4002E-02  0.4002E-02  0.4696E-02  0.4696E-02
    -18.508  0.4517E-02  0.4517E-02  0.5150E-02  0.5150E-02
    -18.407  0.6467E-02  0.6467E-02  0.5801E-02  0.5801E-02
    -18.307  0.5273E-02  0.5273E-02  0.6332E-02  0.6332E-02
    -18.206  0.3176E-02  0.3176E-02  0.6652E-02  0.6652E-02
    -18.106  0.5351E-02  0.5350E-02  0.7190E-02  0.7190E-02
    -18.005  0.7026E-02  0.7026E-02  0.7897E-02  0.7897E-02
    -17.904  0.4695E-02  0.4695E-02  0.8370E-02  0.8370E-02
    -17.804  0.3820E-02  0.3820E-02  0.8754E-02  0.8754E-02
    -17.703  0.3859E-02  0.3859E-02  0.9142E-02  0.9142E-02
    -17.602  0.7511E-02  0.7511E-02  0.9898E-02  0.9898E-02
    -17.502  0.6311E-02  0.6311E-02  0.1053E-01  0.1053E-01
    -17.401  0.3454E-02  0.3454E-02  0.1088E-01  0.1088E-01
    -17.300  0.3874E-02  0.3874E-02  0.1127E-01  0.1127E-01
    -17.200  0.4832E-02  0.4832E-02  0.1176E-01  0.1176E-01
    -17.099  0.7246E-02  0.7246E-02  0.1249E-01  0.1249E-01
    -16.999  0.6563E-02  0.6563E-02  0.1315E-01  0.1315E-01
    -16.898  0.4380E-02  0.4380E-02  0.1359E-01  0.1359E-01
    -16.797  0.2434E-02  0.2434E-02  0.1383E-01  0.1383E-01
    -16.697  0.4962E-02  0.4962E-02  0.1433E-01  0.1433E-01
    -16.596  0.7366E-02  0.7366E-02  0.1507E-01  0.1507E-01
    -16.495  0.6562E-02  0.6562E-02  0.1573E-01  0.1573E-01
    -16.395  0.5381E-02  0.5381E-02  0.1628E-01  0.1628E-01
    -16.294  0.4518E-02  0.4518E-02  0.1673E-01  0.1673E-01
    -16.193  0.2622E-02  0.2622E-02  0.1699E-01  0.1699E-01
    -16.093  0.4450E-02  0.4450E-02  0.1744E-01  0.1744E-01
    -15.992  0.1019E-01  0.1019E-01  0.1847E-01  0.1847E-01
    -15.891  0.1023E-01  0.1023E-01  0.1950E-01  0.1950E-01
    -15.791  0.1074E-01  0.1074E-01  0.2058E-01  0.2058E-01
    -15.690  0.1072E-01  0.1072E-01  0.2166E-01  0.2166E-01
    -15.590  0.1086E-01  0.1086E-01  0.2275E-01  0.2275E-01
    -15.489  0.1036E-01  0.1036E-01  0.2379E-01  0.2379E-01
    -15.388  0.1449E-01  0.1449E-01  0.2525E-01  0.2525E-01
    -15.288  0.1740E-01  0.1740E-01  0.2700E-01  0.2700E-01
    -15.187  0.1388E-01  0.1388E-01  0.2840E-01  0.2840E-01
    -15.086  0.1483E-01  0.1483E-01  0.2989E-01  0.2989E-01
    -14.986  0.1076E-01  0.1076E-01  0.3097E-01  0.3097E-01
    -14.885  0.9139E-02  0.9139E-02  0.3189E-01  0.3189E-01
    -14.784  0.7724E-02  0.7724E-02  0.3267E-01  0.3267E-01
    -14.684  0.1185E-01  0.1185E-01  0.3386E-01  0.3386E-01
    -14.583  0.1082E-01  0.1082E-01  0.3495E-01  0.3495E-01
    -14.482  0.1097E-01  0.1097E-01  0.3606E-01  0.3606E-01
    -14.382  0.1020E-01  0.1020E-01  0.3708E-01  0.3708E-01
    -14.281  0.8749E-02  0.8749E-02  0.3796E-01  0.3796E-01
    -14.181  0.1162E-01  0.1162E-01  0.3913E-01  0.3913E-01
    -14.080  0.1388E-01  0.1388E-01  0.4053E-01  0.4053E-01
    -13.979  0.1073E-01  0.1073E-01  0.4161E-01  0.4161E-01
    -13.879  0.6173E-02  0.6173E-02  0.4223E-01  0.4223E-01
    -13.778  0.4155E-02  0.4155E-02  0.4265E-01  0.4265E-01
    -13.677  0.3617E-02  0.3617E-02  0.4301E-01  0.4301E-01
    -13.577  0.6001E-02  0.6001E-02  0.4362E-01  0.4362E-01
    -13.476  0.7347E-02  0.7347E-02  0.4436E-01  0.4436E-01
    -13.375  0.5370E-02  0.5370E-02  0.4490E-01  0.4490E-01
    -13.275  0.5302E-02  0.5302E-02  0.4543E-01  0.4543E-01
    -13.174  0.7302E-02  0.7302E-02  0.4617E-01  0.4617E-01
    -13.073  0.7745E-02  0.7745E-02  0.4695E-01  0.4695E-01
    -12.973  0.7486E-02  0.7486E-02  0.4770E-01  0.4770E-01
    -12.872  0.6501E-02  0.6501E-02  0.4835E-01  0.4835E-01
    -12.772  0.8807E-02  0.8807E-02  0.4924E-01  0.4924E-01
    -12.671  0.1242E-01  0.1242E-01  0.5049E-01  0.5049E-01
    -12.570  0.1340E-01  0.1340E-01  0.5184E-01  0.5184E-01
    -12.470  0.1460E-01  0.1460E-01  0.5331E-01  0.5331E-01
    -12.369  0.1343E-01  0.1343E-01  0.5466E-01  0.5466E-01
    -12.268  0.1491E-01  0.1491E-01  0.5616E-01  0.5616E-01
    -12.168  0.1622E-01  0.1622E-01  0.5779E-01  0.5779E-01
    -12.067  0.1553E-01  0.1553E-01  0.5935E-01  0.5935E-01
    -11.966  0.1892E-01  0.1892E-01  0.6126E-01  0.6126E-01
    -11.866  0.1539E-01  0.1539E-01  0.6281E-01  0.6281E-01
    -11.765  0.9643E-02  0.9642E-02  0.6378E-01  0.6378E-01
    -11.664  0.7921E-02  0.7921E-02  0.6458E-01  0.6458E-01
    -11.564  0.6473E-02  0.6473E-02  0.6523E-01  0.6523E-01
    -11.463  0.6457E-02  0.6457E-02  0.6588E-01  0.6588E-01
    -11.363  0.5015E-02  0.5015E-02  0.6638E-01  0.6638E-01
    -11.262  0.4936E-02  0.4936E-02  0.6688E-01  0.6688E-01
    -11.161  0.5366E-02  0.5366E-02  0.6742E-01  0.6742E-01
    -11.061  0.3981E-02  0.3981E-02  0.6782E-01  0.6782E-01
    -10.960  0.6266E-02  0.6266E-02  0.6845E-01  0.6845E-01
    -10.859  0.9989E-02  0.9989E-02  0.6945E-01  0.6945E-01
    -10.759  0.1072E-01  0.1072E-01  0.7053E-01  0.7053E-01
    -10.658  0.9803E-02  0.9803E-02  0.7152E-01  0.7152E-01
    -10.557  0.1419E-01  0.1419E-01  0.7295E-01  0.7295E-01
    -10.457  0.1731E-01  0.1731E-01  0.7469E-01  0.7469E-01
    -10.356  0.1448E-01  0.1448E-01  0.7615E-01  0.7615E-01
    -10.255  0.7762E-02  0.7762E-02  0.7693E-01  0.7693E-01
    -10.155  0.7069E-02  0.7069E-02  0.7764E-01  0.7764E-01
    -10.054  0.1121E-01  0.1121E-01  0.7877E-01  0.7877E-01
     -9.954  0.1009E-01  0.1009E-01  0.7978E-01  0.7978E-01
     -9.853  0.1181E-01  0.1181E-01  0.8097E-01  0.8097E-01
     -9.752  0.7881E-02  0.7881E-02  0.8177E-01  0.8177E-01
     -9.652  0.1201E-01  0.1201E-01  0.8297E-01  0.8297E-01
     -9.551  0.1976E-01  0.1976E-01  0.8496E-01  0.8496E-01
     -9.450  0.1414E-01  0.1414E-01  0.8639E-01  0.8639E-01
     -9.350  0.1536E-01  0.1536E-01  0.8793E-01  0.8793E-01
     -9.249  0.1628E-01  0.1628E-01  0.8957E-01  0.8957E-01
     -9.148  0.1366E-01  0.1366E-01  0.9094E-01  0.9094E-01
     -9.048  0.1093E-01  0.1093E-01  0.9204E-01  0.9204E-01
     -8.947  0.1894E-01  0.1894E-01  0.9395E-01  0.9395E-01
     -8.846  0.2336E-01  0.2336E-01  0.9630E-01  0.9630E-01
     -8.746  0.9180E-02  0.9180E-02  0.9723E-01  0.9723E-01
     -8.645  0.4540E-02  0.4540E-02  0.9768E-01  0.9768E-01
     -8.545  0.1410E-01  0.1410E-01  0.9910E-01  0.9910E-01
     -8.444  0.2188E-01  0.2188E-01  0.1013E+00  0.1013E+00
     -8.343  0.1619E-01  0.1619E-01  0.1029E+00  0.1029E+00
     -8.243  0.1168E-01  0.1168E-01  0.1041E+00  0.1041E+00
     -8.142  0.1316E-01  0.1316E-01  0.1054E+00  0.1054E+00
     -8.041  0.9631E-02  0.9631E-02  0.1064E+00  0.1064E+00
     -7.941  0.1254E-01  0.1254E-01  0.1077E+00  0.1077E+00
     -7.840  0.2133E-01  0.2133E-01  0.1098E+00  0.1098E+00
     -7.739  0.2207E-01  0.2207E-01  0.1120E+00  0.1120E+00
     -7.639  0.1593E-01  0.1593E-01  0.1136E+00  0.1136E+00
     -7.538  0.1521E-01  0.1521E-01  0.1152E+00  0.1152E+00
     -7.437  0.1342E-01  0.1342E-01  0.1165E+00  0.1165E+00
     -7.337  0.1748E-01  0.1748E-01  0.1183E+00  0.1183E+00
     -7.236  0.2078E-01  0.2078E-01  0.1204E+00  0.1204E+00
     -7.136  0.1359E-01  0.1359E-01  0.1217E+00  0.1217E+00
     -7.035  0.1700E-01  0.1700E-01  0.1234E+00  0.1234E+00
     -6.934  0.2389E-01  0.2389E-01  0.1258E+00  0.1258E+00
     -6.834  0.2347E-01  0.2347E-01  0.1282E+00  0.1282E+00
     -6.733  0.2402E-01  0.2402E-01  0.1306E+00  0.1306E+00
     -6.632  0.3021E-01  0.3022E-01  0.1337E+00  0.1337E+00
     -6.532  0.3154E-01  0.3154E-01  0.1368E+00  0.1368E+00
     -6.431  0.2596E-01  0.2596E-01  0.1395E+00  0.1395E+00
     -6.330  0.1945E-01  0.1945E-01  0.1414E+00  0.1414E+00
     -6.230  0.1739E-01  0.1739E-01  0.1432E+00  0.1432E+00
     -6.129  0.1868E-01  0.1868E-01  0.1450E+00  0.1450E+00
     -6.029  0.1709E-01  0.1709E-01  0.1468E+00  0.1468E+00
     -5.928  0.1719E-01  0.1719E-01  0.1485E+00  0.1485E+00
     -5.827  0.1507E-01  0.1507E-01  0.1500E+00  0.1500E+00
     -5.727  0.1624E-01  0.1624E-01  0.1516E+00  0.1516E+00
     -5.626  0.1584E-01  0.1584E-01  0.1532E+00  0.1532E+00
     -5.525  0.1229E-01  0.1229E-01  0.1545E+00  0.1545E+00
     -5.425  0.1462E-01  0.1462E-01  0.1559E+00  0.1559E+00
     -5.324  0.1584E-01  0.1584E-01  0.1575E+00  0.1575E+00
     -5.223  0.1704E-01  0.1704E-01  0.1593E+00  0.1593E+00
     -5.123  0.1437E-01  0.1437E-01  0.1607E+00  0.1607E+00
     -5.022  0.1749E-01  0.1749E-01  0.1625E+00  0.1625E+00
     -4.921  0.2261E-01  0.2261E-01  0.1647E+00  0.1647E+00
     -4.821  0.1146E-01  0.1146E-01  0.1659E+00  0.1659E+00
     -4.720  0.7997E-02  0.7997E-02  0.1667E+00  0.1667E+00
     -4.620  0.1947E-01  0.1947E-01  0.1687E+00  0.1687E+00
     -4.519  0.2038E-01  0.2038E-01  0.1707E+00  0.1707E+00
     -4.418  0.1518E-01  0.1518E-01  0.1722E+00  0.1722E+00
     -4.318  0.1955E-01  0.1955E-01  0.1742E+00  0.1742E+00
     -4.217  0.2612E-01  0.2612E-01  0.1768E+00  0.1768E+00
     -4.116  0.2286E-01  0.2286E-01  0.1791E+00  0.1791E+00
     -4.016  0.2053E-01  0.2053E-01  0.1812E+00  0.1812E+00
     -3.915  0.2891E-01  0.2891E-01  0.1841E+00  0.1841E+00
     -3.814  0.2999E-01  0.2999E-01  0.1871E+00  0.1871E+00
     -3.714  0.2132E-01  0.2132E-01  0.1893E+00  0.1893E+00
     -3.613  0.1881E-01  0.1881E-01  0.1912E+00  0.1912E+00
     -3.512  0.1443E-01  0.1443E-01  0.1926E+00  0.1926E+00
     -3.412  0.1247E-01  0.1247E-01  0.1939E+00  0.1939E+00
     -3.311  0.9529E-02  0.9529E-02  0.1948E+00  0.1948E+00
     -3.211  0.8653E-02  0.8653E-02  0.1957E+00  0.1957E+00
     -3.110  0.1380E-01  0.1380E-01  0.1971E+00  0.1971E+00
     -3.009  0.1598E-01  0.1598E-01  0.1987E+00  0.1987E+00
     -2.909  0.1290E-01  0.1290E-01  0.2000E+00  0.2000E+00
     -2.808  0.1176E-01  0.1176E-01  0.2012E+00  0.2012E+00
     -2.707  0.9567E-02  0.9567E-02  0.2021E+00  0.2021E+00
     -2.607  0.1195E-01  0.1195E-01  0.2033E+00  0.2033E+00
     -2.506  0.1803E-01  0.1803E-01  0.2052E+00  0.2052E+00
     -2.405  0.1121E-01  0.1121E-01  0.2063E+00  0.2063E+00
     -2.305  0.6852E-02  0.6852E-02  0.2070E+00  0.2070E+00
     -2.204  0.1196E-01  0.1196E-01  0.2082E+00  0.2082E+00
     -2.103  0.9814E-02  0.9814E-02  0.2092E+00  0.2092E+00
     -2.003  0.5865E-02  0.5865E-02  0.2098E+00  0.2098E+00
     -1.902  0.6848E-02  0.6848E-02  0.2105E+00  0.2105E+00
     -1.802  0.9108E-02  0.9108E-02  0.2114E+00  0.2114E+00
     -1.701  0.6336E-02  0.6336E-02  0.2120E+00  0.2120E+00
     -1.600  0.8028E-02  0.8028E-02  0.2128E+00  0.2128E+00
     -1.500  0.9775E-02  0.9775E-02  0.2138E+00  0.2138E+00
     -1.399  0.4846E-02  0.4846E-02  0.2143E+00  0.2143E+00
     -1.298  0.5472E-02  0.5472E-02  0.2148E+00  0.2148E+00
     -1.198  0.7318E-02  0.7318E-02  0.2156E+00  0.2156E+00
     -1.097  0.5794E-02  0.5794E-02  0.2162E+00  0.2162E+00
     -0.996  0.6183E-02  0.6183E-02  0.2168E+00  0.2168E+00
     -0.896  0.4598E-02  0.4598E-02  0.2172E+00  0.2172E+00
     -0.795  0.2429E-02  0.2429E-02  0.2175E+00  0.2175E+00
     -0.694  0.1138E-02  0.1138E-02  0.2176E+00  0.2176E+00
     -0.594  0.2981E-02  0.2981E-02  0.2179E+00  0.2179E+00
     -0.493  0.3978E-02  0.3978E-02  0.2183E+00  0.2183E+00
     -0.393  0.1461E-02  0.1461E-02  0.2184E+00  0.2184E+00
     -0.292  0.1781E-02  0.1781E-02  0.2186E+00  0.2186E+00
     -0.191  0.4459E-02  0.4459E-02  0.2191E+00  0.2191E+00
     -0.091  0.4719E-02  0.4719E-02  0.2195E+00  0.2195E+00
      0.010  0.4956E-02  0.4956E-02  0.2200E+00  0.2200E+00
      0.111  0.6234E-02  0.6234E-02  0.2207E+00  0.2207E+00
      0.211  0.7506E-02  0.7506E-02  0.2214E+00  0.2214E+00
      0.312  0.1209E-01  0.1209E-01  0.2226E+00  0.2226E+00
      0.413  0.1068E-01  0.1068E-01  0.2237E+00  0.2237E+00
      0.513  0.8168E-02  0.8168E-02  0.2245E+00  0.2245E+00
      0.614  0.9878E-02  0.9878E-02  0.2255E+00  0.2255E+00
      0.715  0.1041E-01  0.1041E-01  0.2266E+00  0.2266E+00
      0.815  0.6105E-02  0.6105E-02  0.2272E+00  0.2272E+00
      0.916  0.4790E-02  0.4790E-02  0.2277E+00  0.2277E+00
      1.016  0.8876E-02  0.8876E-02  0.2286E+00  0.2286E+00
      1.117  0.1669E-01  0.1669E-01  0.2303E+00  0.2303E+00
      1.218  0.1930E-01  0.1930E-01  0.2322E+00  0.2322E+00
      1.318  0.1623E-01  0.1623E-01  0.2338E+00  0.2338E+00
      1.419  0.9196E-02  0.9196E-02  0.2348E+00  0.2348E+00
      1.520  0.8670E-02  0.8670E-02  0.2356E+00  0.2356E+00
      1.620  0.1018E-01  0.1018E-01  0.2367E+00  0.2367E+00
      1.721  0.8238E-02  0.8238E-02  0.2375E+00  0.2375E+00
      1.822  0.1103E-01  0.1103E-01  0.2386E+00  0.2386E+00
      1.922  0.1447E-01  0.1447E-01  0.2401E+00  0.2401E+00
      2.023  0.1666E-01  0.1666E-01  0.2417E+00  0.2417E+00
      2.124  0.1186E-01  0.1186E-01  0.2429E+00  0.2429E+00
      2.224  0.4255E-02  0.4255E-02  0.2433E+00  0.2433E+00
      2.325  0.7367E-02  0.7367E-02  0.2441E+00  0.2441E+00
      2.425  0.1051E-01  0.1051E-01  0.2451E+00  0.2451E+00
      2.526  0.1232E-01  0.1232E-01  0.2464E+00  0.2464E+00
      2.627  0.1652E-01  0.1652E-01  0.2481E+00  0.2481E+00
      2.727  0.1664E-01  0.1664E-01  0.2497E+00  0.2497E+00
      2.828  0.1383E-01  0.1383E-01  0.2511E+00  0.2511E+00
      2.929  0.1276E-01  0.1276E-01  0.2524E+00  0.2524E+00
      3.029  0.1104E-01  0.1104E-01  0.2535E+00  0.2535E+00
      3.130  0.1660E-01  0.1660E-01  0.2552E+00  0.2552E+00
      3.231  0.2114E-01  0.2114E-01  0.2573E+00  0.2573E+00
      3.331  0.1791E-01  0.1791E-01  0.2591E+00  0.2591E+00
      3.432  0.1837E-01  0.1837E-01  0.2610E+00  0.2610E+00
      3.532  0.2511E-01  0.2511E-01  0.2635E+00  0.2635E+00
      3.633  0.2834E-01  0.2834E-01  0.2663E+00  0.2663E+00
      3.734  0.1972E-01  0.1972E-01  0.2683E+00  0.2683E+00
      3.834  0.1533E-01  0.1533E-01  0.2699E+00  0.2699E+00
      3.935  0.1885E-01  0.1885E-01  0.2718E+00  0.2718E+00
      4.036  0.2034E-01  0.2034E-01  0.2738E+00  0.2738E+00
      4.136  0.1747E-01  0.1748E-01  0.2756E+00  0.2756E+00
      4.237  0.2202E-01  0.2202E-01  0.2778E+00  0.2778E+00
      4.338  0.2211E-01  0.2211E-01  0.2800E+00  0.2800E+00
      4.438  0.2049E-01  0.2050E-01  0.2821E+00  0.2821E+00
      4.539  0.2421E-01  0.2421E-01  0.2845E+00  0.2845E+00
      4.640  0.2794E-01  0.2793E-01  0.2873E+00  0.2873E+00
      4.740  0.2480E-01  0.2479E-01  0.2898E+00  0.2898E+00
      4.841  0.2109E-01  0.2109E-01  0.2919E+00  0.2919E+00
      4.941  0.1680E-01  0.1681E-01  0.2936E+00  0.2936E+00
      5.042  0.2708E-01  0.2708E-01  0.2964E+00  0.2964E+00
      5.143  0.2796E-01  0.2796E-01  0.2992E+00  0.2992E+00
      5.243  0.2221E-01  0.2221E-01  0.3014E+00  0.3014E+00
      5.344  0.2658E-01  0.2658E-01  0.3041E+00  0.3041E+00
      5.445  0.3126E-01  0.3126E-01  0.3072E+00  0.3072E+00
      5.545  0.2793E-01  0.2792E-01  0.3100E+00  0.3100E+00
      5.646  0.2754E-01  0.2754E-01  0.3128E+00  0.3128E+00
      5.747  0.2231E-01  0.2231E-01  0.3151E+00  0.3151E+00
      5.847  0.1294E-01  0.1294E-01  0.3164E+00  0.3164E+00
      5.948  0.2319E-01  0.2318E-01  0.3187E+00  0.3187E+00
      6.049  0.3427E-01  0.3427E-01  0.3221E+00  0.3221E+00
      6.149  0.2935E-01  0.2934E-01  0.3251E+00  0.3251E+00
      6.250  0.3305E-01  0.3304E-01  0.3284E+00  0.3284E+00
      6.350  0.3407E-01  0.3408E-01  0.3319E+00  0.3319E+00
      6.451  0.2528E-01  0.2529E-01  0.3344E+00  0.3344E+00
      6.552  0.2581E-01  0.2580E-01  0.3370E+00  0.3370E+00
      6.652  0.2895E-01  0.2895E-01  0.3399E+00  0.3399E+00
      6.753  0.2641E-01  0.2641E-01  0.3426E+00  0.3426E+00
      6.854  0.3583E-01  0.3582E-01  0.3462E+00  0.3462E+00
      6.954  0.3922E-01  0.3922E-01  0.3501E+00  0.3501E+00
      7.055  0.3369E-01  0.3369E-01  0.3535E+00  0.3535E+00
      7.156  0.3097E-01  0.3097E-01  0.3566E+00  0.3566E+00
      7.256  0.2642E-01  0.2643E-01  0.3593E+00  0.3593E+00
      7.357  0.3308E-01  0.3308E-01  0.3626E+00  0.3626E+00
      7.458  0.3907E-01  0.3908E-01  0.3665E+00  0.3665E+00
      7.558  0.2847E-01  0.2847E-01  0.3694E+00  0.3694E+00
      7.659  0.2181E-01  0.2181E-01  0.3716E+00  0.3716E+00
      7.759  0.1978E-01  0.1979E-01  0.3736E+00  0.3736E+00
      7.860  0.1008E-01  0.1008E-01  0.3746E+00  0.3746E+00
      7.961  0.3170E-02  0.3172E-02  0.3749E+00  0.3749E+00
      8.061  0.6359E-03  0.6383E-03  0.3750E+00  0.3750E+00
      8.162  0.3229E-04  0.3255E-04  0.3750E+00  0.3750E+00
      8.263  0.2777E-06  0.2811E-06  0.3750E+00  0.3750E+00
      8.363  0.3553E-09  0.3612E-09  0.3750E+00  0.3750E+00
      8.464  0.6412E-13  0.6547E-13  0.3750E+00  0.3750E+00
      8.565  0.1436E-17  0.1436E-17  0.3750E+00  0.3750E+00
      8.665  0.0000E+00  0.0000E+00  0.3750E+00  0.3750E+00
      8.766  0.0000E+00  0.0000E+00  0.3750E+00  0.3750E+00
      8.867  0.0000E+00  0.0000E+00  0.3750E+00  0.3750E+00
      8.967  0.0000E+00  0.0000E+00  0.3750E+00  0.3750E+00
      9.068  0.0000E+00  0.0000E+00  0.3750E+00  0.3750E+00
      9.168  0.0000E+00  0.0000E+00  0.3750E+00  0.3750E+00
      9.269  0.0000E+00  0.0000E+00  0.3750E+00  0.3750E+00
