Lattice                                 
           1
     4.364768    2.520000    0.000000
    -4.364768    2.520000    0.000000
     0.000000    0.000000   15.000000
   B    C 
     8     8
Direct configuration=     1
   0.66888689  0.00000000  0.10000000
   0.33111211  0.00000000  0.10000000
   0.00000000  0.33111211  0.10000000
   0.00000000  0.66888689  0.10000000
   0.33111211  0.33111211  0.10000000
   0.66888689  0.66888689  0.10000000
   0.66666600  0.33333300  0.09922189
   0.33333300  0.66666600  0.10077811
   0.24999933  0.24999967  0.46906667
   0.41666633  0.08333267  0.46906667
   0.24999933  0.74999967  0.46906667
   0.41666633  0.58333267  0.46906667
   0.74999933  0.24999967  0.46906667
   0.91666633  0.08333267  0.46906667
   0.74999933  0.74999967  0.46906667
   0.91666633  0.58333267  0.46906667
Direct configuration=     2
   0.66910768 -0.00000020  0.10002592
   0.33089144 -0.00000020  0.10002601
   0.00000020  0.33089132  0.10002592
   0.00000020  0.66910756  0.10002601
   0.33089112  0.33089110  0.10002602
   0.66910790  0.66910788  0.10002602
   0.66666605  0.33333295  0.09925988
   0.33333256  0.66666644  0.10080000
   0.24999520  0.24999510  0.46903997
   0.41666313  0.08333417  0.46903941
   0.24999890  0.75000010  0.46903901
   0.41666710  0.58333190  0.46903966
   0.75000212  0.24999688  0.46903980
   0.91666734  0.08333166  0.46904032
   0.75000390  0.75000380  0.46903997
   0.91666483  0.58333587  0.46903941
Direct configuration=     3
   0.66905901 -0.00000015  0.10002021
   0.33094008 -0.00000016  0.10002027
   0.00000015  0.33093999  0.10002021
   0.00000016  0.66905892  0.10002027
   0.33093983  0.33093981  0.10002029
   0.66905919  0.66905917  0.10002029
   0.66666604  0.33333296  0.09925151
   0.33333265  0.66666635  0.10079518
   0.24999611  0.24999611  0.46904585
   0.41666384  0.08333384  0.46904542
   0.24999900  0.75000000  0.46904511
   0.41666693  0.58333207  0.46904561
   0.75000151  0.24999749  0.46904572
   0.91666712  0.08333188  0.46904613
   0.75000289  0.75000289  0.46904585
   0.91666516  0.58333516  0.46904542
Direct configuration=     4
   0.66905996 -0.00000019  0.10005423
   0.33093937 -0.00000011  0.10005440
   0.00000019  0.33093904  0.10005423
   0.00000011  0.66905963  0.10005440
   0.33093916  0.33093908  0.10005443
   0.66905992  0.66905984  0.10005443
   0.66666598  0.33333302  0.09930165
   0.33333262  0.66666638  0.10082314
   0.25000036  0.25000174  0.46901078
   0.41666771  0.08333131  0.46900981
   0.24999882  0.75000018  0.46900915
   0.41666637  0.58333263  0.46901023
   0.74999764  0.25000136  0.46901047
   0.91666650  0.08333250  0.46901139
   0.74999726  0.74999864  0.46901078
   0.91666769  0.58333129  0.46900981
Direct configuration=     5
   0.66906281 -0.00000028  0.10015629
   0.33093724  0.00000004  0.10015679
   0.00000028  0.33093619  0.10015629
  -0.00000004  0.66906176  0.10015679
   0.33093716  0.33093689  0.10015686
   0.66906211  0.66906184  0.10015686
   0.66666581  0.33333319  0.09945208
   0.33333251  0.66666649  0.10090702
   0.25001312  0.25001864  0.46890557
   0.41667934  0.08332372  0.46890300
   0.24999830  0.75000070  0.46890127
   0.41666470  0.58333430  0.46890406
   0.74998604  0.25001296  0.46890472
   0.91666466  0.08333434  0.46890716
   0.74998036  0.74998588  0.46890557
   0.91667528  0.58331966  0.46890300
Direct configuration=     6
   0.66906852 -0.00000047  0.10036042
   0.33093299  0.00000034  0.10036156
   0.00000047  0.33093048  0.10036042
  -0.00000034  0.66906601  0.10036156
   0.33093315  0.33093250  0.10036173
   0.66906650  0.66906585  0.10036173
   0.66666546  0.33333354  0.09975293
   0.33333228  0.66666672  0.10107478
   0.25003862  0.25005243  0.46869514
   0.41670259  0.08330854  0.46868937
   0.24999726  0.75000174  0.46868551
   0.41666134  0.58333766  0.46869172
   0.74996283  0.25003617  0.46869323
   0.91666097  0.08333803  0.46869871
   0.74994657  0.74996038  0.46869514
   0.91669046  0.58329641  0.46868937
Direct configuration=     7
   0.66907992 -0.00000085  0.10076868
   0.33092448  0.00000094  0.10077110
   0.00000085  0.33091908  0.10076868
  -0.00000094  0.66907452  0.10077110
   0.33092515  0.33092371  0.10077147
   0.66907529  0.66907385  0.10077147
   0.66666476  0.33333424  0.10035463
   0.33333184  0.66666716  0.10141031
   0.25008964  0.25012002  0.46827430
   0.41674909  0.08327819  0.46826210
   0.24999517  0.75000383  0.46825398
   0.41665464  0.58334436  0.46826705
   0.74991641  0.25008259  0.46827025
   0.91665359  0.08334541  0.46828180
   0.74987898  0.74990936  0.46827430
   0.91672081  0.58324991  0.46826210
Direct configuration=     8
   0.66910272 -0.00000161  0.10158521
   0.33090747  0.00000214  0.10159018
   0.00000161  0.33089628  0.10158521
  -0.00000214  0.66909153  0.10159018
   0.33090913  0.33090615  0.10159094
   0.66909285  0.66908987  0.10159094
   0.66666336  0.33333564  0.10155804
   0.33333095  0.66666805  0.10208136
   0.25019167  0.25025520  0.46743261
   0.41684210  0.08321749  0.46740757
   0.24999099  0.75000801  0.46739094
   0.41664123  0.58335777  0.46741771
   0.74982359  0.25017541  0.46742429
   0.91663884  0.08336016  0.46744799
   0.74974380  0.74980733  0.46743261
   0.91678151  0.58315690  0.46740757
Direct configuration=     9
   0.66914833 -0.00000312  0.10321825
   0.33087343  0.00000454  0.10322833
   0.00000312  0.33085067  0.10321825
  -0.00000454  0.66912557  0.10322833
   0.33087710  0.33087103  0.10322989
   0.66912797  0.66912190  0.10322989
   0.66666056  0.33333844  0.10396487
   0.33332917  0.66666983  0.10342346
   0.25039574  0.25052555  0.46574922
   0.41702811  0.08309609  0.46569851
   0.24998263  0.75001637  0.46566484
   0.41661441  0.58338459  0.46571903
   0.74963793  0.25036107  0.46573236
   0.91660934  0.08338966  0.46578037
   0.74947345  0.74960326  0.46574922
   0.91690291  0.58297089  0.46569851
Direct configuration=    10
   0.66923954 -0.00000616  0.10648433
   0.33080536  0.00000933  0.10650465
   0.00000616  0.33075946  0.10648433
  -0.00000933  0.66919364  0.10650465
   0.33081304  0.33080077  0.10650778
   0.66919823  0.66918596  0.10650778
   0.66665496  0.33334404  0.10877851
   0.33332562  0.66667338  0.10610766
   0.25080387  0.25106626  0.46238245
   0.41740013  0.08285327  0.46228039
   0.24996591  0.75003309  0.46221266
   0.41656077  0.58343823  0.46232167
   0.74926662  0.25073238  0.46234851
   0.91655033  0.08344867  0.46244513
   0.74893274  0.74919513  0.46238245
   0.91714573  0.58259887  0.46228039
Direct configuration=    11
   0.66942197 -0.00001222  0.11301650
   0.33066923  0.00001893  0.11305728
   0.00001222  0.33057703  0.11301650
  -0.00001893  0.66932977  0.11305728
   0.33068492  0.33066027  0.11306356
   0.66933873  0.66931408  0.11306356
   0.66664377  0.33335523  0.11840579
   0.33331850  0.66668050  0.11147606
   0.25162013  0.25214769  0.45564890
   0.41814418  0.08236765  0.45544415
   0.24993248  0.75006652  0.45530828
   0.41645350  0.58354550  0.45552695
   0.74852400  0.25147500  0.45558080
   0.91643231  0.08356669  0.45577465
   0.74785131  0.74837887  0.45564890
   0.91763135  0.58185482  0.45544415
Direct configuration=    12
   0.66932078 -0.00000886  0.10939320
   0.33074474  0.00001360  0.10942263
   0.00000886  0.33067822  0.10939320
  -0.00001360  0.66925426  0.10942263
   0.33075599  0.33073820  0.10942716
   0.66926080  0.66924301  0.10942716
   0.66664998  0.33334902  0.11306567
   0.33332245  0.66667655  0.10849828
   0.25116736  0.25154784  0.45938391
   0.41773147  0.08263702  0.45923612
   0.24995103  0.75004797  0.45913805
   0.41651300  0.58348600  0.45929589
   0.74893592  0.25106308  0.45933475
   0.91649777  0.08350123  0.45947468
   0.74845116  0.74883164  0.45938391
   0.91736198  0.58226753  0.45923612
Direct configuration=    13
   0.66932080 -0.00000885  0.10939491
   0.33074473  0.00001361  0.10942435
   0.00000885  0.33067820  0.10939491
  -0.00001361  0.66925427  0.10942435
   0.33075598  0.33073819  0.10942888
   0.66926081  0.66924302  0.10942888
   0.66664997  0.33334903  0.11306819
   0.33332245  0.66667655  0.10849969
   0.25116742  0.25154789  0.45938214
   0.41773150  0.08263701  0.45923432
   0.24995104  0.75004796  0.45913624
   0.41651298  0.58348602  0.45929411
   0.74893589  0.25106311  0.45933298
   0.91649775  0.08350125  0.45947292
   0.74845111  0.74883158  0.45938214
   0.91736199  0.58226750  0.45923432
Direct configuration=    14
   0.66932088 -0.00000885  0.10940007
   0.33074469  0.00001362  0.10942952
   0.00000885  0.33067812  0.10940007
  -0.00001362  0.66925431  0.10942952
   0.33075594  0.33073813  0.10943405
   0.66926087  0.66924306  0.10943405
   0.66664997  0.33334903  0.11307576
   0.33332244  0.66667656  0.10850391
   0.25116759  0.25154803  0.45937682
   0.41773158  0.08263699  0.45922894
   0.24995108  0.75004792  0.45913081
   0.41651292  0.58348608  0.45928875
   0.74893582  0.25106318  0.45932764
   0.91649768  0.08350132  0.45946766
   0.74845097  0.74883141  0.45937682
   0.91736201  0.58226742  0.45922894
Direct configuration=    15
   0.66932103 -0.00000883  0.10941037
   0.33074462  0.00001365  0.10943985
   0.00000883  0.33067797  0.10941037
  -0.00001365  0.66925438  0.10943985
   0.33075588  0.33073802  0.10944440
   0.66926098  0.66924312  0.10944440
   0.66664996  0.33334904  0.11309089
   0.33332243  0.66667657  0.10851235
   0.25116793  0.25154833  0.45936620
   0.41773175  0.08263694  0.45921818
   0.24995117  0.75004783  0.45911995
   0.41651280  0.58348620  0.45927804
   0.74893567  0.25106333  0.45931697
   0.91649754  0.08350146  0.45945712
   0.74845067  0.74883107  0.45936620
   0.91736206  0.58226725  0.45921818
Direct configuration=    16
   0.66932134 -0.00000881  0.10943098
   0.33074447  0.00001371  0.10946053
   0.00000881  0.33067766  0.10943098
  -0.00001371  0.66925453  0.10946053
   0.33075574  0.33073781  0.10946508
   0.66926119  0.66924326  0.10946508
   0.66664995  0.33334905  0.11312115
   0.33332241  0.66667659  0.10852924
   0.25116861  0.25154892  0.45934496
   0.41773210  0.08263684  0.45919665
   0.24995134  0.75004766  0.45909823
   0.41651256  0.58348644  0.45925663
   0.74893536  0.25106364  0.45929563
   0.91649726  0.08350174  0.45943605
   0.74845008  0.74883039  0.45934496
   0.91736216  0.58226690  0.45919665
Direct configuration=    17
   0.66932194 -0.00000876  0.10947221
   0.33074417  0.00001382  0.10950187
   0.00000876  0.33067706  0.10947221
  -0.00001382  0.66925483  0.10950187
   0.33075547  0.33073738  0.10950645
   0.66926162  0.66924353  0.10950645
   0.66664992  0.33334908  0.11318168
   0.33332237  0.66667663  0.10856301
   0.25116998  0.25155009  0.45930247
   0.41773279  0.08263665  0.45915359
   0.24995169  0.75004731  0.45905480
   0.41651207  0.58348693  0.45921380
   0.74893476  0.25106424  0.45925296
   0.91649670  0.08350230  0.45939392
   0.74844891  0.74882902  0.45930247
   0.91736235  0.58226621  0.45915359
Direct configuration=    18
   0.66932316 -0.00000865  0.10955465
   0.33074357  0.00001405  0.10958457
   0.00000865  0.33067584  0.10955465
  -0.00001405  0.66925543  0.10958457
   0.33075492  0.33073651  0.10958918
   0.66926249  0.66924408  0.10958918
   0.66664986  0.33334914  0.11330274
   0.33332230  0.66667670  0.10863054
   0.25117272  0.25155245  0.45921750
   0.41773417  0.08263627  0.45906748
   0.24995239  0.75004661  0.45896793
   0.41651111  0.58348789  0.45912814
   0.74893354  0.25106546  0.45916760
   0.91649557  0.08350343  0.45930964
   0.74844655  0.74882628  0.45921750
   0.91736273  0.58226483  0.45906748
Direct configuration=    19
   0.66932560 -0.00000844  0.10971954
   0.33074236  0.00001451  0.10974996
   0.00000844  0.33067340  0.10971954
  -0.00001451  0.66925664  0.10974996
   0.33075384  0.33073479  0.10975465
   0.66926421  0.66924516  0.10975465
   0.66664974  0.33334926  0.11354486
   0.33332214  0.66667686  0.10876561
   0.25117819  0.25155716  0.45904755
   0.41773693  0.08263550  0.45889524
   0.24995377  0.75004523  0.45879419
   0.41650917  0.58348983  0.45895682
   0.74893111  0.25106789  0.45899689
   0.91649333  0.08350567  0.45914109
   0.74844184  0.74882081  0.45904755
   0.91736350  0.58226207  0.45889524
Direct configuration=    20
   0.66933047 -0.00000802  0.11004931
   0.33073996  0.00001543  0.11008074
   0.00000802  0.33066853  0.11004931
  -0.00001543  0.66925904  0.11008074
   0.33075166  0.33073134  0.11008558
   0.66926766  0.66924734  0.11008558
   0.66664950  0.33334950  0.11402910
   0.33332183  0.66667717  0.10903576
   0.25118913  0.25156658  0.45870765
   0.41774246  0.08263396  0.45855078
   0.24995655  0.75004245  0.45844671
   0.41650530  0.58349370  0.45861418
   0.74892625  0.25107275  0.45865547
   0.91648883  0.08351017  0.45880400
   0.74843242  0.74880987  0.45870765
   0.91736504  0.58225654  0.45855078
Direct configuration=    21
   0.66934022 -0.00000718  0.11070886
   0.33073516  0.00001726  0.11074230
   0.00000718  0.33065878  0.11070886
  -0.00001726  0.66926384  0.11074230
   0.33074732  0.33072444  0.11074745
   0.66927456  0.66925168  0.11074745
   0.66664901  0.33334999  0.11499757
   0.33332121  0.66667779  0.10957605
   0.25121101  0.25158542  0.45802785
   0.41775351  0.08263087  0.45786186
   0.24996209  0.75003691  0.45775175
   0.41649756  0.58350144  0.45792889
   0.74891653  0.25108247  0.45797263
   0.91647985  0.08351915  0.45812981
   0.74841358  0.74878799  0.45802785
   0.91736813  0.58224549  0.45786186
Direct configuration=    22
   0.66935971 -0.00000549  0.11202795
   0.33072556  0.00002092  0.11206541
   0.00000549  0.33063929  0.11202795
  -0.00002092  0.66927344  0.11206541
   0.33073862  0.33071064  0.11207119
   0.66928836  0.66926038  0.11207119
   0.66664804  0.33335096  0.11693452
   0.33331997  0.66667903  0.11065662
   0.25125478  0.25162309  0.45666826
   0.41777561  0.08262471  0.45648402
   0.24997319  0.75002581  0.45636184
   0.41648208  0.58351692  0.45655832
   0.74889708  0.25110192  0.45660695
   0.91646188  0.08353712  0.45678143
   0.74837591  0.74874422  0.45666826
   0.91737429  0.58222339  0.45648402
Direct configuration=    23
   0.66939870 -0.00000212  0.11466614
   0.33070636  0.00002825  0.11471165
   0.00000212  0.33060030  0.11466614
  -0.00002825  0.66929264  0.11471165
   0.33072123  0.33068303  0.11471866
   0.66931597  0.66927777  0.11471866
   0.66664611  0.33335289  0.12080841
   0.33331748  0.66668152  0.11281778
   0.25134232  0.25169844  0.45394907
   0.41781981  0.08261239  0.45372833
   0.24999538  0.75000362  0.45358201
   0.41645113  0.58354787  0.45381719
   0.74885820  0.25114080  0.45387559
   0.91642593  0.08357307  0.45408467
   0.74830056  0.74865668  0.45394907
   0.91738661  0.58217919  0.45372833
Direct configuration=    24
   0.66947667  0.00000461  0.11994251
   0.33066796  0.00004290  0.12000412
  -0.00000461  0.33052233  0.11994251
  -0.00004290  0.66933104  0.12000412
   0.33068645  0.33062782  0.12001360
   0.66937118  0.66931255  0.12001360
   0.66664224  0.33335676  0.12855619
   0.33331251  0.66668649  0.11714009
   0.25151740  0.25184915  0.44851070
   0.41790822  0.08258774  0.44821695
   0.25003975  0.74995925  0.44802236
   0.41638921  0.58360979  0.44833492
   0.74878042  0.25121858  0.44841286
   0.91635405  0.08364495  0.44869116
   0.74814985  0.74848160  0.44851070
   0.91741126  0.58209078  0.44821695
Direct configuration=    25
   0.66963261  0.00001808  0.13049527
   0.33059115  0.00007220  0.13058906
  -0.00001808  0.33036639  0.13049527
  -0.00007220  0.66940785  0.13058906
   0.33061690  0.33051741  0.13060349
   0.66948159  0.66938210  0.13060349
   0.66663451  0.33336449  0.14405175
   0.33330256  0.66669644  0.12578471
   0.25186755  0.25215055  0.43763395
   0.41808502  0.08253844  0.43719419
   0.25012851  0.74987049  0.43690306
   0.41626538  0.58373362  0.43737038
   0.74862487  0.25137413  0.43748741
   0.91621028  0.08378872  0.43790412
   0.74784845  0.74813145  0.43763395
   0.91746056  0.58191398  0.43719419
Direct configuration=    26
   0.66994450  0.00004503  0.15160077
   0.33043753  0.00013080  0.15175894
  -0.00004503  0.33005450  0.15160077
  -0.00013080  0.66956147  0.15175894
   0.33047778  0.33029657  0.15178327
   0.66970243  0.66952122  0.15178327
   0.66661904  0.33337996  0.17504288
   0.33328267  0.66671633  0.14307394
   0.25256785  0.25275337  0.41588044
   0.41843864  0.08243984  0.41514867
   0.25030602  0.74969298  0.41466445
   0.41601772  0.58398128  0.41544130
   0.74831378  0.25168522  0.41563651
   0.91592274  0.08407626  0.41633005
   0.74724563  0.74743115  0.41588044
   0.91755916  0.58156036  0.41514867
Direct configuration=    27
   0.67007482  0.00005629  0.16042001
   0.33037334  0.00015529  0.16060508
  -0.00005629  0.32992418  0.16042001
  -0.00015529  0.66962566  0.16060508
   0.33041965  0.33020429  0.16063355
   0.66979471  0.66957935  0.16063355
   0.66661258  0.33338642  0.18799297
   0.33327436  0.66672464  0.15029850
   0.25286048  0.25300526  0.40679043
   0.41858640  0.08239864  0.40593663
   0.25038020  0.74961880  0.40537173
   0.41591423  0.58408477  0.40627791
   0.74818378  0.25181522  0.40650580
   0.91580259  0.08419641  0.40731502
   0.74699374  0.74713852  0.40679043
   0.91760036  0.58141260  0.40593663
Direct configuration=    28
   0.66996416  0.00004673  0.15293107
   0.33042785  0.00013449  0.15309329
  -0.00004673  0.33003484  0.15293107
  -0.00013449  0.66957115  0.15309329
   0.33046901  0.33028265  0.15311825
   0.66971635  0.66952999  0.15311825
   0.66661807  0.33338093  0.17699628
   0.33328142  0.66671758  0.14416370
   0.25261199  0.25279136  0.41450930
   0.41846093  0.08243363  0.41375912
   0.25031721  0.74968179  0.41326274
   0.41600210  0.58399690  0.41405909
   0.74829417  0.25170483  0.41425923
   0.91590462  0.08409438  0.41497022
   0.74720764  0.74738701  0.41450930
   0.91756537  0.58153807  0.41375912
Direct configuration=    29
   0.66990267  0.00018289  0.15685790
   0.33064247  0.00027156  0.15703164
  -0.00018289  0.33009633  0.15685790
  -0.00027156  0.66935653  0.15703164
   0.33068209  0.33034414  0.15706076
   0.66965486  0.66931691  0.15706076
   0.66661793  0.33338107  0.18264948
   0.33327498  0.66672402  0.14736144
   0.25236655  0.25249111  0.41046964
   0.41824085  0.08257168  0.40968277
   0.25031567  0.74968333  0.40915997
   0.41603940  0.58395960  0.40999658
   0.74850383  0.25149517  0.41020779
   0.91593761  0.08406139  0.41095264
   0.74750789  0.74763245  0.41046964
   0.91742732  0.58175815  0.40968277
Direct configuration=    30
   0.66986636  0.00026329  0.15917681
   0.33076920  0.00035250  0.15935735
  -0.00026329  0.33013264  0.15917681
  -0.00035250  0.66922980  0.15935735
   0.33080791  0.33038045  0.15938892
   0.66961855  0.66919109  0.15938892
   0.66661785  0.33338115  0.18598785
   0.33327118  0.66672782  0.14924980
   0.25222161  0.25231381  0.40808411
   0.41811088  0.08265320  0.40727557
   0.25031475  0.74968425  0.40673717
   0.41606143  0.58393757  0.40759756
   0.74862764  0.25137136  0.40781531
   0.91595709  0.08404191  0.40858014
   0.74768519  0.74777739  0.40808411
   0.91734580  0.58188812  0.40727557
Direct configuration=    31
   0.66974304  0.00039608  0.15884646
   0.33102008  0.00048080  0.15902596
  -0.00039608  0.33025596  0.15884646
  -0.00048080  0.66897892  0.15902596
   0.33105224  0.33048208  0.15906205
   0.66951692  0.66894676  0.15906205
   0.66661918  0.33337982  0.18535482
   0.33326513  0.66673387  0.14896721
   0.25188221  0.25196448  0.40843389
   0.41786902  0.08277491  0.40765055
   0.25027037  0.74972863  0.40712414
   0.41614575  0.58385325  0.40796134
   0.74884624  0.25115276  0.40817422
   0.91604774  0.08395126  0.40891379
   0.74803452  0.74811679  0.40843389
   0.91722409  0.58212998  0.40765055
Direct configuration=    32
   0.66937311  0.00079444  0.15785543
   0.33177269  0.00086570  0.15803181
  -0.00079444  0.33062589  0.15785543
  -0.00086570  0.66822631  0.15803181
   0.33178523  0.33078699  0.15808142
   0.66921201  0.66821377  0.15808142
   0.66662317  0.33337583  0.18345573
   0.33324700  0.66675200  0.14811943
   0.25086401  0.25091649  0.40948321
   0.41714343  0.08314003  0.40877549
   0.25013720  0.74986180  0.40828507
   0.41639874  0.58360026  0.40905269
   0.74950203  0.25049697  0.40925096
   0.91631969  0.08367931  0.40991474
   0.74908251  0.74913499  0.40948321
   0.91685897  0.58285557  0.40877549
Direct configuration=    33
   0.66863323  0.00159116  0.15587337
   0.33327792  0.00163551  0.15604351
  -0.00159116  0.33136577  0.15587337
  -0.00163551  0.66672108  0.15604351
   0.33325121  0.33139681  0.15612016
   0.66860219  0.66674779  0.15612016
   0.66663116  0.33336784  0.17965754
   0.33321074  0.66678826  0.14642387
   0.24882760  0.24882050  0.41158185
   0.41569226  0.08387026  0.41102537
   0.24987087  0.75012813  0.41060691
   0.41690472  0.58309428  0.41123539
   0.75081361  0.24918539  0.41140445
   0.91686360  0.08313540  0.41191665
   0.75117850  0.75117140  0.41158185
   0.91612874  0.58430674  0.41102537
Direct configuration=    34
   0.66888937  0.00131533  0.15655956
   0.33275681  0.00136900  0.15673186
  -0.00131533  0.33110963  0.15655956
  -0.00136900  0.66724219  0.15673186
   0.33274369  0.33118569  0.15679915
   0.66881331  0.66725531  0.15679915
   0.66662840  0.33337060  0.18097247
   0.33322329  0.66677571  0.14701087
   0.24953260  0.24954613  0.41085530
   0.41619466  0.08361745  0.41024646
   0.24996308  0.75003592  0.40980309
   0.41672955  0.58326945  0.41047974
   0.75035954  0.24963946  0.41065891
   0.91667530  0.08332370  0.41122359
   0.75045287  0.75046640  0.41085530
   0.91638155  0.58380434  0.41024646
Direct configuration=    35
   0.66870373  0.00133880  0.15650478
   0.33296402  0.00138822  0.15667683
  -0.00133880  0.33129527  0.15650478
  -0.00138822  0.66703498  0.15667683
   0.33294134  0.33135063  0.15675338
   0.66864837  0.66705766  0.15675338
   0.66663020  0.33336880  0.18058608
   0.33322314  0.66677586  0.14693653
   0.24958328  0.24965865  0.41093019
   0.41628712  0.08353286  0.41036649
   0.24992953  0.75006947  0.40994847
   0.41672671  0.58327229  0.41057992
   0.75024611  0.24975289  0.41074916
   0.91669667  0.08330233  0.41126982
   0.75034035  0.75041572  0.41093019
   0.91646614  0.58371188  0.41036649
Direct configuration=    36
   0.66814680  0.00140922  0.15634044
   0.33358565  0.00144589  0.15651175
  -0.00140922  0.33185220  0.15634044
  -0.00144589  0.66641335  0.15651175
   0.33353428  0.33184546  0.15661610
   0.66815354  0.66646472  0.15661610
   0.66663562  0.33336338  0.17942691
   0.33322269  0.66677631  0.14671351
   0.24973532  0.24999622  0.41115487
   0.41656450  0.08327909  0.41072657
   0.24982890  0.75017010  0.41038461
   0.41671820  0.58328080  0.41088045
   0.74990581  0.25009319  0.41101989
   0.91676077  0.08323823  0.41140851
   0.75000278  0.75026368  0.41115487
   0.91671991  0.58343450  0.41072657
Direct configuration=    37
   0.66703294  0.00155005  0.15601176
   0.33482891  0.00156121  0.15618159
  -0.00155005  0.33296606  0.15601176
  -0.00156121  0.66517009  0.15618159
   0.33472017  0.33283510  0.15634153
   0.66716390  0.66527883  0.15634153
   0.66664645  0.33335255  0.17710856
   0.33322178  0.66677722  0.14626747
   0.25003939  0.25067135  0.41160423
   0.41711928  0.08277155  0.41144674
   0.24962763  0.75037137  0.41125688
   0.41670117  0.58329783  0.41148151
   0.74922521  0.25077379  0.41156135
   0.91688898  0.08311002  0.41168589
   0.74932765  0.74995961  0.41160423
   0.91722745  0.58287972  0.41144674
Direct configuration=    38
   0.66763277  0.00147421  0.15618876
   0.33415940  0.00149911  0.15635939
  -0.00147421  0.33236623  0.15618876
  -0.00149911  0.66583960  0.15635939
   0.33408156  0.33230216  0.15648939
   0.66769684  0.66591744  0.15648939
   0.66664061  0.33335839  0.17835702
   0.33322227  0.66677673  0.14650767
   0.24987564  0.25030778  0.41136224
   0.41682053  0.08304487  0.41105892
   0.24973602  0.75026298  0.41078715
   0.41671034  0.58328866  0.41115783
   0.74959172  0.25040728  0.41126977
   0.91681994  0.08317906  0.41153652
   0.74969122  0.75012336  0.41136224
   0.91695413  0.58317847  0.41105892
Direct configuration=    39
   0.66752436  0.00126177  0.15615395
   0.33406874  0.00128365  0.15632448
  -0.00126177  0.33247464  0.15615395
  -0.00128365  0.66593026  0.15632448
   0.33397816  0.33240085  0.15648278
   0.66759815  0.66602084  0.15648278
   0.66664233  0.33335667  0.17739052
   0.33323899  0.66676001  0.14638401
   0.25005716  0.25026504  0.41145922
   0.41674291  0.08322014  0.41127568
   0.24989031  0.75010869  0.41107471
   0.41658515  0.58341385  0.41132325
   0.74972238  0.25027662  0.41141023
   0.91664360  0.08335540  0.41155839
   0.74973396  0.74994184  0.41145922
   0.91677886  0.58325609  0.41127568
Direct configuration=    40
   0.66720858  0.00064300  0.15605256
   0.33380470  0.00065608  0.15622281
  -0.00064300  0.33279042  0.15605256
  -0.00065608  0.66619430  0.15622281
   0.33367699  0.33268828  0.15646354
   0.66731072  0.66632201  0.15646354
   0.66664733  0.33335167  0.17457544
   0.33328771  0.66671129  0.14602385
   0.25058588  0.25014054  0.41174167
   0.41651685  0.08373066  0.41190704
   0.25033972  0.74965928  0.41191227
   0.41622052  0.58377848  0.41180509
   0.75010295  0.24989605  0.41181934
   0.91613000  0.08386900  0.41162210
   0.74985846  0.74941312  0.41174167
   0.91626834  0.58348215  0.41190704
Direct configuration=    41
   0.66741766  0.00040701  0.15605286
   0.33338681  0.00042154  0.15622309
  -0.00040701  0.33258134  0.15605286
  -0.00042154  0.66661219  0.15622309
   0.33325714  0.33249456  0.15649635
   0.66750444  0.66674186  0.15649635
   0.66664944  0.33334956  0.17350317
   0.33330814  0.66669086  0.14590168
   0.25031260  0.25012913  0.41183002
   0.41653335  0.08366567  0.41210055
   0.25018415  0.74981485  0.41217156
   0.41637983  0.58361917  0.41195587
   0.75006786  0.24993114  0.41194875
   0.91628359  0.08371541  0.41164656
   0.74986987  0.74968640  0.41183002
   0.91633333  0.58346565  0.41210055
Direct configuration=    42
   0.66792007 -0.00016011  0.15605358
   0.33238258 -0.00014210  0.15622377
   0.00016011  0.33207893  0.15605358
   0.00014210  0.66761642  0.15622377
   0.33224821  0.33202904  0.15657521
   0.66796996  0.66775079  0.15657521
   0.66665451  0.33334449  0.17092641
   0.33335723  0.66664177  0.14560809
   0.24965588  0.25010172  0.41204233
   0.41657300  0.08350950  0.41256557
   0.24981031  0.75018869  0.41279463
   0.41676266  0.58323634  0.41231821
   0.74998355  0.25001545  0.41225972
   0.91665271  0.08334629  0.41170535
   0.74989728  0.75034312  0.41204233
   0.91648950  0.58342600  0.41256557
Direct configuration=    43
   0.66813456 -0.00003620  0.15609081
   0.33231315 -0.00001202  0.15626105
   0.00003620  0.33186444  0.15609081
   0.00001202  0.66768585  0.15626105
   0.33218435  0.33181958  0.15662508
   0.66817942  0.66781465  0.15662508
   0.66666202  0.33333698  0.17047874
   0.33334926  0.66664974  0.14557847
   0.24979491  0.25009375  0.41208411
   0.41654249  0.08343857  0.41257590
   0.24984236  0.75015664  0.41279170
   0.41662485  0.58337415  0.41234650
   0.74990835  0.25009065  0.41229339
   0.91661005  0.08338895  0.41177064
   0.74990525  0.75020409  0.41208411
   0.91656043  0.58345651  0.41257590
Direct configuration=    44
   0.66847263  0.00015910  0.15614950
   0.33220370  0.00019300  0.15631980
  -0.00015910  0.33152637  0.15614950
  -0.00019300  0.66779530  0.15631980
   0.33208370  0.33148944  0.15670369
   0.66850956  0.66791530  0.15670369
   0.66667386  0.33332514  0.16977313
   0.33333668  0.66666232  0.14553179
   0.25001404  0.25008119  0.41214996
   0.41649441  0.08332678  0.41259218
   0.24989288  0.75010612  0.41278708
   0.41640764  0.58359136  0.41239109
   0.74978983  0.25020917  0.41234644
   0.91654281  0.08345619  0.41187355
   0.74991781  0.74998496  0.41214996
   0.91667222  0.58350459  0.41259218
Direct configuration=    45
   0.66845009  0.00013091  0.15621550
   0.33223144  0.00018246  0.15638628
  -0.00013091  0.33154891  0.15621550
  -0.00018246  0.66776756  0.15638628
   0.33211514  0.33151172  0.15678119
   0.66848728  0.66788386  0.15678119
   0.66668466  0.33331434  0.16933981
   0.33332330  0.66667570  0.14555138
   0.24995885  0.25013212  0.41219489
   0.41653121  0.08341198  0.41253900
   0.24989359  0.75010541  0.41268193
   0.41648085  0.58351815  0.41238413
   0.74983513  0.25016387  0.41235810
   0.91652760  0.08347140  0.41198425
   0.74986688  0.75004015  0.41219489
   0.91658702  0.58346779  0.41253900
Direct configuration=    46
   0.66838315  0.00004719  0.15641154
   0.33231383  0.00015117  0.15658370
  -0.00004719  0.33161585  0.15641154
  -0.00015117  0.66768517  0.15658370
   0.33220852  0.33157789  0.15701137
   0.66842111  0.66779048  0.15701137
   0.66671672  0.33328228  0.16805292
   0.33328358  0.66671542  0.14560956
   0.24979494  0.25028339  0.41232833
   0.41664050  0.08366500  0.41238106
   0.24989570  0.75010330  0.41236966
   0.41669826  0.58330074  0.41236346
   0.74996966  0.25002934  0.41239273
   0.91648243  0.08351657  0.41231301
   0.74971561  0.75020406  0.41232833
   0.91633400  0.58335850  0.41238106
Direct configuration=    47
   0.66818218 -0.00029744  0.15652794
   0.33221817 -0.00018000  0.15670193
   0.00029744  0.33181682  0.15652794
   0.00018000  0.66778083  0.15670193
   0.33211099  0.33179323  0.15714182
   0.66820577  0.66788801  0.15714182
   0.66672554  0.33327346  0.16748935
   0.33330098  0.66669802  0.14572178
   0.24983586  0.25012263  0.41235911
   0.41648188  0.08346908  0.41227956
   0.24984014  0.75015886  0.41219105
   0.41651020  0.58348880  0.41231591
   0.74984231  0.25015669  0.41237141