<?xml version="1.0" encoding="ISO-8859-1"?>
<modeling>
 <generator>
  <i name="program" type="string">vasp </i>
  <i name="version" type="string">5.4.4.18Apr17-6-g9f103f2a35  </i>
  <i name="subversion" type="string">(build Mar 30 2023 15:39:25) complex            parallel </i>
  <i name="platform" type="string">LinuxIFC </i>
  <i name="date" type="string">2023 08 23 </i>
  <i name="time" type="string">06:44:48 </i>
 </generator>
 <incar>
  <i type="string" name="SYSTEM"> Lattice</i>
  <i type="int" name="ISTART">     0</i>
  <i type="string" name="PREC">accurate</i>
  <i type="string" name="ALGO"> Normal</i>
  <i type="int" name="ISPIN">     2</i>
  <i type="int" name="ICHARG">     2</i>
  <i type="int" name="NELM">    64</i>
  <i type="int" name="IBRION">     2</i>
  <i name="EDIFF">      0.00000100</i>
  <i name="EDIFFG">     -0.00100000</i>
  <i type="int" name="NSW">   128</i>
  <i type="int" name="ISIF">     2</i>
  <i name="ENCUT">    450.00000000</i>
  <i name="POTIM">      0.50000000</i>
  <i type="int" name="ISMEAR">     0</i>
  <i name="SIGMA">      0.10000000</i>
  <i type="logical" name="LWAVE"> F  </i>
  <i type="logical" name="LCHARG"> F  </i>
  <v type="int" name="KPOINT_BSE">    -1     0     0     0</v>
  <i type="int" name="NELM">    64</i>
  <i type="string" name="GGA"> PE</i>
 </incar>
 <structure name="primitive_cell" >
  <crystal>
   <varray name="basis" >
    <v>       4.36650009       2.52100000       0.00000000 </v>
    <v>      -4.36650009       2.52100000       0.00000000 </v>
    <v>       0.00000000       0.00000000      15.00000000 </v>
   </varray>
   <i name="volume">    330.23840150 </i>
   <varray name="rec_basis" >
    <v>       0.11450819       0.19833399       0.00000000 </v>
    <v>      -0.11450819       0.19833399       0.00000000 </v>
    <v>       0.00000000       0.00000000       0.06666667 </v>
   </varray>
  </crystal>
  <varray name="positions" >
   <v>       0.33833034      -0.33083568       0.10000000 </v>
   <v>       0.16373946       0.31999962       0.10000000 </v>
   <v>       0.16376430      -0.15623616       0.10000000 </v>
   <v>      -0.31250150      -0.15627000       0.10000000 </v>
   <v>      -0.15373264      -0.31500406       0.10000000 </v>
   <v>       0.32250218       0.16126397       0.10000000 </v>
   <v>      -0.15376137       0.16123684       0.10000000 </v>
   <v>      -0.32834478       0.33584146       0.10000000 </v>
   <v>       0.33333267      -0.33333367       0.32553333 </v>
   <v>       0.49999967       0.49999933       0.32553333 </v>
   <v>       0.49999967      -0.00000067       0.32553333 </v>
   <v>      -0.00000033       0.49999933       0.32553333 </v>
   <v>      -0.16666733      -0.33333367       0.32553333 </v>
   <v>      -0.16666733       0.16666633       0.32553333 </v>
   <v>       0.33333267       0.16666633       0.32553333 </v>
   <v>      -0.00000033      -0.00000067       0.32553333 </v>
  </varray>
 </structure>
 <varray name="primitive_index" >
  <v type="int" >        1 </v>
  <v type="int" >        3 </v>
  <v type="int" >        5 </v>
  <v type="int" >        7 </v>
  <v type="int" >        8 </v>
  <v type="int" >        4 </v>
  <v type="int" >        6 </v>
  <v type="int" >        2 </v>
  <v type="int" >       11 </v>
  <v type="int" >       12 </v>
  <v type="int" >       10 </v>
  <v type="int" >       16 </v>
  <v type="int" >       15 </v>
  <v type="int" >       13 </v>
  <v type="int" >        9 </v>
  <v type="int" >       14 </v>
 </varray>
 <kpoints>
  <generation param="Gamma">
   <v type="int" name="divisions">      12       12        1 </v>
   <v name="usershift">      0.00000000       0.00000000       0.00000000 </v>
   <v name="genvec1">      0.08333333       0.00000000       0.00000000 </v>
   <v name="genvec2">      0.00000000       0.08333333       0.00000000 </v>
   <v name="genvec3">      0.00000000       0.00000000       1.00000000 </v>
   <v name="shift">      0.00000000       0.00000000       0.00000000 </v>
  </generation>
  <varray name="kpointlist" >
   <v>       0.00000000       0.00000000       0.00000000 </v>
   <v>       0.08333333       0.00000000       0.00000000 </v>
   <v>       0.16666667      -0.00000000       0.00000000 </v>
   <v>       0.25000000      -0.00000000       0.00000000 </v>
   <v>       0.33333333       0.00000000       0.00000000 </v>
   <v>       0.41666667      -0.00000000       0.00000000 </v>
   <v>       0.50000000      -0.00000000       0.00000000 </v>
   <v>       0.00000000       0.08333333       0.00000000 </v>
   <v>       0.08333333       0.08333333       0.00000000 </v>
   <v>       0.16666667       0.08333333       0.00000000 </v>
   <v>       0.25000000       0.08333333       0.00000000 </v>
   <v>       0.33333333       0.08333333       0.00000000 </v>
   <v>       0.41666667       0.08333333       0.00000000 </v>
   <v>       0.50000000       0.08333333       0.00000000 </v>
   <v>      -0.41666667       0.08333333       0.00000000 </v>
   <v>      -0.33333333       0.08333333       0.00000000 </v>
   <v>      -0.25000000       0.08333333       0.00000000 </v>
   <v>      -0.16666667       0.08333333       0.00000000 </v>
   <v>      -0.08333333       0.08333333       0.00000000 </v>
   <v>      -0.00000000       0.16666667       0.00000000 </v>
   <v>       0.08333333       0.16666667       0.00000000 </v>
   <v>       0.16666667       0.16666667       0.00000000 </v>
   <v>       0.25000000       0.16666667       0.00000000 </v>
   <v>       0.33333333       0.16666667       0.00000000 </v>
   <v>       0.41666667       0.16666667       0.00000000 </v>
   <v>       0.50000000       0.16666667       0.00000000 </v>
   <v>      -0.41666667       0.16666667       0.00000000 </v>
   <v>      -0.33333333       0.16666667       0.00000000 </v>
   <v>      -0.25000000       0.16666667       0.00000000 </v>
   <v>      -0.16666667       0.16666667       0.00000000 </v>
   <v>      -0.08333333       0.16666667       0.00000000 </v>
   <v>      -0.00000000       0.25000000       0.00000000 </v>
   <v>       0.08333333       0.25000000       0.00000000 </v>
   <v>       0.16666667       0.25000000       0.00000000 </v>
   <v>       0.25000000       0.25000000       0.00000000 </v>
   <v>       0.33333333       0.25000000       0.00000000 </v>
   <v>       0.41666667       0.25000000       0.00000000 </v>
   <v>       0.50000000       0.25000000       0.00000000 </v>
   <v>      -0.41666667       0.25000000       0.00000000 </v>
   <v>      -0.33333333       0.25000000       0.00000000 </v>
   <v>      -0.25000000       0.25000000       0.00000000 </v>
   <v>      -0.16666667       0.25000000       0.00000000 </v>
   <v>      -0.08333333       0.25000000       0.00000000 </v>
   <v>       0.00000000       0.33333333       0.00000000 </v>
   <v>       0.08333333       0.33333333       0.00000000 </v>
   <v>       0.16666667       0.33333333       0.00000000 </v>
   <v>       0.25000000       0.33333333       0.00000000 </v>
   <v>       0.33333333       0.33333333       0.00000000 </v>
   <v>       0.41666667       0.33333333       0.00000000 </v>
   <v>       0.50000000       0.33333333       0.00000000 </v>
   <v>      -0.41666667       0.33333333       0.00000000 </v>
   <v>      -0.33333333       0.33333333       0.00000000 </v>
   <v>      -0.25000000       0.33333333       0.00000000 </v>
   <v>      -0.16666667       0.33333333       0.00000000 </v>
   <v>      -0.08333333       0.33333333       0.00000000 </v>
   <v>      -0.00000000       0.41666667       0.00000000 </v>
   <v>       0.08333333       0.41666667       0.00000000 </v>
   <v>       0.16666667       0.41666667       0.00000000 </v>
   <v>       0.25000000       0.41666667       0.00000000 </v>
   <v>       0.33333333       0.41666667       0.00000000 </v>
   <v>       0.41666667       0.41666667       0.00000000 </v>
   <v>       0.50000000       0.41666667       0.00000000 </v>
   <v>      -0.41666667       0.41666667       0.00000000 </v>
   <v>      -0.33333333       0.41666667       0.00000000 </v>
   <v>      -0.25000000       0.41666667       0.00000000 </v>
   <v>      -0.16666667       0.41666667       0.00000000 </v>
   <v>      -0.08333333       0.41666667       0.00000000 </v>
   <v>      -0.00000000       0.50000000       0.00000000 </v>
   <v>       0.08333333       0.50000000       0.00000000 </v>
   <v>       0.16666667       0.50000000       0.00000000 </v>
   <v>       0.25000000       0.50000000       0.00000000 </v>
   <v>       0.33333333       0.50000000       0.00000000 </v>
   <v>       0.41666667       0.50000000       0.00000000 </v>
   <v>       0.50000000       0.50000000       0.00000000 </v>
  </varray>
  <varray name="weights" >
   <v>       0.00694444 </v>
   <v>       0.01388889 </v>
   <v>       0.01388889 </v>
   <v>       0.01388889 </v>
   <v>       0.01388889 </v>
   <v>       0.01388889 </v>
   <v>       0.00694444 </v>
   <v>       0.01388889 </v>
   <v>       0.01388889 </v>
   <v>       0.01388889 </v>
   <v>       0.01388889 </v>
   <v>       0.01388889 </v>
   <v>       0.01388889 </v>
   <v>       0.01388889 </v>
   <v>       0.01388889 </v>
   <v>       0.01388889 </v>
   <v>       0.01388889 </v>
   <v>       0.01388889 </v>
   <v>       0.01388889 </v>
   <v>       0.01388889 </v>
   <v>       0.01388889 </v>
   <v>       0.01388889 </v>
   <v>       0.01388889 </v>
   <v>       0.01388889 </v>
   <v>       0.01388889 </v>
   <v>       0.01388889 </v>
   <v>       0.01388889 </v>
   <v>       0.01388889 </v>
   <v>       0.01388889 </v>
   <v>       0.01388889 </v>
   <v>       0.01388889 </v>
   <v>       0.01388889 </v>
   <v>       0.01388889 </v>
   <v>       0.01388889 </v>
   <v>       0.01388889 </v>
   <v>       0.01388889 </v>
   <v>       0.01388889 </v>
   <v>       0.01388889 </v>
   <v>       0.01388889 </v>
   <v>       0.01388889 </v>
   <v>       0.01388889 </v>
   <v>       0.01388889 </v>
   <v>       0.01388889 </v>
   <v>       0.01388889 </v>
   <v>       0.01388889 </v>
   <v>       0.01388889 </v>
   <v>       0.01388889 </v>
   <v>       0.01388889 </v>
   <v>       0.01388889 </v>
   <v>       0.01388889 </v>
   <v>       0.01388889 </v>
   <v>       0.01388889 </v>
   <v>       0.01388889 </v>
   <v>       0.01388889 </v>
   <v>       0.01388889 </v>
   <v>       0.01388889 </v>
   <v>       0.01388889 </v>
   <v>       0.01388889 </v>
   <v>       0.01388889 </v>
   <v>       0.01388889 </v>
   <v>       0.01388889 </v>
   <v>       0.01388889 </v>
   <v>       0.01388889 </v>
   <v>       0.01388889 </v>
   <v>       0.01388889 </v>
   <v>       0.01388889 </v>
   <v>       0.01388889 </v>
   <v>       0.00694444 </v>
   <v>       0.01388889 </v>
   <v>       0.01388889 </v>
   <v>       0.01388889 </v>
   <v>       0.01388889 </v>
   <v>       0.01388889 </v>
   <v>       0.00694444 </v>
  </varray>
 </kpoints>
 <parameters>
  <separator name="general" >
   <i type="string" name="SYSTEM">Lattice</i>
   <i type="logical" name="LCOMPAT"> F  </i>
  </separator>
  <separator name="electronic" >
   <i type="string" name="PREC">accura</i>
   <i name="ENMAX">    450.00000000</i>
   <i name="ENAUG">    644.87300000</i>
   <i name="EDIFF">      0.00000100</i>
   <i type="int" name="IALGO">    38</i>
   <i type="int" name="IWAVPR">    11</i>
   <i type="int" name="NBANDS">    48</i>
   <i name="NELECT">     62.00000000</i>
   <i type="int" name="TURBO">     0</i>
   <i type="int" name="IRESTART">     0</i>
   <i type="int" name="NREBOOT">     0</i>
   <i type="int" name="NMIN">     0</i>
   <i name="EREF">      0.00000000</i>
   <separator name="electronic smearing" >
    <i type="int" name="ISMEAR">     0</i>
    <i name="SIGMA">      0.10000000</i>
    <i name="KSPACING">      0.50000000</i>
    <i type="logical" name="KGAMMA"> T  </i>
   </separator>
   <separator name="electronic projectors" >
    <i type="logical" name="LREAL"> F  </i>
    <v name="ROPT">      0.00000000      0.00000000</v>
    <i type="int" name="LMAXPAW">  -100</i>
    <i type="int" name="LMAXMIX">     2</i>
    <i type="logical" name="NLSPLINE"> F  </i>
   </separator>
   <separator name="electronic startup" >
    <i type="int" name="ISTART">     0</i>
    <i type="int" name="ICHARG">     2</i>
    <i type="int" name="INIWAV">     1</i>
   </separator>
   <separator name="electronic spin" >
    <i type="int" name="ISPIN">     2</i>
    <i type="logical" name="LNONCOLLINEAR"> F  </i>
    <v name="MAGMOM">      1.00000000      1.00000000      1.00000000      1.00000000      1.00000000      1.00000000      1.00000000      1.00000000      1.00000000      1.00000000      1.00000000      1.00000000      1.00000000      1.00000000      1.00000000      1.00000000</v>
    <i name="NUPDOWN">     -1.00000000</i>
    <i type="logical" name="LSORBIT"> F  </i>
    <v name="SAXIS">      0.00000000      0.00000000      1.00000000</v>
    <i type="logical" name="LSPIRAL"> F  </i>
    <v name="QSPIRAL">      0.00000000      0.00000000      0.00000000</v>
    <i type="logical" name="LZEROZ"> F  </i>
   </separator>
   <separator name="electronic exchange-correlation" >
    <i type="logical" name="LASPH"> F  </i>
    <i type="logical" name="LMETAGGA"> F  </i>
   </separator>
   <separator name="electronic convergence" >
    <i type="int" name="NELM">    64</i>
    <i type="int" name="NELMDL">    -5</i>
    <i type="int" name="NELMIN">     2</i>
    <i name="ENINI">    450.00000000</i>
    <separator name="electronic convergence detail" >
     <i type="logical" name="LDIAG"> T  </i>
     <i type="logical" name="LSUBROT"> F  </i>
     <i name="WEIMIN">      0.00100000</i>
     <i name="EBREAK">      0.00000001</i>
     <i name="DEPER">      0.30000000</i>
     <i type="int" name="NRMM">     4</i>
     <i name="TIME">      0.40000000</i>
    </separator>
   </separator>
   <separator name="electronic mixer" >
    <i name="AMIX">      0.40000000</i>
    <i name="BMIX">      1.00000000</i>
    <i name="AMIN">      0.10000000</i>
    <i name="AMIX_MAG">      1.60000000</i>
    <i name="BMIX_MAG">      1.00000000</i>
    <separator name="electronic mixer details" >
     <i type="int" name="IMIX">     4</i>
     <i type="logical" name="MIXFIRST"> F  </i>
     <i type="int" name="MAXMIX">   -45</i>
     <i name="WC">    100.00000000</i>
     <i type="int" name="INIMIX">     1</i>
     <i type="int" name="MIXPRE">     1</i>
     <i type="int" name="MREMOVE">     5</i>
    </separator>
   </separator>
   <separator name="electronic dipolcorrection" >
    <i type="logical" name="LDIPOL"> F  </i>
    <i type="logical" name="LMONO"> F  </i>
    <i type="int" name="IDIPOL">     0</i>
    <i name="EPSILON">      1.00000000</i>
    <v name="DIPOL">   -100.00000000   -100.00000000   -100.00000000</v>
    <i name="EFIELD">      0.00000000</i>
   </separator>
  </separator>
  <separator name="grids" >
   <i type="int" name="NGX">    36</i>
   <i type="int" name="NGY">    36</i>
   <i type="int" name="NGZ">   108</i>
   <i type="int" name="NGXF">    72</i>
   <i type="int" name="NGYF">    72</i>
   <i type="int" name="NGZF">   216</i>
   <i type="logical" name="ADDGRID"> F  </i>
  </separator>
  <separator name="ionic" >
   <i type="int" name="NSW">   128</i>
   <i type="int" name="IBRION">     2</i>
   <i type="int" name="MDALGO">     0</i>
   <i type="int" name="ISIF">     2</i>
   <i name="PSTRESS">      0.00000000</i>
   <i name="EDIFFG">     -0.00100000</i>
   <i type="int" name="NFREE">     1</i>
   <i name="POTIM">      0.50000000</i>
   <i name="SMASS">     -3.00000000</i>
   <i name="SCALEE">      1.00000000</i>
  </separator>
  <separator name="ionic md" >
   <i name="TEBEG">      0.00010000</i>
   <i name="TEEND">      0.00010000</i>
   <i type="int" name="NBLOCK">     1</i>
   <i type="int" name="KBLOCK">   128</i>
   <i type="int" name="NPACO">   256</i>
   <i name="APACO">     16.00000000</i>
  </separator>
  <separator name="symmetry" >
   <i type="int" name="ISYM">     2</i>
   <i name="SYMPREC">      0.00001000</i>
  </separator>
  <separator name="dos" >
   <i type="int" name="LORBIT">     0</i>
   <v name="RWIGS">     -1.00000000     -1.00000000</v>
   <i type="int" name="NEDOS">   301</i>
   <i name="EMIN">     10.00000000</i>
   <i name="EMAX">    -10.00000000</i>
   <i name="EFERMI">      0.00000000</i>
  </separator>
  <separator name="writing" >
   <i type="int" name="NWRITE">     2</i>
   <i type="logical" name="LWAVE"> F  </i>
   <i type="logical" name="LDOWNSAMPLE"> F  </i>
   <i type="logical" name="LCHARG"> F  </i>
   <i type="logical" name="LPARD"> F  </i>
   <i type="logical" name="LVTOT"> F  </i>
   <i type="logical" name="LVHAR"> F  </i>
   <i type="logical" name="LELF"> F  </i>
   <i type="logical" name="LOPTICS"> F  </i>
   <v name="STM">      0.00000000      0.00000000      0.00000000      0.00000000      0.00000000      0.00000000      0.00000000</v>
  </separator>
  <separator name="performance" >
   <i type="int" name="NPAR">    16</i>
   <i type="int" name="NSIM">     4</i>
   <i type="int" name="NBLK">    -1</i>
   <i type="logical" name="LPLANE"> T  </i>
   <i type="logical" name="LSCALAPACK"> T  </i>
   <i type="logical" name="LSCAAWARE"> F  </i>
   <i type="logical" name="LSCALU"> F  </i>
   <i type="logical" name="LASYNC"> F  </i>
   <i type="logical" name="LORBITALREAL"> F  </i>
  </separator>
  <separator name="miscellaneous" >
   <i type="int" name="IDIOT">     3</i>
   <i type="int" name="ISPECIAL">     0</i>
   <i type="logical" name="LMUSIC"> F  </i>
   <v name="POMASS">     10.81100000     12.01100000</v>
   <v name="DARWINR">      0.00000000      0.00000000</v>
   <v name="DARWINV">      1.00000000      1.00000000</v>
   <i type="logical" name="LCORR"> T  </i>
  </separator>
  <i type="logical" name="GGA_COMPAT"> T  </i>
  <i type="logical" name="LBERRY"> F  </i>
  <i type="int" name="ICORELEVEL">     0</i>
  <i type="logical" name="LDAU"> F  </i>
  <i type="int" name="I_CONSTRAINED_M">     0</i>
  <separator name="electronic exchange-correlation" >
   <i type="string" name="GGA">PE</i>
   <i type="int" name="VOSKOWN">     0</i>
   <i type="logical" name="LHFCALC"> F  </i>
   <i type="string" name="PRECFOCK"></i>
   <i type="logical" name="LSYMGRAD"> F  </i>
   <i type="logical" name="LHFONE"> F  </i>
   <i type="logical" name="LRHFCALC"> F  </i>
   <i type="logical" name="LTHOMAS"> F  </i>
   <i type="logical" name="LMODELHF"> F  </i>
   <i name="ENCUT4O">     -1.00000000</i>
   <i type="int" name="EXXOEP">     0</i>
   <i type="int" name="FOURORBIT">     0</i>
   <i name="AEXX">      0.00000000</i>
   <i name="HFALPHA">      0.00000000</i>
   <i name="MCALPHA">      0.00000000</i>
   <i name="ALDAX">      1.00000000</i>
   <i name="AGGAX">      1.00000000</i>
   <i name="ALDAC">      1.00000000</i>
   <i name="AGGAC">      1.00000000</i>
   <i type="int" name="NKREDX">     1</i>
   <i type="int" name="NKREDY">     1</i>
   <i type="int" name="NKREDZ">     1</i>
   <i type="logical" name="SHIFTRED"> F  </i>
   <i type="logical" name="ODDONLY"> F  </i>
   <i type="logical" name="EVENONLY"> F  </i>
   <i type="int" name="LMAXFOCK">     0</i>
   <i type="int" name="NMAXFOCKAE">     0</i>
   <i type="logical" name="LFOCKAEDFT"> F  </i>
   <i name="HFSCREEN">      0.00000000</i>
   <i name="HFSCREENC">      0.00000000</i>
   <i type="int" name="NBANDSGWLOW">     0</i>
  </separator>
  <separator name="vdW DFT" >
   <i type="logical" name="LUSE_VDW"> F  </i>
   <i name="Zab_VDW">     -0.84910000</i>
   <i name="PARAM1">      0.12340000</i>
   <i name="PARAM2">      1.00000000</i>
   <i name="PARAM3">      0.00000000</i>
  </separator>
  <separator name="model GW" >
   <i type="int" name="MODEL_GW">     0</i>
   <i name="MODEL_EPS0">     12.38394006</i>
   <i name="MODEL_ALPHA">      1.00000000</i>
  </separator>
  <separator name="linear response parameters" >
   <i type="logical" name="LEPSILON"> F  </i>
   <i type="logical" name="LRPA"> F  </i>
   <i type="logical" name="LNABLA"> F  </i>
   <i type="logical" name="LVEL"> F  </i>
   <i type="int" name="KINTER">     0</i>
   <i name="CSHIFT">      0.10000000</i>
   <i name="OMEGAMAX">     -1.00000000</i>
   <i name="DEG_THRESHOLD">      0.00200000</i>
   <i name="RTIME">     -0.10000000</i>
   <i name="WPLASMAI">      0.00000000</i>
   <v name="DFIELD">      0.00000000      0.00000000      0.00000000</v>
   <v name="WPLASMA">      0.00000000      0.00000000      0.00000000      0.00000000      0.00000000      0.00000000      0.00000000      0.00000000      0.00000000</v>
  </separator>
  <separator name="orbital magnetization" >
   <i type="logical" name="NUCIND"> F  </i>
   <v name="MAGPOS">      0.00000000      0.00000000      0.00000000</v>
   <i type="logical" name="LNICSALL"> T  </i>
   <i type="logical" name="ORBITALMAG"> F  </i>
   <i type="logical" name="LMAGBLOCH"> F  </i>
   <i type="logical" name="LCHIMAG"> F  </i>
   <i type="logical" name="LGAUGE"> T  </i>
   <i type="int" name="MAGATOM">     0</i>
   <v name="MAGDIPOL">      0.00000000      0.00000000      0.00000000</v>
   <v name="AVECCONST">      0.00000000      0.00000000      0.00000000</v>
  </separator>
  <separator name="response functions" >
   <i type="logical" name="LADDER"> F  </i>
   <i type="logical" name="LRPAFORCE"> F  </i>
   <i type="logical" name="LFXC"> F  </i>
   <i type="logical" name="LHARTREE"> T  </i>
   <i type="int" name="IBSE">     0</i>
   <v type="int" name="KPOINT">    -1     0     0     0</v>
   <i type="logical" name="LTCTE"> F  </i>
   <i type="logical" name="LTETE"> F  </i>
   <i type="logical" name="LTRIPLET"> F  </i>
   <i type="logical" name="LFXCEPS"> F  </i>
   <i type="logical" name="LFXHEG"> F  </i>
   <i type="int" name="NATURALO">     2</i>
   <i type="logical" name="L2ORDER"> F  </i>
   <i type="logical" name="LMP2LT"> F  </i>
   <i type="logical" name="LUSEW"> F  </i>
   <i name="ENCUTGW">     -2.00000000</i>
   <i name="ENCUTGWSOFT">     -2.00000000</i>
   <i name="ENCUTLF">     -1.00000000</i>
   <i type="int" name="LMAXMP2">    -1</i>
   <i name="SCISSOR">      0.00000000</i>
   <i type="int" name="NOMEGA">     0</i>
   <i type="int" name="NOMEGAR">     0</i>
   <i type="int" name="NBANDSGW">    -1</i>
   <i type="int" name="NBANDSO">    -1</i>
   <i type="int" name="NBANDSV">    -1</i>
   <i type="int" name="NELM">    64</i>
   <i type="int" name="NELMHF">     1</i>
   <i type="int" name="DIM">     3</i>
   <i type="int" name="ANTIRES">     0</i>
   <i name="OMEGAMAX">    -30.00000000</i>
   <i name="OMEGAMIN">    -30.00000000</i>
   <i name="OMEGATL">   -200.00000000</i>
   <i type="int" name="OMEGAGRID">   140</i>
   <i name="CSHIFT">     -0.10000000</i>
   <i type="logical" name="SELFENERGY"> F  </i>
   <i type="logical" name="LSPECTRAL"> F  </i>
   <i type="logical" name="LSPECTRALGW"> F  </i>
   <i type="logical" name="LSINGLES"> F  </i>
   <i type="logical" name="LFERMIGW"> F  </i>
   <i type="logical" name="ODDONLYGW"> F  </i>
   <i type="logical" name="EVENONLYGW"> F  </i>
   <i type="int" name="NKREDLFX">     1</i>
   <i type="int" name="NKREDLFY">     1</i>
   <i type="int" name="NKREDLFZ">     1</i>
   <i type="int" name="MAXMEM">  2800</i>
   <i type="int" name="TELESCOPE">     0</i>
   <i type="int" name="TAUPAR">     1</i>
   <i type="int" name="OMEGAPAR">    -1</i>
   <i name="LAMBDA">      1.00000000</i>
  </separator>
  <separator name="External order field" >
   <i name="OFIELD_KAPPA">      0.00000000</i>
   <v name="OFIELD_K">      0.00000000      0.00000000      0.00000000</v>
   <i name="OFIELD_Q6_NEAR">      0.00000000</i>
   <i name="OFIELD_Q6_FAR">      0.00000000</i>
   <i name="OFIELD_A">      0.00000000</i>
  </separator>
 </parameters>
 <atominfo>
  <atoms>      16 </atoms>
  <types>       2 </types>
  <array name="atoms" >
   <dimension dim="1">ion</dimension>
   <field type="string">element</field>
   <field type="int">atomtype</field>
   <set>
    <rc><c>B </c><c>   1</c></rc>
    <rc><c>B </c><c>   1</c></rc>
    <rc><c>C </c><c>   2</c></rc>
    <rc><c>C </c><c>   2</c></rc>
    <rc><c>C </c><c>   2</c></rc>
    <rc><c>C </c><c>   2</c></rc>
    <rc><c>C </c><c>   2</c></rc>
    <rc><c>C </c><c>   2</c></rc>
    <rc><c>C </c><c>   2</c></rc>
    <rc><c>C </c><c>   2</c></rc>
    <rc><c>C </c><c>   2</c></rc>
    <rc><c>C </c><c>   2</c></rc>
    <rc><c>C </c><c>   2</c></rc>
    <rc><c>C </c><c>   2</c></rc>
    <rc><c>C </c><c>   2</c></rc>
    <rc><c>C </c><c>   2</c></rc>
   </set>
  </array>
  <array name="atomtypes" >
   <dimension dim="1">type</dimension>
   <field type="int">atomspertype</field>
   <field type="string">element</field>
   <field>mass</field>
   <field>valence</field>
   <field type="string">pseudopotential</field>
   <set>
    <rc><c>   2</c><c>B </c><c>     10.81100000</c><c>      3.00000000</c><c>  PAW_PBE B 06Sep2000                   </c></rc>
    <rc><c>  14</c><c>C </c><c>     12.01100000</c><c>      4.00000000</c><c>  PAW_PBE C 08Apr2002                   </c></rc>
   </set>
  </array>
 </atominfo>
 <structure name="initialpos" >
  <crystal>
   <varray name="basis" >
    <v>       4.36650009       2.52100000       0.00000000 </v>
    <v>      -4.36650009       2.52100000       0.00000000 </v>
    <v>       0.00000000       0.00000000      15.00000000 </v>
   </varray>
   <i name="volume">    330.23840150 </i>
   <varray name="rec_basis" >
    <v>       0.11450819       0.19833399       0.00000000 </v>
    <v>      -0.11450819       0.19833399       0.00000000 </v>
    <v>       0.00000000       0.00000000       0.06666667 </v>
   </varray>
  </crystal>
  <varray name="positions" >
   <v>       0.33833034       0.66916432       0.10000000 </v>
   <v>       0.67165522       0.33584146       0.10000000 </v>
   <v>       0.16373946       0.31999962       0.10000000 </v>
   <v>       0.32250218       0.16126397       0.10000000 </v>
   <v>       0.16376430       0.84376384       0.10000000 </v>
   <v>       0.84623863       0.16123684       0.10000000 </v>
   <v>       0.68749850       0.84373000       0.10000000 </v>
   <v>       0.84626736       0.68499594       0.10000000 </v>
   <v>       0.33333267       0.16666633       0.32553333 </v>
   <v>       0.49999967       0.99999933       0.32553333 </v>
   <v>       0.33333267       0.66666633       0.32553333 </v>
   <v>       0.49999967       0.49999933       0.32553333 </v>
   <v>       0.83333267       0.16666633       0.32553333 </v>
   <v>       0.99999967       0.99999933       0.32553333 </v>
   <v>       0.83333267       0.66666633       0.32553333 </v>
   <v>       0.99999967       0.49999933       0.32553333 </v>
  </varray>
 </structure>
 <calculation>
  <scstep>
   <time name="dav">   17.25   17.26</time>
   <time name="total">   17.39   17.40</time>
   <energy>
    <i name="alphaZ">     62.58923237 </i>
    <i name="ewald">   5465.31131830 </i>
    <i name="hartreedc">  -7282.93474654 </i>
    <i name="XCdc">    199.84266763 </i>
    <i name="pawpsdc">   1604.28699987 </i>
    <i name="pawaedc">  -1610.37247880 </i>
    <i name="eentropy">     -0.01871981 </i>
    <i name="bandstr">   -285.65610809 </i>
    <i name="atom">   2202.35892741 </i>
    <i name="e_fr_energy">    355.40709234 </i>
    <i name="e_wo_entrp">    355.42581216 </i>
    <i name="e_0_energy">    355.41645225 </i>
   </energy>
  </scstep>
  <scstep>
   <time name="dav">   23.75   23.76</time>
   <time name="total">   23.75   23.76</time>
   <energy>
    <i name="e_fr_energy">   -108.52462660 </i>
    <i name="e_wo_entrp">   -108.51304061 </i>
    <i name="e_0_energy">   -108.51883361 </i>
   </energy>
  </scstep>
  <scstep>
   <time name="dav">   21.52   21.53</time>
   <time name="total">   21.52   21.53</time>
   <energy>
    <i name="e_fr_energy">   -144.88483889 </i>
    <i name="e_wo_entrp">   -144.87828444 </i>
    <i name="e_0_energy">   -144.88156167 </i>
   </energy>
  </scstep>
  <scstep>
   <time name="dav">   21.92   21.93</time>
   <time name="total">   21.92   21.93</time>
   <energy>
    <i name="e_fr_energy">   -145.76513733 </i>
    <i name="e_wo_entrp">   -145.75871617 </i>
    <i name="e_0_energy">   -145.76192675 </i>
   </energy>
  </scstep>
  <scstep>
   <time name="dav">   23.13   23.14</time>
   <time name="total">   24.02   24.03</time>
   <energy>
    <i name="e_fr_energy">   -145.79405557 </i>
    <i name="e_wo_entrp">   -145.78764155 </i>
    <i name="e_0_energy">   -145.79084856 </i>
   </energy>
  </scstep>
  <scstep>
   <time name="dav">   20.11   20.12</time>
   <time name="total">   21.13   21.14</time>
   <energy>
    <i name="e_fr_energy">   -107.02126884 </i>
    <i name="e_wo_entrp">   -106.99935163 </i>
    <i name="e_0_energy">   -107.01031024 </i>
   </energy>
  </scstep>
  <scstep>
   <time name="dav">   20.14   20.15</time>
   <time name="total">   21.16   21.17</time>
   <energy>
    <i name="e_fr_energy">   -115.45542225 </i>
    <i name="e_wo_entrp">   -115.43617210 </i>
    <i name="e_0_energy">   -115.44579718 </i>
   </energy>
  </scstep>
  <scstep>
   <time name="dav">   20.71   20.72</time>
   <time name="total">   21.72   21.73</time>
   <energy>
    <i name="e_fr_energy">   -124.17984963 </i>
    <i name="e_wo_entrp">   -124.17219995 </i>
    <i name="e_0_energy">   -124.17602479 </i>
   </energy>
  </scstep>
  <scstep>
   <time name="dav">   18.61   18.62</time>
   <time name="total">   19.62   19.63</time>
   <energy>
    <i name="e_fr_energy">   -131.77136959 </i>
    <i name="e_wo_entrp">   -131.76642380 </i>
    <i name="e_0_energy">   -131.76889670 </i>
   </energy>
  </scstep>
  <scstep>
   <time name="dav">   19.47   19.47</time>
   <time name="total">   20.49   20.49</time>
   <energy>
    <i name="e_fr_energy">   -138.95708444 </i>
    <i name="e_wo_entrp">   -138.95484414 </i>
    <i name="e_0_energy">   -138.95596429 </i>
   </energy>
  </scstep>
  <scstep>
   <time name="dav">   19.37   19.38</time>
   <time name="total">   20.38   20.39</time>
   <energy>
    <i name="e_fr_energy">   -140.07621834 </i>
    <i name="e_wo_entrp">   -140.07402431 </i>
    <i name="e_0_energy">   -140.07512132 </i>
   </energy>
  </scstep>
  <scstep>
   <time name="dav">   19.88   19.89</time>
   <time name="total">   20.89   20.90</time>
   <energy>
    <i name="e_fr_energy">   -140.28009932 </i>
    <i name="e_wo_entrp">   -140.27809252 </i>
    <i name="e_0_energy">   -140.27909592 </i>
   </energy>
  </scstep>
  <scstep>
   <time name="dav">   18.20   18.20</time>
   <time name="total">   19.22   19.22</time>
   <energy>
    <i name="e_fr_energy">   -140.34862555 </i>
    <i name="e_wo_entrp">   -140.34633400 </i>
    <i name="e_0_energy">   -140.34747978 </i>
   </energy>
  </scstep>
  <scstep>
   <time name="dav">   19.05   19.06</time>
   <time name="total">   20.07   20.07</time>
   <energy>
    <i name="e_fr_energy">   -140.37298745 </i>
    <i name="e_wo_entrp">   -140.37049063 </i>
    <i name="e_0_energy">   -140.37173904 </i>
   </energy>
  </scstep>
  <scstep>
   <time name="dav">   18.41   18.42</time>
   <time name="total">   19.43   19.44</time>
   <energy>
    <i name="e_fr_energy">   -140.38050292 </i>
    <i name="e_wo_entrp">   -140.37793628 </i>
    <i name="e_0_energy">   -140.37921960 </i>
   </energy>
  </scstep>
  <scstep>
   <time name="dav">   17.55   17.55</time>
   <time name="total">   18.56   18.57</time>
   <energy>
    <i name="e_fr_energy">   -140.38194899 </i>
    <i name="e_wo_entrp">   -140.37938240 </i>
    <i name="e_0_energy">   -140.38066569 </i>
   </energy>
  </scstep>
  <scstep>
   <time name="dav">   17.62   17.63</time>
   <time name="total">   18.64   18.65</time>
   <energy>
    <i name="e_fr_energy">   -140.38367671 </i>
    <i name="e_wo_entrp">   -140.38112512 </i>
    <i name="e_0_energy">   -140.38240091 </i>
   </energy>
  </scstep>
  <scstep>
   <time name="dav">   17.72   17.73</time>
   <time name="total">   18.74   18.75</time>
   <energy>
    <i name="e_fr_energy">   -140.38472015 </i>
    <i name="e_wo_entrp">   -140.38217728 </i>
    <i name="e_0_energy">   -140.38344871 </i>
   </energy>
  </scstep>
  <scstep>
   <time name="dav">   18.34   18.34</time>
   <time name="total">   19.35   19.35</time>
   <energy>
    <i name="e_fr_energy">   -140.38527368 </i>
    <i name="e_wo_entrp">   -140.38273029 </i>
    <i name="e_0_energy">   -140.38400199 </i>
   </energy>
  </scstep>
  <scstep>
   <time name="dav">   17.97   17.99</time>
   <time name="total">   18.99   19.00</time>
   <energy>
    <i name="e_fr_energy">   -140.38540741 </i>
    <i name="e_wo_entrp">   -140.38285633 </i>
    <i name="e_0_energy">   -140.38413187 </i>
   </energy>
  </scstep>
  <scstep>
   <time name="dav">   18.83   18.83</time>
   <time name="total">   19.86   19.86</time>
   <energy>
    <i name="e_fr_energy">   -140.38546309 </i>
    <i name="e_wo_entrp">   -140.38290782 </i>
    <i name="e_0_energy">   -140.38418545 </i>
   </energy>
  </scstep>
  <scstep>
   <time name="dav">   19.04   19.04</time>
   <time name="total">   20.06   20.07</time>
   <energy>
    <i name="e_fr_energy">   -140.38548905 </i>
    <i name="e_wo_entrp">   -140.38293339 </i>
    <i name="e_0_energy">   -140.38421122 </i>
   </energy>
  </scstep>
  <scstep>
   <time name="dav">   17.83   17.83</time>
   <time name="total">   18.85   18.85</time>
   <energy>
    <i name="e_fr_energy">   -140.38549634 </i>
    <i name="e_wo_entrp">   -140.38294141 </i>
    <i name="e_0_energy">   -140.38421888 </i>
   </energy>
  </scstep>
  <scstep>
   <time name="dav">   17.26   17.27</time>
   <time name="total">   18.29   18.29</time>
   <energy>
    <i name="e_fr_energy">   -140.38549985 </i>
    <i name="e_wo_entrp">   -140.38294542 </i>
    <i name="e_0_energy">   -140.38422263 </i>
   </energy>
  </scstep>
  <scstep>
   <time name="dav">   16.04   16.04</time>
   <time name="total">   17.06   17.07</time>
   <energy>
    <i name="e_fr_energy">   -140.38550137 </i>
    <i name="e_wo_entrp">   -140.38294713 </i>
    <i name="e_0_energy">   -140.38422425 </i>
   </energy>
  </scstep>
  <scstep>
   <time name="dav">   15.20   15.20</time>
   <time name="total">   15.33   15.33</time>
   <energy>
    <i name="alphaZ">     62.58923237 </i>
    <i name="ewald">   5465.31131830 </i>
    <i name="hartreedc">  -7515.19900633 </i>
    <i name="XCdc">    206.46804649 </i>
    <i name="pawpsdc">   6324.17415091 </i>
    <i name="pawaedc">  -6332.19010281 </i>
    <i name="eentropy">     -0.00255421 </i>
    <i name="bandstr">   -553.89551444 </i>
    <i name="atom">   2202.35892741 </i>
    <i name="e_fr_energy">   -140.38550232 </i>
    <i name="e_wo_entrp">   -140.38294811 </i>
    <i name="e_0_energy">   -140.38422522 </i>
   </energy>
  </scstep>
  <structure>
   <crystal>
    <varray name="basis" >
     <v>       4.36650009       2.52100000       0.00000000 </v>
     <v>      -4.36650009       2.52100000       0.00000000 </v>
     <v>       0.00000000       0.00000000      15.00000000 </v>
    </varray>
    <i name="volume">    330.23840150 </i>
    <varray name="rec_basis" >
     <v>       0.11450819       0.19833399       0.00000000 </v>
     <v>      -0.11450819       0.19833399       0.00000000 </v>
     <v>       0.00000000       0.00000000       0.06666667 </v>
    </varray>
   </crystal>
   <varray name="positions" >
    <v>       0.33833034       0.66916432       0.10000000 </v>
    <v>       0.67165522       0.33584146       0.10000000 </v>
    <v>       0.16373946       0.31999962       0.10000000 </v>
    <v>       0.32250218       0.16126397       0.10000000 </v>
    <v>       0.16376430       0.84376384       0.10000000 </v>
    <v>       0.84623863       0.16123684       0.10000000 </v>
    <v>       0.68749850       0.84373000       0.10000000 </v>
    <v>       0.84626736       0.68499594       0.10000000 </v>
    <v>       0.33333267       0.16666633       0.32553333 </v>
    <v>       0.49999967       0.99999933       0.32553333 </v>
    <v>       0.33333267       0.66666633       0.32553333 </v>
    <v>       0.49999967       0.49999933       0.32553333 </v>
    <v>       0.83333267       0.16666633       0.32553333 </v>
    <v>       0.99999967       0.99999933       0.32553333 </v>
    <v>       0.83333267       0.66666633       0.32553333 </v>
    <v>       0.99999967       0.49999933       0.32553333 </v>
   </varray>
  </structure>
  <varray name="forces" >
   <v>       0.00066641       0.00107477       0.05357705 </v>
   <v>       0.00527751       0.00091197      -0.00645057 </v>
   <v>      -0.29765963       0.51505534      -0.01766055 </v>
   <v>       0.28544115       0.49360481       0.00483874 </v>
   <v>       0.59592076      -0.00026863      -0.01766011 </v>
   <v>      -0.57357017      -0.00090837       0.00469722 </v>
   <v>      -0.29927551      -0.51429157      -0.01775229 </v>
   <v>       0.28286261      -0.49577529       0.00469305 </v>
   <v>       0.00210223       0.00341367       0.00305431 </v>
   <v>      -0.01308423       0.02081821       0.01640051 </v>
   <v>      -0.00007359      -0.00034401      -0.06442588 </v>
   <v>       0.02437581      -0.00080917       0.01639775 </v>
   <v>      -0.00344038       0.00063917       0.00196456 </v>
   <v>       0.00014069       0.00046858      -0.00047360 </v>
   <v>       0.00246763      -0.00276799       0.00197181 </v>
   <v>      -0.01215129      -0.02082149       0.01682799 </v>
  </varray>
  <varray name="stress" >
   <v>       2.99904486      -0.00496370       0.00381089 </v>
   <v>      -0.00496369       2.99866351       0.00652673 </v>
   <v>       0.00381086       0.00652675      -2.49797181 </v>
  </varray>
  <energy>
   <i name="e_fr_energy">   -142.27882468 </i>
   <i name="e_wo_entrp">   -142.27754757 </i>
   <i name="e_0_energy">     -0.00255421 </i>
  </energy>
  <time name="totalsc">  531.20  531.39</time>
 </calculation>
 <calculation>
  <scstep>
   <time name="dav">   17.18   17.18</time>
   <time name="total">   18.20   18.20</time>
   <energy>
    <i name="alphaZ">     62.58923237 </i>
    <i name="ewald">   5456.78461817 </i>
    <i name="hartreedc">  -7509.08755875 </i>
    <i name="XCdc">    206.32640794 </i>
    <i name="pawpsdc">   6324.19669828 </i>
    <i name="pawaedc">  -6332.21264150 </i>
    <i name="eentropy">     -0.00275440 </i>
    <i name="bandstr">   -551.28213773 </i>
    <i name="atom">   2202.35892741 </i>
    <i name="e_fr_energy">   -140.32920821 </i>
    <i name="e_wo_entrp">   -140.32645381 </i>
    <i name="e_0_energy">   -140.32783101 </i>
   </energy>
  </scstep>
  <scstep>
   <time name="dav">   20.54   20.54</time>
   <time name="total">   21.55   21.56</time>
   <energy>
    <i name="e_fr_energy">   -140.30228099 </i>
    <i name="e_wo_entrp">   -140.29941231 </i>
    <i name="e_0_energy">   -140.30084665 </i>
   </energy>
  </scstep>
  <scstep>
   <time name="dav">   21.07   21.07</time>
   <time name="total">   22.08   22.09</time>
   <energy>
    <i name="e_fr_energy">   -140.29802338 </i>
    <i name="e_wo_entrp">   -140.29506923 </i>
    <i name="e_0_energy">   -140.29654630 </i>
   </energy>
  </scstep>
  <scstep>
   <time name="dav">   19.92   19.92</time>
   <time name="total">   20.93   20.94</time>
   <energy>
    <i name="e_fr_energy">   -140.29813641 </i>
    <i name="e_wo_entrp">   -140.29516709 </i>
    <i name="e_0_energy">   -140.29665175 </i>
   </energy>
  </scstep>
  <scstep>
   <time name="dav">   18.75   18.75</time>
   <time name="total">   19.76   19.77</time>
   <energy>
    <i name="e_fr_energy">   -140.29795123 </i>
    <i name="e_wo_entrp">   -140.29497068 </i>
    <i name="e_0_energy">   -140.29646096 </i>
   </energy>
  </scstep>
  <scstep>
   <time name="dav">   20.81   20.83</time>
   <time name="total">   21.82   21.84</time>
   <energy>
    <i name="e_fr_energy">   -140.29795553 </i>
    <i name="e_wo_entrp">   -140.29497528 </i>
    <i name="e_0_energy">   -140.29646540 </i>
   </energy>
  </scstep>
  <scstep>
   <time name="dav">   22.77   22.77</time>
   <time name="total">   23.78   23.79</time>
   <energy>
    <i name="e_fr_energy">   -140.29796762 </i>
    <i name="e_wo_entrp">   -140.29498745 </i>
    <i name="e_0_energy">   -140.29647754 </i>
   </energy>
  </scstep>
  <scstep>
   <time name="dav">   19.95   19.96</time>
   <time name="total">   20.96   20.97</time>
   <energy>
    <i name="e_fr_energy">   -140.29797426 </i>
    <i name="e_wo_entrp">   -140.29499384 </i>
    <i name="e_0_energy">   -140.29648405 </i>
   </energy>
  </scstep>
  <scstep>
   <time name="dav">   17.04   17.04</time>
   <time name="total">   18.05   18.05</time>
   <energy>
    <i name="e_fr_energy">   -140.29798790 </i>
    <i name="e_wo_entrp">   -140.29500740 </i>
    <i name="e_0_energy">   -140.29649765 </i>
   </energy>
  </scstep>
  <scstep>
   <time name="dav">   17.56   17.57</time>
   <time name="total">   18.58   18.58</time>
   <energy>
    <i name="e_fr_energy">   -140.29799488 </i>
    <i name="e_wo_entrp">   -140.29501436 </i>
    <i name="e_0_energy">   -140.29650462 </i>
   </energy>
  </scstep>
  <scstep>
   <time name="dav">   16.51   16.52</time>
   <time name="total">   17.53   17.53</time>
   <energy>
    <i name="e_fr_energy">   -140.29800187 </i>
    <i name="e_wo_entrp">   -140.29502133 </i>
    <i name="e_0_energy">   -140.29651160 </i>
   </energy>
  </scstep>
  <scstep>
   <time name="dav">   15.22   15.22</time>
   <time name="total">   16.23   16.24</time>
   <energy>
    <i name="e_fr_energy">   -140.29800508 </i>
    <i name="e_wo_entrp">   -140.29502454 </i>
    <i name="e_0_energy">   -140.29651481 </i>
   </energy>
  </scstep>
  <scstep>
   <time name="dav">   14.25   14.26</time>
   <time name="total">   14.38   14.39</time>
   <energy>
    <i name="alphaZ">     62.58923237 </i>
    <i name="ewald">   5456.78461817 </i>
    <i name="hartreedc">  -7506.40585337 </i>
    <i name="XCdc">    206.22036329 </i>
    <i name="pawpsdc">   6282.94239414 </i>
    <i name="pawaedc">  -6290.94408736 </i>
    <i name="eentropy">     -0.00298055 </i>
    <i name="bandstr">   -553.84061999 </i>
    <i name="atom">   2202.35892741 </i>
    <i name="e_fr_energy">   -140.29800589 </i>
    <i name="e_wo_entrp">   -140.29502535 </i>
    <i name="e_0_energy">   -140.29651562 </i>
   </energy>
  </scstep>
  <structure>
   <crystal>
    <varray name="basis" >
     <v>       4.36650009       2.52100000       0.00000000 </v>
     <v>      -4.36650009       2.52100000       0.00000000 </v>
     <v>       0.00000000       0.00000000      15.00000000 </v>
    </varray>
    <i name="volume">    330.23840150 </i>
    <varray name="rec_basis" >
     <v>       0.11450819       0.19833399       0.00000000 </v>
     <v>      -0.11450819       0.19833399       0.00000000 </v>
     <v>       0.00000000       0.00000000       0.06666667 </v>
    </varray>
   </crystal>
   <varray name="positions" >
    <v>       0.33834431       0.66917092       0.10017231 </v>
    <v>       0.67169310       0.33582103       0.09997925 </v>
    <v>       0.16702327       0.32657208       0.09994320 </v>
    <v>       0.32880190       0.16441003       0.10001556 </v>
    <v>       0.16705370       0.84046930       0.09994320 </v>
    <v>       0.84306144       0.16439665       0.10001511 </v>
    <v>       0.68092443       0.84046243       0.09994291 </v>
    <v>       0.84308628       0.67868970       0.10001509 </v>
    <v>       0.33337694       0.16668738       0.32554316 </v>
    <v>       0.50012658       0.00027080       0.32558608 </v>
    <v>       0.33332897       0.66666345       0.32532613 </v>
    <v>       0.50012658       0.49985693       0.32558607 </v>
    <v>       0.83331978       0.16669145       0.32553965 </v>
    <v>       0.00000493       0.00000304       0.32553181 </v>
    <v>       0.83331981       0.66662622       0.32553968 </v>
    <v>       0.99973332       0.49986724       0.32558746 </v>
   </varray>
  </structure>
  <varray name="forces" >
   <v>      -0.00021312      -0.00207513       0.00699936 </v>
   <v>      -0.01296330      -0.00273938      -0.00438446 </v>
   <v>       0.78892483      -1.36763145       0.01070448 </v>
   <v>      -0.75530357      -1.31133825      -0.01093247 </v>
   <v>      -1.58315932      -0.00313183       0.01070179 </v>
   <v>       1.52669033       0.00493542      -0.01091808 </v>
   <v>       0.78915297       1.36507055       0.01054366 </v>
   <v>      -0.75339574       1.31641636      -0.01090726 </v>
   <v>      -0.00332709      -0.00498455       0.00906605 </v>
   <v>       0.03158228      -0.04914167      -0.00826092 </v>
   <v>      -0.00003215       0.00065630       0.00024464 </v>
   <v>      -0.05771111       0.00240932      -0.00824986 </v>
   <v>       0.00425433      -0.00146338       0.00894466 </v>
   <v>       0.00014029      -0.00048655      -0.00415466 </v>
   <v>      -0.00404768       0.00330753       0.00892164 </v>
   <v>       0.02940803       0.05019672      -0.00831856 </v>
  </varray>
  <varray name="stress" >
   <v>      -4.63879511      -0.02989421       0.00347502 </v>
   <v>      -0.02989418      -4.70307093       0.00599824 </v>
   <v>       0.00347500       0.00599822      -2.41078683 </v>
  </varray>
  <energy>
   <i name="e_fr_energy">   -142.19607858 </i>
   <i name="e_wo_entrp">   -142.19458830 </i>
   <i name="e_0_energy">     -0.00298055 </i>
  </energy>
  <time name="totalsc">  268.66  268.74</time>
 </calculation>
 <calculation>
  <scstep>
   <time name="dav">   17.17   17.19</time>
   <time name="total">   18.19   18.21</time>
   <energy>
    <i name="alphaZ">     62.58923237 </i>
    <i name="ewald">   5462.77092275 </i>
    <i name="hartreedc">  -7510.57972405 </i>
    <i name="XCdc">    206.31566430 </i>
    <i name="pawpsdc">   6282.94271684 </i>
    <i name="pawaedc">  -6290.94441774 </i>
    <i name="eentropy">     -0.00194467 </i>
    <i name="bandstr">   -555.86575418 </i>
    <i name="atom">   2202.35892741 </i>
    <i name="e_fr_energy">   -140.41437697 </i>
    <i name="e_wo_entrp">   -140.41243230 </i>
    <i name="e_0_energy">   -140.41340464 </i>
   </energy>
  </scstep>
  <scstep>
   <time name="dav">   20.28   20.30</time>
   <time name="total">   21.29   21.31</time>
   <energy>
    <i name="e_fr_energy">   -140.39976949 </i>
    <i name="e_wo_entrp">   -140.39731620 </i>
    <i name="e_0_energy">   -140.39854285 </i>
   </energy>
  </scstep>
  <scstep>
   <time name="dav">   20.96   20.98</time>
   <time name="total">   21.97   21.99</time>
   <energy>
    <i name="e_fr_energy">   -140.39729423 </i>
    <i name="e_wo_entrp">   -140.39459173 </i>
    <i name="e_0_energy">   -140.39594298 </i>
   </energy>
  </scstep>
  <scstep>
   <time name="dav">   18.74   18.76</time>
   <time name="total">   19.75   19.77</time>
   <energy>
    <i name="e_fr_energy">   -140.39725108 </i>
    <i name="e_wo_entrp">   -140.39455583 </i>
    <i name="e_0_energy">   -140.39590346 </i>
   </energy>
  </scstep>
  <scstep>
   <time name="dav">   17.94   17.96</time>
   <time name="total">   18.95   18.97</time>
   <energy>
    <i name="e_fr_energy">   -140.39724202 </i>
    <i name="e_wo_entrp">   -140.39448816 </i>
    <i name="e_0_energy">   -140.39586509 </i>
   </energy>
  </scstep>
  <scstep>
   <time name="dav">   20.54   20.56</time>
   <time name="total">   21.55   21.57</time>
   <energy>
    <i name="e_fr_energy">   -140.39723647 </i>
    <i name="e_wo_entrp">   -140.39449221 </i>
    <i name="e_0_energy">   -140.39586434 </i>
   </energy>
  </scstep>
  <scstep>
   <time name="dav">   21.82   21.84</time>
   <time name="total">   22.83   22.85</time>
   <energy>
    <i name="e_fr_energy">   -140.39724204 </i>
    <i name="e_wo_entrp">   -140.39449835 </i>
    <i name="e_0_energy">   -140.39587019 </i>
   </energy>
  </scstep>
  <scstep>
   <time name="dav">   18.11   18.12</time>
   <time name="total">   19.12   19.14</time>
   <energy>
    <i name="e_fr_energy">   -140.39724517 </i>
    <i name="e_wo_entrp">   -140.39450039 </i>
    <i name="e_0_energy">   -140.39587278 </i>
   </energy>
  </scstep>
  <scstep>
   <time name="dav">   16.28   16.30</time>
   <time name="total">   17.35   17.37</time>
   <energy>
    <i name="e_fr_energy">   -140.39725489 </i>
    <i name="e_wo_entrp">   -140.39450788 </i>
    <i name="e_0_energy">   -140.39588139 </i>
   </energy>
  </scstep>
  <scstep>
   <time name="dav">   15.48   15.50</time>
   <time name="total">   16.50   16.52</time>
   <energy>
    <i name="e_fr_energy">   -140.39725846 </i>
    <i name="e_wo_entrp">   -140.39451129 </i>
    <i name="e_0_energy">   -140.39588488 </i>
   </energy>
  </scstep>
  <scstep>
   <time name="dav">   13.50   13.51</time>
   <time name="total">   14.51   14.53</time>
   <energy>
    <i name="e_fr_energy">   -140.39726134 </i>
    <i name="e_wo_entrp">   -140.39451406 </i>
    <i name="e_0_energy">   -140.39588770 </i>
   </energy>
  </scstep>
  <scstep>
   <time name="dav">   14.00   14.02</time>
   <time name="total">   15.01   15.03</time>
   <energy>
    <i name="e_fr_energy">   -140.39726290 </i>
    <i name="e_wo_entrp">   -140.39451544 </i>
    <i name="e_0_energy">   -140.39588917 </i>
   </energy>
  </scstep>
  <scstep>
   <time name="dav">   16.27   16.29</time>
   <time name="total">   16.40   16.42</time>
   <energy>
    <i name="alphaZ">     62.58923237 </i>
    <i name="ewald">   5462.77092275 </i>
    <i name="hartreedc">  -7512.62866240 </i>
    <i name="XCdc">    206.39603182 </i>
    <i name="pawpsdc">   6310.26246973 </i>
    <i name="pawaedc">  -6318.27343973 </i>
    <i name="eentropy">     -0.00274746 </i>
    <i name="bandstr">   -553.86999769 </i>
    <i name="atom">   2202.35892741 </i>
    <i name="e_fr_energy">   -140.39726320 </i>
    <i name="e_wo_entrp">   -140.39451574 </i>
    <i name="e_0_energy">   -140.39588947 </i>
   </energy>
  </scstep>
  <structure>
   <crystal>
    <varray name="basis" >
     <v>       4.36650009       2.52100000       0.00000000 </v>
     <v>      -4.36650009       2.52100000       0.00000000 </v>
     <v>       0.00000000       0.00000000      15.00000000 </v>
    </varray>
    <i name="volume">    330.23840150 </i>
    <varray name="rec_basis" >
     <v>       0.11450819       0.19833399       0.00000000 </v>
     <v>      -0.11450819       0.19833399       0.00000000 </v>
     <v>       0.00000000       0.00000000       0.06666667 </v>
    </varray>
   </crystal>
   <varray name="positions" >
    <v>       0.33833412       0.66916611       0.10004655 </v>
    <v>       0.67166545       0.33583594       0.09999440 </v>
    <v>       0.16462661       0.32177522       0.09998466 </v>
    <v>       0.32420410       0.16211390       0.10000420 </v>
    <v>       0.16465296       0.84287380       0.09998466 </v>
    <v>       0.84538029       0.16209049       0.10000408 </v>
    <v>       0.68572247       0.84284724       0.09998458 </v>
    <v>       0.84540796       0.68329227       0.10000408 </v>
    <v>       0.33334463       0.16667202       0.32553599 </v>
    <v>       0.50003395       0.00007267       0.32554758 </v>
    <v>       0.33333167       0.66666555       0.32547736 </v>
    <v>       0.50003395       0.49996086       0.32554758 </v>
    <v>       0.83332918       0.16667312       0.32553504 </v>
    <v>       0.00000109       0.00000033       0.32553292 </v>
    <v>       0.83332919       0.66665550       0.32553505 </v>
    <v>       0.99992771       0.49996365       0.32554795 </v>
   </varray>
  </structure>
  <varray name="forces" >
   <v>       0.00042448       0.00027946       0.03999297 </v>
   <v>       0.00070219      -0.00002129      -0.00586597 </v>
   <v>       0.00035588      -0.00143769      -0.00986296 </v>
   <v>      -0.00071099      -0.00264471       0.00072947 </v>
   <v>      -0.00180998      -0.00118160      -0.00986272 </v>
   <v>       0.00343016       0.00081528       0.00064694 </v>
   <v>      -0.00074681       0.00114055      -0.00998120 </v>
   <v>      -0.00193956       0.00252102       0.00064810 </v>
   <v>       0.00064586       0.00115694       0.00470175 </v>
   <v>      -0.00104429       0.00190784       0.00976882 </v>
   <v>      -0.00005375      -0.00006172      -0.04703229 </v>
   <v>       0.00220069       0.00003484       0.00976869 </v>
   <v>      -0.00134951       0.00008516       0.00387132 </v>
   <v>       0.00012583       0.00018883      -0.00146139 </v>
   <v>       0.00071807      -0.00111106       0.00387106 </v>
   <v>      -0.00094828      -0.00167184       0.01006742 </v>
  </varray>
  <varray name="stress" >
   <v>       0.41631285      -0.01265514       0.00374427 </v>
   <v>      -0.01265518       0.39988193       0.00646576 </v>
   <v>       0.00374425       0.00646578      -2.47287952 </v>
  </varray>
  <energy>
   <i name="e_fr_energy">   -142.29216951 </i>
   <i name="e_wo_entrp">   -142.29079578 </i>
   <i name="e_0_energy">     -0.00274746 </i>
  </energy>
  <time name="totalsc">  258.21  258.50</time>
 </calculation>
 <calculation>
  <scstep>
   <time name="dav">   14.65   14.66</time>
   <time name="total">   15.67   15.69</time>
   <energy>
    <i name="alphaZ">     62.58923237 </i>
    <i name="ewald">   5462.77226459 </i>
    <i name="hartreedc">  -7512.63054769 </i>
    <i name="XCdc">    206.39605649 </i>
    <i name="pawpsdc">   6310.26310928 </i>
    <i name="pawaedc">  -6318.27407553 </i>
    <i name="eentropy">     -0.00274721 </i>
    <i name="bandstr">   -553.86948387 </i>
    <i name="atom">   2202.35892741 </i>
    <i name="e_fr_energy">   -140.39726416 </i>
    <i name="e_wo_entrp">   -140.39451696 </i>
    <i name="e_0_energy">   -140.39589056 </i>
   </energy>
  </scstep>
  <scstep>
   <time name="dav">   16.67   16.69</time>
   <time name="total">   16.80   16.82</time>
   <energy>
    <i name="alphaZ">     62.58923237 </i>
    <i name="ewald">   5462.77226459 </i>
    <i name="hartreedc">  -7512.63110147 </i>
    <i name="XCdc">    206.39606774 </i>
    <i name="pawpsdc">   6310.25879222 </i>
    <i name="pawaedc">  -6318.26975978 </i>
    <i name="eentropy">     -0.00274726 </i>
    <i name="bandstr">   -553.86894002 </i>
    <i name="atom">   2202.35892741 </i>
    <i name="e_fr_energy">   -140.39726420 </i>
    <i name="e_wo_entrp">   -140.39451694 </i>
    <i name="e_0_energy">   -140.39589057 </i>
   </energy>
  </scstep>
  <structure>
   <crystal>
    <varray name="basis" >
     <v>       4.36650009       2.52100000       0.00000000 </v>
     <v>      -4.36650009       2.52100000       0.00000000 </v>
     <v>       0.00000000       0.00000000      15.00000000 </v>
    </varray>
    <i name="volume">    330.23840150 </i>
    <varray name="rec_basis" >
     <v>       0.11450819       0.19833399       0.00000000 </v>
     <v>      -0.11450819       0.19833399       0.00000000 </v>
     <v>       0.00000000       0.00000000       0.06666667 </v>
    </varray>
   </crystal>
   <varray name="positions" >
    <v>       0.33833411       0.66916610       0.10004653 </v>
    <v>       0.67166544       0.33583594       0.09999440 </v>
    <v>       0.16462612       0.32177425       0.09998466 </v>
    <v>       0.32420317       0.16211343       0.10000420 </v>
    <v>       0.16465247       0.84287428       0.09998466 </v>
    <v>       0.84538076       0.16209002       0.10000408 </v>
    <v>       0.68572344       0.84284773       0.09998458 </v>
    <v>       0.84540844       0.68329320       0.10000408 </v>
    <v>       0.33334462       0.16667202       0.32553599 </v>
    <v>       0.50003393       0.00007263       0.32554758 </v>
    <v>       0.33333167       0.66666555       0.32547739 </v>
    <v>       0.50003393       0.49996088       0.32554757 </v>
    <v>       0.83332919       0.16667312       0.32553504 </v>
    <v>       0.00000109       0.00000033       0.32553292 </v>
    <v>       0.83332920       0.66665550       0.32553505 </v>
    <v>       0.99992775       0.49996367       0.32554795 </v>
   </varray>
  </structure>
  <varray name="forces" >
   <v>       0.00042475       0.00027988       0.04000039 </v>
   <v>       0.00070491      -0.00002067      -0.00586690 </v>
   <v>       0.00018120      -0.00113367      -0.00987107 </v>
   <v>      -0.00054458      -0.00235585       0.00072929 </v>
   <v>      -0.00145888      -0.00118136      -0.00987080 </v>
   <v>       0.00309320       0.00081487       0.00064663 </v>
   <v>      -0.00092209       0.00083680      -0.00998937 </v>
   <v>      -0.00177362       0.00223072       0.00064786 </v>
   <v>       0.00064562       0.00115630       0.00470407 </v>
   <v>      -0.00105164       0.00191933       0.00977764 </v>
   <v>      -0.00005370      -0.00006187      -0.04704830 </v>
   <v>       0.00221424       0.00003427       0.00977752 </v>
   <v>      -0.00134828       0.00008561       0.00387335 </v>
   <v>       0.00012587       0.00018905      -0.00145979 </v>
   <v>       0.00071805      -0.00110992       0.00387308 </v>
   <v>      -0.00095506      -0.00168349       0.01007638 </v>
  </varray>
  <varray name="stress" >
   <v>       0.41801528      -0.01265416       0.00374467 </v>
   <v>      -0.01265417       0.40159572       0.00646636 </v>
   <v>       0.00374467       0.00646635      -2.47217462 </v>
  </varray>
  <energy>
   <i name="e_fr_energy">   -142.29216971 </i>
   <i name="e_wo_entrp">   -142.29079608 </i>
   <i name="e_0_energy">     -0.00274726 </i>
  </energy>
  <time name="totalsc">   47.25   47.31</time>
 </calculation>
 <calculation>
  <scstep>
   <time name="dav">   17.20   17.24</time>
   <time name="total">   18.22   18.25</time>
   <energy>
    <i name="alphaZ">     62.58923237 </i>
    <i name="ewald">   5462.82299186 </i>
    <i name="hartreedc">  -7512.68006278 </i>
    <i name="XCdc">    206.39633447 </i>
    <i name="pawpsdc">   6310.26037045 </i>
    <i name="pawaedc">  -6318.27133893 </i>
    <i name="eentropy">     -0.00274188 </i>
    <i name="bandstr">   -553.87106111 </i>
    <i name="atom">   2202.35892741 </i>
    <i name="e_fr_energy">   -140.39734814 </i>
    <i name="e_wo_entrp">   -140.39460626 </i>
    <i name="e_0_energy">   -140.39597720 </i>
   </energy>
  </scstep>
  <scstep>
   <time name="dav">   20.45   20.47</time>
   <time name="total">   21.47   21.48</time>
   <energy>
    <i name="e_fr_energy">   -140.39735089 </i>
    <i name="e_wo_entrp">   -140.39461055 </i>
    <i name="e_0_energy">   -140.39598072 </i>
   </energy>
  </scstep>
  <scstep>
   <time name="dav">   17.56   17.57</time>
   <time name="total">   18.57   18.58</time>
   <energy>
    <i name="e_fr_energy">   -140.39735399 </i>
    <i name="e_wo_entrp">   -140.39461552 </i>
    <i name="e_0_energy">   -140.39598476 </i>
   </energy>
  </scstep>
  <scstep>
   <time name="dav">   19.51   19.53</time>
   <time name="total">   19.64   19.66</time>
   <energy>
    <i name="alphaZ">     62.58923237 </i>
    <i name="ewald">   5462.82299186 </i>
    <i name="hartreedc">  -7512.67215210 </i>
    <i name="XCdc">    206.39632192 </i>
    <i name="pawpsdc">   6310.28345462 </i>
    <i name="pawaedc">  -6318.29442735 </i>
    <i name="eentropy">     -0.00273827 </i>
    <i name="bandstr">   -553.87896451 </i>
    <i name="atom">   2202.35892741 </i>
    <i name="e_fr_energy">   -140.39735404 </i>
    <i name="e_wo_entrp">   -140.39461578 </i>
    <i name="e_0_energy">   -140.39598491 </i>
   </energy>
  </scstep>
  <structure>
   <crystal>
    <varray name="basis" >
     <v>       4.36650009       2.52100000       0.00000000 </v>
     <v>      -4.36650009       2.52100000       0.00000000 </v>
     <v>       0.00000000       0.00000000      15.00000000 </v>
    </varray>
    <i name="volume">    330.23840150 </i>
    <varray name="rec_basis" >
     <v>       0.11450819       0.19833399       0.00000000 </v>
     <v>      -0.11450819       0.19833399       0.00000000 </v>
     <v>       0.00000000       0.00000000       0.06666667 </v>
    </varray>
   </crystal>
   <varray name="positions" >
    <v>       0.33833843       0.66916640       0.10015671 </v>
    <v>       0.67166867       0.33583241       0.09997825 </v>
    <v>       0.16462381       0.32177632       0.09995745 </v>
    <v>       0.32419304       0.16210259       0.10000623 </v>
    <v>       0.16464204       0.84286540       0.09995745 </v>
    <v>       0.84539612       0.16208795       0.10000588 </v>
    <v>       0.68571373       0.84285285       0.09995704 </v>
    <v>       0.84541239       0.68330809       0.10000588 </v>
    <v>       0.33335720       0.16667846       0.32554892 </v>
    <v>       0.50004489       0.00009378       0.32557453 </v>
    <v>       0.33333090       0.66666530       0.32534778 </v>
    <v>       0.50004490       0.49995045       0.32557453 </v>
    <v>       0.83332350       0.16668022       0.32554569 </v>
    <v>       0.00000324       0.00000129       0.32552891 </v>
    <v>       0.83332349       0.66664297       0.32554570 </v>
    <v>       0.99990899       0.49995417       0.32557572 </v>
   </varray>
  </structure>
  <varray name="forces" >
   <v>      -0.00155253      -0.00117947       0.01716432 </v>
   <v>      -0.00042149       0.00041956       0.00099158 </v>
   <v>       0.00396260       0.00032639       0.00334539 </v>
   <v>      -0.00021477       0.00042833      -0.00688248 </v>
   <v>      -0.00095155       0.00129998       0.00334517 </v>
   <v>      -0.00287817      -0.00102696      -0.00697206 </v>
   <v>       0.00287047       0.00241089       0.00324639 </v>
   <v>      -0.00110811      -0.00320818      -0.00698048 </v>
   <v>      -0.00096194      -0.00175075       0.00671685 </v>
   <v>       0.00195482      -0.00328085      -0.00478336 </v>
   <v>       0.00024329       0.00034196      -0.01171996 </v>
   <v>      -0.00389546       0.00009354      -0.00478074 </v>
   <v>       0.00244978       0.00006945       0.00645837 </v>
   <v>      -0.00016501      -0.00020061      -0.00079086 </v>
   <v>      -0.00109591       0.00212042       0.00645317 </v>
   <v>       0.00176396       0.00313629      -0.00481131 </v>
  </varray>
  <varray name="stress" >
   <v>       0.41426358      -0.00237647       0.00379742 </v>
   <v>      -0.00237651       0.42396004       0.00666262 </v>
   <v>       0.00379740       0.00666260      -2.49110928 </v>
  </varray>
  <energy>
   <i name="e_fr_energy">   -142.29228471 </i>
   <i name="e_wo_entrp">   -142.29091558 </i>
   <i name="e_0_energy">     -0.00273827 </i>
  </energy>
  <time name="totalsc">   92.67   92.78</time>
 </calculation>
 <calculation>
  <scstep>
   <time name="dav">   17.52   17.54</time>
   <time name="total">   18.53   18.55</time>
   <energy>
    <i name="alphaZ">     62.58923237 </i>
    <i name="ewald">   5462.83698192 </i>
    <i name="hartreedc">  -7512.68341119 </i>
    <i name="XCdc">    206.39636626 </i>
    <i name="pawpsdc">   6310.28331086 </i>
    <i name="pawaedc">  -6318.29428059 </i>
    <i name="eentropy">     -0.00273653 </i>
    <i name="bandstr">   -553.88174311 </i>
    <i name="atom">   2202.35892741 </i>
    <i name="e_fr_energy">   -140.39735261 </i>
    <i name="e_wo_entrp">   -140.39461608 </i>
    <i name="e_0_energy">   -140.39598435 </i>
   </energy>
  </scstep>
  <scstep>
   <time name="dav">   19.98   20.00</time>
   <time name="total">   20.11   20.13</time>
   <energy>
    <i name="alphaZ">     62.58923237 </i>
    <i name="ewald">   5462.83698192 </i>
    <i name="hartreedc">  -7512.68210849 </i>
    <i name="XCdc">    206.39636196 </i>
    <i name="pawpsdc">   6310.28497632 </i>
    <i name="pawaedc">  -6318.29594683 </i>
    <i name="eentropy">     -0.00273605 </i>
    <i name="bandstr">   -553.88304134 </i>
    <i name="atom">   2202.35892741 </i>
    <i name="e_fr_energy">   -140.39735275 </i>
    <i name="e_wo_entrp">   -140.39461670 </i>
    <i name="e_0_energy">   -140.39598472 </i>
   </energy>
  </scstep>
  <structure>
   <crystal>
    <varray name="basis" >
     <v>       4.36650009       2.52100000       0.00000000 </v>
     <v>      -4.36650009       2.52100000       0.00000000 </v>
     <v>       0.00000000       0.00000000      15.00000000 </v>
    </varray>
    <i name="volume">    330.23840150 </i>
    <varray name="rec_basis" >
     <v>       0.11450819       0.19833399       0.00000000 </v>
     <v>      -0.11450819       0.19833399       0.00000000 </v>
     <v>       0.00000000       0.00000000       0.06666667 </v>
    </varray>
   </crystal>
   <varray name="positions" >
    <v>       0.33833967       0.66916648       0.10018824 </v>
    <v>       0.67166959       0.33583140       0.09997362 </v>
    <v>       0.16462314       0.32177692       0.09994966 </v>
    <v>       0.32419014       0.16209949       0.10000682 </v>
    <v>       0.16463905       0.84286286       0.09994966 </v>
    <v>       0.84540051       0.16208736       0.10000640 </v>
    <v>       0.68571095       0.84285432       0.09994916 </v>
    <v>       0.84541353       0.68331236       0.10000640 </v>
    <v>       0.33336080       0.16668030       0.32555263 </v>
    <v>       0.50004803       0.00009983       0.32558224 </v>
    <v>       0.33333068       0.66666522       0.32531069 </v>
    <v>       0.50004803       0.49994747       0.32558224 </v>
    <v>       0.83332187       0.16668226       0.32554874 </v>
    <v>       0.00000385       0.00000157       0.32552776 </v>
    <v>       0.83332186       0.66663938       0.32554874 </v>
    <v>       0.99990363       0.49995145       0.32558367 </v>
   </varray>
  </structure>
  <varray name="forces" >
   <v>      -0.00211724      -0.00158513       0.01086506 </v>
   <v>      -0.00064614       0.00057678       0.00300056 </v>
   <v>       0.00492288       0.00053527       0.00729534 </v>
   <v>      -0.00019340       0.00107980      -0.00924977 </v>
   <v>      -0.00087940       0.00195977       0.00729471 </v>
   <v>      -0.00435768      -0.00155244      -0.00935258 </v>
   <v>       0.00391851       0.00302652       0.00719300 </v>
   <v>      -0.00092863      -0.00455761      -0.00934564 </v>
   <v>      -0.00130223      -0.00237190       0.00745170 </v>
   <v>       0.00268849      -0.00457354      -0.00909852 </v>
   <v>       0.00031651       0.00043934      -0.00201868 </v>
   <v>      -0.00541052       0.00009882      -0.00909453 </v>
   <v>       0.00328015       0.00007432       0.00734899 </v>
   <v>      -0.00023844      -0.00029627      -0.00040926 </v>
   <v>      -0.00148047       0.00282787       0.00734178 </v>
   <v>       0.00242762       0.00431839      -0.00922215 </v>
  </varray>
  <varray name="stress" >
   <v>       0.41599835      -0.00067517       0.00382964 </v>
   <v>      -0.00067516       0.42993045       0.00665631 </v>
   <v>       0.00382967       0.00665635      -2.49414082 </v>
  </varray>
  <energy>
   <i name="e_fr_energy">   -142.29229063 </i>
   <i name="e_wo_entrp">   -142.29092260 </i>
   <i name="e_0_energy">     -0.00273605 </i>
  </energy>
  <time name="totalsc">   53.41   53.47</time>
 </calculation>
 <calculation>
  <scstep>
   <time name="dav">   17.18   17.20</time>
   <time name="total">   18.20   18.22</time>
   <energy>
    <i name="alphaZ">     62.58923237 </i>
    <i name="ewald">   5462.99034252 </i>
    <i name="hartreedc">  -7512.83268319 </i>
    <i name="XCdc">    206.39648023 </i>
    <i name="pawpsdc">   6310.28808781 </i>
    <i name="pawaedc">  -6318.29906090 </i>
    <i name="eentropy">     -0.00273496 </i>
    <i name="bandstr">   -553.88591782 </i>
    <i name="atom">   2202.35892741 </i>
    <i name="e_fr_energy">   -140.39732653 </i>
    <i name="e_wo_entrp">   -140.39459157 </i>
    <i name="e_0_energy">   -140.39595905 </i>
   </energy>
  </scstep>
  <scstep>
   <time name="dav">   18.13   18.15</time>
   <time name="total">   19.15   19.16</time>
   <energy>
    <i name="e_fr_energy">   -140.39732719 </i>
    <i name="e_wo_entrp">   -140.39459311 </i>
    <i name="e_0_energy">   -140.39596015 </i>
   </energy>
  </scstep>
  <scstep>
   <time name="dav">   18.57   18.59</time>
   <time name="total">   18.70   18.72</time>
   <energy>
    <i name="alphaZ">     62.58923237 </i>
    <i name="ewald">   5462.99034252 </i>
    <i name="hartreedc">  -7512.82618127 </i>
    <i name="XCdc">    206.39639105 </i>
    <i name="pawpsdc">   6310.31152533 </i>
    <i name="pawaedc">  -6318.32248995 </i>
    <i name="eentropy">     -0.00273282 </i>
    <i name="bandstr">   -553.89234264 </i>
    <i name="atom">   2202.35892741 </i>
    <i name="e_fr_energy">   -140.39732800 </i>
    <i name="e_wo_entrp">   -140.39459518 </i>
    <i name="e_0_energy">   -140.39596159 </i>
   </energy>
  </scstep>
  <structure>
   <crystal>
    <varray name="basis" >
     <v>       4.36650009       2.52100000       0.00000000 </v>
     <v>      -4.36650009       2.52100000       0.00000000 </v>
     <v>       0.00000000       0.00000000      15.00000000 </v>
    </varray>
    <i name="volume">    330.23840150 </i>
    <varray name="rec_basis" >
     <v>       0.11450819       0.19833399       0.00000000 </v>
     <v>      -0.11450819       0.19833399       0.00000000 </v>
     <v>       0.00000000       0.00000000       0.06666667 </v>
    </varray>
   </crystal>
   <varray name="positions" >
    <v>       0.33831657       0.66916343       0.10024945 </v>
    <v>       0.67167222       0.33583866       0.09997799 </v>
    <v>       0.16465170       0.32175755       0.09996352 </v>
    <v>       0.32419577       0.16210686       0.09998050 </v>
    <v>       0.16464879       0.84288178       0.09996352 </v>
    <v>       0.84536950       0.16209512       0.09997973 </v>
    <v>       0.68575403       0.84286230       0.09996263 </v>
    <v>       0.84537059       0.68328162       0.09997975 </v>
    <v>       0.33333720       0.16666804       0.32557775 </v>
    <v>       0.50002488       0.00005261       0.32556307 </v>
    <v>       0.33333585       0.66666737       0.32526995 </v>
    <v>       0.50002485       0.49997250       0.32556308 </v>
    <v>       0.83333735       0.16666845       0.32557294 </v>
    <v>       0.00000068       0.00000045       0.32552549 </v>
    <v>       0.83333737       0.66666783       0.32557293 </v>
    <v>       0.99994799       0.49997410       0.32556437 </v>
   </varray>
  </structure>
  <varray name="forces" >
   <v>       0.00512761       0.00415928       0.00365997 </v>
   <v>      -0.00138370      -0.00302098      -0.00088966 </v>
   <v>      -0.01457797      -0.00469092       0.00178345 </v>
   <v>       0.00565137       0.00005944      -0.00022060 </v>
   <v>      -0.00168459      -0.00882185       0.00177654 </v>
   <v>       0.01142949       0.00786118      -0.00041365 </v>
   <v>      -0.01234283      -0.00822018       0.00173082 </v>
   <v>       0.00745006       0.01208589      -0.00044017 </v>
   <v>       0.00235336       0.00438581      -0.00207737 </v>
   <v>      -0.00477844       0.00881784      -0.00290408 </v>
   <v>      -0.00062316      -0.00076400       0.00281289 </v>
   <v>       0.01030047       0.00013284      -0.00291271 </v>
   <v>      -0.00600005      -0.00008461      -0.00199180 </v>
   <v>       0.00068630       0.00088206       0.00510056 </v>
   <v>       0.00266995      -0.00509996      -0.00198174 </v>
   <v>      -0.00427787      -0.00768183      -0.00303245 </v>
  </varray>
  <varray name="stress" >
   <v>       0.47676742      -0.05001108       0.00404487 </v>
   <v>      -0.05001107       0.36531213       0.00676080 </v>
   <v>       0.00404490       0.00676081      -2.49902601 </v>
  </varray>
  <energy>
   <i name="e_fr_energy">   -142.29230945 </i>
   <i name="e_wo_entrp">   -142.29094305 </i>
   <i name="e_0_energy">     -0.00273282 </i>
  </energy>
  <time name="totalsc">   70.81   70.89</time>
 </calculation>
 <calculation>
  <scstep>
   <time name="dav">   19.35   19.37</time>
   <time name="total">   20.36   20.39</time>
   <energy>
    <i name="alphaZ">     62.58923237 </i>
    <i name="ewald">   5462.95202845 </i>
    <i name="hartreedc">  -7512.78533851 </i>
    <i name="XCdc">    206.39635573 </i>
    <i name="pawpsdc">   6310.30209431 </i>
    <i name="pawaedc">  -6318.31305868 </i>
    <i name="eentropy">     -0.00273276 </i>
    <i name="bandstr">   -553.89484883 </i>
    <i name="atom">   2202.35892741 </i>
    <i name="e_fr_energy">   -140.39734051 </i>
    <i name="e_wo_entrp">   -140.39460776 </i>
    <i name="e_0_energy">   -140.39597414 </i>
   </energy>
  </scstep>
  <scstep>
   <time name="dav">   18.26   18.28</time>
   <time name="total">   18.39   18.41</time>
   <energy>
    <i name="alphaZ">     62.58923237 </i>
    <i name="ewald">   5462.95202845 </i>
    <i name="hartreedc">  -7512.78389665 </i>
    <i name="XCdc">    206.39636003 </i>
    <i name="pawpsdc">   6310.28706605 </i>
    <i name="pawaedc">  -6318.29803160 </i>
    <i name="eentropy">     -0.00273288 </i>
    <i name="bandstr">   -553.89629373 </i>
    <i name="atom">   2202.35892741 </i>
    <i name="e_fr_energy">   -140.39734055 </i>
    <i name="e_wo_entrp">   -140.39460767 </i>
    <i name="e_0_energy">   -140.39597411 </i>
   </energy>
  </scstep>
  <structure>
   <crystal>
    <varray name="basis" >
     <v>       4.36650009       2.52100000       0.00000000 </v>
     <v>      -4.36650009       2.52100000       0.00000000 </v>
     <v>       0.00000000       0.00000000      15.00000000 </v>
    </varray>
    <i name="volume">    330.23840150 </i>
    <varray name="rec_basis" >
     <v>       0.11450819       0.19833399       0.00000000 </v>
     <v>      -0.11450819       0.19833399       0.00000000 </v>
     <v>       0.00000000       0.00000000       0.06666667 </v>
    </varray>
   </crystal>
   <varray name="positions" >
    <v>       0.33832235       0.66916419       0.10023413 </v>
    <v>       0.67167156       0.33583684       0.09997690 </v>
    <v>       0.16464455       0.32176239       0.09996005 </v>
    <v>       0.32419436       0.16210501       0.09998709 </v>
    <v>       0.16464635       0.84287705       0.09996005 </v>
    <v>       0.84537726       0.16209318       0.09998640 </v>
    <v>       0.68574325       0.84286030       0.09995926 </v>
    <v>       0.84538133       0.68328931       0.09998642 </v>
    <v>       0.33334310       0.16667111       0.32557146 </v>
    <v>       0.50003067       0.00006442       0.32556787 </v>
    <v>       0.33333456       0.66666683       0.32528014 </v>
    <v>       0.50003065       0.49996624       0.32556788 </v>
    <v>       0.83333347       0.16667191       0.32556689 </v>
    <v>       0.00000147       0.00000073       0.32552606 </v>
    <v>       0.83333349       0.66666071       0.32556688 </v>
    <v>       0.99993689       0.49996843       0.32556920 </v>
   </varray>
  </structure>
  <varray name="forces" >
   <v>       0.00349374       0.00283421       0.00556884 </v>
   <v>      -0.00151681      -0.00229247       0.00005136 </v>
   <v>      -0.00934809      -0.00335032       0.00326238 </v>
   <v>       0.00425315       0.00057943      -0.00261057 </v>
   <v>      -0.00170464      -0.00604278       0.00328166 </v>
   <v>       0.00736768       0.00547883      -0.00269917 </v>
   <v>      -0.00813003      -0.00539260       0.00319019 </v>
   <v>       0.00530386       0.00763687      -0.00269817 </v>
   <v>       0.00115274       0.00219509       0.00061953 </v>
   <v>      -0.00253118       0.00485604      -0.00464444 </v>
   <v>      -0.00037158      -0.00042952       0.00089065 </v>
   <v>       0.00564180       0.00014982      -0.00465016 </v>
   <v>      -0.00309864      -0.00006631       0.00063648 </v>
   <v>       0.00042303       0.00054476       0.00393722 </v>
   <v>       0.00132272      -0.00262044       0.00064495 </v>
   <v>      -0.00225774      -0.00408060      -0.00478074 </v>
  </varray>
  <varray name="stress" >
   <v>       0.46952758      -0.04382726       0.00393615 </v>
   <v>      -0.04382727       0.37381860       0.00683779 </v>
   <v>       0.00393616       0.00683779      -2.49354259 </v>
  </varray>
  <energy>
   <i name="e_fr_energy">   -142.29231110 </i>
   <i name="e_wo_entrp">   -142.29094466 </i>
   <i name="e_0_energy">     -0.00273288 </i>
  </energy>
  <time name="totalsc">   53.53   53.60</time>
 </calculation>
 <calculation>
  <scstep>
   <time name="dav">   17.14   17.17</time>
   <time name="total">   18.15   18.19</time>
   <energy>
    <i name="alphaZ">     62.58923237 </i>
    <i name="ewald">   5463.18914545 </i>
    <i name="hartreedc">  -7513.01932245 </i>
    <i name="XCdc">    206.39650276 </i>
    <i name="pawpsdc">   6310.28073986 </i>
    <i name="pawaedc">  -6318.29170834 </i>
    <i name="eentropy">     -0.00273231 </i>
    <i name="bandstr">   -553.89806023 </i>
    <i name="atom">   2202.35892741 </i>
    <i name="e_fr_energy">   -140.39727548 </i>
    <i name="e_wo_entrp">   -140.39454317 </i>
    <i name="e_0_energy">   -140.39590933 </i>
   </energy>
  </scstep>
  <scstep>
   <time name="dav">   17.31   17.34</time>
   <time name="total">   18.32   18.36</time>
   <energy>
    <i name="e_fr_energy">   -140.39727648 </i>
    <i name="e_wo_entrp">   -140.39454490 </i>
    <i name="e_0_energy">   -140.39591069 </i>
   </energy>
  </scstep>
  <scstep>
   <time name="dav">   17.62   17.64</time>
   <time name="total">   17.75   17.77</time>
   <energy>
    <i name="alphaZ">     62.58923237 </i>
    <i name="ewald">   5463.18914545 </i>
    <i name="hartreedc">  -7513.01611234 </i>
    <i name="XCdc">    206.39639728 </i>
    <i name="pawpsdc">   6310.28374306 </i>
    <i name="pawaedc">  -6318.29470524 </i>
    <i name="eentropy">     -0.00273079 </i>
    <i name="bandstr">   -553.90117376 </i>
    <i name="atom">   2202.35892741 </i>
    <i name="e_fr_energy">   -140.39727657 </i>
    <i name="e_wo_entrp">   -140.39454578 </i>
    <i name="e_0_energy">   -140.39591118 </i>
   </energy>
  </scstep>
  <structure>
   <crystal>
    <varray name="basis" >
     <v>       4.36650009       2.52100000       0.00000000 </v>
     <v>      -4.36650009       2.52100000       0.00000000 </v>
     <v>       0.00000000       0.00000000      15.00000000 </v>
    </varray>
    <i name="volume">    330.23840150 </i>
    <varray name="rec_basis" >
     <v>       0.11450819       0.19833399       0.00000000 </v>
     <v>      -0.11450819       0.19833399       0.00000000 </v>
     <v>       0.00000000       0.00000000       0.06666667 </v>
    </varray>
   </crystal>
   <varray name="positions" >
    <v>       0.33834934       0.66916920       0.10028347 </v>
    <v>       0.67164702       0.33582924       0.09997946 </v>
    <v>       0.16458862       0.32176844       0.09997674 </v>
    <v>       0.32422240       0.16209371       0.09996528 </v>
    <v>       0.16459409       0.84284604       0.09997680 </v>
    <v>       0.84543991       0.16210754       0.09996415 </v>
    <v>       0.68568439       0.84285900       0.09997554 </v>
    <v>       0.84544529       0.68330979       0.09996418 </v>
    <v>       0.33335347       0.16667685       0.32558712 </v>
    <v>       0.50004567       0.00009004       0.32554442 </v>
    <v>       0.33333214       0.66666626       0.32525998 </v>
    <v>       0.50004574       0.49995464       0.32554441 </v>
    <v>       0.83332684       0.16667838       0.32558208 </v>
    <v>       0.00000619       0.00000258       0.32553566 </v>
    <v>       0.83332686       0.66664873       0.32558208 </v>
    <v>       0.99991734       0.49995821       0.32554529 </v>
   </varray>
  </structure>
  <varray name="forces" >
   <v>      -0.00756817      -0.00652917       0.00089134 </v>
   <v>       0.00785308       0.00647813      -0.00328335 </v>
   <v>       0.02287529       0.01426786      -0.00251969 </v>
   <v>      -0.01656610      -0.00801653       0.00565924 </v>
[...]
       <r>     2.5142     1.4790    34.4641 </r>
       <r>     2.6178     1.5312    34.6227 </r>
       <r>     2.7213     1.4458    34.7724 </r>
       <r>     2.8249     0.9966    34.8756 </r>
       <r>     2.9285     0.9252    34.9714 </r>
       <r>     3.0320     1.6135    35.1385 </r>
       <r>     3.1356     1.7037    35.3149 </r>
       <r>     3.2391     1.7342    35.4945 </r>
       <r>     3.3427     1.5989    35.6601 </r>
       <r>     3.4462     1.0148    35.7652 </r>
       <r>     3.5498     1.3096    35.9008 </r>
       <r>     3.6534     1.6387    36.0705 </r>
       <r>     3.7569     1.3100    36.2062 </r>
       <r>     3.8605     1.4251    36.3537 </r>
       <r>     3.9640     2.2627    36.5881 </r>
       <r>     4.0676     2.1754    36.8133 </r>
       <r>     4.1711     1.5451    36.9733 </r>
       <r>     4.2747     2.0104    37.1815 </r>
       <r>     4.3783     2.2615    37.4157 </r>
       <r>     4.4818     1.7113    37.5929 </r>
       <r>     4.5854     1.7265    37.7717 </r>
       <r>     4.6889     1.6330    37.9408 </r>
       <r>     4.7925     2.0692    38.1551 </r>
       <r>     4.8960     2.3023    38.3935 </r>
       <r>     4.9996     2.5505    38.6577 </r>
       <r>     5.1032     2.2755    38.8933 </r>
       <r>     5.2067     2.0855    39.1093 </r>
       <r>     5.3103     1.8285    39.2986 </r>
       <r>     5.4138     2.3566    39.5427 </r>
       <r>     5.5174     2.5446    39.8062 </r>
       <r>     5.6209     1.9296    40.0060 </r>
       <r>     5.7245     1.8252    40.1950 </r>
       <r>     5.8281     2.2985    40.4330 </r>
       <r>     5.9316     2.9087    40.7342 </r>
       <r>     6.0352     3.1339    41.0588 </r>
       <r>     6.1387     3.6526    41.4370 </r>
       <r>     6.2423     3.4414    41.7934 </r>
       <r>     6.3458     3.1973    42.1245 </r>
       <r>     6.4494     2.7109    42.4052 </r>
       <r>     6.5530     2.1230    42.6251 </r>
       <r>     6.6565     3.2909    42.9659 </r>
       <r>     6.7601     4.3616    43.4176 </r>
       <r>     6.8636     3.7326    43.8041 </r>
       <r>     6.9672     3.7277    44.1901 </r>
       <r>     7.0707     4.3021    44.6356 </r>
       <r>     7.1743     4.0804    45.0582 </r>
       <r>     7.2779     3.4994    45.4206 </r>
       <r>     7.3814     4.7928    45.9169 </r>
       <r>     7.4850     4.5844    46.3917 </r>
       <r>     7.5885     3.2408    46.7273 </r>
       <r>     7.6921     3.3485    47.0740 </r>
       <r>     7.7956     3.4115    47.4273 </r>
       <r>     7.8992     2.4487    47.6809 </r>
       <r>     8.0027     1.5867    47.8452 </r>
       <r>     8.1063     0.7903    47.9270 </r>
       <r>     8.2099     0.2457    47.9525 </r>
       <r>     8.3134     0.1715    47.9702 </r>
       <r>     8.4170     0.2167    47.9927 </r>
       <r>     8.5205     0.0673    47.9997 </r>
       <r>     8.6241     0.0033    48.0000 </r>
       <r>     8.7276     0.0000    48.0000 </r>
       <r>     8.8312     0.0000    48.0000 </r>
       <r>     8.9348     0.0000    48.0000 </r>
       <r>     9.0383     0.0000    48.0000 </r>
       <r>     9.1419     0.0000    48.0000 </r>
       <r>     9.2454     0.0000    48.0000 </r>
       <r>     9.3490     0.0000    48.0000 </r>
       <r>     9.4525     0.0000    48.0000 </r>
       <r>     9.5561     0.0000    48.0000 </r>
       <r>     9.6597     0.0000    48.0000 </r>
       <r>     9.7632     0.0000    48.0000 </r>
      </set>
      <set comment="spin 2">
       <r>   -21.3039     0.0000     0.0000 </r>
       <r>   -21.2003     0.0000     0.0000 </r>
       <r>   -21.0968     0.0000     0.0000 </r>
       <r>   -20.9932     0.0000     0.0000 </r>
       <r>   -20.8896     0.0000     0.0000 </r>
       <r>   -20.7861     0.0000     0.0000 </r>
       <r>   -20.6825     0.0000     0.0000 </r>
       <r>   -20.5790     0.0000     0.0000 </r>
       <r>   -20.4754     0.0000     0.0000 </r>
       <r>   -20.3719     0.0000     0.0000 </r>
       <r>   -20.2683     0.0000     0.0000 </r>
       <r>   -20.1647     0.0000     0.0000 </r>
       <r>   -20.0612     0.0012     0.0001 </r>
       <r>   -19.9576     0.0401     0.0043 </r>
       <r>   -19.8541     0.2722     0.0325 </r>
       <r>   -19.7505     0.5636     0.0908 </r>
       <r>   -19.6470     0.6274     0.1558 </r>
       <r>   -19.5434     0.6611     0.2243 </r>
       <r>   -19.4399     0.5944     0.2858 </r>
       <r>   -19.3363     0.7260     0.3610 </r>
       <r>   -19.2327     0.5467     0.4176 </r>
       <r>   -19.1292     0.6727     0.4873 </r>
       <r>   -19.0256     0.7557     0.5655 </r>
       <r>   -18.9221     0.4683     0.6140 </r>
       <r>   -18.8185     0.6806     0.6845 </r>
       <r>   -18.7150     0.8136     0.7688 </r>
       <r>   -18.6114     0.5674     0.8275 </r>
       <r>   -18.5078     0.4338     0.8724 </r>
       <r>   -18.4043     0.8632     0.9618 </r>
       <r>   -18.3007     0.7685     1.0414 </r>
       <r>   -18.1972     0.5426     1.0976 </r>
       <r>   -18.0936     0.4485     1.1441 </r>
       <r>   -17.9901     0.9865     1.2462 </r>
       <r>   -17.8865     1.6274     1.4148 </r>
       <r>   -17.7829     1.4718     1.5672 </r>
       <r>   -17.6794     1.4491     1.7172 </r>
       <r>   -17.5758     1.7011     1.8934 </r>
       <r>   -17.4723     2.2234     2.1236 </r>
       <r>   -17.3687     2.7595     2.4094 </r>
       <r>   -17.2652     2.3881     2.6567 </r>
       <r>   -17.1616     0.9650     2.7566 </r>
       <r>   -17.0580     0.5925     2.8180 </r>
       <r>   -16.9545     0.9254     2.9138 </r>
       <r>   -16.8509     0.8668     3.0036 </r>
       <r>   -16.7474     0.7097     3.0771 </r>
       <r>   -16.6438     0.5883     3.1380 </r>
       <r>   -16.5403     0.3499     3.1742 </r>
       <r>   -16.4367     0.5497     3.2312 </r>
       <r>   -16.3331     1.1858     3.3540 </r>
       <r>   -16.2296     0.8120     3.4381 </r>
       <r>   -16.1260     0.6132     3.5016 </r>
       <r>   -16.0225     0.5509     3.5586 </r>
       <r>   -15.9189     0.5381     3.6143 </r>
       <r>   -15.8154     0.4834     3.6644 </r>
       <r>   -15.7118     1.1840     3.7870 </r>
       <r>   -15.6082     1.7463     3.9678 </r>
       <r>   -15.5047     1.8240     4.1567 </r>
       <r>   -15.4011     2.0931     4.3735 </r>
       <r>   -15.2976     1.7920     4.5590 </r>
       <r>   -15.1940     1.5362     4.7181 </r>
       <r>   -15.0905     1.8087     4.9054 </r>
       <r>   -14.9869     2.3774     5.1516 </r>
       <r>   -14.8833     1.9485     5.3534 </r>
       <r>   -14.7798     1.7207     5.5316 </r>
       <r>   -14.6762     1.2780     5.6639 </r>
       <r>   -14.5727     1.3244     5.8011 </r>
       <r>   -14.4691     2.0396     6.0123 </r>
       <r>   -14.3656     2.6486     6.2866 </r>
       <r>   -14.2620     1.8380     6.4769 </r>
       <r>   -14.1584     1.1845     6.5996 </r>
       <r>   -14.0549     0.9609     6.6991 </r>
       <r>   -13.9513     1.0384     6.8066 </r>
       <r>   -13.8478     0.9880     6.9090 </r>
       <r>   -13.7442     0.7006     6.9815 </r>
       <r>   -13.6407     0.4168     7.0247 </r>
       <r>   -13.5371     0.5964     7.0864 </r>
       <r>   -13.4335     0.5710     7.1456 </r>
       <r>   -13.3300     0.7815     7.2265 </r>
       <r>   -13.2264     0.7551     7.3047 </r>
       <r>   -13.1229     0.8152     7.3891 </r>
       <r>   -13.0193     1.0362     7.4964 </r>
       <r>   -12.9158     0.9525     7.5951 </r>
       <r>   -12.8122     1.0812     7.7070 </r>
       <r>   -12.7086     0.7615     7.7859 </r>
       <r>   -12.6051     0.8679     7.8758 </r>
       <r>   -12.5015     0.6742     7.9456 </r>
       <r>   -12.3980     0.5200     7.9994 </r>
       <r>   -12.2944     1.1014     8.1135 </r>
       <r>   -12.1909     0.8997     8.2067 </r>
       <r>   -12.0873     0.8820     8.2980 </r>
       <r>   -11.9837     1.5499     8.4585 </r>
       <r>   -11.8802     2.0890     8.6748 </r>
       <r>   -11.7766     1.9398     8.8757 </r>
       <r>   -11.6731     1.8761     9.0700 </r>
       <r>   -11.5695     2.0782     9.2852 </r>
       <r>   -11.4660     1.9664     9.4889 </r>
       <r>   -11.3624     1.0493     9.5975 </r>
       <r>   -11.2588     1.1941     9.7212 </r>
       <r>   -11.1553     1.4995     9.8765 </r>
       <r>   -11.0517     1.5323    10.0351 </r>
       <r>   -10.9482     0.7828    10.1162 </r>
       <r>   -10.8446     0.7264    10.1914 </r>
       <r>   -10.7411     1.9054    10.3888 </r>
       <r>   -10.6375     2.3445    10.6315 </r>
       <r>   -10.5340     1.1237    10.7479 </r>
       <r>   -10.4304     0.7782    10.8285 </r>
       <r>   -10.3268     1.4543    10.9791 </r>
       <r>   -10.2233     2.4714    11.2350 </r>
       <r>   -10.1197     2.0529    11.4476 </r>
       <r>   -10.0162     1.1021    11.5618 </r>
       <r>    -9.9126     1.1242    11.6782 </r>
       <r>    -9.8091     1.2623    11.8089 </r>
       <r>    -9.7055     1.4902    11.9632 </r>
       <r>    -9.6019     1.1493    12.0822 </r>
       <r>    -9.4984     1.3505    12.2221 </r>
       <r>    -9.3948     1.2488    12.3514 </r>
       <r>    -9.2913     1.2464    12.4805 </r>
       <r>    -9.1877     1.1796    12.6027 </r>
       <r>    -9.0842     0.4071    12.6448 </r>
       <r>    -8.9806     0.6372    12.7108 </r>
       <r>    -8.8770     1.6790    12.8847 </r>
       <r>    -8.7735     2.4243    13.1357 </r>
       <r>    -8.6699     2.0802    13.3511 </r>
       <r>    -8.5664     1.1130    13.4664 </r>
       <r>    -8.4628     1.0888    13.5791 </r>
       <r>    -8.3593     1.3034    13.7141 </r>
       <r>    -8.2557     2.3267    13.9551 </r>
       <r>    -8.1521     3.0047    14.2662 </r>
       <r>    -8.0486     2.9313    14.5698 </r>
       <r>    -7.9450     2.0293    14.7799 </r>
       <r>    -7.8415     1.7313    14.9592 </r>
       <r>    -7.7379     1.8329    15.1490 </r>
       <r>    -7.6344     3.2363    15.4842 </r>
       <r>    -7.5308     3.5628    15.8531 </r>
       <r>    -7.4272     2.7106    16.1338 </r>
       <r>    -7.3237     2.6695    16.4103 </r>
       <r>    -7.2201     3.0738    16.7286 </r>
       <r>    -7.1166     3.0966    17.0493 </r>
       <r>    -7.0130     3.4015    17.4015 </r>
       <r>    -6.9095     2.8731    17.6990 </r>
       <r>    -6.8059     2.5573    17.9639 </r>
       <r>    -6.7023     3.5115    18.3275 </r>
       <r>    -6.5988     3.0119    18.6394 </r>
       <r>    -6.4952     2.8012    18.9295 </r>
       <r>    -6.3917     3.2079    19.2617 </r>
       <r>    -6.2881     3.0920    19.5819 </r>
       <r>    -6.1846     2.9354    19.8859 </r>
       <r>    -6.0810     2.3064    20.1247 </r>
       <r>    -5.9774     2.2005    20.3526 </r>
       <r>    -5.8739     2.7337    20.6357 </r>
       <r>    -5.7703     3.3677    20.9844 </r>
       <r>    -5.6668     2.6048    21.2542 </r>
       <r>    -5.5632     2.5513    21.5184 </r>
       <r>    -5.4597     2.8707    21.8157 </r>
       <r>    -5.3561     3.5280    22.1810 </r>
       <r>    -5.2525     3.4443    22.5377 </r>
       <r>    -5.1490     2.0027    22.7451 </r>
       <r>    -5.0454     1.4807    22.8984 </r>
       <r>    -4.9419     2.2467    23.1311 </r>
       <r>    -4.8383     2.4512    23.3849 </r>
       <r>    -4.7348     2.2287    23.6157 </r>
       <r>    -4.6312     2.0358    23.8265 </r>
       <r>    -4.5276     2.1207    24.0461 </r>
       <r>    -4.4241     2.4488    24.2997 </r>
       <r>    -4.3205     2.6188    24.5709 </r>
       <r>    -4.2170     3.3412    24.9169 </r>
       <r>    -4.1134     5.1855    25.4539 </r>
       <r>    -4.0099     4.7188    25.9426 </r>
       <r>    -3.9063     3.4065    26.2954 </r>
       <r>    -3.8027     2.2864    26.5321 </r>
       <r>    -3.6992     1.7414    26.7125 </r>
       <r>    -3.5956     1.8817    26.9073 </r>
       <r>    -3.4921     2.2397    27.1393 </r>
       <r>    -3.3885     2.8414    27.4335 </r>
       <r>    -3.2850     2.0669    27.6476 </r>
       <r>    -3.1814     1.8341    27.8375 </r>
       <r>    -3.0778     2.0719    28.0521 </r>
       <r>    -2.9743     2.5323    28.3143 </r>
       <r>    -2.8707     3.3229    28.6584 </r>
       <r>    -2.7672     2.0702    28.8728 </r>
       <r>    -2.6636     1.7315    29.0521 </r>
       <r>    -2.5601     2.6973    29.3314 </r>
       <r>    -2.4565     2.7541    29.6166 </r>
       <r>    -2.3529     2.4082    29.8660 </r>
       <r>    -2.2494     2.7896    30.1549 </r>
       <r>    -2.1458     2.2866    30.3917 </r>
       <r>    -2.0423     0.7573    30.4701 </r>
       <r>    -1.9387     0.4655    30.5183 </r>
       <r>    -1.8352     1.0314    30.6251 </r>
       <r>    -1.7316     0.7569    30.7035 </r>
       <r>    -1.6280     0.5694    30.7625 </r>
       <r>    -1.5245     0.9564    30.8615 </r>
       <r>    -1.4209     0.7366    30.9378 </r>
       <r>    -1.3174     0.3623    30.9753 </r>
       <r>    -1.2138     0.0964    30.9853 </r>
       <r>    -1.1103     0.0102    30.9863 </r>
       <r>    -1.0067     0.0575    30.9923 </r>
       <r>    -0.9032     0.3209    31.0255 </r>
       <r>    -0.7996     0.5022    31.0775 </r>
       <r>    -0.6960     0.6113    31.1408 </r>
       <r>    -0.5925     1.2763    31.2730 </r>
       <r>    -0.4889     1.3473    31.4125 </r>
       <r>    -0.3854     1.2499    31.5420 </r>
       <r>    -0.2818     1.6103    31.7087 </r>
       <r>    -0.1783     1.4791    31.8619 </r>
       <r>    -0.0747     0.8673    31.9517 </r>
       <r>     0.0289     0.3444    31.9874 </r>
       <r>     0.1324     0.1091    31.9987 </r>
       <r>     0.2360     0.1299    32.0121 </r>
       <r>     0.3395     0.6963    32.0842 </r>
       <r>     0.4431     1.2925    32.2181 </r>
       <r>     0.5466     1.0292    32.3247 </r>
       <r>     0.6502     0.4566    32.3720 </r>
       <r>     0.7538     0.7277    32.4473 </r>
       <r>     0.8573     1.5412    32.6069 </r>
       <r>     0.9609     1.7022    32.7832 </r>
       <r>     1.0644     1.4948    32.9380 </r>
       <r>     1.1680     0.7173    33.0123 </r>
       <r>     1.2715     0.5874    33.0731 </r>
       <r>     1.3751     0.7033    33.1459 </r>
       <r>     1.4787     0.6561    33.2139 </r>
       <r>     1.5822     0.8161    33.2984 </r>
       <r>     1.6858     1.3259    33.4357 </r>
       <r>     1.7893     1.2789    33.5681 </r>
       <r>     1.8929     0.5303    33.6231 </r>
       <r>     1.9964     0.3070    33.6548 </r>
       <r>     2.1000     0.9462    33.7528 </r>
       <r>     2.2036     2.0527    33.9654 </r>
       <r>     2.3071     1.8799    34.1601 </r>
       <r>     2.4107     1.4569    34.3109 </r>
       <r>     2.5142     1.4790    34.4641 </r>
       <r>     2.6178     1.5312    34.6227 </r>
       <r>     2.7213     1.4458    34.7724 </r>
       <r>     2.8249     0.9969    34.8756 </r>
       <r>     2.9285     0.9259    34.9715 </r>
       <r>     3.0320     1.6138    35.1386 </r>
       <r>     3.1356     1.7034    35.3151 </r>
       <r>     3.2391     1.7346    35.4947 </r>
       <r>     3.3427     1.5985    35.6602 </r>
       <r>     3.4462     1.0148    35.7653 </r>
       <r>     3.5498     1.3103    35.9010 </r>
       <r>     3.6534     1.6379    36.0706 </r>
       <r>     3.7569     1.3098    36.2063 </r>
       <r>     3.8605     1.4258    36.3539 </r>
       <r>     3.9640     2.2629    36.5882 </r>
       <r>     4.0676     2.1743    36.8134 </r>
       <r>     4.1711     1.5452    36.9734 </r>
       <r>     4.2747     2.0112    37.1817 </r>
       <r>     4.3783     2.2616    37.4159 </r>
       <r>     4.4818     1.7109    37.5931 </r>
       <r>     4.5854     1.7260    37.7718 </r>
       <r>     4.6889     1.6344    37.9411 </r>
       <r>     4.7925     2.0726    38.1557 </r>
       <r>     4.8960     2.3032    38.3942 </r>
       <r>     4.9996     2.5489    38.6582 </r>
       <r>     5.1032     2.2772    38.8940 </r>
       <r>     5.2067     2.0831    39.1097 </r>
       <r>     5.3103     1.8287    39.2991 </r>
       <r>     5.4138     2.3601    39.5435 </r>
       <r>     5.5174     2.5422    39.8068 </r>
       <r>     5.6209     1.9283    40.0064 </r>
       <r>     5.7245     1.8273    40.1957 </r>
       <r>     5.8281     2.2990    40.4337 </r>
       <r>     5.9316     2.9053    40.7346 </r>
       <r>     6.0352     3.1347    41.0592 </r>
       <r>     6.1387     3.6561    41.4378 </r>
       <r>     6.2423     3.4413    41.7942 </r>
       <r>     6.3458     3.1954    42.1251 </r>
       <r>     6.4494     2.7082    42.4056 </r>
       <r>     6.5530     2.1230    42.6254 </r>
       <r>     6.6565     3.2960    42.9667 </r>
       <r>     6.7601     4.3613    43.4184 </r>
       <r>     6.8636     3.7288    43.8045 </r>
       <r>     6.9672     3.7292    44.1907 </r>
       <r>     7.0707     4.3014    44.6361 </r>
       <r>     7.1743     4.0821    45.0589 </r>
       <r>     7.2779     3.5035    45.4217 </r>
       <r>     7.3814     4.7900    45.9177 </r>
       <r>     7.4850     4.5837    46.3924 </r>
       <r>     7.5885     3.2401    46.7279 </r>
       <r>     7.6921     3.3525    47.0751 </r>
       <r>     7.7956     3.4109    47.4283 </r>
       <r>     7.8992     2.4447    47.6815 </r>
       <r>     8.0027     1.5845    47.8456 </r>
       <r>     8.1063     0.7884    47.9272 </r>
       <r>     8.2099     0.2443    47.9525 </r>
       <r>     8.3134     0.1720    47.9703 </r>
       <r>     8.4170     0.2165    47.9928 </r>
       <r>     8.5205     0.0667    47.9997 </r>
       <r>     8.6241     0.0032    48.0000 </r>
       <r>     8.7276     0.0000    48.0000 </r>
       <r>     8.8312     0.0000    48.0000 </r>
       <r>     8.9348     0.0000    48.0000 </r>
       <r>     9.0383     0.0000    48.0000 </r>
       <r>     9.1419     0.0000    48.0000 </r>
       <r>     9.2454     0.0000    48.0000 </r>
       <r>     9.3490     0.0000    48.0000 </r>
       <r>     9.4525     0.0000    48.0000 </r>
       <r>     9.5561     0.0000    48.0000 </r>
       <r>     9.6597     0.0000    48.0000 </r>
       <r>     9.7632     0.0000    48.0000 </r>
      </set>
     </set>
    </array>
   </total>
  </dos>
 </calculation>
 <structure name="finalpos" >
  <crystal>
   <varray name="basis" >
    <v>       4.36650009       2.52100000       0.00000000 </v>
    <v>      -4.36650009       2.52100000       0.00000000 </v>
    <v>       0.00000000       0.00000000      15.00000000 </v>
   </varray>
   <i name="volume">    330.23840150 </i>
   <varray name="rec_basis" >
    <v>       0.11450819       0.19833399       0.00000000 </v>
    <v>      -0.11450819       0.19833399       0.00000000 </v>
    <v>       0.00000000       0.00000000       0.06666667 </v>
   </varray>
  </crystal>
  <varray name="positions" >
   <v>       0.33824564       0.66912173       0.10048470 </v>
   <v>       0.67158225       0.33578978       0.10016711 </v>
   <v>       0.16454912       0.32172598       0.10017667 </v>
   <v>       0.32410740       0.16205274       0.10018486 </v>
   <v>       0.16454839       0.84282035       0.10017677 </v>
   <v>       0.84531217       0.16205113       0.10017498 </v>
   <v>       0.68563741       0.84281739       0.10016697 </v>
   <v>       0.84531281       0.68325948       0.10017511 </v>
   <v>       0.33343636       0.16671882       0.32537090 </v>
   <v>       0.50012605       0.00012649       0.32534715 </v>
   <v>       0.33341853       0.66670990       0.32506455 </v>
   <v>       0.50012604       0.50000074       0.32534715 </v>
   <v>       0.83341385       0.16672023       0.32536625 </v>
   <v>       0.00008887       0.00004504       0.32534952 </v>
   <v>       0.83341387       0.66669497       0.32536626 </v>
   <v>       0.00000658       0.50000389       0.32534772 </v>
  </varray>
 </structure>
</modeling>
