  15  15   0   4
  0.2033749E+02  0.4846000E-09  0.4846000E-09  0.1500000E-08  0.5000000E-15
  1.000000000000000E-004
  CAR 
 SC                                      
     10.40025483    -21.70580506  301     -0.32647895      1.00000000
    -21.706  0.0000E+00  0.0000E+00
    -21.599  0.0000E+00  0.0000E+00
    -21.492  0.0000E+00  0.0000E+00
    -21.385  0.0000E+00  0.0000E+00
    -21.278  0.0000E+00  0.0000E+00
    -21.171  0.0000E+00  0.0000E+00
    -21.064  0.0000E+00  0.0000E+00
    -20.957  0.0000E+00  0.0000E+00
    -20.850  0.0000E+00  0.0000E+00
    -20.743  0.1222E-12  0.1308E-13
    -20.636  0.2506E-08  0.2682E-09
    -20.529  0.5867E-05  0.6282E-06
    -20.422  0.1688E-02  0.1813E-03
    -20.315  0.6856E-01  0.7518E-02
    -20.208  0.5063E+00  0.6171E-01
    -20.101  0.1053E+01  0.1744E+00
    -19.993  0.1186E+01  0.3013E+00
    -19.886  0.1193E+01  0.4290E+00
    -19.779  0.1195E+01  0.5569E+00
    -19.672  0.1196E+01  0.6849E+00
    -19.565  0.1198E+01  0.8130E+00
    -19.458  0.1200E+01  0.9414E+00
    -19.351  0.1198E+01  0.1070E+01
    -19.244  0.1201E+01  0.1198E+01
    -19.137  0.1210E+01  0.1328E+01
    -19.030  0.1196E+01  0.1456E+01
    -18.923  0.1212E+01  0.1585E+01
    -18.816  0.1211E+01  0.1715E+01
    -18.709  0.1198E+01  0.1843E+01
    -18.602  0.1231E+01  0.1975E+01
    -18.495  0.1185E+01  0.2102E+01
    -18.388  0.1249E+01  0.2235E+01
    -18.281  0.1178E+01  0.2361E+01
    -18.174  0.1261E+01  0.2496E+01
    -18.067  0.1178E+01  0.2622E+01
    -17.960  0.1262E+01  0.2758E+01
    -17.853  0.1196E+01  0.2886E+01
    -17.746  0.1236E+01  0.3018E+01
    -17.639  0.1249E+01  0.3152E+01
    -17.532  0.1190E+01  0.3279E+01
    -17.425  0.1520E+01  0.3442E+01
    -17.318  0.2195E+01  0.3676E+01
    -17.211  0.3095E+01  0.4008E+01
    -17.104  0.3267E+01  0.4357E+01
    -16.997  0.3527E+01  0.4735E+01
    -16.890  0.4380E+01  0.5204E+01
    -16.783  0.5349E+01  0.5776E+01
    -16.676  0.4529E+01  0.6261E+01
    -16.569  0.2057E+01  0.6481E+01
    -16.462  0.1188E+01  0.6608E+01
    -16.355  0.1380E+01  0.6756E+01
    -16.248  0.1244E+01  0.6889E+01
    -16.141  0.1190E+01  0.7016E+01
    -16.034  0.1421E+01  0.7168E+01
    -15.927  0.1208E+01  0.7298E+01
    -15.820  0.1242E+01  0.7431E+01
    -15.713  0.1448E+01  0.7585E+01
    -15.606  0.1201E+01  0.7714E+01
    -15.499  0.1295E+01  0.7853E+01
    -15.392  0.1476E+01  0.8011E+01
    -15.285  0.1239E+01  0.8143E+01
    -15.178  0.1345E+01  0.8287E+01
    -15.071  0.1614E+01  0.8460E+01
    -14.964  0.2083E+01  0.8683E+01
    -14.857  0.3749E+01  0.9084E+01
    -14.749  0.5114E+01  0.9631E+01
    -14.642  0.4520E+01  0.1011E+02
    -14.535  0.3257E+01  0.1046E+02
    -14.428  0.3057E+01  0.1079E+02
    -14.321  0.2751E+01  0.1109E+02
    -14.214  0.2690E+01  0.1137E+02
    -14.107  0.3196E+01  0.1171E+02
    -14.000  0.3029E+01  0.1204E+02
    -13.893  0.3960E+01  0.1246E+02
    -13.786  0.5287E+01  0.1303E+02
    -13.679  0.4747E+01  0.1354E+02
    -13.572  0.3984E+01  0.1396E+02
    -13.465  0.2873E+01  0.1427E+02
    -13.358  0.1578E+01  0.1444E+02
    -13.251  0.1339E+01  0.1458E+02
    -13.144  0.1294E+01  0.1472E+02
    -13.037  0.1312E+01  0.1486E+02
    -12.930  0.1486E+01  0.1502E+02
    -12.823  0.1731E+01  0.1521E+02
    -12.716  0.1673E+01  0.1538E+02
    -12.609  0.1585E+01  0.1555E+02
    -12.502  0.1411E+01  0.1571E+02
    -12.395  0.1452E+01  0.1586E+02
    -12.288  0.1308E+01  0.1600E+02
    -12.181  0.1365E+01  0.1615E+02
    -12.074  0.1228E+01  0.1628E+02
    -11.967  0.1304E+01  0.1642E+02
    -11.860  0.1178E+01  0.1654E+02
    -11.753  0.1217E+01  0.1667E+02
    -11.646  0.1166E+01  0.1680E+02
    -11.539  0.1116E+01  0.1692E+02
    -11.432  0.1171E+01  0.1704E+02
    -11.325  0.1037E+01  0.1715E+02
    -11.218  0.1257E+01  0.1729E+02
    -11.111  0.1264E+01  0.1742E+02
    -11.004  0.1422E+01  0.1758E+02
    -10.897  0.1387E+01  0.1773E+02
    -10.790  0.1345E+01  0.1787E+02
    -10.683  0.1691E+01  0.1805E+02
    -10.576  0.2221E+01  0.1829E+02
    -10.469  0.3138E+01  0.1862E+02
    -10.362  0.3612E+01  0.1901E+02
    -10.255  0.3933E+01  0.1943E+02
    -10.148  0.4304E+01  0.1989E+02
    -10.041  0.4126E+01  0.2033E+02
     -9.934  0.3410E+01  0.2070E+02
     -9.827  0.2893E+01  0.2101E+02
     -9.720  0.3612E+01  0.2139E+02
     -9.613  0.3584E+01  0.2178E+02
     -9.506  0.3498E+01  0.2215E+02
     -9.398  0.3450E+01  0.2252E+02
     -9.291  0.3318E+01  0.2288E+02
     -9.184  0.3399E+01  0.2324E+02
     -9.077  0.3355E+01  0.2360E+02
     -8.970  0.4000E+01  0.2403E+02
     -8.863  0.3351E+01  0.2439E+02
     -8.756  0.3601E+01  0.2477E+02
     -8.649  0.3339E+01  0.2513E+02
     -8.542  0.3573E+01  0.2551E+02
     -8.435  0.3291E+01  0.2586E+02
     -8.328  0.4053E+01  0.2630E+02
     -8.221  0.4468E+01  0.2678E+02
     -8.114  0.4242E+01  0.2723E+02
     -8.007  0.4927E+01  0.2776E+02
     -7.900  0.5304E+01  0.2832E+02
     -7.793  0.5915E+01  0.2896E+02
     -7.686  0.4668E+01  0.2946E+02
     -7.579  0.3425E+01  0.2982E+02
     -7.472  0.3374E+01  0.3018E+02
     -7.365  0.3411E+01  0.3055E+02
     -7.258  0.3489E+01  0.3092E+02
     -7.151  0.3575E+01  0.3131E+02
     -7.044  0.4110E+01  0.3175E+02
     -6.937  0.4069E+01  0.3218E+02
     -6.830  0.4907E+01  0.3271E+02
     -6.723  0.4925E+01  0.3323E+02
     -6.616  0.4910E+01  0.3376E+02
     -6.509  0.4810E+01  0.3427E+02
     -6.402  0.4841E+01  0.3479E+02
     -6.295  0.4865E+01  0.3531E+02
     -6.188  0.5349E+01  0.3588E+02
     -6.081  0.6248E+01  0.3655E+02
     -5.974  0.7004E+01  0.3730E+02
     -5.867  0.7243E+01  0.3808E+02
     -5.760  0.5607E+01  0.3868E+02
     -5.653  0.5097E+01  0.3922E+02
     -5.546  0.6264E+01  0.3989E+02
     -5.439  0.8059E+01  0.4076E+02
     -5.332  0.8486E+01  0.4166E+02
     -5.225  0.5609E+01  0.4226E+02
     -5.118  0.3533E+01  0.4264E+02
     -5.011  0.3255E+01  0.4299E+02
     -4.904  0.2623E+01  0.4327E+02
     -4.797  0.2964E+01  0.4359E+02
     -4.690  0.2778E+01  0.4389E+02
     -4.583  0.2541E+01  0.4416E+02
     -4.476  0.2932E+01  0.4447E+02
     -4.369  0.3858E+01  0.4488E+02
     -4.262  0.5000E+01  0.4542E+02
     -4.154  0.6065E+01  0.4607E+02
     -4.047  0.5531E+01  0.4666E+02
     -3.940  0.5065E+01  0.4720E+02
     -3.833  0.5228E+01  0.4776E+02
     -3.726  0.4822E+01  0.4828E+02
     -3.619  0.4780E+01  0.4879E+02
     -3.512  0.4951E+01  0.4932E+02
     -3.405  0.4463E+01  0.4980E+02
     -3.298  0.3770E+01  0.5020E+02
     -3.191  0.3609E+01  0.5059E+02
     -3.084  0.3515E+01  0.5096E+02
     -2.977  0.3283E+01  0.5131E+02
     -2.870  0.3617E+01  0.5170E+02
     -2.763  0.3701E+01  0.5210E+02
     -2.656  0.2988E+01  0.5242E+02
     -2.549  0.3086E+01  0.5275E+02
     -2.442  0.2921E+01  0.5306E+02
     -2.335  0.2534E+01  0.5333E+02
     -2.228  0.2095E+01  0.5356E+02
     -2.121  0.1737E+01  0.5374E+02
     -2.014  0.2565E+01  0.5402E+02
     -1.907  0.3177E+01  0.5436E+02
     -1.800  0.2979E+01  0.5468E+02
     -1.693  0.2105E+01  0.5490E+02
     -1.586  0.1884E+01  0.5510E+02
     -1.479  0.1709E+01  0.5529E+02
     -1.372  0.1347E+01  0.5543E+02
     -1.265  0.1267E+01  0.5556E+02
     -1.158  0.1175E+01  0.5569E+02
     -1.051  0.9308E+00  0.5579E+02
     -0.944  0.8284E+00  0.5588E+02
     -0.837  0.5868E+00  0.5594E+02
     -0.730  0.2019E+00  0.5596E+02
     -0.623  0.1651E+00  0.5598E+02
     -0.516  0.1141E+00  0.5599E+02
     -0.409  0.2477E-01  0.5600E+02
     -0.302  0.5266E-01  0.5600E+02
     -0.195  0.3599E-01  0.5601E+02
     -0.088  0.5130E-01  0.5601E+02
      0.019  0.1684E+00  0.5603E+02
      0.126  0.1383E+00  0.5604E+02
      0.233  0.2235E+00  0.5607E+02
      0.340  0.3209E+00  0.5610E+02
      0.447  0.2860E+00  0.5613E+02
      0.554  0.4164E+00  0.5618E+02
      0.661  0.6390E+00  0.5625E+02
      0.768  0.1226E+01  0.5638E+02
      0.875  0.2882E+01  0.5669E+02
      0.982  0.4380E+01  0.5715E+02
      1.089  0.4025E+01  0.5758E+02
      1.197  0.3230E+01  0.5793E+02
      1.304  0.2041E+01  0.5815E+02
      1.411  0.1900E+01  0.5835E+02
      1.518  0.3697E+01  0.5875E+02
      1.625  0.3639E+01  0.5914E+02
      1.732  0.2762E+01  0.5943E+02
      1.839  0.3017E+01  0.5976E+02
      1.946  0.2504E+01  0.6002E+02
      2.053  0.2123E+01  0.6025E+02
      2.160  0.2453E+01  0.6051E+02
      2.267  0.2243E+01  0.6075E+02
      2.374  0.2163E+01  0.6098E+02
      2.481  0.1999E+01  0.6120E+02
      2.588  0.2200E+01  0.6143E+02
      2.695  0.2013E+01  0.6165E+02
      2.802  0.1777E+01  0.6184E+02
      2.909  0.1983E+01  0.6205E+02
      3.016  0.2789E+01  0.6235E+02
      3.123  0.2513E+01  0.6262E+02
      3.230  0.2602E+01  0.6290E+02
      3.337  0.2921E+01  0.6321E+02
      3.444  0.2924E+01  0.6352E+02
      3.551  0.2956E+01  0.6384E+02
      3.658  0.3976E+01  0.6427E+02
      3.765  0.5691E+01  0.6487E+02
      3.872  0.6508E+01  0.6557E+02
      3.979  0.6565E+01  0.6627E+02
      4.086  0.6399E+01  0.6696E+02
      4.193  0.6241E+01  0.6763E+02
      4.300  0.6043E+01  0.6827E+02
      4.407  0.5801E+01  0.6889E+02
      4.514  0.5720E+01  0.6951E+02
      4.621  0.6451E+01  0.7020E+02
      4.728  0.5713E+01  0.7081E+02
      4.835  0.5939E+01  0.7144E+02
      4.942  0.6421E+01  0.7213E+02
      5.049  0.6670E+01  0.7284E+02
      5.156  0.6798E+01  0.7357E+02
      5.263  0.6406E+01  0.7426E+02
      5.370  0.5288E+01  0.7482E+02
      5.477  0.5255E+01  0.7539E+02
      5.584  0.7011E+01  0.7614E+02
      5.691  0.6311E+01  0.7681E+02
      5.798  0.4894E+01  0.7734E+02
      5.905  0.4921E+01  0.7786E+02
      6.012  0.5561E+01  0.7846E+02
      6.119  0.5497E+01  0.7905E+02
      6.226  0.4786E+01  0.7956E+02
      6.333  0.4792E+01  0.8007E+02
      6.441  0.5315E+01  0.8064E+02
      6.548  0.6315E+01  0.8131E+02
      6.655  0.6660E+01  0.8203E+02
      6.762  0.7272E+01  0.8281E+02
      6.869  0.8016E+01  0.8366E+02
      6.976  0.8034E+01  0.8452E+02
      7.083  0.7045E+01  0.8528E+02
      7.190  0.5257E+01  0.8584E+02
      7.297  0.4403E+01  0.8631E+02
      7.404  0.4597E+01  0.8680E+02
      7.511  0.4862E+01  0.8732E+02
      7.618  0.6056E+01  0.8797E+02
      7.725  0.7989E+01  0.8883E+02
      7.832  0.8187E+01  0.8970E+02
      7.939  0.9011E+01  0.9067E+02
      8.046  0.8182E+01  0.9154E+02
      8.153  0.7790E+01  0.9238E+02
      8.260  0.8152E+01  0.9325E+02
      8.367  0.7868E+01  0.9409E+02
      8.474  0.7755E+01  0.9492E+02
      8.581  0.5244E+01  0.9548E+02
      8.688  0.2575E+01  0.9576E+02
      8.795  0.1102E+01  0.9588E+02
      8.902  0.7463E+00  0.9596E+02
      9.009  0.3601E+00  0.9599E+02
      9.116  0.5234E-01  0.9600E+02
      9.223  0.1497E-02  0.9600E+02
      9.330  0.5912E-05  0.9600E+02
      9.437  0.2752E-08  0.9600E+02
      9.544  0.1421E-12  0.9600E+02
      9.651  0.0000E+00  0.9600E+02
      9.758  0.0000E+00  0.9600E+02
      9.865  0.0000E+00  0.9600E+02
      9.972  0.0000E+00  0.9600E+02
     10.079  0.0000E+00  0.9600E+02
     10.186  0.0000E+00  0.9600E+02
     10.293  0.0000E+00  0.9600E+02
     10.400  0.0000E+00  0.9600E+02
