<?xml version="1.0" encoding="ISO-8859-1"?>
<modeling>
 <generator>
  <i name="program" type="string">vasp </i>
  <i name="version" type="string">6.3.2  </i>
  <i name="subversion" type="string">27Jun22 (build Dec 22 2022 13:13:19) complex                          parallel </i>
  <i name="platform" type="string">LinuxIFC </i>
  <i name="date" type="string">2023 08 24 </i>
  <i name="time" type="string">03:13:48 </i>
 </generator>
 <incar>
  <i type="string" name="SYSTEM">Lattice</i>
  <i type="int" name="ISTART">     0</i>
  <i type="string" name="PREC">Accurate</i>
  <i type="string" name="ALGO">Normal</i>
  <i type="int" name="ISPIN">     2</i>
  <i type="int" name="ICHARG">     2</i>
  <i type="int" name="NELM">    64</i>
  <i type="int" name="IBRION">     2</i>
  <i name="EDIFF">      0.00000100</i>
  <i name="EDIFFG">     -0.00100000</i>
  <i type="int" name="NSW">   128</i>
  <i type="int" name="ISIF">     2</i>
  <i name="ENCUT">    450.00000000</i>
  <i name="POTIM">      0.50000000</i>
  <i type="int" name="ISMEAR">     0</i>
  <i name="SIGMA">      0.10000000</i>
  <i type="logical" name="LWAVE"> F  </i>
  <i type="logical" name="LCHARG"> F  </i>
  <i type="string" name="GGA">PE</i>
  <i type="int" name="IVDW">    12</i>
 </incar>
 <primitive_cell>
  <structure name="primitive_cell" >
   <crystal>
    <varray name="basis" >
     <v>       4.16558219       2.40500000       0.00000000 </v>
     <v>      -4.16558219       2.40500000       0.00000000 </v>
     <v>       0.00000000       0.00000000      15.00000000 </v>
    </varray>
    <i name="volume">    300.54675517 </i>
    <varray name="rec_basis" >
     <v>       0.12003124       0.20790021       0.00000000 </v>
     <v>      -0.12003124       0.20790021       0.00000000 </v>
     <v>       0.00000000       0.00000000       0.06666667 </v>
    </varray>
   </crystal>
   <varray name="positions" >
    <v>       0.00415361       0.00267210       0.12034134 </v>
    <v>       0.35695335       0.00285503       0.09748893 </v>
    <v>       0.00423858       0.35550699       0.09749256 </v>
    <v>       0.65142295       0.65006557       0.09747688 </v>
    <v>       0.32808646       0.32671938       0.10030508 </v>
    <v>       0.68027775       0.00278085       0.10027562 </v>
    <v>       0.00416530       0.67883808       0.10026559 </v>
    <v>       0.16666600       0.33333300       0.33720000 </v>
    <v>       0.33333300       0.16666600       0.33720000 </v>
    <v>       0.16666600       0.83333300       0.33720000 </v>
    <v>       0.33333300       0.66666600       0.33720000 </v>
    <v>       0.66666600       0.33333300       0.33720000 </v>
    <v>       0.83333300       0.16666600       0.33720000 </v>
    <v>       0.66666600       0.83333300       0.33720000 </v>
    <v>       0.83333300       0.66666600       0.33720000 </v>
   </varray>
  </structure>
  <varray name="primitive_index" >
   <v type="int" >        1 </v>
   <v type="int" >        2 </v>
   <v type="int" >        3 </v>
   <v type="int" >        4 </v>
   <v type="int" >        5 </v>
   <v type="int" >        6 </v>
   <v type="int" >        7 </v>
   <v type="int" >        8 </v>
   <v type="int" >        9 </v>
   <v type="int" >       10 </v>
   <v type="int" >       11 </v>
   <v type="int" >       12 </v>
   <v type="int" >       13 </v>
   <v type="int" >       14 </v>
   <v type="int" >       15 </v>
  </varray>
 </primitive_cell>
 <kpoints>
  <generation param="Gamma">
   <v type="int" name="divisions">      12       12        1 </v>
   <v name="usershift">      0.00000000       0.00000000       0.00000000 </v>
   <v name="genvec1">      0.08333333       0.00000000       0.00000000 </v>
   <v name="genvec2">      0.00000000       0.08333333       0.00000000 </v>
   <v name="genvec3">      0.00000000       0.00000000       1.00000000 </v>
   <v name="shift">      0.00000000       0.00000000       0.00000000 </v>
  </generation>
  <varray name="kpointlist" >
   <v>       0.00000000       0.00000000       0.00000000 </v>
   <v>       0.08333333       0.00000000       0.00000000 </v>
   <v>       0.00000000       0.08333333       0.00000000 </v>
   <v>      -0.08333333       0.08333333       0.00000000 </v>
   <v>       0.16666667       0.00000000       0.00000000 </v>
   <v>       0.00000000       0.16666667       0.00000000 </v>
   <v>      -0.16666667       0.16666667       0.00000000 </v>
   <v>       0.25000000       0.00000000       0.00000000 </v>
   <v>       0.00000000       0.25000000       0.00000000 </v>
   <v>      -0.25000000       0.25000000       0.00000000 </v>
   <v>       0.33333333       0.00000000       0.00000000 </v>
   <v>       0.00000000       0.33333333       0.00000000 </v>
   <v>      -0.33333333       0.33333333       0.00000000 </v>
   <v>       0.41666667       0.00000000       0.00000000 </v>
   <v>       0.00000000       0.41666667       0.00000000 </v>
   <v>      -0.41666667       0.41666667       0.00000000 </v>
   <v>       0.50000000       0.00000000       0.00000000 </v>
   <v>       0.00000000       0.50000000       0.00000000 </v>
   <v>       0.50000000       0.50000000       0.00000000 </v>
   <v>       0.08333333       0.08333333       0.00000000 </v>
   <v>      -0.08333333       0.16666667       0.00000000 </v>
   <v>      -0.16666667       0.08333333       0.00000000 </v>
   <v>       0.16666667       0.08333333       0.00000000 </v>
   <v>      -0.08333333       0.25000000       0.00000000 </v>
   <v>      -0.25000000       0.16666667       0.00000000 </v>
   <v>      -0.16666667       0.25000000       0.00000000 </v>
   <v>       0.08333333       0.16666667       0.00000000 </v>
   <v>       0.25000000      -0.08333333       0.00000000 </v>
   <v>       0.25000000       0.08333333       0.00000000 </v>
   <v>      -0.08333333       0.33333333       0.00000000 </v>
   <v>      -0.33333333       0.25000000       0.00000000 </v>
   <v>      -0.25000000       0.33333333       0.00000000 </v>
   <v>       0.08333333       0.25000000       0.00000000 </v>
   <v>       0.33333333      -0.08333333       0.00000000 </v>
   <v>       0.33333333       0.08333333       0.00000000 </v>
   <v>      -0.08333333       0.41666667       0.00000000 </v>
   <v>      -0.41666667       0.33333333       0.00000000 </v>
   <v>      -0.33333333       0.41666667       0.00000000 </v>
   <v>       0.08333333       0.33333333       0.00000000 </v>
   <v>       0.41666667      -0.08333333       0.00000000 </v>
   <v>       0.41666667       0.08333333       0.00000000 </v>
   <v>      -0.08333333       0.50000000       0.00000000 </v>
   <v>       0.50000000       0.41666667       0.00000000 </v>
   <v>      -0.41666667       0.50000000       0.00000000 </v>
   <v>       0.08333333       0.41666667       0.00000000 </v>
   <v>       0.50000000      -0.08333333       0.00000000 </v>
   <v>       0.16666667       0.16666667       0.00000000 </v>
   <v>      -0.16666667       0.33333333       0.00000000 </v>
   <v>      -0.33333333       0.16666667       0.00000000 </v>
   <v>       0.25000000       0.16666667       0.00000000 </v>
   <v>      -0.16666667       0.41666667       0.00000000 </v>
   <v>      -0.41666667       0.25000000       0.00000000 </v>
   <v>      -0.25000000       0.41666667       0.00000000 </v>
   <v>       0.16666667       0.25000000       0.00000000 </v>
   <v>       0.41666667      -0.16666667       0.00000000 </v>
   <v>       0.33333333       0.16666667       0.00000000 </v>
   <v>      -0.16666667       0.50000000       0.00000000 </v>
   <v>       0.50000000       0.33333333       0.00000000 </v>
   <v>      -0.33333333       0.50000000       0.00000000 </v>
   <v>       0.16666667       0.33333333       0.00000000 </v>
   <v>       0.50000000      -0.16666667       0.00000000 </v>
   <v>       0.41666667       0.16666667       0.00000000 </v>
   <v>      -0.16666667      -0.41666667       0.00000000 </v>
   <v>       0.41666667       0.41666667       0.00000000 </v>
   <v>       0.25000000       0.25000000       0.00000000 </v>
   <v>      -0.25000000       0.50000000       0.00000000 </v>
   <v>       0.50000000       0.25000000       0.00000000 </v>
   <v>       0.33333333       0.25000000       0.00000000 </v>
   <v>      -0.25000000      -0.41666667       0.00000000 </v>
   <v>       0.41666667       0.33333333       0.00000000 </v>
   <v>      -0.33333333      -0.41666667       0.00000000 </v>
   <v>       0.25000000       0.33333333       0.00000000 </v>
   <v>      -0.41666667      -0.25000000       0.00000000 </v>
   <v>       0.33333333       0.33333333       0.00000000 </v>
  </varray>
  <varray name="weights" >
   <v>       0.00694444 </v>
   <v>       0.01388889 </v>
   <v>       0.01388889 </v>
   <v>       0.01388889 </v>
   <v>       0.01388889 </v>
   <v>       0.01388889 </v>
   <v>       0.01388889 </v>
   <v>       0.01388889 </v>
   <v>       0.01388889 </v>
   <v>       0.01388889 </v>
   <v>       0.01388889 </v>
   <v>       0.01388889 </v>
   <v>       0.01388889 </v>
   <v>       0.01388889 </v>
   <v>       0.01388889 </v>
   <v>       0.01388889 </v>
   <v>       0.00694444 </v>
   <v>       0.00694444 </v>
   <v>       0.00694444 </v>
   <v>       0.01388889 </v>
   <v>       0.01388889 </v>
   <v>       0.01388889 </v>
   <v>       0.01388889 </v>
   <v>       0.01388889 </v>
   <v>       0.01388889 </v>
   <v>       0.01388889 </v>
   <v>       0.01388889 </v>
   <v>       0.01388889 </v>
   <v>       0.01388889 </v>
   <v>       0.01388889 </v>
   <v>       0.01388889 </v>
   <v>       0.01388889 </v>
   <v>       0.01388889 </v>
   <v>       0.01388889 </v>
   <v>       0.01388889 </v>
   <v>       0.01388889 </v>
   <v>       0.01388889 </v>
   <v>       0.01388889 </v>
   <v>       0.01388889 </v>
   <v>       0.01388889 </v>
   <v>       0.01388889 </v>
   <v>       0.01388889 </v>
   <v>       0.01388889 </v>
   <v>       0.01388889 </v>
   <v>       0.01388889 </v>
   <v>       0.01388889 </v>
   <v>       0.01388889 </v>
   <v>       0.01388889 </v>
   <v>       0.01388889 </v>
   <v>       0.01388889 </v>
   <v>       0.01388889 </v>
   <v>       0.01388889 </v>
   <v>       0.01388889 </v>
   <v>       0.01388889 </v>
   <v>       0.01388889 </v>
   <v>       0.01388889 </v>
   <v>       0.01388889 </v>
   <v>       0.01388889 </v>
   <v>       0.01388889 </v>
   <v>       0.01388889 </v>
   <v>       0.01388889 </v>
   <v>       0.01388889 </v>
   <v>       0.01388889 </v>
   <v>       0.01388889 </v>
   <v>       0.01388889 </v>
   <v>       0.01388889 </v>
   <v>       0.01388889 </v>
   <v>       0.01388889 </v>
   <v>       0.01388889 </v>
   <v>       0.01388889 </v>
   <v>       0.01388889 </v>
   <v>       0.01388889 </v>
   <v>       0.01388889 </v>
   <v>       0.01388889 </v>
  </varray>
 </kpoints>
 <parameters>
  <separator name="general" >
   <i type="string" name="SYSTEM">Lattice</i>
   <i type="logical" name="LCOMPAT"> F  </i>
  </separator>
  <separator name="electronic" >
   <i type="string" name="PREC">accura</i>
   <i name="ENMAX">    450.00000000</i>
   <i name="ENAUG">    644.87300000</i>
   <i name="EDIFF">      0.00000100</i>
   <i type="int" name="IALGO">    38</i>
   <i type="int" name="IWAVPR">    11</i>
   <i type="int" name="NBANDS">    48</i>
   <i type="int" name="NBANDSLOW">    -1</i>
   <i type="int" name="NBANDSHIGH">    -1</i>
   <i name="NELECT">     56.00000000</i>
   <i type="int" name="TURBO">     0</i>
   <i type="int" name="IRESTART">     0</i>
   <i type="int" name="NREBOOT">     0</i>
   <i type="int" name="NMIN">     0</i>
   <i name="EREF">      0.00000000</i>
   <separator name="electronic smearing" >
    <i type="int" name="ISMEAR">     0</i>
    <i name="SIGMA">      0.10000000</i>
    <i name="KSPACING">      0.50000000</i>
    <i type="logical" name="KGAMMA"> T  </i>
    <i type="logical" name="KBLOWUP"> T  </i>
   </separator>
   <separator name="electronic projectors" >
    <i type="logical" name="LREAL"> F  </i>
    <v name="ROPT">      0.00000000      0.00000000</v>
    <i type="int" name="LMAXPAW">  -100</i>
    <i type="int" name="LMAXMIX">     2</i>
    <i type="logical" name="NLSPLINE"> F  </i>
   </separator>
   <separator name="electronic startup" >
    <i type="int" name="ISTART">     0</i>
    <i type="int" name="ICHARG">     2</i>
    <i type="int" name="INIWAV">     1</i>
   </separator>
   <separator name="electronic spin" >
    <i type="int" name="ISPIN">     2</i>
    <i type="logical" name="LNONCOLLINEAR"> F  </i>
    <v name="MAGMOM">      1.00000000      1.00000000      1.00000000      1.00000000      1.00000000      1.00000000      1.00000000      1.00000000      1.00000000      1.00000000      1.00000000      1.00000000      1.00000000      1.00000000      1.00000000</v>
    <i name="NUPDOWN">     -1.00000000</i>
    <i type="logical" name="LSORBIT"> F  </i>
    <v name="SAXIS">      0.00000000      0.00000000      1.00000000</v>
    <i type="logical" name="LSPIRAL"> F  </i>
    <v name="QSPIRAL">      0.00000000      0.00000000      0.00000000</v>
    <i type="logical" name="LZEROZ"> F  </i>
   </separator>
   <separator name="electronic exchange-correlation" >
    <i type="logical" name="LASPH"> F  </i>
    <i type="logical" name="LMETAGGA"> F  </i>
   </separator>
   <separator name="electronic convergence" >
    <i type="int" name="NELM">    64</i>
    <i type="int" name="NELMDL">    -5</i>
    <i type="int" name="NELMIN">     2</i>
    <i name="ENINI">    450.00000000</i>
    <separator name="electronic convergence detail" >
     <i type="logical" name="LDIAG"> T  </i>
     <i type="logical" name="LSUBROT"> F  </i>
     <i name="WEIMIN">      0.00100000</i>
     <i name="EBREAK">      0.00000001</i>
     <i name="DEPER">      0.30000000</i>
     <i type="int" name="NRMM">     4</i>
     <i name="TIME">      0.40000000</i>
    </separator>
   </separator>
   <separator name="electronic mixer" >
    <i name="AMIX">      0.40000000</i>
    <i name="BMIX">      1.00000000</i>
    <i name="AMIN">      0.10000000</i>
    <i name="AMIX_MAG">      1.60000000</i>
    <i name="BMIX_MAG">      1.00000000</i>
    <separator name="electronic mixer details" >
     <i type="int" name="IMIX">     4</i>
     <i type="logical" name="MIXFIRST"> F  </i>
     <i type="int" name="MAXMIX">   -45</i>
     <i name="WC">    100.00000000</i>
     <i type="int" name="INIMIX">     1</i>
     <i type="int" name="MIXPRE">     1</i>
     <i type="int" name="MREMOVE">     5</i>
    </separator>
   </separator>
   <separator name="electronic dipolcorrection" >
    <i type="logical" name="LDIPOL"> F  </i>
    <i type="logical" name="LMONO"> F  </i>
    <i type="int" name="IDIPOL">     0</i>
    <i name="EPSILON">      1.00000000</i>
    <v name="DIPOL">   -100.00000000   -100.00000000   -100.00000000</v>
    <i name="EFIELD">      0.00000000</i>
   </separator>
  </separator>
  <separator name="grids" >
   <i type="int" name="NGX">    36</i>
   <i type="int" name="NGY">    36</i>
   <i type="int" name="NGZ">   108</i>
   <i type="int" name="NGXF">    72</i>
   <i type="int" name="NGYF">    72</i>
   <i type="int" name="NGZF">   216</i>
   <i type="logical" name="ADDGRID"> F  </i>
  </separator>
  <separator name="ionic" >
   <i type="int" name="NSW">   128</i>
   <i type="int" name="IBRION">     2</i>
   <i type="int" name="MDALGO">     0</i>
   <i type="int" name="ISIF">     2</i>
   <i name="PSTRESS">      0.00000000</i>
   <i name="EDIFFG">     -0.00100000</i>
   <i type="int" name="NFREE">     1</i>
   <i name="POTIM">      0.50000000</i>
   <i name="SMASS">     -3.00000000</i>
   <i name="SCALEE">      1.00000000</i>
  </separator>
  <separator name="ionic md" >
   <i name="TEBEG">      0.00010000</i>
   <i name="TEEND">      0.00010000</i>
   <i type="int" name="NBLOCK">     1</i>
   <i type="int" name="KBLOCK">   128</i>
   <i type="int" name="NPACO">   256</i>
   <i name="APACO">     10.00000000</i>
  </separator>
  <separator name="symmetry" >
   <i type="int" name="ISYM">     2</i>
   <i name="SYMPREC">      0.00001000</i>
  </separator>
  <separator name="dos" >
   <i type="int" name="LORBIT">     0</i>
   <v name="RWIGS">     -1.00000000     -1.00000000</v>
   <i type="int" name="NEDOS">   301</i>
   <i name="EMIN">     10.00000000</i>
   <i name="EMAX">    -10.00000000</i>
   <i name="EFERMI">      0.00000000</i>
  </separator>
  <separator name="writing" >
   <i type="int" name="NWRITE">     2</i>
   <i type="logical" name="LWAVE"> F  </i>
   <i type="logical" name="LDOWNSAMPLE"> F  </i>
   <i type="logical" name="LCHARG"> F  </i>
   <i type="logical" name="LPARD"> F  </i>
   <i type="logical" name="LVTOT"> F  </i>
   <i type="logical" name="LVHAR"> F  </i>
   <i type="logical" name="LELF"> F  </i>
   <i type="logical" name="LOPTICS"> F  </i>
   <v name="STM">      0.00000000      0.00000000      0.00000000      0.00000000      0.00000000      0.00000000      0.00000000</v>
  </separator>
  <separator name="performance" >
   <i type="int" name="NPAR">    48</i>
   <i type="int" name="NSIM">     4</i>
   <i type="int" name="NBLK">    -1</i>
   <i type="logical" name="LPLANE"> T  </i>
   <i type="logical" name="LSCALAPACK"> T  </i>
   <i type="logical" name="LSCAAWARE"> F  </i>
   <i type="logical" name="LSCALU"> F  </i>
   <i type="logical" name="LASYNC"> F  </i>
   <i type="logical" name="LORBITALREAL"> F  </i>
  </separator>
  <separator name="miscellaneous" >
   <i type="int" name="IDIOT">     3</i>
   <i type="int" name="PHON_NSTRUCT">    -1</i>
   <i type="logical" name="LMUSIC"> F  </i>
   <v name="POMASS">     10.81100000     12.01100000</v>
   <v name="DARWINR">      0.00000000      0.00000000</v>
   <v name="DARWINV">      1.00000000      1.00000000</v>
   <i type="logical" name="LCORR"> T  </i>
  </separator>
  <i type="logical" name="GGA_COMPAT"> T  </i>
  <i type="logical" name="LBERRY"> F  </i>
  <i type="int" name="ICORELEVEL">     0</i>
  <i type="logical" name="LDAU"> F  </i>
  <i type="int" name="I_CONSTRAINED_M">     0</i>
  <separator name="electronic exchange-correlation" >
   <i type="string" name="GGA">PE</i>
   <i type="int" name="VOSKOWN">     0</i>
   <i type="logical" name="LHFCALC"> F  </i>
   <i type="string" name="PRECFOCK"></i>
   <i type="logical" name="LSYMGRAD"> F  </i>
   <i type="logical" name="LHFONE"> F  </i>
   <i type="logical" name="LRHFCALC"> F  </i>
   <i type="logical" name="LTHOMAS"> F  </i>
   <i type="logical" name="LMODELHF"> F  </i>
   <i type="logical" name="LFOCKACE"> F  </i>
   <i name="ENCUT4O">     -1.00000000</i>
   <i type="int" name="EXXOEP">     0</i>
   <i type="int" name="FOURORBIT">     0</i>
   <i name="AEXX">      0.00000000</i>
   <i name="HFALPHA">      0.00000000</i>
   <i name="MCALPHA">      0.00000000</i>
   <i name="ALDAX">      1.00000000</i>
   <i name="AGGAX">      1.00000000</i>
   <i name="ALDAC">      1.00000000</i>
   <i name="AGGAC">      1.00000000</i>
   <i type="int" name="NKREDX">     1</i>
   <i type="int" name="NKREDY">     1</i>
   <i type="int" name="NKREDZ">     1</i>
   <i type="logical" name="SHIFTRED"> F  </i>
   <i type="logical" name="ODDONLY"> F  </i>
   <i type="logical" name="EVENONLY"> F  </i>
   <i type="int" name="LMAXFOCK">     0</i>
   <i type="int" name="NMAXFOCKAE">     0</i>
   <i type="logical" name="LFOCKAEDFT"> F  </i>
   <i name="HFSCREEN">      0.00000000</i>
   <i name="HFSCREENC">      0.00000000</i>
   <i type="int" name="NBANDSGWLOW">     0</i>
  </separator>
  <separator name="vdW DFT" >
   <i type="logical" name="LUSE_VDW"> F  </i>
   <i name="Zab_VDW">     -0.84910000</i>
   <i name="PARAM1">      0.12340000</i>
   <i name="PARAM2">      1.00000000</i>
   <i name="PARAM3">      0.00000000</i>
  </separator>
  <separator name="model GW" >
   <i type="int" name="MODEL_GW">     0</i>
   <i name="MODEL_EPS0">     12.02187021</i>
   <i name="MODEL_ALPHA">      1.00000000</i>
  </separator>
  <separator name="linear response parameters" >
   <i type="logical" name="LEPSILON"> F  </i>
   <i type="logical" name="LRPA"> F  </i>
   <i type="logical" name="LNABLA"> F  </i>
   <i type="logical" name="LVEL"> F  </i>
   <i name="CSHIFT">      0.10000000</i>
   <i name="OMEGAMAX">     -1.00000000</i>
   <i name="DEG_THRESHOLD">      0.00200000</i>
   <i name="RTIME">     -0.10000000</i>
   <i name="WPLASMAI">      0.00000000</i>
   <v name="DFIELD">      0.00000000      0.00000000      0.00000000</v>
   <v name="WPLASMA">      0.00000000      0.00000000      0.00000000      0.00000000      0.00000000      0.00000000      0.00000000      0.00000000      0.00000000</v>
  </separator>
  <separator name="orbital magnetization" >
   <i type="logical" name="NUCIND"> F  </i>
   <v name="MAGPOS">      0.00000000      0.00000000      0.00000000</v>
   <i type="logical" name="LNICSALL"> T  </i>
   <i type="logical" name="ORBITALMAG"> F  </i>
   <i type="logical" name="LMAGBLOCH"> F  </i>
   <i type="logical" name="LCHIMAG"> F  </i>
   <i type="logical" name="LGAUGE"> T  </i>
   <i type="int" name="MAGATOM">     0</i>
   <v name="MAGDIPOL">      0.00000000      0.00000000      0.00000000</v>
   <v name="AVECCONST">      0.00000000      0.00000000      0.00000000</v>
  </separator>
  <separator name="response functions" >
   <i type="logical" name="LFINITE_TEMPERATURE"> F  </i>
   <i type="logical" name="LADDER"> F  </i>
   <i type="logical" name="LRPAFORCE"> F  </i>
   <i type="logical" name="LFXC"> F  </i>
   <i type="logical" name="LHARTREE"> T  </i>
   <i type="int" name="IBSE">     0</i>
   <v type="int" name="KPOINT">    -1     0     0     0</v>
   <i type="logical" name="LTCTC"> F  </i>
   <i type="logical" name="LTCTE"> F  </i>
   <i type="logical" name="LTETE"> F  </i>
   <i type="logical" name="LTRIPLET"> F  </i>
   <i type="logical" name="LFXCEPS"> F  </i>
   <i type="logical" name="LFXHEG"> F  </i>
   <i type="int" name="NATURALO">     2</i>
   <i type="logical" name="LHOLEGF"> F  </i>
   <i type="logical" name="L2ORDER"> F  </i>
   <i type="logical" name="LDMP1"> F  </i>
   <i type="logical" name="LMP2LT"> F  </i>
   <i type="logical" name="LSMP2LT"> F  </i>
   <i type="logical" name="LGWLF"> F  </i>
   <i name="ENCUTGW">     -2.00000000</i>
   <i name="ENCUTGWSOFT">     -2.00000000</i>
   <i name="ENCUTLF">     -1.00000000</i>
   <i type="logical" name="LESF_SPLINES"> F  </i>
   <i type="int" name="LMAXMP2">    -1</i>
   <i name="SCISSOR">      0.00000000</i>
   <i type="int" name="NOMEGA">     0</i>
   <i type="int" name="NOMEGAR">     0</i>
   <i type="int" name="NBANDSGW">    -1</i>
   <i type="int" name="NBANDSO">    -1</i>
   <i type="int" name="NBANDSV">    -1</i>
   <i type="int" name="NELMGW">     1</i>
   <i type="int" name="NELMHF">     1</i>
   <i type="int" name="DIM">     3</i>
   <i type="int" name="IESPILON">     4</i>
   <i type="int" name="ANTIRES">     0</i>
   <i name="OMEGAMAX">    -30.00000000</i>
   <i name="OMEGAMIN">    -30.00000000</i>
   <i name="OMEGATL">   -200.00000000</i>
   <i type="int" name="OMEGAGRID">     0</i>
   <i name="CSHIFT">     -0.10000000</i>
   <i type="logical" name="LSELFENERGY"> F  </i>
   <i type="logical" name="LSPECTRAL"> F  </i>
   <i type="logical" name="LSPECTRALGW"> F  </i>
   <i type="logical" name="LSINGLES"> F  </i>
   <i type="logical" name="LFERMIGW"> F  </i>
   <i type="logical" name="ODDONLYGW"> F  </i>
   <i type="logical" name="EVENONLYGW"> F  </i>
   <i type="int" name="NKREDLFX">     1</i>
   <i type="int" name="NKREDLFY">     1</i>
   <i type="int" name="NKREDLFZ">     1</i>
   <i type="int" name="MAXMEM">  2800</i>
   <i type="int" name="TELESCOPE">     0</i>
   <i type="int" name="NTAUPAR">    -1</i>
   <i type="int" name="NOMEGAPAR">    -1</i>
   <i name="DAMP_NEWTON">      0.80000001</i>
   <i name="LAMBDA">      1.00000000</i>
  </separator>
  <separator name="External order field" >
   <i name="OFIELD_KAPPA">      0.00000000</i>
   <v name="OFIELD_K">      0.00000000      0.00000000      0.00000000</v>
   <i name="OFIELD_Q6_NEAR">      0.00000000</i>
   <i name="OFIELD_Q6_FAR">      0.00000000</i>
   <i name="OFIELD_A">      0.00000000</i>
  </separator>
  <separator name="optional k-points parameters" >
   <i type="int" name="KPOINTS_OPT_MODE">     1</i>
   <i type="logical" name="LKPOINTS_OPT"> F  </i>
  </separator>
  <separator name="solvation model" >
   <i type="logical" name="LSOL"> F  </i>
  </separator>
 </parameters>
 <atominfo>
  <atoms>      15 </atoms>
  <types>       2 </types>
  <array name="atoms" >
   <dimension dim="1">ion</dimension>
   <field type="string">element</field>
   <field type="int">atomtype</field>
   <set>
    <rc><c>B </c><c>   1</c></rc>
    <rc><c>B </c><c>   1</c></rc>
    <rc><c>B </c><c>   1</c></rc>
    <rc><c>B </c><c>   1</c></rc>
    <rc><c>C </c><c>   2</c></rc>
    <rc><c>C </c><c>   2</c></rc>
    <rc><c>C </c><c>   2</c></rc>
    <rc><c>C </c><c>   2</c></rc>
    <rc><c>C </c><c>   2</c></rc>
    <rc><c>C </c><c>   2</c></rc>
    <rc><c>C </c><c>   2</c></rc>
    <rc><c>C </c><c>   2</c></rc>
    <rc><c>C </c><c>   2</c></rc>
    <rc><c>C </c><c>   2</c></rc>
    <rc><c>C </c><c>   2</c></rc>
   </set>
  </array>
  <array name="atomtypes" >
   <dimension dim="1">type</dimension>
   <field type="int">atomspertype</field>
   <field type="string">element</field>
   <field>mass</field>
   <field>valence</field>
   <field type="string">pseudopotential</field>
   <set>
    <rc><c>   4</c><c>B </c><c>     10.81100000</c><c>      3.00000000</c><c>  PAW_PBE B 06Sep2000                   </c></rc>
    <rc><c>  11</c><c>C </c><c>     12.01100000</c><c>      4.00000000</c><c>  PAW_PBE C 08Apr2002                   </c></rc>
   </set>
  </array>
 </atominfo>
 <structure name="initialpos" >
  <crystal>
   <varray name="basis" >
    <v>       4.16558219       2.40500000       0.00000000 </v>
    <v>      -4.16558219       2.40500000       0.00000000 </v>
    <v>       0.00000000       0.00000000      15.00000000 </v>
   </varray>
   <i name="volume">    300.54675517 </i>
   <varray name="rec_basis" >
    <v>       0.12003124       0.20790021       0.00000000 </v>
    <v>      -0.12003124       0.20790021       0.00000000 </v>
    <v>       0.00000000       0.00000000       0.06666667 </v>
   </varray>
  </crystal>
  <varray name="positions" >
   <v>       0.00415361       0.00267210       0.12034134 </v>
   <v>       0.35695335       0.00285503       0.09748893 </v>
   <v>       0.00423858       0.35550699       0.09749256 </v>
   <v>       0.65142295       0.65006557       0.09747688 </v>
   <v>       0.32808646       0.32671938       0.10030508 </v>
   <v>       0.68027775       0.00278085       0.10027562 </v>
   <v>       0.00416530       0.67883808       0.10026559 </v>
   <v>       0.16666600       0.33333300       0.33720000 </v>
   <v>       0.33333300       0.16666600       0.33720000 </v>
   <v>       0.16666600       0.83333300       0.33720000 </v>
   <v>       0.33333300       0.66666600       0.33720000 </v>
   <v>       0.66666600       0.33333300       0.33720000 </v>
   <v>       0.83333300       0.16666600       0.33720000 </v>
   <v>       0.66666600       0.83333300       0.33720000 </v>
   <v>       0.83333300       0.66666600       0.33720000 </v>
  </varray>
 </structure>
 <calculation>
  <scstep>
   <time name="dav">    5.67    5.73</time>
   <time name="total">    5.73    5.79</time>
   <energy>
    <i name="alphaZ">     59.18312054 </i>
    <i name="ewald">   4784.53423720 </i>
    <i name="hartreedc">  -6335.18433689 </i>
    <i name="XCdc">    175.78894849 </i>
    <i name="pawpsdc">   1365.87943566 </i>
    <i name="pawaedc">  -1368.52100941 </i>
    <i name="eentropy">     -0.01584158 </i>
    <i name="bandstr">   -380.77591951 </i>
    <i name="atom">   1903.26342058 </i>
    <i name="e_fr_energy">    204.15205508 </i>
    <i name="e_wo_entrp">    204.16789666 </i>
    <i name="e_0_energy">    204.15997587 </i>
   </energy>
  </scstep>
  <scstep>
   <time name="dav">    8.06    8.12</time>
   <time name="total">    8.06    8.12</time>
   <energy>
    <i name="e_fr_energy">   -116.79926062 </i>
    <i name="e_wo_entrp">   -116.79796355 </i>
    <i name="e_0_energy">   -116.79861209 </i>
   </energy>
  </scstep>
  <scstep>
   <time name="dav">   11.64   11.69</time>
   <time name="total">   11.64   11.69</time>
   <energy>
    <i name="e_fr_energy">   -129.94159833 </i>
    <i name="e_wo_entrp">   -129.93857648 </i>
    <i name="e_0_energy">   -129.94008741 </i>
   </energy>
  </scstep>
  <scstep>
   <time name="dav">    8.15    8.21</time>
   <time name="total">    8.15    8.21</time>
   <energy>
    <i name="e_fr_energy">   -129.96082768 </i>
    <i name="e_wo_entrp">   -129.95780279 </i>
    <i name="e_0_energy">   -129.95931523 </i>
   </energy>
  </scstep>
  <scstep>
   <time name="dav">   10.95   11.00</time>
   <time name="total">   11.21   11.27</time>
   <energy>
    <i name="e_fr_energy">   -129.96088588 </i>
    <i name="e_wo_entrp">   -129.95786089 </i>
    <i name="e_0_energy">   -129.95937339 </i>
   </energy>
  </scstep>
  <scstep>
   <time name="dav">   10.65   10.70</time>
   <time name="total">   10.95   11.02</time>
   <energy>
    <i name="e_fr_energy">    -92.19774362 </i>
    <i name="e_wo_entrp">    -92.19153992 </i>
    <i name="e_0_energy">    -92.19464177 </i>
   </energy>
  </scstep>
  <scstep>
   <time name="dav">    9.29    9.33</time>
   <time name="total">    9.59    9.64</time>
   <energy>
    <i name="e_fr_energy">   -100.65896828 </i>
    <i name="e_wo_entrp">   -100.65338162 </i>
    <i name="e_0_energy">   -100.65617495 </i>
   </energy>
  </scstep>
  <scstep>
   <time name="dav">   10.43   10.48</time>
   <time name="total">   10.73   10.79</time>
   <energy>
    <i name="e_fr_energy">   -110.46462720 </i>
    <i name="e_wo_entrp">   -110.46458464 </i>
    <i name="e_0_energy">   -110.46460592 </i>
   </energy>
  </scstep>
  <scstep>
   <time name="dav">    8.36    8.42</time>
   <time name="total">    8.66    8.72</time>
   <energy>
    <i name="e_fr_energy">   -117.16824239 </i>
    <i name="e_wo_entrp">   -117.16823828 </i>
    <i name="e_0_energy">   -117.16824033 </i>
   </energy>
  </scstep>
  <scstep>
   <time name="dav">    9.59    9.61</time>
   <time name="total">    9.88    9.92</time>
   <energy>
    <i name="e_fr_energy">   -123.38991386 </i>
    <i name="e_wo_entrp">   -123.38933140 </i>
    <i name="e_0_energy">   -123.38962263 </i>
   </energy>
  </scstep>
  <scstep>
   <time name="dav">    9.47    9.51</time>
   <time name="total">    9.76    9.81</time>
   <energy>
    <i name="e_fr_energy">   -125.24754077 </i>
    <i name="e_wo_entrp">   -125.24636001 </i>
    <i name="e_0_energy">   -125.24695039 </i>
   </energy>
  </scstep>
  <scstep>
   <time name="dav">    8.66    8.69</time>
   <time name="total">    8.95    9.00</time>
   <energy>
    <i name="e_fr_energy">   -125.38331193 </i>
    <i name="e_wo_entrp">   -125.38183832 </i>
    <i name="e_0_energy">   -125.38257512 </i>
   </energy>
  </scstep>
  <scstep>
   <time name="dav">    6.57    6.59</time>
   <time name="total">    6.86    6.89</time>
   <energy>
    <i name="e_fr_energy">   -125.41078176 </i>
    <i name="e_wo_entrp">   -125.40922150 </i>
    <i name="e_0_energy">   -125.41000163 </i>
   </energy>
  </scstep>
  <scstep>
   <time name="dav">    8.25    8.29</time>
   <time name="total">    8.54    8.60</time>
   <energy>
    <i name="e_fr_energy">   -125.43411342 </i>
    <i name="e_wo_entrp">   -125.43254708 </i>
    <i name="e_0_energy">   -125.43333025 </i>
   </energy>
  </scstep>
  <scstep>
   <time name="dav">    7.61    7.64</time>
   <time name="total">    7.90    7.94</time>
   <energy>
    <i name="e_fr_energy">   -125.44222846 </i>
    <i name="e_wo_entrp">   -125.44066130 </i>
    <i name="e_0_energy">   -125.44144488 </i>
   </energy>
  </scstep>
  <scstep>
   <time name="dav">    6.64    6.66</time>
   <time name="total">    6.93    6.96</time>
   <energy>
    <i name="e_fr_energy">   -125.44430688 </i>
    <i name="e_wo_entrp">   -125.44273969 </i>
    <i name="e_0_energy">   -125.44352329 </i>
   </energy>
  </scstep>
  <scstep>
   <time name="dav">    5.86    5.88</time>
   <time name="total">    6.16    6.19</time>
   <energy>
    <i name="e_fr_energy">   -125.44561633 </i>
    <i name="e_wo_entrp">   -125.44404915 </i>
    <i name="e_0_energy">   -125.44483274 </i>
   </energy>
  </scstep>
  <scstep>
   <time name="dav">    5.86    5.89</time>
   <time name="total">    6.16    6.19</time>
   <energy>
    <i name="e_fr_energy">   -125.44632832 </i>
    <i name="e_wo_entrp">   -125.44476116 </i>
    <i name="e_0_energy">   -125.44554474 </i>
   </energy>
  </scstep>
  <scstep>
   <time name="dav">    8.19    8.22</time>
   <time name="total">    8.49    8.52</time>
   <energy>
    <i name="e_fr_energy">   -125.44679460 </i>
    <i name="e_wo_entrp">   -125.44522741 </i>
    <i name="e_0_energy">   -125.44601101 </i>
   </energy>
  </scstep>
  <scstep>
   <time name="dav">    8.89    8.92</time>
   <time name="total">    9.18    9.22</time>
   <energy>
    <i name="e_fr_energy">   -125.44683427 </i>
    <i name="e_wo_entrp">   -125.44526708 </i>
    <i name="e_0_energy">   -125.44605068 </i>
   </energy>
  </scstep>
  <scstep>
   <time name="dav">    8.48    8.52</time>
   <time name="total">    8.78    8.82</time>
   <energy>
    <i name="e_fr_energy">   -125.44686214 </i>
    <i name="e_wo_entrp">   -125.44529495 </i>
    <i name="e_0_energy">   -125.44607855 </i>
   </energy>
  </scstep>
  <scstep>
   <time name="dav">    8.32    8.34</time>
   <time name="total">    8.61    8.65</time>
   <energy>
    <i name="e_fr_energy">   -125.44688399 </i>
    <i name="e_wo_entrp">   -125.44531680 </i>
    <i name="e_0_energy">   -125.44610039 </i>
   </energy>
  </scstep>
  <scstep>
   <time name="dav">    8.86    8.89</time>
   <time name="total">    9.15    9.19</time>
   <energy>
    <i name="e_fr_energy">   -125.44690134 </i>
    <i name="e_wo_entrp">   -125.44533414 </i>
    <i name="e_0_energy">   -125.44611774 </i>
   </energy>
  </scstep>
  <scstep>
   <time name="dav">    8.51    8.54</time>
   <time name="total">    8.81    8.85</time>
   <energy>
    <i name="e_fr_energy">   -125.44690497 </i>
    <i name="e_wo_entrp">   -125.44533778 </i>
    <i name="e_0_energy">   -125.44612137 </i>
   </energy>
  </scstep>
  <scstep>
   <time name="dav">    9.57    9.60</time>
   <time name="total">    9.87    9.91</time>
   <energy>
    <i name="e_fr_energy">   -125.44690598 </i>
    <i name="e_wo_entrp">   -125.44533879 </i>
    <i name="e_0_energy">   -125.44612238 </i>
   </energy>
  </scstep>
  <scstep>
   <time name="dav">    8.25    8.28</time>
   <time name="total">    8.28    8.31</time>
   <energy>
    <i name="alphaZ">     59.18312054 </i>
    <i name="ewald">   4784.53423720 </i>
    <i name="hartreedc">  -6544.69280153 </i>
    <i name="XCdc">    181.39475593 </i>
    <i name="pawpsdc">   5945.20595156 </i>
    <i name="pawaedc">  -5949.69980757 </i>
    <i name="eentropy">     -0.00156719 </i>
    <i name="bandstr">   -504.63421601 </i>
    <i name="atom">   1903.26342058 </i>
    <i name="e_fr_energy">   -125.44690649 </i>
    <i name="e_wo_entrp">   -125.44533930 </i>
    <i name="e_0_energy">   -125.44612289 </i>
   </energy>
  </scstep>
  <structure>
   <crystal>
    <varray name="basis" >
     <v>       4.16558219       2.40500000       0.00000000 </v>
     <v>      -4.16558219       2.40500000       0.00000000 </v>
     <v>       0.00000000       0.00000000      15.00000000 </v>
    </varray>
    <i name="volume">    300.54675517 </i>
    <varray name="rec_basis" >
     <v>       0.12003124       0.20790021       0.00000000 </v>
     <v>      -0.12003124       0.20790021       0.00000000 </v>
     <v>       0.00000000       0.00000000       0.06666667 </v>
    </varray>
   </crystal>
   <varray name="positions" >
    <v>       0.00415361       0.00267210       0.12034134 </v>
    <v>       0.35695335       0.00285503       0.09748893 </v>
    <v>       0.00423858       0.35550699       0.09749256 </v>
    <v>       0.65142295       0.65006557       0.09747688 </v>
    <v>       0.32808646       0.32671938       0.10030508 </v>
    <v>       0.68027775       0.00278085       0.10027562 </v>
    <v>       0.00416530       0.67883808       0.10026559 </v>
    <v>       0.16666600       0.33333300       0.33720000 </v>
    <v>       0.33333300       0.16666600       0.33720000 </v>
    <v>       0.16666600       0.83333300       0.33720000 </v>
    <v>       0.33333300       0.66666600       0.33720000 </v>
    <v>       0.66666600       0.33333300       0.33720000 </v>
    <v>       0.83333300       0.16666600       0.33720000 </v>
    <v>       0.66666600       0.83333300       0.33720000 </v>
    <v>       0.83333300       0.66666600       0.33720000 </v>
   </varray>
  </structure>
  <varray name="forces" >
   <v>      -0.00451517       0.00594433      -0.34584025 </v>
   <v>      -0.06573888      -0.04350056       0.09109749 </v>
   <v>       0.06524223      -0.04239026       0.09089512 </v>
   <v>       0.00293377       0.07677824       0.09338140 </v>
   <v>       0.00332145      -0.26623167       0.00312674 </v>
   <v>       0.22883088       0.13432547       0.00619203 </v>
   <v>      -0.22962542       0.13644466       0.00722968 </v>
   <v>      -0.01375533       0.00139644       0.01776965 </v>
   <v>       0.01355640       0.00156412       0.01808304 </v>
   <v>       0.00855385       0.01016126       0.01861791 </v>
   <v>      -0.00038127       0.00039886      -0.02734454 </v>
   <v>       0.00060961       0.00017923      -0.02734941 </v>
   <v>      -0.00856306       0.00990937       0.01859260 </v>
   <v>       0.00499950      -0.01238790       0.01791976 </v>
   <v>      -0.00546857      -0.01259159       0.01762879 </v>
  </varray>
  <varray name="stress" >
   <v>      31.67365377       0.00908569      -0.01647193 </v>
   <v>       0.00908570      31.67531336      -0.01444566 </v>
   <v>      -0.01647195      -0.01444561      -1.73951712 </v>
  </varray>
  <energy>
   <i name="e_fr_energy">   -127.03816379 </i>
   <i name="e_wo_entrp">   -127.03659660 </i>
   <i name="e_0_energy">   -127.03738019 </i>
  </energy>
  <time name="totalsc">  231.70  232.94</time>
 </calculation>
 <calculation>
  <scstep>
   <time name="dav">    5.45    5.46</time>
   <time name="total">    5.74    5.76</time>
   <energy>
    <i name="alphaZ">     59.18312054 </i>
    <i name="ewald">   4786.76568660 </i>
    <i name="hartreedc">  -6545.82022372 </i>
    <i name="XCdc">    181.45830424 </i>
    <i name="pawpsdc">   5945.21376703 </i>
    <i name="pawaedc">  -5949.70762498 </i>
    <i name="eentropy">     -0.00156719 </i>
    <i name="bandstr">   -505.80820722 </i>
    <i name="atom">   1903.26342058 </i>
    <i name="e_fr_energy">   -125.45332412 </i>
    <i name="e_wo_entrp">   -125.45175693 </i>
    <i name="e_0_energy">   -125.45254053 </i>
   </energy>
  </scstep>
  <scstep>
   <time name="dav">   10.79   10.82</time>
   <time name="total">   11.08   11.12</time>
   <energy>
    <i name="e_fr_energy">   -125.44820283 </i>
    <i name="e_wo_entrp">   -125.44663564 </i>
    <i name="e_0_energy">   -125.44741923 </i>
   </energy>
  </scstep>
  <scstep>
   <time name="dav">    8.80    8.83</time>
   <time name="total">    9.09    9.14</time>
   <energy>
    <i name="e_fr_energy">   -125.44763721 </i>
    <i name="e_wo_entrp">   -125.44607002 </i>
    <i name="e_0_energy">   -125.44685362 </i>
   </energy>
  </scstep>
  <scstep>
   <time name="dav">   10.71   10.74</time>
   <time name="total">   11.00   11.04</time>
   <energy>
    <i name="e_fr_energy">   -125.44761642 </i>
    <i name="e_wo_entrp">   -125.44604923 </i>
    <i name="e_0_energy">   -125.44683282 </i>
   </energy>
  </scstep>
  <scstep>
   <time name="dav">   10.31   10.33</time>
   <time name="total">   10.59   10.63</time>
   <energy>
    <i name="e_fr_energy">   -125.44761877 </i>
    <i name="e_wo_entrp">   -125.44605158 </i>
    <i name="e_0_energy">   -125.44683517 </i>
   </energy>
  </scstep>
  <scstep>
   <time name="dav">    9.22    9.25</time>
   <time name="total">    9.26    9.29</time>
   <energy>
    <i name="alphaZ">     59.18312054 </i>
    <i name="ewald">   4786.76568660 </i>
    <i name="hartreedc">  -6546.37422959 </i>
    <i name="XCdc">    181.47072229 </i>
    <i name="pawpsdc">   5966.67174689 </i>
    <i name="pawaedc">  -5971.17244130 </i>
    <i name="eentropy">     -0.00156719 </i>
    <i name="bandstr">   -505.25407788 </i>
    <i name="atom">   1903.26342058 </i>
    <i name="e_fr_energy">   -125.44761907 </i>
    <i name="e_wo_entrp">   -125.44605188 </i>
    <i name="e_0_energy">   -125.44683547 </i>
   </energy>
  </scstep>
  <structure>
   <crystal>
    <varray name="basis" >
     <v>       4.16558219       2.40500000       0.00000000 </v>
     <v>      -4.16558219       2.40500000       0.00000000 </v>
     <v>       0.00000000       0.00000000      15.00000000 </v>
    </varray>
    <i name="volume">    300.54675517 </i>
    <varray name="rec_basis" >
     <v>       0.12003124       0.20790021       0.00000000 </v>
     <v>      -0.12003124       0.20790021       0.00000000 </v>
     <v>       0.00000000       0.00000000       0.06666667 </v>
    </varray>
   </crystal>
   <varray name="positions" >
    <v>       0.00418708       0.00275787       0.11922905 </v>
    <v>       0.35613639       0.00279940       0.09778192 </v>
    <v>       0.00419121       0.35470404       0.09778490 </v>
    <v>       0.65221000       0.65081864       0.09777721 </v>
    <v>       0.32543548       0.32402993       0.10031513 </v>
    <v>       0.68295006       0.00280302       0.10029554 </v>
    <v>       0.00420412       0.68153625       0.10028884 </v>
    <v>       0.16660035       0.33342666       0.33725715 </v>
    <v>       0.33342719       0.16660319       0.33725816 </v>
    <v>       0.16681745       0.83338538       0.33725988 </v>
    <v>       0.33333479       0.66667221       0.33711206 </v>
    <v>       0.66667133       0.33333127       0.33711204 </v>
    <v>       0.83338280       0.16681497       0.33725980 </v>
    <v>       0.66657070       0.83317980       0.33725763 </v>
    <v>       0.83317504       0.66657138       0.33725670 </v>
   </varray>
  </structure>
  <varray name="forces" >
   <v>      -0.00107932      -0.00125155      -0.16402066 </v>
   <v>       0.21494460       0.12285248       0.05408740 </v>
   <v>      -0.21608193       0.12497022       0.05390199 </v>
   <v>       0.00124779      -0.24171024       0.05573934 </v>
   <v>       0.00018460       0.47954800      -0.01918864 </v>
   <v>      -0.41322248      -0.24162629      -0.01693647 </v>
   <v>       0.41442732      -0.24156472      -0.01651062 </v>
   <v>       0.05625878      -0.00462061       0.00940504 </v>
   <v>      -0.05612299      -0.00517043       0.00949788 </v>
   <v>      -0.03392482      -0.04438099       0.00961974 </v>
   <v>       0.00142300      -0.00212637      -0.00194180 </v>
   <v>      -0.00268607      -0.00131889      -0.00193797 </v>
   <v>       0.03346589      -0.04340734       0.00958889 </v>
   <v>      -0.02302234       0.04954650       0.00937907 </v>
   <v>       0.02418798       0.05026023       0.00931680 </v>
  </varray>
  <varray name="stress" >
   <v>      33.76811482       0.00113382      -0.01060605 </v>
   <v>       0.00113381      33.75181564      -0.02690963 </v>
   <v>      -0.01060604      -0.02690962      -1.43257160 </v>
  </varray>
  <energy>
   <i name="e_fr_energy">   -127.03835543 </i>
   <i name="e_wo_entrp">   -127.03678823 </i>
   <i name="e_0_energy">   -127.03757183 </i>
  </energy>
  <time name="totalsc">   61.39   61.65</time>
 </calculation>
 <calculation>
  <scstep>
   <time name="dav">    5.43    5.45</time>
   <time name="total">    5.72    5.75</time>
   <energy>
    <i name="alphaZ">     59.18312054 </i>
    <i name="ewald">   4785.64320886 </i>
    <i name="hartreedc">  -6545.80232251 </i>
    <i name="XCdc">    181.43862206 </i>
    <i name="pawpsdc">   5966.67662715 </i>
    <i name="pawaedc">  -5971.17730008 </i>
    <i name="eentropy">     -0.00156719 </i>
    <i name="bandstr">   -504.67702179 </i>
    <i name="atom">   1903.26342058 </i>
    <i name="e_fr_energy">   -125.45321240 </i>
    <i name="e_wo_entrp">   -125.45164521 </i>
    <i name="e_0_energy">   -125.45242880 </i>
   </energy>
  </scstep>
  <scstep>
   <time name="dav">   10.30   10.34</time>
   <time name="total">   10.59   10.64</time>
   <energy>
    <i name="e_fr_energy">   -125.45193663 </i>
    <i name="e_wo_entrp">   -125.45036944 </i>
    <i name="e_0_energy">   -125.45115304 </i>
   </energy>
  </scstep>
  <scstep>
   <time name="dav">    9.34    9.37</time>
   <time name="total">    9.64    9.68</time>
   <energy>
    <i name="e_fr_energy">   -125.45180238 </i>
    <i name="e_wo_entrp">   -125.45023519 </i>
    <i name="e_0_energy">   -125.45101879 </i>
   </energy>
  </scstep>
  <scstep>
   <time name="dav">    9.15    9.18</time>
   <time name="total">    9.44    9.48</time>
   <energy>
    <i name="e_fr_energy">   -125.45179794 </i>
    <i name="e_wo_entrp">   -125.45023075 </i>
    <i name="e_0_energy">   -125.45101434 </i>
   </energy>
  </scstep>
  <scstep>
   <time name="dav">    8.21    8.24</time>
   <time name="total">    8.24    8.27</time>
   <energy>
    <i name="alphaZ">     59.18312054 </i>
    <i name="ewald">   4785.64320886 </i>
    <i name="hartreedc">  -6545.54386440 </i>
    <i name="XCdc">    181.43253365 </i>
    <i name="pawpsdc">   5955.73389117 </i>
    <i name="pawaedc">  -5960.23102276 </i>
    <i name="eentropy">     -0.00156719 </i>
    <i name="bandstr">   -504.93151895 </i>
    <i name="atom">   1903.26342058 </i>
    <i name="e_fr_energy">   -125.45179850 </i>
    <i name="e_wo_entrp">   -125.45023130 </i>
    <i name="e_0_energy">   -125.45101490 </i>
   </energy>
  </scstep>
  <structure>
   <crystal>
    <varray name="basis" >
     <v>       4.16558219       2.40500000       0.00000000 </v>
     <v>      -4.16558219       2.40500000       0.00000000 </v>
     <v>       0.00000000       0.00000000      15.00000000 </v>
    </varray>
    <i name="volume">    300.54675517 </i>
    <varray name="rec_basis" >
     <v>       0.12003124       0.20790021       0.00000000 </v>
     <v>      -0.12003124       0.20790021       0.00000000 </v>
     <v>       0.00000000       0.00000000       0.06666667 </v>
    </varray>
   </crystal>
   <varray name="positions" >
    <v>       0.00417053       0.00271546       0.11977908 </v>
    <v>       0.35654037       0.00282691       0.09763704 </v>
    <v>       0.00421463       0.35510110       0.09764034 </v>
    <v>       0.65182081       0.65044625       0.09762870 </v>
    <v>       0.32674639       0.32535986       0.10031016 </v>
    <v>       0.68162860       0.00279206       0.10028569 </v>
    <v>       0.00418492       0.68020200       0.10027734 </v>
    <v>       0.16663282       0.33338034       0.33722889 </v>
    <v>       0.33338061       0.16663425       0.33722940 </v>
    <v>       0.16674256       0.83335948       0.33723027 </v>
    <v>       0.33333391       0.66666914       0.33715554 </v>
    <v>       0.66666869       0.33333212       0.33715554 </v>
    <v>       0.83335817       0.16674131       0.33723023 </v>
    <v>       0.66661783       0.83325556       0.33722913 </v>
    <v>       0.83325315       0.66661817       0.33722866 </v>
   </varray>
  </structure>
  <varray name="forces" >
   <v>      -0.00287771       0.00247522      -0.25299350 </v>
   <v>       0.07780063       0.04147527       0.07228141 </v>
   <v>      -0.07865927       0.04308937       0.07208743 </v>
   <v>       0.00209583      -0.08614905       0.07424948 </v>
   <v>       0.00178719       0.10900661      -0.00830127 </v>
   <v>      -0.09436115      -0.05482419      -0.00567123 </v>
   <v>       0.09465446      -0.05377937      -0.00497095 </v>
   <v>       0.02153278      -0.00171361       0.01354310 </v>
   <v>      -0.02156303      -0.00190881       0.01374590 </v>
   <v>      -0.01292102      -0.01728440       0.01407225 </v>
   <v>       0.00052535      -0.00087542      -0.01455798 </v>
   <v>      -0.00105162      -0.00057765      -0.01455853 </v>
   <v>       0.01268175      -0.01691660       0.01404370 </v>
   <v>      -0.00905470       0.01886009       0.01360301 </v>
   <v>       0.00941051       0.01912252       0.01342718 </v>
  </varray>
  <varray name="stress" >
   <v>      32.66057943       0.00479955      -0.01360965 </v>
   <v>       0.00479958      32.65122745      -0.02043279 </v>
   <v>      -0.01360965      -0.02043274      -1.56783915 </v>
  </varray>
  <energy>
   <i name="e_fr_energy">   -127.04279129 </i>
   <i name="e_wo_entrp">   -127.04122409 </i>
   <i name="e_0_energy">   -127.04200769 </i>
  </energy>
  <time name="totalsc">   48.26   48.48</time>
 </calculation>
 <calculation>
  <scstep>
   <time name="dav">    5.49    5.50</time>
   <time name="total">    5.78    5.81</time>
   <energy>
    <i name="alphaZ">     59.18312054 </i>
    <i name="ewald">   4785.17824026 </i>
    <i name="hartreedc">  -6544.82522060 </i>
    <i name="XCdc">    181.45030206 </i>
    <i name="pawpsdc">   5955.71080155 </i>
    <i name="pawaedc">  -5960.20793570 </i>
    <i name="eentropy">     -0.00156719 </i>
    <i name="bandstr">   -505.20859706 </i>
    <i name="atom">   1903.26342058 </i>
    <i name="e_fr_energy">   -125.45743556 </i>
    <i name="e_wo_entrp">   -125.45586837 </i>
    <i name="e_0_energy">   -125.45665196 </i>
   </energy>
  </scstep>
  <scstep>
   <time name="dav">   11.34   11.38</time>
   <time name="total">   11.63   11.68</time>
   <energy>
    <i name="e_fr_energy">   -125.45748659 </i>
    <i name="e_wo_entrp">   -125.45591940 </i>
    <i name="e_0_energy">   -125.45670299 </i>
   </energy>
  </scstep>
  <scstep>
   <time name="dav">    7.94    7.97</time>
   <time name="total">    8.23    8.27</time>
   <energy>
    <i name="e_fr_energy">   -125.45748082 </i>
    <i name="e_wo_entrp">   -125.45591363 </i>
    <i name="e_0_energy">   -125.45669723 </i>
   </energy>
  </scstep>
  <scstep>
   <time name="dav">   10.90   10.93</time>
   <time name="total">   11.19   11.24</time>
   <energy>
    <i name="e_fr_energy">   -125.45748196 </i>
    <i name="e_wo_entrp">   -125.45591477 </i>
    <i name="e_0_energy">   -125.45669837 </i>
   </energy>
  </scstep>
  <scstep>
   <time name="dav">    9.47    9.50</time>
   <time name="total">    9.50    9.54</time>
   <energy>
    <i name="alphaZ">     59.18312054 </i>
    <i name="ewald">   4785.17824026 </i>
    <i name="hartreedc">  -6544.82005115 </i>
    <i name="XCdc">    181.44980290 </i>
    <i name="pawpsdc">   5961.11945417 </i>
    <i name="pawaedc">  -5965.61845237 </i>
    <i name="eentropy">     -0.00156719 </i>
    <i name="bandstr">   -505.21145000 </i>
    <i name="atom">   1903.26342058 </i>
    <i name="e_fr_energy">   -125.45748226 </i>
    <i name="e_wo_entrp">   -125.45591507 </i>
    <i name="e_0_energy">   -125.45669867 </i>
   </energy>
  </scstep>
  <structure>
   <crystal>
    <varray name="basis" >
     <v>       4.16558219       2.40500000       0.00000000 </v>
     <v>      -4.16558219       2.40500000       0.00000000 </v>
     <v>       0.00000000       0.00000000      15.00000000 </v>
    </varray>
    <i name="volume">    300.54675517 </i>
    <varray name="rec_basis" >
     <v>       0.12003124       0.20790021       0.00000000 </v>
     <v>      -0.12003124       0.20790021       0.00000000 </v>
     <v>       0.00000000       0.00000000       0.06666667 </v>
    </varray>
   </crystal>
   <varray name="positions" >
    <v>       0.00418920       0.00278184       0.11866979 </v>
    <v>       0.35704494       0.00277699       0.09794558 </v>
    <v>       0.00417761       0.35562947       0.09794810 </v>
    <v>       0.65131927       0.64991135       0.09794543 </v>
    <v>       0.32684453       0.32542634       0.10028950 </v>
    <v>       0.68154432       0.00279644       0.10027599 </v>
    <v>       0.00420591       0.68013437       0.10027080 </v>
    <v>       0.16670749       0.33328417       0.33728746 </v>
    <v>       0.33328269       0.16670827       0.33728890 </v>
    <v>       0.16657013       0.83328840       0.33729130 </v>
    <v>       0.33332934       0.66666058       0.33708362 </v>
    <v>       0.66665979       0.33333181       0.33708360 </v>
    <v>       0.83328830       0.16657262       0.33729115 </v>
    <v>       0.66670881       0.83342146       0.33728804 </v>
    <v>       0.83342167       0.66670989       0.33728674 </v>
   </varray>
  </structure>
  <varray name="forces" >
   <v>       0.00043585      -0.00096392      -0.22865975 </v>
   <v>       0.04076884       0.02403946       0.04144873 </v>
   <v>      -0.04065506       0.02521304       0.04136972 </v>
   <v>       0.00040701      -0.04518398       0.04228174 </v>
   <v>      -0.00077616       0.10380179       0.01686468 </v>
   <v>      -0.08761585      -0.05290132       0.01852865 </v>
   <v>       0.08783534      -0.05278893       0.01884819 </v>
   <v>      -0.05307321      -0.00093220       0.00545389 </v>
   <v>       0.05295060      -0.00068054       0.00545866 </v>
   <v>       0.02797030       0.04534061       0.00542197 </v>
   <v>      -0.00181192       0.00110405       0.00839546 </v>
   <v>       0.00239520       0.00049279       0.00840005 </v>
   <v>      -0.02787181       0.04450329       0.00539886 </v>
   <v>       0.02683262      -0.04528326       0.00538461 </v>
   <v>      -0.02779174      -0.04576089       0.00540453 </v>
  </varray>
  <varray name="stress" >
   <v>      33.10687744       0.00051546      -0.00781055 </v>
   <v>       0.00051547      33.11529275      -0.02562701 </v>
   <v>      -0.00781052      -0.02562703      -1.58382996 </v>
  </varray>
  <energy>
   <i name="e_fr_energy">   -127.04822653 </i>
   <i name="e_wo_entrp">   -127.04665934 </i>
   <i name="e_0_energy">   -127.04744293 </i>
  </energy>
  <time name="totalsc">   50.99   51.22</time>
 </calculation>
 <calculation>
  <scstep>
   <time name="dav">    5.45    5.46</time>
   <time name="total">    5.74    5.77</time>
   <energy>
    <i name="alphaZ">     59.18312054 </i>
    <i name="ewald">   4783.36295800 </i>
    <i name="hartreedc">  -6542.37125240 </i>
    <i name="XCdc">    181.49406313 </i>
    <i name="pawpsdc">   5961.16106880 </i>
    <i name="pawaedc">  -5965.66008765 </i>
    <i name="eentropy">     -0.00156713 </i>
    <i name="bandstr">   -505.89661115 </i>
    <i name="atom">   1903.26342058 </i>
    <i name="e_fr_energy">   -125.46488729 </i>
    <i name="e_wo_entrp">   -125.46332016 </i>
    <i name="e_0_energy">   -125.46410373 </i>
   </energy>
  </scstep>
  <scstep>
   <time name="dav">   10.68   10.71</time>
   <time name="total">   10.96   11.01</time>
   <energy>
    <i name="e_fr_energy">   -125.46544370 </i>
    <i name="e_wo_entrp">   -125.46387656 </i>
    <i name="e_0_energy">   -125.46466013 </i>
   </energy>
  </scstep>
  <scstep>
   <time name="dav">    8.17    8.20</time>
   <time name="total">    8.46    8.50</time>
   <energy>
    <i name="e_fr_energy">   -125.46537825 </i>
    <i name="e_wo_entrp">   -125.46381111 </i>
    <i name="e_0_energy">   -125.46459468 </i>
   </energy>
  </scstep>
  <scstep>
   <time name="dav">   11.18   11.21</time>
   <time name="total">   11.47   11.51</time>
   <energy>
    <i name="e_fr_energy">   -125.46538786 </i>
    <i name="e_wo_entrp">   -125.46382071 </i>
    <i name="e_0_energy">   -125.46460428 </i>
   </energy>
  </scstep>
  <scstep>
   <time name="dav">    8.89    8.92</time>
   <time name="total">    9.18    9.22</time>
   <energy>
    <i name="e_fr_energy">   -125.46539043 </i>
    <i name="e_wo_entrp">   -125.46382329 </i>
    <i name="e_0_energy">   -125.46460686 </i>
   </energy>
  </scstep>
  <scstep>
   <time name="dav">   10.04   10.07</time>
   <time name="total">   10.07   10.11</time>
   <energy>
    <i name="alphaZ">     59.18312054 </i>
    <i name="ewald">   4783.36295800 </i>
    <i name="hartreedc">  -6542.34751780 </i>
    <i name="XCdc">    181.49244358 </i>
    <i name="pawpsdc">   5974.75483206 </i>
    <i name="pawaedc">  -5979.25868595 </i>
    <i name="eentropy">     -0.00156714 </i>
    <i name="bandstr">   -505.91439429 </i>
    <i name="atom">   1903.26342058 </i>
    <i name="e_fr_energy">   -125.46539041 </i>
    <i name="e_wo_entrp">   -125.46382327 </i>
    <i name="e_0_energy">   -125.46460684 </i>
   </energy>
  </scstep>
  <structure>
   <crystal>
    <varray name="basis" >
     <v>       4.16558219       2.40500000       0.00000000 </v>
     <v>      -4.16558219       2.40500000       0.00000000 </v>
     <v>       0.00000000       0.00000000      15.00000000 </v>
    </varray>
    <i name="volume">    300.54675517 </i>
    <varray name="rec_basis" >
     <v>       0.12003124       0.20790021       0.00000000 </v>
     <v>      -0.12003124       0.20790021       0.00000000 </v>
     <v>       0.00000000       0.00000000       0.06666667 </v>
    </varray>
   </crystal>
   <varray name="positions" >
    <v>       0.00424368       0.00297554       0.11543315 </v>
    <v>       0.35851715       0.00263132       0.09884584 </v>
    <v>       0.00406958       0.35717113       0.09884608 </v>
    <v>       0.64985590       0.64835065       0.09886957 </v>
    <v>       0.32713088       0.32562032       0.10022923 </v>
    <v>       0.68129839       0.00280921       0.10024768 </v>
    <v>       0.00426713       0.67993704       0.10025170 </v>
    <v>       0.16692537       0.33300355       0.33745836 </v>
    <v>       0.33299699       0.16692426       0.33746251 </v>
    <v>       0.16606703       0.83308101       0.33746937 </v>
    <v>       0.33331602       0.66663563       0.33687375 </v>
    <v>       0.66663380       0.33333087       0.33687372 </v>
    <v>       0.83308442       0.16608042       0.33746889 </v>
    <v>       0.66697428       0.83390552       0.33745993 </v>
    <v>       0.83391337       0.66697753       0.33745622 </v>
   </varray>
  </structure>
  <varray name="forces" >
   <v>       0.01061366      -0.01183525      -0.18316655 </v>
   <v>      -0.08361314      -0.03684858      -0.04055281 </v>
   <v>       0.08577511      -0.03682150      -0.04025625 </v>
   <v>      -0.00430763       0.09307112      -0.04293772 </v>
   <v>      -0.00763871       0.07428769       0.09036244 </v>
   <v>      -0.05456325      -0.03930252       0.08933748 </v>
   <v>       0.05408755      -0.04151854       0.08868641 </v>
   <v>      -0.27285639       0.00290484      -0.01804428 </v>
   <v>       0.27243918       0.00446815      -0.01860545 </v>
   <v>       0.14956600       0.22903024      -0.01973004 </v>
   <v>      -0.00859685       0.00685104       0.07552236 </v>
   <v>       0.01238975       0.00358904       0.07554242 </v>
   <v>      -0.14843060       0.22458950      -0.01974968 </v>
   <v>       0.13110859      -0.23486261      -0.01850109 </v>
   <v>      -0.13597326      -0.23760262      -0.01790724 </v>
  </varray>
  <varray name="stress" >
   <v>      34.33086529      -0.00900588       0.00588529 </v>
   <v>      -0.00900591      34.37833843      -0.03632559 </v>
   <v>       0.00588535      -0.03632562      -1.65691273 </v>
  </varray>
  <energy>
   <i name="e_fr_energy">   -127.05540730 </i>
   <i name="e_wo_entrp">   -127.05384016 </i>
   <i name="e_0_energy">   -127.05462373 </i>
  </energy>
  <time name="totalsc">   60.53   60.80</time>
 </calculation>
 <calculation>
  <scstep>
   <time name="dav">    5.49    5.50</time>
   <time name="total">    5.78    5.81</time>
   <energy>
    <i name="alphaZ">     59.18312054 </i>
    <i name="ewald">   4783.14695463 </i>
    <i name="hartreedc">  -6542.06010930 </i>
    <i name="XCdc">    181.49693117 </i>
    <i name="pawpsdc">   5974.75458261 </i>
    <i name="pawaedc">  -5979.25843706 </i>
    <i name="eentropy">     -0.00156717 </i>
    <i name="bandstr">   -505.99233989 </i>
    <i name="atom">   1903.26342058 </i>
    <i name="e_fr_energy">   -125.46744389 </i>
    <i name="e_wo_entrp">   -125.46587672 </i>
    <i name="e_0_energy">   -125.46666030 </i>
   </energy>
  </scstep>
  <scstep>
   <time name="dav">   10.80   10.84</time>
   <time name="total">   11.10   11.15</time>
   <energy>
    <i name="e_fr_energy">   -125.46744373 </i>
    <i name="e_wo_entrp">   -125.46587656 </i>
    <i name="e_0_energy">   -125.46666014 </i>
   </energy>
  </scstep>
  <scstep>
   <time name="dav">    7.65    7.67</time>
   <time name="total">    7.94    7.98</time>
   <energy>
    <i name="e_fr_energy">   -125.46743549 </i>
    <i name="e_wo_entrp">   -125.46586832 </i>
    <i name="e_0_energy">   -125.46665191 </i>
   </energy>
  </scstep>
  <scstep>
   <time name="dav">   10.76   10.81</time>
   <time name="total">   10.80   10.84</time>
   <energy>
    <i name="alphaZ">     59.18312054 </i>
    <i name="ewald">   4783.14695463 </i>
    <i name="hartreedc">  -6542.05908855 </i>
    <i name="XCdc">    181.49648964 </i>
    <i name="pawpsdc">   5975.91665485 </i>
    <i name="pawaedc">  -5980.42098141 </i>
    <i name="eentropy">     -0.00156717 </i>
    <i name="bandstr">   -505.99243922 </i>
    <i name="atom">   1903.26342058 </i>
    <i name="e_fr_energy">   -125.46743612 </i>
    <i name="e_wo_entrp">   -125.46586895 </i>
    <i name="e_0_energy">   -125.46665253 </i>
   </energy>
  </scstep>
  <structure>
   <crystal>
    <varray name="basis" >
     <v>       4.16558219       2.40500000       0.00000000 </v>
     <v>      -4.16558219       2.40500000       0.00000000 </v>
     <v>       0.00000000       0.00000000      15.00000000 </v>
    </varray>
    <i name="volume">    300.54675517 </i>
    <varray name="rec_basis" >
     <v>       0.12003124       0.20790021       0.00000000 </v>
     <v>      -0.12003124       0.20790021       0.00000000 </v>
     <v>       0.00000000       0.00000000       0.06666667 </v>
    </varray>
   </crystal>
   <varray name="positions" >
    <v>       0.00424555       0.00298395       0.11501851 </v>
    <v>       0.35862033       0.00262340       0.09893876 </v>
    <v>       0.00406694       0.35728132       0.09893881 </v>
    <v>       0.64975790       0.64824532       0.09896464 </v>
    <v>       0.32721696       0.32570259       0.10024447 </v>
    <v>       0.68121622       0.00280471       0.10026632 </v>
    <v>       0.00426626       0.67985894       0.10027124 </v>
    <v>       0.16683217       0.33309402       0.33747347 </v>
    <v>       0.33308789       0.16683222       0.33747779 </v>
    <v>       0.16625042       0.83316628       0.33748488 </v>
    <v>       0.33331594       0.66664180       0.33686827 </v>
    <v>       0.66663903       0.33332805       0.33686824 </v>
    <v>       0.83316720       0.16626116       0.33748436 </v>
    <v>       0.66688305       0.83372364       0.33747504 </v>
    <v>       0.83372813       0.66688660       0.33747120 </v>
   </varray>
  </structure>
  <varray name="forces" >
   <v>       0.01093991      -0.01171058      -0.17588881 </v>
   <v>      -0.08997544      -0.03985972      -0.04465135 </v>
   <v>       0.09235726      -0.04030350      -0.04430482 </v>
   <v>      -0.00475271       0.09941650      -0.04732317 </v>
   <v>      -0.00788082       0.06106155       0.09281092 </v>
   <v>      -0.04379760      -0.03252856       0.09144893 </v>
   <v>       0.04346044      -0.03505993       0.09071097 </v>
   <v>      -0.19060575       0.00587720      -0.01941668 </v>
   <v>       0.19018528       0.00715754      -0.02001424 </v>
   <v>       0.10748108       0.15704220      -0.02117886 </v>
   <v>      -0.00575864       0.00516685       0.07906047 </v>
   <v>       0.00864611       0.00273194       0.07908155 </v>
   <v>      -0.10666136       0.15391430      -0.02119408 </v>
   <v>       0.08740964      -0.16547064      -0.01988326 </v>
   <v>      -0.09104741      -0.16743517      -0.01925757 </v>
  </varray>
  <varray name="stress" >
   <v>      34.45475403      -0.01027938       0.00598466 </v>
   <v>      -0.01027942      34.48118333      -0.03527589 </v>
   <v>       0.00598467      -0.03527590      -1.66154570 </v>
  </varray>
  <energy>
   <i name="e_fr_energy">   -127.05735507 </i>
   <i name="e_wo_entrp">   -127.05578789 </i>
   <i name="e_0_energy">   -127.05657148 </i>
  </energy>
  <time name="totalsc">   40.28   40.46</time>
 </calculation>
 <calculation>
  <scstep>
   <time name="dav">    5.54    5.57</time>
   <time name="total">    5.83    5.87</time>
   <energy>
    <i name="alphaZ">     59.18312054 </i>
    <i name="ewald">   4782.44505415 </i>
    <i name="hartreedc">  -6541.16309167 </i>
    <i name="XCdc">    181.50929658 </i>
    <i name="pawpsdc">   5976.06962989 </i>
    <i name="pawaedc">  -5980.57398140 </i>
    <i name="eentropy">     -0.00156718 </i>
    <i name="bandstr">   -506.20278028 </i>
    <i name="atom">   1903.26342058 </i>
    <i name="e_fr_energy">   -125.47089879 </i>
    <i name="e_wo_entrp">   -125.46933162 </i>
    <i name="e_0_energy">   -125.47011520 </i>
   </energy>
  </scstep>
  <scstep>
   <time name="dav">   10.75   10.78</time>
   <time name="total">   11.04   11.09</time>
   <energy>
    <i name="e_fr_energy">   -125.47089555 </i>
    <i name="e_wo_entrp">   -125.46932837 </i>
    <i name="e_0_energy">   -125.47011196 </i>
   </energy>
  </scstep>
  <scstep>
   <time name="dav">    7.30    7.34</time>
   <time name="total">    7.60    7.64</time>
   <energy>
    <i name="e_fr_energy">   -125.47082304 </i>
    <i name="e_wo_entrp">   -125.46925586 </i>
    <i name="e_0_energy">   -125.47003945 </i>
   </energy>
  </scstep>
  <scstep>
   <time name="dav">   10.75   10.79</time>
   <time name="total">   11.04   11.09</time>
   <energy>
    <i name="e_fr_energy">   -125.47082751 </i>
    <i name="e_wo_entrp">   -125.46926033 </i>
    <i name="e_0_energy">   -125.47004392 </i>
   </energy>
  </scstep>
  <scstep>
   <time name="dav">    7.21    7.23</time>
   <time name="total">    7.24    7.27</time>
   <energy>
    <i name="alphaZ">     59.18312054 </i>
    <i name="ewald">   4782.44505415 </i>
    <i name="hartreedc">  -6541.19674908 </i>
    <i name="XCdc">    181.50839824 </i>
    <i name="pawpsdc">   5980.06479156 </i>
    <i name="pawaedc">  -5984.57063954 </i>
    <i name="eentropy">     -0.00156718 </i>
    <i name="bandstr">   -506.16665748 </i>
    <i name="atom">   1903.26342058 </i>
    <i name="e_fr_energy">   -125.47082822 </i>
    <i name="e_wo_entrp">   -125.46926104 </i>
    <i name="e_0_energy">   -125.47004463 </i>
   </energy>
  </scstep>
  <structure>
   <crystal>
    <varray name="basis" >
     <v>       4.16558219       2.40500000       0.00000000 </v>
     <v>      -4.16558219       2.40500000       0.00000000 </v>
     <v>       0.00000000       0.00000000      15.00000000 </v>
    </varray>
    <i name="volume">    300.54675517 </i>
    <varray name="rec_basis" >
     <v>       0.12003124       0.20790021       0.00000000 </v>
     <v>      -0.12003124       0.20790021       0.00000000 </v>
     <v>       0.00000000       0.00000000       0.06666667 </v>
    </varray>
   </crystal>
   <varray name="positions" >
    <v>       0.00425115       0.00300918       0.11377461 </v>
    <v>       0.35892988       0.00259965       0.09921752 </v>
    <v>       0.00405901       0.35761188       0.09921700 </v>
    <v>       0.64946389       0.64792935       0.09924984 </v>
    <v>       0.32747521       0.32594938       0.10029020 </v>
    <v>       0.68096971       0.00279122       0.10032226 </v>
    <v>       0.00426367       0.67962463       0.10032985 </v>
    <v>       0.16655256       0.33336543       0.33751879 </v>
    <v>       0.33336059       0.16655610       0.33752362 </v>
    <v>       0.16680059       0.83342210       0.33753141 </v>
    <v>       0.33331570       0.66666031       0.33685183 </v>
    <v>       0.66665474       0.33331956       0.33685180 </v>
    <v>       0.83341555       0.16680339       0.33753077 </v>
    <v>       0.66660936       0.83317800       0.33752035 </v>
    <v>       0.83317240       0.66661381       0.33751613 </v>
   </varray>
  </structure>
  <varray name="forces" >
   <v>       0.01191020      -0.01135247      -0.15715367 </v>
   <v>      -0.11138604      -0.05017811      -0.05646624 </v>
   <v>       0.11438404      -0.05208105      -0.05598234 </v>
   <v>      -0.00607997       0.12102013      -0.05996383 </v>
   <v>      -0.00852875       0.01933116       0.10069823 </v>
   <v>      -0.00962931      -0.01114364       0.09840078 </v>
   <v>       0.00966246      -0.01462366       0.09743036 </v>
   <v>       0.05199400       0.01544216      -0.02361924 </v>
   <v>      -0.05243492       0.01587930      -0.02432298 </v>
   <v>      -0.01622371      -0.05566243      -0.02559834 </v>
   <v>       0.00279745       0.00010237       0.08981420 </v>
   <v>      -0.00262023       0.00014056       0.08983408 </v>
   <v>       0.01617019      -0.05495253      -0.02559682 </v>
   <v>      -0.04228927       0.03891708      -0.02409558 </v>
   <v>       0.04227387       0.03916112      -0.02337861 </v>
  </varray>
  <varray name="stress" >
   <v>      34.84169247      -0.01362873       0.00621639 </v>
   <v>      -0.01362871      34.80310036      -0.03209078 </v>
   <v>       0.00621636      -0.03209077      -1.70126171 </v>
  </varray>
  <energy>
   <i name="e_fr_energy">   -127.06044077 </i>
   <i name="e_wo_entrp">   -127.05887359 </i>
   <i name="e_0_energy">   -127.05965718 </i>
  </energy>
  <time name="totalsc">   47.38   47.62</time>
 </calculation>
 <calculation>
  <scstep>
   <time name="dav">    5.49    5.52</time>
   <time name="total">    5.79    5.82</time>
   <energy>
    <i name="alphaZ">     59.18312054 </i>
    <i name="ewald">   4782.25414033 </i>
    <i name="hartreedc">  -6540.96263962 </i>
    <i name="XCdc">    181.51131691 </i>
    <i name="pawpsdc">   5980.31164932 </i>
    <i name="pawaedc">  -5984.81750573 </i>
    <i name="eentropy">     -0.00156716 </i>
    <i name="bandstr">   -506.21298301 </i>
    <i name="atom">   1903.26342058 </i>
    <i name="e_fr_energy">   -125.47104783 </i>
    <i name="e_wo_entrp">   -125.46948066 </i>
    <i name="e_0_energy">   -125.47026425 </i>
   </energy>
  </scstep>
  <scstep>
   <time name="dav">   10.15   10.18</time>
   <time name="total">   10.45   10.49</time>
   <energy>
    <i name="e_fr_energy">   -125.47104856 </i>
    <i name="e_wo_entrp">   -125.46948140 </i>
    <i name="e_0_energy">   -125.47026498 </i>
   </energy>
  </scstep>
  <scstep>
   <time name="dav">    7.97    8.00</time>
   <time name="total">    8.26    8.30</time>
   <energy>
    <i name="e_fr_energy">   -125.47104427 </i>
    <i name="e_wo_entrp">   -125.46947711 </i>
    <i name="e_0_energy">   -125.47026069 </i>
   </energy>
  </scstep>
  <scstep>
   <time name="dav">    9.14    9.16</time>
   <time name="total">    9.17    9.20</time>
   <energy>
    <i name="alphaZ">     59.18312054 </i>
    <i name="ewald">   4782.25414033 </i>
    <i name="hartreedc">  -6540.97434962 </i>
    <i name="XCdc">    181.51119491 </i>
    <i name="pawpsdc">   5981.14894936 </i>
    <i name="pawaedc">  -5985.65515104 </i>
    <i name="eentropy">     -0.00156717 </i>
    <i name="bandstr">   -506.20080254 </i>
    <i name="atom">   1903.26342058 </i>
    <i name="e_fr_energy">   -125.47104465 </i>
    <i name="e_wo_entrp">   -125.46947748 </i>
    <i name="e_0_energy">   -125.47026106 </i>
   </energy>
  </scstep>
  <structure>
   <crystal>
    <varray name="basis" >
     <v>       4.16558219       2.40500000       0.00000000 </v>
     <v>      -4.16558219       2.40500000       0.00000000 </v>
     <v>       0.00000000       0.00000000      15.00000000 </v>
    </varray>
    <i name="volume">    300.54675517 </i>
    <varray name="rec_basis" >
     <v>       0.12003124       0.20790021       0.00000000 </v>
     <v>      -0.12003124       0.20790021       0.00000000 </v>
     <v>       0.00000000       0.00000000       0.06666667 </v>
    </varray>
   </crystal>
   <varray name="positions" >
    <v>       0.00425257       0.00301558       0.11345919 </v>
    <v>       0.35900838       0.00259363       0.09928821 </v>
    <v>       0.00405700       0.35769571       0.09928755 </v>
    <v>       0.64938934       0.64784923       0.09932215 </v>
    <v>       0.32754069       0.32601196       0.10030180 </v>
    <v>       0.68090720       0.00278780       0.10033644 </v>
    <v>       0.00426301       0.67956522       0.10034472 </v>
    <v>       0.16648166       0.33343426       0.33753028 </v>
    <v>       0.33342974       0.16648608       0.33753525 </v>
    <v>       0.16694009       0.83348697       0.33754321 </v>
    <v>       0.33331564       0.66666501       0.33684766 </v>
    <v>       0.66665872       0.33331741       0.33684764 </v>
    <v>       0.83347852       0.16694088       0.33754254 </v>
    <v>       0.66653996       0.83303964       0.33753185 </v>
    <v>       0.83303148       0.66654464       0.33752752 </v>
   </varray>
  </structure>
  <varray name="forces" >
   <v>       0.01215065      -0.01125143      -0.15292040 </v>
   <v>      -0.11734480      -0.05311090      -0.05919469 </v>
   <v>       0.12049649      -0.05537622      -0.05867776 </v>
   <v>      -0.00641003       0.12711677      -0.06289678 </v>
   <v>      -0.00869204       0.00820897       0.10260540 </v>
   <v>      -0.00049942      -0.00545127       0.10006926 </v>
   <v>       0.00063329      -0.00917523       0.09903179 </v>
   <v>       0.11232394       0.01763330      -0.02465967 </v>
   <v>      -0.11277265       0.01785479      -0.02538935 </v>
   <v>      -0.04719732      -0.10842754      -0.02669155 </v>
   <v>       0.00497429      -0.00119051       0.09246460 </v>
   <v>      -0.00548800      -0.00051757       0.09248439 </v>
   <v>       0.04693494      -0.10676628      -0.02668584 </v>
   <v>      -0.07439327       0.08983681      -0.02513929 </v>
   <v>       0.07528393       0.09061629      -0.02440011 </v>
  </varray>
  <varray name="stress" >
   <v>      34.94139139      -0.01443103       0.00621696 </v>
   <v>      -0.01443103      34.88703478      -0.03128205 </v>
   <v>       0.00621698      -0.03128203      -1.70839277 </v>
  </varray>
  <energy>
   <i name="e_fr_energy">   -127.06057656 </i>
   <i name="e_wo_entrp">   -127.05900940 </i>
   <i name="e_0_energy">   -127.05979298 </i>
  </energy>
  <time name="totalsc">   38.32   38.47</time>
 </calculation>
 <calculation>
  <scstep>
   <time name="dav">    5.48    5.50</time>
   <time name="total">    5.78    5.81</time>
   <energy>
    <i name="alphaZ">     59.18312054 </i>
    <i name="ewald">   4782.19074054 </i>
    <i name="hartreedc">  -6540.82226684 </i>
    <i name="XCdc">    181.51673097 </i>
    <i name="pawpsdc">   5981.25568181 </i>
    <i name="pawaedc">  -5985.76189666 </i>
    <i name="eentropy">     -0.00156718 </i>
    <i name="bandstr">   -506.29646767 </i>
    <i name="atom">   1903.26342058 </i>
    <i name="e_fr_energy">   -125.47250391 </i>
    <i name="e_wo_entrp">   -125.47093673 </i>
    <i name="e_0_energy">   -125.47172032 </i>
   </energy>
  </scstep>
  <scstep>
   <time name="dav">    9.12    9.16</time>
   <time name="total">    9.41    9.46</time>
   <energy>
    <i name="e_fr_energy">   -125.47251414 </i>
    <i name="e_wo_entrp">   -125.47094696 </i>
    <i name="e_0_energy">   -125.47173055 </i>
   </energy>
  </scstep>
  <scstep>
   <time name="dav">    7.69    7.72</time>
   <time name="total">    7.99    8.02</time>
   <energy>
    <i name="e_fr_energy">   -125.47251388 </i>
    <i name="e_wo_entrp">   -125.47094670 </i>
    <i name="e_0_energy">   -125.47173029 </i>
   </energy>
  </scstep>
  <scstep>
   <time name="dav">   10.40   10.42</time>
   <time name="total">   10.43   10.46</time>
   <energy>
    <i name="alphaZ">     59.18312054 </i>
    <i name="ewald">   4782.19074054 </i>
    <i name="hartreedc">  -6540.87357784 </i>
    <i name="XCdc">    181.51615897 </i>
    <i name="pawpsdc">   5983.21776124 </i>
    <i name="pawaedc">  -5987.72460994 </i>
    <i name="eentropy">     -0.00156718 </i>
    <i name="bandstr">   -506.24396097 </i>
    <i name="atom">   1903.26342058 </i>
    <i name="e_fr_energy">   -125.47251406 </i>
    <i name="e_wo_entrp">   -125.47094688 </i>
    <i name="e_0_energy">   -125.47173047 </i>
   </energy>
  </scstep>
  <structure>
   <crystal>
    <varray name="basis" >
     <v>       4.16558219       2.40500000       0.00000000 </v>
     <v>      -4.16558219       2.40500000       0.00000000 </v>
     <v>       0.00000000       0.00000000      15.00000000 </v>
    </varray>
    <i name="volume">    300.54675517 </i>
    <varray name="rec_basis" >
     <v>       0.12003124       0.20790021       0.00000000 </v>
     <v>      -0.12003124       0.20790021       0.00000000 </v>
     <v>       0.00000000       0.00000000       0.06666667 </v>
    </varray>
   </crystal>
   <varray name="positions" >
    <v>       0.00424858       0.00299869       0.11302087 </v>
    <v>       0.35893940       0.00260610       0.09934633 </v>
    <v>       0.00407362       0.35762756       0.09934572 </v>
    <v>       0.64946639       0.64792960       0.09938062 </v>
    <v>       0.32762234       0.32610361       0.10035953 </v>
    <v>       0.68082566       0.00277685       0.10039614 </v>
    <v>       0.00425045       0.67948225       0.10040477 </v>
    <v>       0.16650826       0.33345239       0.33753328 </v>
    <v>       0.33344821       0.16651437       0.33753809 </v>
    <v>       0.16692338       0.83345499       0.33754570 </v>
    <v>       0.33331782       0.66666512       0.33688241 </v>
    <v>       0.66665850       0.33331841       0.33688240 </v>
    <v>       0.83344633       0.16692421       0.33754500 </v>
    <v>       0.66652069       0.83305385       0.33753464 </v>
    <v>       0.83304439       0.66652600       0.33753051 </v>
   </varray>
  </structure>
  <varray name="forces" >
   <v>       0.01086386      -0.00932540      -0.13809651 </v>
   <v>      -0.09678905      -0.04194142      -0.05325923 </v>
   <v>       0.09998339      -0.04500341      -0.05273742 </v>
   <v>      -0.00644850       0.10287999      -0.05698239 </v>
   <v>      -0.00782707       0.00476598       0.09220633 </v>
   <v>      -0.00017117      -0.00321605       0.08942933 </v>
   <v>       0.00072901      -0.00719950       0.08837181 </v>
   <v>       0.10768485       0.00550349      -0.02310839 </v>
   <v>      -0.10789147       0.00522994      -0.02379890 </v>
   <v>      -0.05369828      -0.09572306      -0.02502176 </v>
   <v>       0.00375147      -0.00209185       0.08717524 </v>
   <v>      -0.00483839      -0.00101586       0.08719143 </v>
   <v>       0.05328752      -0.09406760      -0.02501004 </v>
   <v>      -0.05892363       0.09017173      -0.02352654 </v>
   <v>       0.06028745       0.09103304      -0.02283295 </v>
  </varray>
  <varray name="stress" >
   <v>      35.06885789      -0.01300795       0.00460332 </v>
   <v>      -0.01300796      35.02715559      -0.02832444 </v>
   <v>       0.00460334      -0.02832443      -1.69811575 </v>
  </varray>
  <energy>
   <i name="e_fr_energy">   -127.06190626 </i>
   <i name="e_wo_entrp">   -127.06033908 </i>
   <i name="e_0_energy">   -127.06112267 </i>
  </energy>
  <time name="totalsc">   38.34   38.51</time>
 </calculation>
 <calculation>
  <scstep>
   <time name="dav">    5.51    5.52</time>
   <time name="total">    5.80    5.83</time>
   <energy>
    <i name="alphaZ">     59.18312054 </i>
    <i name="ewald">   4781.92563168 </i>
    <i name="hartreedc">  -6540.36295101 </i>
    <i name="XCdc">    181.53164373 </i>
    <i name="pawpsdc">   5983.24518203 </i>
    <i name="pawaedc">  -5987.75203224 </i>
    <i name="eentropy">     -0.00156719 </i>
    <i name="bandstr">   -506.50839480 </i>
    <i name="atom">   1903.26342058 </i>
    <i name="e_fr_energy">   -125.47594667 </i>
    <i name="e_wo_entrp">   -125.47437948 </i>
    <i name="e_0_energy">   -125.47516308 </i>
   </energy>
  </scstep>
  <scstep>
   <time name="dav">   10.69   10.72</time>
   <time name="total">   10.98   11.02</time>
   <energy>
    <i name="e_fr_energy">   -125.47604141 </i>
    <i name="e_wo_entrp">   -125.47447422 </i>
    <i name="e_0_energy">   -125.47525781 </i>
   </energy>
  </scstep>
  <scstep>
   <time name="dav">    8.12    8.15</time>
   <time name="total">    8.42    8.47</time>
   <energy>
    <i name="e_fr_energy">   -125.47603248 </i>
    <i name="e_wo_entrp">   -125.47446529 </i>
    <i name="e_0_energy">   -125.47524888 </i>
   </energy>
  </scstep>
  <scstep>
   <time name="dav">   10.08   10.11</time>
   <time name="total">   10.37   10.41</time>
   <energy>
    <i name="e_fr_energy">   -125.47603371 </i>
    <i name="e_wo_entrp">   -125.47446652 </i>
    <i name="e_0_energy">   -125.47525011 </i>
   </energy>
  </scstep>
  <scstep>
   <time name="dav">    9.52    9.55</time>
   <time name="total">    9.55    9.59</time>
   <energy>
    <i name="alphaZ">     59.18312054 </i>
    <i name="ewald">   4781.92563168 </i>
    <i name="hartreedc">  -6540.53734670 </i>
    <i name="XCdc">    181.52991791 </i>
    <i name="pawpsdc">   5988.57803685 </i>
    <i name="pawaedc">  -5993.08664128 </i>
    <i name="eentropy">     -0.00156719 </i>
    <i name="bandstr">   -506.33060521 </i>
    <i name="atom">   1903.26342058 </i>
    <i name="e_fr_energy">   -125.47603282 </i>
    <i name="e_wo_entrp">   -125.47446563 </i>
    <i name="e_0_energy">   -125.47524922 </i>
   </energy>
  </scstep>
  <structure>
   <crystal>
    <varray name="basis" >
     <v>       4.16558219       2.40500000       0.00000000 </v>
     <v>      -4.16558219       2.40500000       0.00000000 </v>
     <v>       0.00000000       0.00000000      15.00000000 </v>
    </varray>
    <i name="volume">    300.54675517 </i>
    <varray name="rec_basis" >
     <v>       0.12003124       0.20790021       0.00000000 </v>
     <v>      -0.12003124       0.20790021       0.00000000 </v>
     <v>       0.00000000       0.00000000       0.06666667 </v>
    </varray>
   </crystal>
   <varray name="positions" >
    <v>       0.00423660       0.00294804       0.11170590 </v>
    <v>       0.35873246       0.00264352       0.09952070 </v>
    <v>       0.00412347       0.35742311       0.09952025 </v>
    <v>       0.64969756       0.64817074       0.09955601 </v>
    <v>       0.32786728       0.32637855       0.10053272 </v>
    <v>       0.68058103       0.00274399       0.10057524 </v>
    <v>       0.00421275       0.67923333       0.10058494 </v>
    <v>       0.16658805       0.33350681       0.33754227 </v>
    <v>       0.33350363       0.16659923       0.33754660 </v>
    <v>       0.16687324       0.83335905       0.33755317 </v>
    <v>       0.33332436       0.66666545       0.33698666 </v>
    <v>       0.66665782       0.33332143       0.33698668 </v>
    <v>       0.83334974       0.16687421       0.33755236 </v>
    <v>       0.66646290       0.83309646       0.33754301 </v>
    <v>       0.83308312       0.66647008       0.33753949 </v>
   </varray>
  </structure>
  <varray name="forces" >
   <v>       0.00697814      -0.00353787      -0.09874219 </v>
   <v>      -0.03771005      -0.00995632      -0.03469043 </v>
   <v>       0.04120921      -0.01538751      -0.03415888 </v>
   <v>      -0.00657566       0.03330060      -0.03846629 </v>
   <v>      -0.00540203      -0.00902643       0.06193578 </v>
   <v>       0.00401114       0.00511967       0.05848160 </v>
   <v>      -0.00219006       0.00040058       0.05738425 </v>
   <v>       0.09525426      -0.02975871      -0.01845876 </v>
   <v>      -0.09473150      -0.03149693      -0.01903076 </v>
   <v>      -0.07301518      -0.05951886      -0.02004400 </v>
   <v>       0.00011414      -0.00478966       0.07137613 </v>
   <v>      -0.00290471      -0.00250914       0.07137941 </v>
   <v>       0.07217938      -0.05787761      -0.02002907 </v>
   <v>      -0.01430713       0.09196793      -0.01875270 </v>
   <v>       0.01709004       0.09307026      -0.01818410 </v>
  </varray>
  <varray name="stress" >
   <v>      35.42297999      -0.00893914       0.00028120 </v>
   <v>      -0.00893916      35.41740748      -0.02055206 </v>
   <v>       0.00028117      -0.02055208      -1.68287361 </v>
  </varray>
  <energy>
   <i name="e_fr_energy">   -127.06500764 </i>
   <i name="e_wo_entrp">   -127.06344045 </i>
   <i name="e_0_energy">   -127.06422405 </i>
  </energy>
  <time name="totalsc">   49.76   49.98</time>
 </calculation>
 <calculation>
  <scstep>
   <time name="dav">    5.52    5.54</time>
   <time name="total">    5.82    5.84</time>
   <energy>
    <i name="alphaZ">     59.18312054 </i>
    <i name="ewald">   4781.05413583 </i>
    <i name="hartreedc">  -6539.27296382 </i>
    <i name="XCdc">    181.55512886 </i>
    <i name="pawpsdc">   5988.60324927 </i>
    <i name="pawaedc">  -5993.11184676 </i>
    <i name="eentropy">     -0.00156701 </i>
    <i name="bandstr">   -506.75188390 </i>
    <i name="atom">   1903.26342058 </i>
    <i name="e_fr_energy">   -125.47920640 </i>
    <i name="e_wo_entrp">   -125.47763939 </i>
    <i name="e_0_energy">   -125.47842290 </i>
   </energy>
  </scstep>
  <scstep>
   <time name="dav">   11.66   11.69</time>
   <time name="total">   11.96   12.00</time>
   <energy>
    <i name="e_fr_energy">   -125.47959319 </i>
    <i name="e_wo_entrp">   -125.47802617 </i>
    <i name="e_0_energy">   -125.47880968 </i>
   </energy>
  </scstep>
  <scstep>
   <time name="dav">    8.21    8.24</time>
   <time name="total">    8.50    8.55</time>
   <energy>
    <i name="e_fr_energy">   -125.47955078 </i>
    <i name="e_wo_entrp">   -125.47798375 </i>
    <i name="e_0_energy">   -125.47876727 </i>
   </energy>
  </scstep>
  <scstep>
   <time name="dav">    9.72    9.75</time>
   <time name="total">   10.01   10.05</time>
   <energy>
    <i name="e_fr_energy">   -125.47955513 </i>
    <i name="e_wo_entrp">   -125.47798810 </i>
    <i name="e_0_energy">   -125.47877162 </i>
   </energy>
  </scstep>
  <scstep>
   <time name="dav">    9.58    9.61</time>
   <time name="total">    9.87    9.91</time>
   <energy>
    <i name="e_fr_energy">   -125.47955218 </i>
    <i name="e_wo_entrp">   -125.47798515 </i>
    <i name="e_0_energy">   -125.47876866 </i>
   </energy>
  </scstep>
  <scstep>
   <time name="dav">    9.94    9.97</time>
   <time name="total">    9.97   10.01</time>
   <energy>
    <i name="alphaZ">     59.18312054 </i>
    <i name="ewald">   4781.05413583 </i>
    <i name="hartreedc">  -6539.64567026 </i>
    <i name="XCdc">    181.55129367 </i>
    <i name="pawpsdc">   5997.31208565 </i>
    <i name="pawaedc">  -6001.82351962 </i>
    <i name="eentropy">     -0.00156704 </i>
    <i name="bandstr">   -506.37285115 </i>
    <i name="atom">   1903.26342058 </i>
    <i name="e_fr_energy">   -125.47955180 </i>
    <i name="e_wo_entrp">   -125.47798476 </i>
    <i name="e_0_energy">   -125.47876828 </i>
   </energy>
  </scstep>
  <structure>
   <crystal>
    <varray name="basis" >
     <v>       4.16558219       2.40500000       0.00000000 </v>
     <v>      -4.16558219       2.40500000       0.00000000 </v>
     <v>       0.00000000       0.00000000      15.00000000 </v>
    </varray>
    <i name="volume">    300.54675517 </i>
    <varray name="rec_basis" >
     <v>       0.12003124       0.20790021       0.00000000 </v>
     <v>      -0.12003124       0.20790021       0.00000000 </v>
     <v>       0.00000000       0.00000000       0.06666667 </v>
    </varray>
   </crystal>
   <varray name="positions" >
    <v>       0.00421265       0.00284674       0.10907595 </v>
    <v>       0.35831859       0.00271835       0.09986944 </v>
    <v>       0.00422317       0.35701420       0.09986931 </v>
    <v>       0.65015990       0.64865302       0.09990679 </v>
    <v>       0.32835716       0.32692843       0.10087910 </v>
    <v>       0.68009177       0.00267828       0.10093343 </v>
    <v>       0.00413735       0.67873550       0.10094528 </v>
    <v>       0.16674765       0.33361564       0.33756025 </v>
    <v>       0.33361448       0.16676894       0.33756363 </v>
    <v>       0.16677296       0.83316718       0.33756811 </v>
    <v>       0.33333742       0.66666612       0.33719516 </v>
    <v>       0.66665646       0.33332746       0.33719524 </v>
    <v>       0.83315656       0.16677421       0.33756709 </v>
    <v>       0.66634731       0.83318168       0.33755976 </v>
    <v>       0.83316059       0.66635823       0.33755744 </v>
   </varray>
  </structure>
  <varray name="forces" >
   <v>      -0.00116406       0.00859854      -0.03803183 </v>
   <v>       0.06970815       0.04788780       0.00613048 </v>
   <v>      -0.06530141       0.03746593       0.00666483 </v>
   <v>      -0.00684508      -0.09368811       0.00218947 </v>
   <v>      -0.00050852      -0.04968443       0.00342271 </v>
   <v>       0.02322820       0.02829836      -0.00128497 </v>
   <v>      -0.01881512       0.02198247      -0.00247608 </v>
   <v>       0.07068216      -0.10024409      -0.00908954 </v>
   <v>      -0.06871469      -0.10491125      -0.00943640 </v>
   <v>      -0.11169708       0.01270390      -0.00998951 </v>
   <v>      -0.00716626      -0.01023095       0.03988758 </v>
   <v>       0.00095114      -0.00551395       0.03986734 </v>
   <v>       0.11000324       0.01435200      -0.00994727 </v>
   <v>       0.07473437       0.09569244      -0.00910919 </v>
   <v>      -0.06909506       0.09729136      -0.00879762 </v>
  </varray>
  <varray name="stress" >
   <v>      36.00394518      -0.00121275      -0.00603418 </v>
   <v>      -0.00121273      36.07257662      -0.00921571 </v>
   <v>      -0.00603417      -0.00921569      -1.70405036 </v>
  </varray>
  <energy>
   <i name="e_fr_energy">   -127.06769944 </i>
   <i name="e_wo_entrp">   -127.06613241 </i>
   <i name="e_0_energy">   -127.06691592 </i>
  </energy>
  <time name="totalsc">   60.77   61.02</time>
 </calculation>
 <calculation>
  <scstep>
   <time name="dav">    5.49    5.50</time>
   <time name="total">    5.78    5.80</time>
   <energy>
    <i name="alphaZ">     59.18312054 </i>
    <i name="ewald">   4780.59008953 </i>
    <i name="hartreedc">  -6539.13715365 </i>
    <i name="XCdc">    181.55539069 </i>
    <i name="pawpsdc">   5997.28436872 </i>
    <i name="pawaedc">  -6001.79578054 </i>
    <i name="eentropy">     -0.00156696 </i>
    <i name="bandstr">   -506.42264974 </i>
    <i name="atom">   1903.26342058 </i>
    <i name="e_fr_energy">   -125.48076083 </i>
    <i name="e_wo_entrp">   -125.47919387 </i>
    <i name="e_0_energy">   -125.47997735 </i>
   </energy>
  </scstep>
  <scstep>
   <time name="dav">   11.53   11.58</time>
   <time name="total">   11.83   11.88</time>
   <energy>
    <i name="e_fr_energy">   -125.48070013 </i>
    <i name="e_wo_entrp">   -125.47913313 </i>
    <i name="e_0_energy">   -125.47991663 </i>
   </energy>
  </scstep>
  <scstep>
   <time name="dav">    6.75    6.77</time>
   <time name="total">    7.04    7.07</time>
   <energy>
    <i name="e_fr_energy">   -125.48067356 </i>
    <i name="e_wo_entrp">   -125.47910654 </i>
    <i name="e_0_energy">   -125.47989005 </i>
   </energy>
  </scstep>
  <scstep>
   <time name="dav">   11.03   11.06</time>
   <time name="total">   11.33   11.37</time>
   <energy>
    <i name="e_fr_energy">   -125.48067395 </i>
    <i name="e_wo_entrp">   -125.47910692 </i>
    <i name="e_0_energy">   -125.47989044 </i>
   </energy>
  </scstep>
  <scstep>
