Lattice                                 
           1
     4.165582    2.405000    0.000000
    -4.165582    2.405000    0.000000
     0.000000    0.000000   15.000000
   B    C 
     4    11
Direct configuration=     1
   0.00415361  0.00267210  0.12034134
   0.35695335  0.00285503  0.09748893
   0.00423858  0.35550699  0.09749256
   0.65142295  0.65006557  0.09747688
   0.32808646  0.32671938  0.10030508
   0.68027775  0.00278085  0.10027562
   0.00416530  0.67883808  0.10026559
   0.16666600  0.33333300  0.33720000
   0.33333300  0.16666600  0.33720000
   0.16666600  0.83333300  0.33720000
   0.33333300  0.66666600  0.33720000
   0.66666600  0.33333300  0.33720000
   0.83333300  0.16666600  0.33720000
   0.66666600  0.83333300  0.33720000
   0.83333300  0.66666600  0.33720000
Direct configuration=     2
   0.00418708  0.00275787  0.11922905
   0.35613639  0.00279940  0.09778192
   0.00419121  0.35470404  0.09778490
   0.65221000  0.65081864  0.09777721
   0.32543548  0.32402993  0.10031513
   0.68295006  0.00280302  0.10029554
   0.00420412  0.68153625  0.10028884
   0.16660035  0.33342666  0.33725715
   0.33342719  0.16660319  0.33725816
   0.16681745  0.83338538  0.33725988
   0.33333479  0.66667221  0.33711206
   0.66667133  0.33333127  0.33711204
   0.83338280  0.16681497  0.33725980
   0.66657070  0.83317980  0.33725763
   0.83317504  0.66657138  0.33725670
Direct configuration=     3
   0.00417053  0.00271546  0.11977908
   0.35654037  0.00282691  0.09763704
   0.00421463  0.35510110  0.09764034
   0.65182081  0.65044625  0.09762870
   0.32674639  0.32535986  0.10031016
   0.68162860  0.00279206  0.10028569
   0.00418492  0.68020200  0.10027734
   0.16663282  0.33338034  0.33722889
   0.33338061  0.16663425  0.33722940
   0.16674256  0.83335948  0.33723027
   0.33333391  0.66666914  0.33715554
   0.66666869  0.33333212  0.33715554
   0.83335817  0.16674131  0.33723023
   0.66661783  0.83325556  0.33722913
   0.83325315  0.66661817  0.33722866
Direct configuration=     4
   0.00418920  0.00278184  0.11866979
   0.35704494  0.00277699  0.09794558
   0.00417761  0.35562947  0.09794810
   0.65131927  0.64991135  0.09794543
   0.32684453  0.32542634  0.10028950
   0.68154432  0.00279644  0.10027599
   0.00420591  0.68013437  0.10027080
   0.16670749  0.33328417  0.33728746
   0.33328269  0.16670827  0.33728890
   0.16657013  0.83328840  0.33729130
   0.33332934  0.66666058  0.33708362
   0.66665979  0.33333181  0.33708360
   0.83328830  0.16657262  0.33729115
   0.66670881  0.83342146  0.33728804
   0.83342167  0.66670989  0.33728674
Direct configuration=     5
   0.00424368  0.00297554  0.11543315
   0.35851715  0.00263132  0.09884584
   0.00406958  0.35717113  0.09884608
   0.64985590  0.64835065  0.09886957
   0.32713088  0.32562032  0.10022923
   0.68129839  0.00280921  0.10024768
   0.00426713  0.67993704  0.10025170
   0.16692537  0.33300355  0.33745836
   0.33299699  0.16692426  0.33746251
   0.16606703  0.83308101  0.33746937
   0.33331602  0.66663563  0.33687375
   0.66663380  0.33333087  0.33687372
   0.83308442  0.16608042  0.33746889
   0.66697428  0.83390552  0.33745993
   0.83391337  0.66697753  0.33745622
Direct configuration=     6
   0.00424555  0.00298395  0.11501851
   0.35862033  0.00262340  0.09893876
   0.00406694  0.35728132  0.09893881
   0.64975790  0.64824532  0.09896464
   0.32721696  0.32570259  0.10024447
   0.68121622  0.00280471  0.10026632
   0.00426626  0.67985894  0.10027124
   0.16683217  0.33309402  0.33747347
   0.33308789  0.16683222  0.33747779
   0.16625042  0.83316628  0.33748488
   0.33331594  0.66664180  0.33686827
   0.66663903  0.33332805  0.33686824
   0.83316720  0.16626116  0.33748436
   0.66688305  0.83372364  0.33747504
   0.83372813  0.66688660  0.33747120
Direct configuration=     7
   0.00425115  0.00300918  0.11377461
   0.35892988  0.00259965  0.09921752
   0.00405901  0.35761188  0.09921700
   0.64946389  0.64792935  0.09924984
   0.32747521  0.32594938  0.10029020
   0.68096971  0.00279122  0.10032226
   0.00426367  0.67962463  0.10032985
   0.16655256  0.33336543  0.33751879
   0.33336059  0.16655610  0.33752362
   0.16680059  0.83342210  0.33753141
   0.33331570  0.66666031  0.33685183
   0.66665474  0.33331956  0.33685180
   0.83341555  0.16680339  0.33753077
   0.66660936  0.83317800  0.33752035
   0.83317240  0.66661381  0.33751613
Direct configuration=     8
   0.00425257  0.00301558  0.11345919
   0.35900838  0.00259363  0.09928821
   0.00405700  0.35769571  0.09928755
   0.64938934  0.64784923  0.09932215
   0.32754069  0.32601196  0.10030180
   0.68090720  0.00278780  0.10033644
   0.00426301  0.67956522  0.10034472
   0.16648166  0.33343426  0.33753028
   0.33342974  0.16648608  0.33753525
   0.16694009  0.83348697  0.33754321
   0.33331564  0.66666501  0.33684766
   0.66665872  0.33331741  0.33684764
   0.83347852  0.16694088  0.33754254
   0.66653996  0.83303964  0.33753185
   0.83303148  0.66654464  0.33752752
Direct configuration=     9
   0.00424858  0.00299869  0.11302087
   0.35893940  0.00260610  0.09934633
   0.00407362  0.35762756  0.09934572
   0.64946639  0.64792960  0.09938062
   0.32762234  0.32610361  0.10035953
   0.68082566  0.00277685  0.10039614
   0.00425045  0.67948225  0.10040477
   0.16650826  0.33345239  0.33753328
   0.33344821  0.16651437  0.33753809
   0.16692338  0.83345499  0.33754570
   0.33331782  0.66666512  0.33688241
   0.66665850  0.33331841  0.33688240
   0.83344633  0.16692421  0.33754500
   0.66652069  0.83305385  0.33753464
   0.83304439  0.66652600  0.33753051
Direct configuration=    10
   0.00423660  0.00294804  0.11170590
   0.35873246  0.00264352  0.09952070
   0.00412347  0.35742311  0.09952025
   0.64969756  0.64817074  0.09955601
   0.32786728  0.32637855  0.10053272
   0.68058103  0.00274399  0.10057524
   0.00421275  0.67923333  0.10058494
   0.16658805  0.33350681  0.33754227
   0.33350363  0.16659923  0.33754660
   0.16687324  0.83335905  0.33755317
   0.33332436  0.66666545  0.33698666
   0.66665782  0.33332143  0.33698668
   0.83334974  0.16687421  0.33755236
   0.66646290  0.83309646  0.33754301
   0.83308312  0.66647008  0.33753949
Direct configuration=    11
   0.00421265  0.00284674  0.10907595
   0.35831859  0.00271835  0.09986944
   0.00422317  0.35701420  0.09986931
   0.65015990  0.64865302  0.09990679
   0.32835716  0.32692843  0.10087910
   0.68009177  0.00267828  0.10093343
   0.00413735  0.67873550  0.10094528
   0.16674765  0.33361564  0.33756025
   0.33361448  0.16676894  0.33756363
   0.16677296  0.83316718  0.33756811
   0.33333742  0.66666612  0.33719516
   0.66665646  0.33332746  0.33719524
   0.83315656  0.16677421  0.33756709
   0.66634731  0.83318168  0.33755976
   0.83316059  0.66635823  0.33755744
