       N       E                     dE             d eps       ncg     rms          rms(c)
DAV:   1     0.202907388551E+03    0.20291E+03   -0.25739E+04 14208   0.860E+02
DAV:   2    -0.116887123966E+03   -0.31979E+03   -0.31834E+03 20496   0.163E+02
DAV:   3    -0.129498867119E+03   -0.12612E+02   -0.12597E+02 25872   0.425E+01
DAV:   4    -0.129529401995E+03   -0.30535E-01   -0.30533E-01 20256   0.198E+00
DAV:   5    -0.129529462383E+03   -0.60388E-04   -0.60388E-04 25104   0.918E-02    0.245E+01
DAV:   6    -0.920726879014E+02    0.37457E+02   -0.71849E+01 25968   0.255E+01    0.139E+01
DAV:   7    -0.100513009797E+03   -0.84403E+01   -0.10017E+01 22080   0.102E+01    0.811E+00
DAV:   8    -0.110482366648E+03   -0.99694E+01   -0.88122E+00 23904   0.897E+00    0.435E+00
DAV:   9    -0.117148077961E+03   -0.66657E+01   -0.38126E+00 19968   0.603E+00    0.278E+00
DAV:  10    -0.123478982951E+03   -0.63309E+01   -0.82471E+00 23520   0.702E+00    0.161E+00
DAV:  11    -0.125301510333E+03   -0.18225E+01   -0.30876E+00 24240   0.389E+00    0.101E+00
DAV:  12    -0.125424820498E+03   -0.12331E+00   -0.21516E-01 21024   0.127E+00    0.491E-01
DAV:  13    -0.125451673092E+03   -0.26853E-01   -0.21454E-02 17424   0.521E-01    0.198E-01
DAV:  14    -0.125475600290E+03   -0.23927E-01   -0.59719E-03 22080   0.266E-01    0.865E-02
DAV:  15    -0.125483695065E+03   -0.80948E-02   -0.32730E-03 18048   0.154E-01    0.462E-02
DAV:  16    -0.125485778385E+03   -0.20833E-02   -0.66630E-04 17856   0.805E-02    0.230E-02
DAV:  17    -0.125487069840E+03   -0.12915E-02   -0.17469E-04 14352   0.503E-02    0.180E-02
DAV:  18    -0.125487761959E+03   -0.69212E-03   -0.87633E-05 16176   0.369E-02    0.129E-02
DAV:  19    -0.125488232507E+03   -0.47055E-03   -0.43708E-05 18768   0.242E-02    0.768E-03
DAV:  20    -0.125488280296E+03   -0.47789E-04   -0.22738E-05 22848   0.177E-02    0.473E-03
DAV:  21    -0.125488306738E+03   -0.26443E-04   -0.65751E-06 20448   0.947E-03    0.232E-03
DAV:  22    -0.125488327247E+03   -0.20509E-04   -0.21522E-06 21456   0.549E-03    0.146E-03
DAV:  23    -0.125488344454E+03   -0.17207E-04   -0.18509E-06 20304   0.408E-03    0.768E-04
DAV:  24    -0.125488348110E+03   -0.36565E-05   -0.38690E-07 22848   0.223E-03    0.392E-04
DAV:  25    -0.125488349123E+03   -0.10130E-05   -0.12130E-07 23376   0.115E-03    0.195E-04
DAV:  26    -0.125488349655E+03   -0.53186E-06   -0.31281E-08 20400   0.594E-04
   1 F= -.12707711E+03 E0= -.12707633E+03  d E =-.127077E+03  mag=    -0.0000
       N       E                     dE             d eps       ncg     rms          rms(c)
DAV:   1    -0.125498144898E+03   -0.97958E-02   -0.27883E+00 14208   0.512E+00    0.456E-01
DAV:   2    -0.125490811972E+03    0.73329E-02   -0.56276E-02 26016   0.655E-01    0.201E-01
DAV:   3    -0.125490006024E+03    0.80595E-03   -0.45564E-03 19872   0.184E-01    0.792E-02
DAV:   4    -0.125489975839E+03    0.30185E-04   -0.53792E-04 27216   0.642E-02    0.206E-02
DAV:   5    -0.125489978991E+03   -0.31521E-05   -0.13813E-05 24240   0.116E-02    0.842E-03
DAV:   6    -0.125489979219E+03   -0.22768E-06   -0.16265E-06 22752   0.386E-03
   2 F= -.12707809E+03 E0= -.12707730E+03  d E =-.974973E-03  mag=    -0.0000
       N       E                     dE             d eps       ncg     rms          rms(c)
DAV:   1    -0.125497486802E+03   -0.75078E-02   -0.64321E-01 14256   0.246E+00    0.219E-01
DAV:   2    -0.125495759359E+03    0.17274E-02   -0.12948E-02 25248   0.313E-01    0.963E-02
DAV:   3    -0.125495579081E+03    0.18028E-03   -0.10471E-03 22032   0.888E-02    0.385E-02
DAV:   4    -0.125495572695E+03    0.63859E-05   -0.12137E-04 23856   0.304E-02    0.954E-03
DAV:   5    -0.125495573352E+03   -0.65717E-06   -0.38581E-06 19584   0.598E-03
   3 F= -.12708399E+03 E0= -.12708321E+03  d E =-.688027E-02  mag=    -0.0000
       N       E                     dE             d eps       ncg     rms          rms(c)
DAV:   1    -0.125502941588E+03   -0.73689E-02   -0.37080E-01 14304   0.209E+00    0.126E-01
DAV:   2    -0.125503017846E+03   -0.76258E-04   -0.22263E-03 27696   0.183E-01    0.743E-02
DAV:   3    -0.125503013300E+03    0.45458E-05   -0.22169E-04 22080   0.510E-02    0.147E-02
DAV:   4    -0.125503014787E+03   -0.14872E-05   -0.22141E-05 26496   0.173E-02    0.574E-03
DAV:   5    -0.125503015097E+03   -0.30964E-06   -0.94939E-07 21792   0.407E-03
   4 F= -.12709116E+03 E0= -.12709037E+03  d E =-.716447E-02  mag=     0.0000
       N       E                     dE             d eps       ncg     rms          rms(c)
DAV:   1    -0.125513862142E+03   -0.10847E-01   -0.33605E+00 14208   0.627E+00    0.377E-01
DAV:   2    -0.125514729024E+03   -0.86688E-03   -0.20983E-02 26976   0.558E-01    0.222E-01
DAV:   3    -0.125514671982E+03    0.57042E-04   -0.20425E-03 20928   0.154E-01    0.445E-02
DAV:   4    -0.125514687794E+03   -0.15812E-04   -0.20237E-04 27888   0.520E-02    0.173E-02
DAV:   5    -0.125514690713E+03   -0.29194E-05   -0.83078E-06 20688   0.120E-02    0.775E-03
DAV:   6    -0.125514690879E+03   -0.16645E-06   -0.60129E-06 25008   0.911E-03
   5 F= -.12710201E+03 E0= -.12710122E+03  d E =-.180155E-01  mag=     0.0000
       N       E                     dE             d eps       ncg     rms          rms(c)
DAV:   1    -0.125518032932E+03   -0.33422E-02   -0.10621E-01 14400   0.127E+00    0.767E-02
DAV:   2    -0.125518024414E+03    0.85181E-05   -0.92735E-04 25920   0.134E-01    0.427E-02
DAV:   3    -0.125518002053E+03    0.22361E-04   -0.10946E-04 19728   0.398E-02    0.122E-02
DAV:   4    -0.125518003040E+03   -0.98663E-06   -0.15919E-05 25920   0.151E-02    0.496E-03
DAV:   5    -0.125518003483E+03   -0.44362E-06   -0.76767E-07 21936   0.360E-03
   6 F= -.12710518E+03 E0= -.12710440E+03  d E =-.317084E-02  mag=    -0.0000
       N       E                     dE             d eps       ncg     rms          rms(c)
DAV:   1    -0.125521369519E+03   -0.33665E-02   -0.51257E-01 14208   0.280E+00    0.168E-01
DAV:   2    -0.125521329373E+03    0.40146E-04   -0.44326E-03 26496   0.294E-01    0.935E-02
DAV:   3    -0.125521222281E+03    0.10709E-03   -0.52380E-04 20784   0.868E-02    0.265E-02
DAV:   4    -0.125521227102E+03   -0.48205E-05   -0.72850E-05 25824   0.321E-02    0.107E-02
DAV:   5    -0.125521227860E+03   -0.75834E-06   -0.28731E-06 19680   0.703E-03
   7 F= -.12710808E+03 E0= -.12710729E+03  d E =-.606790E-02  mag=    -0.0000
       N       E                     dE             d eps       ncg     rms          rms(c)
DAV:   1    -0.125523449382E+03   -0.22223E-02   -0.90982E-02 14208   0.983E-01    0.568E-02
DAV:   2    -0.125523471630E+03   -0.22248E-04   -0.49801E-04 24240   0.798E-02    0.340E-02
DAV:   3    -0.125523470110E+03    0.15195E-05   -0.55528E-05 20640   0.221E-02    0.570E-03
DAV:   4    -0.125523470173E+03   -0.62229E-07   -0.33104E-06 24096   0.714E-03
   8 F= -.12711012E+03 E0= -.12710933E+03  d E =-.203960E-02  mag=     0.0000
       N       E                     dE             d eps       ncg     rms          rms(c)
DAV:   1    -0.125528359531E+03   -0.48894E-02   -0.81990E-01 14208   0.295E+00    0.170E-01
DAV:   2    -0.125528559396E+03   -0.19986E-03   -0.42457E-03 26976   0.234E-01    0.101E-01
DAV:   3    -0.125528542784E+03    0.16612E-04   -0.48702E-04 21072   0.643E-02    0.155E-02
DAV:   4    -0.125528543021E+03   -0.23707E-06   -0.27141E-05 24672   0.205E-02    0.777E-03
DAV:   5    -0.125528541104E+03    0.19175E-05   -0.42095E-06 22704   0.769E-03    0.293E-03
DAV:   6    -0.125528540694E+03    0.40965E-06   -0.12489E-06 23568   0.394E-03
   9 F= -.12711458E+03 E0= -.12711380E+03  d E =-.650696E-02  mag=    -0.0000
       N       E                     dE             d eps       ncg     rms          rms(c)
DAV:   1    -0.125531630024E+03   -0.30889E-02   -0.32837E+00 14208   0.590E+00    0.335E-01
DAV:   2    -0.125532438910E+03   -0.80889E-03   -0.16511E-02 26160   0.463E-01    0.200E-01
DAV:   3    -0.125532364094E+03    0.74816E-04   -0.19663E-03 22560   0.129E-01    0.292E-02
DAV:   4    -0.125532364562E+03   -0.46837E-06   -0.10358E-04 23424   0.405E-02    0.151E-02
DAV:   5    -0.125532359299E+03    0.52637E-05   -0.16178E-05 23952   0.154E-02    0.465E-03
DAV:   6    -0.125532358683E+03    0.61575E-06   -0.53312E-06 24096   0.831E-03
  10 F= -.12711722E+03 E0= -.12711643E+03  d E =-.914198E-02  mag=     0.0000
       N       E                     dE             d eps       ncg     rms          rms(c)
DAV:   1    -0.125534119740E+03   -0.17604E-02   -0.84381E-01 14208   0.363E+00    0.205E-01
DAV:   2    -0.125534026238E+03    0.93501E-04   -0.92911E-03 26784   0.418E-01    0.118E-01
DAV:   3    -0.125533935520E+03    0.90719E-04   -0.11280E-03 19056   0.121E-01    0.455E-02
DAV:   4    -0.125533935952E+03   -0.43215E-06   -0.26469E-04 25968   0.529E-02    0.225E-02
DAV:   5    -0.125533940121E+03   -0.41689E-05   -0.15492E-05 24096   0.159E-02    0.673E-03
DAV:   6    -0.125533941975E+03   -0.18545E-05   -0.19565E-06 21744   0.581E-03    0.355E-03
DAV:   7    -0.125533943341E+03   -0.13656E-05   -0.35709E-07 25152   0.232E-03    0.134E-03
DAV:   8    -0.125533945457E+03   -0.21160E-05   -0.37077E-07 21120   0.212E-03    0.897E-04
DAV:   9    -0.125533948268E+03   -0.28116E-05   -0.37513E-07 21600   0.187E-03    0.708E-04
DAV:  10    -0.125533950006E+03   -0.17376E-05   -0.13355E-07 22464   0.106E-03    0.346E-04
DAV:  11    -0.125533950663E+03   -0.65655E-06   -0.20338E-08 22944   0.386E-04
  11 F= -.12711832E+03 E0= -.12711754E+03  d E =-.110337E-02  mag=    -0.0000
       N       E                     dE             d eps       ncg     rms          rms(c)
DAV:   1    -0.125534450951E+03   -0.50094E-03   -0.12200E-01 14208   0.138E+00    0.780E-02
DAV:   2    -0.125534439861E+03    0.11090E-04   -0.13655E-03 27744   0.160E-01    0.451E-02
DAV:   3    -0.125534428048E+03    0.11813E-04   -0.15790E-04 20928   0.451E-02    0.173E-02
DAV:   4    -0.125534428313E+03   -0.26584E-06   -0.36437E-05 26064   0.196E-02    0.840E-03
DAV:   5    -0.125534428896E+03   -0.58248E-06   -0.20365E-06 22080   0.580E-03
  12 F= -.12711900E+03 E0= -.12711821E+03  d E =-.177974E-02  mag=    -0.0000
       N       E                     dE             d eps       ncg     rms          rms(c)
DAV:   1    -0.125535772079E+03   -0.13438E-02   -0.75268E-02 14208   0.101E+00    0.599E-02
DAV:   2    -0.125535741783E+03    0.30296E-04   -0.68403E-04 22464   0.916E-02    0.305E-02
DAV:   3    -0.125535739094E+03    0.26881E-05   -0.42413E-05 22080   0.221E-02    0.129E-02
DAV:   4    -0.125535740283E+03   -0.11883E-05   -0.61205E-06 21408   0.862E-03    0.282E-03
DAV:   5    -0.125535740391E+03   -0.10786E-06   -0.39761E-07 25728   0.229E-03
  13 F= -.12712018E+03 E0= -.12711940E+03  d E =-.118679E-02  mag=     0.0000
       N       E                     dE             d eps       ncg     rms          rms(c)
DAV:   1    -0.125536064984E+03   -0.32470E-03   -0.33673E-02 14208   0.675E-01    0.402E-02
DAV:   2    -0.125536051372E+03    0.13612E-04   -0.30482E-04 22416   0.612E-02    0.205E-02
DAV:   3    -0.125536050480E+03    0.89239E-06   -0.18553E-05 19536   0.147E-02    0.872E-03
DAV:   4    -0.125536051118E+03   -0.63834E-06   -0.28035E-06 20304   0.586E-03
  14 F= -.12712041E+03 E0= -.12711963E+03  d E =-.141436E-02  mag=    -0.0000
       N       E                     dE             d eps       ncg     rms          rms(c)
DAV:   1    -0.125536334825E+03   -0.28435E-03   -0.50278E-02 15744   0.924E-01    0.581E-02
DAV:   2    -0.125536302140E+03    0.32685E-04   -0.66072E-04 20688   0.110E-01    0.308E-02
DAV:   3    -0.125536285846E+03    0.16293E-04   -0.84172E-05 21984   0.358E-02    0.101E-02
DAV:   4    -0.125536285686E+03    0.16043E-06   -0.11597E-05 20928   0.128E-02    0.432E-03
DAV:   5    -0.125536285861E+03   -0.17498E-06   -0.56338E-07 24192   0.302E-03
  15 F= -.12712058E+03 E0= -.12711980E+03  d E =-.167862E-03  mag=     0.0000
       N       E                     dE             d eps       ncg     rms          rms(c)
DAV:   1    -0.125536324768E+03   -0.39082E-04   -0.55917E-03 15552   0.308E-01    0.192E-02
DAV:   2    -0.125536321511E+03    0.32575E-05   -0.74783E-05 21696   0.370E-02    0.102E-02
DAV:   3    -0.125536319860E+03    0.16513E-05   -0.91232E-06 16704   0.119E-02    0.335E-03
DAV:   4    -0.125536320018E+03   -0.15847E-06   -0.14210E-06 24288   0.442E-03
  16 F= -.12712064E+03 E0= -.12711985E+03  d E =-.224864E-03  mag=     0.0000
       N       E                     dE             d eps       ncg     rms          rms(c)
DAV:   1    -0.125536527907E+03   -0.20805E-03   -0.11977E-02 14208   0.424E-01    0.231E-02
DAV:   2    -0.125536519340E+03    0.85665E-05   -0.14576E-04 21696   0.442E-02    0.118E-02
DAV:   3    -0.125536518429E+03    0.91158E-06   -0.13172E-05 19776   0.127E-02    0.471E-03
DAV:   4    -0.125536518674E+03   -0.24543E-06   -0.16329E-06 18384   0.460E-03
  17 F= -.12712078E+03 E0= -.12712000E+03  d E =-.143075E-03  mag=     0.0000
       N       E                     dE             d eps       ncg     rms          rms(c)
DAV:   1    -0.125536553514E+03   -0.35086E-04   -0.17996E-03 14208   0.164E-01    0.908E-03
DAV:   2    -0.125536552238E+03    0.12757E-05   -0.21669E-05 14496   0.172E-02    0.469E-03
DAV:   3    -0.125536552230E+03    0.84174E-08   -0.23735E-06 17856   0.545E-03
  18 F= -.12712079E+03 E0= -.12712001E+03  d E =-.155024E-03  mag=    -0.0000
       N       E                     dE             d eps       ncg     rms          rms(c)
DAV:   1    -0.125536732818E+03   -0.18058E-03   -0.68831E-03 14208   0.312E-01    0.206E-02
DAV:   2    -0.125536728512E+03    0.43058E-05   -0.10538E-04 18624   0.377E-02    0.111E-02
DAV:   3    -0.125536727453E+03    0.10596E-05   -0.93616E-06 21600   0.108E-02    0.382E-03
DAV:   4    -0.125536727620E+03   -0.16775E-06   -0.12016E-06 14784   0.387E-03
  19 F= -.12712087E+03 E0= -.12712009E+03  d E =-.778639E-04  mag=    -0.0000
       N       E                     dE             d eps       ncg     rms          rms(c)
DAV:   1    -0.125536758056E+03   -0.30604E-04   -0.50282E-04 14208   0.845E-02    0.559E-03
DAV:   2    -0.125536757837E+03    0.21877E-06   -0.77849E-06 20832   0.103E-02
  20 F= -.12712087E+03 E0= -.12712009E+03  d E =-.817215E-04  mag=    -0.0000
       N       E                     dE             d eps       ncg     rms          rms(c)
DAV:   1    -0.125536924797E+03   -0.16674E-03   -0.67586E-03 14208   0.325E-01    0.195E-02
DAV:   2    -0.125536923281E+03    0.15159E-05   -0.79921E-05 25824   0.378E-02    0.113E-02
DAV:   3    -0.125536921682E+03    0.15989E-05   -0.89021E-06 23904   0.116E-02    0.272E-03
DAV:   4    -0.125536921784E+03   -0.10205E-06   -0.89509E-07 22944   0.366E-03
  21 F= -.12712092E+03 E0= -.12712014E+03  d E =-.489506E-04  mag=    -0.0000
       N       E                     dE             d eps       ncg     rms          rms(c)
DAV:   1    -0.125536926970E+03   -0.52884E-05   -0.13473E-05 24960   0.145E-02    0.113E-03
DAV:   2    -0.125536926971E+03   -0.23283E-09   -0.12320E-07 24816   0.150E-03
  22 F= -.12712092E+03 E0= -.12712014E+03  d E =-.490618E-04  mag=    -0.0000
       N       E                     dE             d eps       ncg     rms          rms(c)
DAV:   1    -0.125537043569E+03   -0.11660E-03   -0.17015E-03 14208   0.144E-01    0.797E-03
DAV:   2    -0.125537043919E+03   -0.35023E-06   -0.12078E-05 15552   0.140E-02    0.483E-03
DAV:   3    -0.125537044010E+03   -0.90692E-07   -0.11775E-06 20880   0.384E-03
  23 F= -.12712097E+03 E0= -.12712018E+03  d E =-.459025E-04  mag=     0.0000
       N       E                     dE             d eps       ncg     rms          rms(c)
DAV:   1    -0.125537370155E+03   -0.32624E-03   -0.15342E-02 14208   0.433E-01    0.236E-02
DAV:   2    -0.125537374094E+03   -0.39394E-05   -0.10480E-04 19824   0.413E-02    0.143E-02
DAV:   3    -0.125537374134E+03   -0.40244E-07   -0.10188E-05 25056   0.110E-02    0.258E-03
DAV:   4    -0.125537374150E+03   -0.16189E-07   -0.96176E-07 21072   0.372E-03
  24 F= -.12712109E+03 E0= -.12712030E+03  d E =-.162754E-03  mag=     0.0000
       N       E                     dE             d eps       ncg     rms          rms(c)
DAV:   1    -0.125537923195E+03   -0.54906E-03   -0.61378E-02 14208   0.865E-01    0.470E-02
DAV:   2    -0.125537940110E+03   -0.16915E-04   -0.41902E-04 23136   0.822E-02    0.284E-02
DAV:   3    -0.125537938350E+03    0.17597E-05   -0.39813E-05 25008   0.215E-02    0.511E-03
DAV:   4    -0.125537938371E+03   -0.20861E-07   -0.36117E-06 22368   0.730E-03
  25 F= -.12712122E+03 E0= -.12712044E+03  d E =-.301016E-03  mag=     0.0000
       N       E                     dE             d eps       ncg     rms          rms(c)
DAV:   1    -0.125538617905E+03   -0.67955E-03   -0.24560E-01 14208   0.173E+00    0.939E-02
DAV:   2    -0.125538688716E+03   -0.70810E-04   -0.16520E-03 22368   0.163E-01    0.566E-02
DAV:   3    -0.125538677550E+03    0.11166E-04   -0.16178E-04 27024   0.432E-02    0.101E-02
DAV:   4    -0.125538677399E+03    0.15068E-06   -0.14161E-05 22992   0.146E-02    0.461E-03
DAV:   5    -0.125538677036E+03    0.36324E-06   -0.17858E-06 25392   0.485E-03
  26 F= -.12712111E+03 E0= -.12712033E+03  d E =-.190042E-03  mag=    -0.0000
       N       E                     dE             d eps       ncg     rms          rms(c)
DAV:   1    -0.125538176140E+03    0.50126E-03   -0.12163E-01 14208   0.122E+00    0.660E-02
DAV:   2    -0.125538212979E+03   -0.36839E-04   -0.83933E-04 25152   0.116E-01    0.398E-02
DAV:   3    -0.125538211597E+03    0.13822E-05   -0.76980E-05 23136   0.296E-02    0.718E-03
DAV:   4    -0.125538212465E+03   -0.86828E-06   -0.68352E-06 22416   0.101E-02
  27 F= -.12712125E+03 E0= -.12712046E+03  d E =-.323643E-03  mag=    -0.0000
       N       E                     dE             d eps       ncg     rms          rms(c)
DAV:   1    -0.125538360109E+03   -0.14851E-03   -0.31049E-03 14208   0.205E-01    0.106E-02
DAV:   2    -0.125538361000E+03   -0.89161E-06   -0.29221E-05 25440   0.224E-02    0.649E-03
DAV:   3    -0.125538361031E+03   -0.31145E-07   -0.27130E-06 21456   0.620E-03
  28 F= -.12712130E+03 E0= -.12712052E+03  d E =-.549939E-04  mag=     0.0000
       N       E                     dE             d eps       ncg     rms          rms(c)
DAV:   1    -0.125538717223E+03   -0.35622E-03   -0.28161E-02 14208   0.617E-01    0.328E-02
DAV:   2    -0.125538726296E+03   -0.90726E-05   -0.24541E-04 26592   0.653E-02    0.203E-02
DAV:   3    -0.125538725262E+03    0.10340E-05   -0.25249E-05 17952   0.186E-02    0.398E-03
DAV:   4    -0.125538725358E+03   -0.95994E-07   -0.32659E-06 20352   0.693E-03
  29 F= -.12712138E+03 E0= -.12712060E+03  d E =-.138551E-03  mag=     0.0000
       N       E                     dE             d eps       ncg     rms          rms(c)
DAV:   1    -0.125538785029E+03   -0.59767E-04   -0.11897E-03 14208   0.127E-01    0.702E-03
DAV:   2    -0.125538785542E+03   -0.51242E-06   -0.11178E-05 21072   0.141E-02    0.440E-03
DAV:   3    -0.125538785619E+03   -0.76861E-07   -0.10602E-06 21696   0.408E-03
  30 F= -.12712139E+03 E0= -.12712060E+03  d E =-.141229E-03  mag=    -0.0000
       N       E                     dE             d eps       ncg     rms          rms(c)
DAV:   1    -0.125538985293E+03   -0.19975E-03   -0.56288E-03 14208   0.265E-01    0.139E-02
DAV:   2    -0.125538987265E+03   -0.19716E-05   -0.46442E-05 19056   0.270E-02    0.855E-03
DAV:   3    -0.125538987604E+03   -0.33932E-06   -0.42290E-06 20592   0.741E-03
  31 F= -.12712146E+03 E0= -.12712068E+03  d E =-.742691E-04  mag=     0.0000
       N       E                     dE             d eps       ncg     rms          rms(c)
DAV:   1    -0.125539511984E+03   -0.52472E-03   -0.50680E-02 14208   0.796E-01    0.416E-02
DAV:   2    -0.125539530362E+03   -0.18378E-04   -0.41135E-04 22032   0.793E-02    0.255E-02
DAV:   3    -0.125539531517E+03   -0.11551E-05   -0.37524E-05 25152   0.214E-02    0.532E-03
DAV:   4    -0.125539531901E+03   -0.38410E-06   -0.45203E-06 16416   0.791E-03
  32 F= -.12712162E+03 E0= -.12712084E+03  d E =-.235874E-03  mag=    -0.0000
       N       E                     dE             d eps       ncg     rms          rms(c)
DAV:   1    -0.125540269841E+03   -0.73832E-03   -0.20259E-01 14208   0.159E+00    0.827E-02
DAV:   2    -0.125540344010E+03   -0.74168E-04   -0.16282E-03 22080   0.158E-01    0.505E-02
DAV:   3    -0.125540344035E+03   -0.24954E-07   -0.14950E-04 25824   0.426E-02    0.105E-02
DAV:   4    -0.125540345177E+03   -0.11424E-05   -0.17444E-05 16752   0.155E-02    0.463E-03
DAV:   5    -0.125540345734E+03   -0.55665E-06   -0.16837E-06 21264   0.497E-03
  33 F= -.12712167E+03 E0= -.12712089E+03  d E =-.286678E-03  mag=    -0.0000
       N       E                     dE             d eps       ncg     rms          rms(c)
DAV:   1    -0.125540087714E+03    0.25746E-03   -0.25876E-02 14208   0.569E-01    0.295E-02
DAV:   2    -0.125540096393E+03   -0.86798E-05   -0.21249E-04 23664   0.573E-02    0.180E-02
DAV:   3    -0.125540096813E+03   -0.41975E-06   -0.19071E-05 14784   0.155E-02    0.385E-03
DAV:   4    -0.125540097056E+03   -0.24311E-06   -0.26741E-06 17088   0.663E-03
  34 F= -.12712170E+03 E0= -.12712091E+03  d E =-.310697E-03  mag=    -0.0000
       N       E                     dE             d eps       ncg     rms          rms(c)
DAV:   1    -0.125540405954E+03   -0.30914E-03   -0.16441E-02 14208   0.469E-01    0.230E-02
DAV:   2    -0.125540410858E+03   -0.49041E-05   -0.15039E-04 23232   0.494E-02    0.143E-02
DAV:   3    -0.125540411126E+03   -0.26889E-06   -0.14281E-05 16848   0.140E-02    0.380E-03
DAV:   4    -0.125540411357E+03   -0.23042E-06   -0.25272E-06 16032   0.653E-03
  35 F= -.12712180E+03 E0= -.12712102E+03  d E =-.102523E-03  mag=     0.0000
       N       E                     dE             d eps       ncg     rms          rms(c)
DAV:   1    -0.125540772203E+03   -0.36108E-03   -0.36893E-02 14208   0.703E-01    0.352E-02
DAV:   2    -0.125540785101E+03   -0.12898E-04   -0.33193E-04 23328   0.734E-02    0.218E-02
DAV:   3    -0.125540786117E+03   -0.10164E-05   -0.32185E-05 23040   0.207E-02    0.571E-03
DAV:   4    -0.125540786391E+03   -0.27436E-06   -0.52506E-06 15936   0.899E-03
  36 F= -.12712186E+03 E0= -.12712107E+03  d E =-.160413E-03  mag=     0.0000
       N       E                     dE             d eps       ncg     rms          rms(c)
DAV:   1    -0.125540912159E+03   -0.12604E-03   -0.35568E-03 14304   0.225E-01    0.133E-02
DAV:   2    -0.125540912408E+03   -0.24962E-06   -0.45302E-05 20640   0.280E-02    0.760E-03
DAV:   3    -0.125540912260E+03    0.14803E-06   -0.50192E-06 16992   0.870E-03
  37 F= -.12712189E+03 E0= -.12712111E+03  d E =-.342614E-04  mag=     0.0000
       N       E                     dE             d eps       ncg     rms          rms(c)
DAV:   1    -0.125540967250E+03   -0.54841E-04   -0.10496E-03 14400   0.122E-01    0.797E-03
DAV:   2    -0.125540967361E+03   -0.11148E-06   -0.13380E-05 19344   0.154E-02    0.462E-03
DAV:   3    -0.125540967408E+03   -0.46995E-07   -0.17636E-06 14688   0.532E-03
  38 F= -.12712190E+03 E0= -.12712111E+03  d E =-.398299E-04  mag=    -0.0000
       N       E                     dE             d eps       ncg     rms          rms(c)
DAV:   1    -0.125541005209E+03   -0.37848E-04   -0.35948E-04 14304   0.773E-02    0.416E-03
DAV:   2    -0.125541005184E+03    0.24695E-07   -0.34849E-06 20688   0.810E-03
  39 F= -.12712191E+03 E0= -.12712112E+03  d E =-.902188E-05  mag=    -0.0000
       N       E                     dE             d eps       ncg     rms          rms(c)
DAV:   1    -0.125541073410E+03   -0.68201E-04   -0.16143E-03 14304   0.164E-01    0.861E-03
DAV:   2    -0.125541073188E+03    0.22175E-06   -0.14517E-05 21984   0.164E-02    0.514E-03
DAV:   3    -0.125541073100E+03    0.88533E-07   -0.20595E-06 15360   0.599E-03
  40 F= -.12712191E+03 E0= -.12712113E+03  d E =-.154653E-04  mag=     0.0000
       N       E                     dE             d eps       ncg     rms          rms(c)
DAV:   1    -0.125541101424E+03   -0.28235E-04   -0.19474E-04 14304   0.556E-02    0.292E-03
DAV:   2    -0.125541101374E+03    0.49386E-07   -0.18275E-06 14976   0.595E-03
  41 F= -.12712192E+03 E0= -.12712114E+03  d E =-.494910E-05  mag=     0.0000
       N       E                     dE             d eps       ncg     rms          rms(c)
DAV:   1    -0.125541175793E+03   -0.74369E-04   -0.16682E-03 14208   0.163E-01    0.823E-03
DAV:   2    -0.125541175522E+03    0.27109E-06   -0.14086E-05 14928   0.160E-02    0.497E-03
DAV:   3    -0.125541175520E+03    0.20273E-08   -0.20364E-06 14736   0.617E-03
  42 F= -.12712192E+03 E0= -.12712114E+03  d E =-.103385E-04  mag=    -0.0000
       N       E                     dE             d eps       ncg     rms          rms(c)
DAV:   1    -0.125541166793E+03    0.87292E-05   -0.27414E-05 14304   0.211E-02    0.107E-03
DAV:   2    -0.125541166759E+03    0.33448E-07   -0.49723E-07 18624   0.345E-03
  43 F= -.12712192E+03 E0= -.12712114E+03  d E =-.103825E-04  mag=    -0.0000
       N       E                     dE             d eps       ncg     rms          rms(c)
DAV:   1    -0.125541172680E+03   -0.58874E-05   -0.29803E-05 16128   0.233E-02    0.138E-03
DAV:   2    -0.125541172671E+03    0.94005E-08   -0.48828E-07 16992   0.325E-03
  44 F= -.12712193E+03 E0= -.12712114E+03  d E =-.168522E-05  mag=    -0.0000
       N       E                     dE             d eps       ncg     rms          rms(c)
DAV:   1    -0.125541183724E+03   -0.11045E-04   -0.14668E-04 18480   0.517E-02    0.320E-03
DAV:   2    -0.125541183602E+03    0.12209E-06   -0.19509E-06 19536   0.604E-03
  45 F= -.12712193E+03 E0= -.12712114E+03  d E =-.313663E-05  mag=    -0.0000
       N       E                     dE             d eps       ncg     rms          rms(c)
DAV:   1    -0.125541195864E+03   -0.12139E-04   -0.58303E-05 20592   0.311E-02    0.184E-03
DAV:   2    -0.125541195824E+03    0.39862E-07   -0.67154E-07 16800   0.354E-03
  46 F= -.12712193E+03 E0= -.12712115E+03  d E =-.139875E-05  mag=     0.0000
       N       E                     dE             d eps       ncg     rms          rms(c)
DAV:   1    -0.125541213996E+03   -0.18133E-04   -0.14728E-04 20496   0.491E-02    0.279E-03
DAV:   2    -0.125541213868E+03    0.12828E-06   -0.14881E-06 17520   0.502E-03
  47 F= -.12712193E+03 E0= -.12712115E+03  d E =-.217605E-05  mag=     0.0000
       N       E                     dE             d eps       ncg     rms          rms(c)
DAV:   1    -0.125541227988E+03   -0.13992E-04   -0.30379E-05 20880   0.219E-02    0.128E-03
DAV:   2    -0.125541227963E+03    0.24822E-07   -0.33433E-07 15216   0.262E-03
  48 F= -.12712193E+03 E0= -.12712115E+03  d E =-.736900E-06  mag=     0.0000
       N       E                     dE             d eps       ncg     rms          rms(c)
DAV:   1    -0.125541269340E+03   -0.41352E-04   -0.28083E-04 16320   0.661E-02    0.326E-03
DAV:   2    -0.125541269193E+03    0.14732E-06   -0.29400E-06 14496   0.723E-03
  49 F= -.12712193E+03 E0= -.12712115E+03  d E =-.189188E-05  mag=     0.0000
       N       E                     dE             d eps       ncg     rms          rms(c)
DAV:   1    -0.125541285847E+03   -0.16508E-04   -0.44420E-05 15168   0.268E-02    0.166E-03
DAV:   2    -0.125541285811E+03    0.36288E-07   -0.49856E-07 14880   0.331E-03
  50 F= -.12712193E+03 E0= -.12712115E+03  d E =-.193892E-05  mag=     0.0000
       N       E                     dE             d eps       ncg     rms          rms(c)
DAV:   1    -0.125541291516E+03   -0.56688E-05   -0.38426E-06 20160   0.791E-03    0.653E-04
DAV:   2    -0.125541291506E+03    0.10329E-07   -0.13233E-07 14208   0.192E-03
  51 F= -.12712193E+03 E0= -.12712115E+03  d E =-.296820E-06  mag=    -0.0000
       N       E                     dE             d eps       ncg     rms          rms(c)
DAV:   1    -0.125541308443E+03   -0.16927E-04   -0.36547E-05 14688   0.234E-02    0.124E-03
DAV:   2    -0.125541308421E+03    0.22115E-07   -0.38885E-07 16992   0.269E-03
  52 F= -.12712193E+03 E0= -.12712115E+03  d E =-.101880E-05  mag=     0.0000
       N       E                     dE             d eps       ncg     rms          rms(c)
DAV:   1    -0.125541342117E+03   -0.33673E-04   -0.14389E-04 14208   0.465E-02    0.225E-03
DAV:   2    -0.125541342059E+03    0.57677E-07   -0.13815E-06 14208   0.502E-03
  53 F= -.12712193E+03 E0= -.12712115E+03  d E =-.227106E-05  mag=     0.0000
       N       E                     dE             d eps       ncg     rms          rms(c)
DAV:   1    -0.125541408653E+03   -0.66536E-04   -0.57659E-04 14208   0.931E-02    0.447E-03
DAV:   2    -0.125541408480E+03    0.17277E-06   -0.54091E-06 14208   0.986E-03
  54 F= -.12712194E+03 E0= -.12712115E+03  d E =-.389564E-05  mag=     0.0000
       N       E                     dE             d eps       ncg     rms          rms(c)
DAV:   1    -0.125541538437E+03   -0.12978E-03   -0.23055E-03 14208   0.186E-01    0.890E-03
DAV:   2    -0.125541538002E+03    0.43498E-06   -0.21856E-05 17376   0.195E-02    0.547E-03
DAV:   3    -0.125541538073E+03   -0.70735E-07   -0.28956E-06 19920   0.650E-03
  55 F= -.12712194E+03 E0= -.12712115E+03  d E =-.399285E-05  mag=    -0.0000
       N       E                     dE             d eps       ncg     rms          rms(c)
DAV:   1    -0.125541472869E+03    0.65133E-04   -0.59714E-04 14208   0.946E-02    0.400E-03
DAV:   2    -0.125541472802E+03    0.66928E-07   -0.65678E-06 20064   0.106E-02
  56 F= -.12712194E+03 E0= -.12712115E+03  d E =-.460372E-05  mag=     0.0000
       N       E                     dE             d eps       ncg     rms          rms(c)
DAV:   1    -0.125541514576E+03   -0.41707E-04   -0.20085E-04 17232   0.541E-02    0.222E-03
DAV:   2    -0.125541514560E+03    0.16010E-07   -0.24220E-06 16800   0.670E-03
  57 F= -.12712194E+03 E0= -.12712115E+03  d E =-.205670E-05  mag=    -0.0000
       N       E                     dE             d eps       ncg     rms          rms(c)
DAV:   1    -0.125541637833E+03   -0.12326E-03   -0.16752E-03 14208   0.159E-01    0.784E-03
DAV:   2    -0.125541637310E+03    0.52326E-06   -0.17461E-05 15216   0.175E-02    0.476E-03
DAV:   3    -0.125541637333E+03   -0.22722E-07   -0.23937E-06 17952   0.620E-03
  58 F= -.12712194E+03 E0= -.12712116E+03  d E =-.573545E-05  mag=    -0.0000
       N       E                     dE             d eps       ncg     rms          rms(c)
DAV:   1    -0.125541674209E+03   -0.36899E-04   -0.16339E-04 14256   0.495E-02    0.268E-03
DAV:   2    -0.125541674147E+03    0.62124E-07   -0.19210E-06 14208   0.632E-03
  59 F= -.12712194E+03 E0= -.12712116E+03  d E =-.617090E-05  mag=     0.0000
       N       E                     dE             d eps       ncg     rms          rms(c)
DAV:   1    -0.125541746967E+03   -0.72759E-04   -0.62185E-04 14208   0.968E-02    0.492E-03
DAV:   2    -0.125541746759E+03    0.20866E-06   -0.67720E-06 14208   0.113E-02
  60 F= -.12712194E+03 E0= -.12712116E+03  d E =-.603062E-05  mag=     0.0000
       N       E                     dE             d eps       ncg     rms          rms(c)
DAV:   1    -0.125541794585E+03   -0.47618E-04   -0.21854E-04 14208   0.574E-02    0.332E-03
DAV:   2    -0.125541794481E+03    0.10449E-06   -0.25163E-06 14400   0.745E-03
  61 F= -.12712194E+03 E0= -.12712116E+03  d E =-.156709E-05  mag=     0.0000
       N       E                     dE             d eps       ncg     rms          rms(c)
DAV:   1    -0.125541936590E+03   -0.14200E-03   -0.20558E-03 14208   0.174E-01    0.857E-03
DAV:   2    -0.125541936278E+03    0.31183E-06   -0.20819E-05 14208   0.197E-02    0.537E-03
DAV:   3    -0.125541936593E+03   -0.31482E-06   -0.31904E-06 14400   0.805E-03
  62 F= -.12712195E+03 E0= -.12712116E+03  d E =-.519958E-05  mag=    -0.0000
       N       E                     dE             d eps       ncg     rms          rms(c)
DAV:   1    -0.125542214688E+03   -0.27841E-03   -0.83483E-03 14208   0.350E-01    0.167E-02
DAV:   2    -0.125542214195E+03    0.49310E-06   -0.82532E-05 17856   0.383E-02    0.104E-02
DAV:   3    -0.125542214324E+03   -0.12927E-06   -0.10757E-05 16800   0.132E-02    0.253E-03
DAV:   4    -0.125542214494E+03   -0.17003E-06   -0.29756E-06 14208   0.838E-03
  63 F= -.12712195E+03 E0= -.12712116E+03  d E =-.630629E-05  mag=     0.0000
       N       E                     dE             d eps       ncg     rms          rms(c)
DAV:   1    -0.125542323096E+03   -0.10877E-03   -0.12498E-03 14208   0.136E-01    0.673E-03
DAV:   2    -0.125542322905E+03    0.19079E-06   -0.14135E-05 17568   0.159E-02    0.418E-03
DAV:   3    -0.125542323117E+03   -0.21197E-06   -0.18382E-06 16512   0.600E-03
  64 F= -.12712195E+03 E0= -.12712117E+03  d E =-.421763E-05  mag=     0.0000
       N       E                     dE             d eps       ncg     rms          rms(c)
DAV:   1    -0.125542515302E+03   -0.19240E-03   -0.40324E-03 14208   0.244E-01    0.119E-02
DAV:   2    -0.125542514449E+03    0.85294E-06   -0.40916E-05 14208   0.270E-02    0.728E-03
DAV:   3    -0.125542514668E+03   -0.21952E-06   -0.53926E-06 14208   0.961E-03
  65 F= -.12712196E+03 E0= -.12712117E+03  d E =-.834356E-05  mag=    -0.0000
       N       E                     dE             d eps       ncg     rms          rms(c)
DAV:   1    -0.125542523159E+03   -0.87097E-05   -0.71296E-05 14208   0.359E-02    0.208E-03
DAV:   2    -0.125542522992E+03    0.16638E-06   -0.16082E-06 14208   0.658E-03
  66 F= -.12712196E+03 E0= -.12712118E+03  d E =-.233836E-05  mag=    -0.0000
       N       E                     dE             d eps       ncg     rms          rms(c)
DAV:   1    -0.125542532677E+03   -0.95181E-05   -0.13614E-04 14784   0.495E-02    0.296E-03
DAV:   2    -0.125542532529E+03    0.14813E-06   -0.19947E-06 14496   0.681E-03
  67 F= -.12712196E+03 E0= -.12712118E+03  d E =-.332023E-05  mag=     0.0000
       N       E                     dE             d eps       ncg     rms          rms(c)
DAV:   1    -0.125542540661E+03   -0.79846E-05   -0.56684E-05 18720   0.274E-02    0.164E-03
DAV:   2    -0.125542540547E+03    0.11441E-06   -0.72014E-07 14208   0.412E-03
  68 F= -.12712196E+03 E0= -.12712118E+03  d E =-.159932E-05  mag=     0.0000
       N       E                     dE             d eps       ncg     rms          rms(c)
DAV:   1    -0.125542562736E+03   -0.22075E-04   -0.51757E-04 14592   0.811E-02    0.417E-03
DAV:   2    -0.125542562419E+03    0.31703E-06   -0.42937E-06 14784   0.839E-03
  69 F= -.12712196E+03 E0= -.12712118E+03  d E =-.421772E-05  mag=     0.0000
       N       E                     dE             d eps       ncg     rms          rms(c)
DAV:   1    -0.125542571055E+03   -0.83187E-05   -0.92440E-05 21648   0.348E-02    0.215E-03
DAV:   2    -0.125542570909E+03    0.14625E-06   -0.85568E-07 14256   0.438E-03
  70 F= -.12712196E+03 E0= -.12712118E+03  d E =-.431999E-05  mag=     0.0000
       N       E                     dE             d eps       ncg     rms          rms(c)
DAV:   1    -0.125542586492E+03   -0.15438E-04   -0.16926E-04 19728   0.518E-02    0.245E-03
DAV:   2    -0.125542586328E+03    0.16391E-06   -0.18627E-06 14496   0.664E-03
  71 F= -.12712197E+03 E0= -.12712118E+03  d E =-.198476E-05  mag=     0.0000
       N       E                     dE             d eps       ncg     rms          rms(c)
DAV:   1    -0.125542596495E+03   -0.10003E-04   -0.86916E-05 16272   0.374E-02    0.203E-03
DAV:   2    -0.125542596392E+03    0.10316E-06   -0.11453E-06 14496   0.537E-03
  72 F= -.12712197E+03 E0= -.12712118E+03  d E =-.229167E-05  mag=     0.0000
       N       E                     dE             d eps       ncg     rms          rms(c)
DAV:   1    -0.125542611317E+03   -0.14822E-04   -0.10219E-04 18480   0.378E-02    0.217E-03
DAV:   2    -0.125542611195E+03    0.12192E-06   -0.13997E-06 14400   0.560E-03
  73 F= -.12712197E+03 E0= -.12712118E+03  d E =-.129418E-05  mag=     0.0000
       N       E                     dE             d eps       ncg     rms          rms(c)
DAV:   1    -0.125542627322E+03   -0.16005E-04   -0.13487E-04 14448   0.433E-02    0.254E-03
DAV:   2    -0.125542627203E+03    0.11908E-06   -0.17436E-06 14352   0.601E-03
  74 F= -.12712197E+03 E0= -.12712118E+03  d E =-.171564E-05  mag=     0.0000
       N       E                     dE             d eps       ncg     rms          rms(c)
DAV:   1    -0.125542639469E+03   -0.12146E-04   -0.62832E-05 15168   0.304E-02    0.189E-03
DAV:   2    -0.125542639347E+03    0.12124E-06   -0.13250E-06 14352   0.530E-03
  75 F= -.12712197E+03 E0= -.12712119E+03  d E =-.625040E-06  mag=     0.0000
       N       E                     dE             d eps       ncg     rms          rms(c)
DAV:   1    -0.125542646974E+03   -0.75054E-05   -0.25915E-05 14208   0.198E-02    0.141E-03
DAV:   2    -0.125542646914E+03    0.59932E-07   -0.62922E-07 14208   0.383E-03
  76 F= -.12712197E+03 E0= -.12712119E+03  d E =-.673474E-06  mag=     0.0000
       N       E                     dE             d eps       ncg     rms          rms(c)
DAV:   1    -0.125542658631E+03   -0.11657E-04   -0.29060E-05 14208   0.225E-02    0.134E-03
DAV:   2    -0.125542658599E+03    0.31805E-07   -0.66073E-07 14208   0.417E-03
  77 F= -.12712197E+03 E0= -.12712119E+03  d E =-.151243E-06  mag=     0.0000
       N       E                     dE             d eps       ncg     rms          rms(c)
DAV:   1    -0.125542657259E+03    0.13717E-05   -0.75832E-07 14208   0.413E-03    0.336E-04
DAV:   2    -0.125542657255E+03    0.48803E-08   -0.19400E-07 14208   0.226E-03
  78 F= -.12712197E+03 E0= -.12712119E+03  d E =-.159390E-06  mag=     0.0000
       N       E                     dE             d eps       ncg     rms          rms(c)
DAV:   1    -0.125542670072E+03   -0.12813E-04   -0.18252E-05 21168   0.171E-02    0.876E-04
DAV:   2    -0.125542670057E+03    0.15468E-07   -0.20443E-07 20064   0.186E-03
  79 F= -.12712197E+03 E0= -.12712119E+03  d E =-.204169E-06  mag=     0.0000
       N       E                     dE             d eps       ncg     rms          rms(c)
DAV:   1    -0.125542696852E+03   -0.26780E-04   -0.79756E-05 14208   0.357E-02    0.187E-03
DAV:   2    -0.125542696803E+03    0.49012E-07   -0.94171E-07 15840   0.400E-03
  80 F= -.12712197E+03 E0= -.12712119E+03  d E =-.364110E-06  mag=     0.0000
       N       E                     dE             d eps       ncg     rms          rms(c)
DAV:   1    -0.125542704187E+03   -0.73353E-05   -0.50893E-06 16512   0.912E-03    0.681E-04
DAV:   2    -0.125542704183E+03    0.44893E-08   -0.61070E-08 14784   0.113E-03
  81 F= -.12712197E+03 E0= -.12712119E+03  d E =-.117266E-06  mag=     0.0000
       N       E                     dE             d eps       ncg     rms          rms(c)
DAV:   1    -0.125542726225E+03   -0.22037E-04   -0.49808E-05 14976   0.277E-02    0.134E-03
DAV:   2    -0.125542726204E+03    0.21270E-07   -0.56290E-07 14208   0.324E-03
  82 F= -.12712197E+03 E0= -.12712119E+03  d E =-.347860E-06  mag=    -0.0000
       N       E                     dE             d eps       ncg     rms          rms(c)
DAV:   1    -0.125542769810E+03   -0.43585E-04   -0.19790E-04 14208   0.554E-02    0.276E-03
DAV:   2    -0.125542769733E+03    0.77090E-07   -0.22198E-06 14304   0.633E-03
  83 F= -.12712197E+03 E0= -.12712119E+03  d E =-.298210E-06  mag=     0.0000
       N       E                     dE             d eps       ncg     rms          rms(c)
DAV:   1    -0.125542751352E+03    0.18458E-04   -0.39964E-05 15264   0.244E-02    0.949E-04
DAV:   2    -0.125542751365E+03   -0.12965E-07   -0.62869E-07 14736   0.337E-03
  84 F= -.12712197E+03 E0= -.12712119E+03  d E =-.433568E-06  mag=     0.0000
       N       E                     dE             d eps       ncg     rms          rms(c)
DAV:   1    -0.125542765441E+03   -0.14090E-04   -0.21840E-05 18864   0.179E-02    0.730E-04
DAV:   2    -0.125542765431E+03    0.10585E-07   -0.25360E-07 15936   0.223E-03
  85 F= -.12712197E+03 E0= -.12712119E+03  d E =-.241030E-06  mag=     0.0000
       N       E                     dE             d eps       ncg     rms          rms(c)
DAV:   1    -0.125542807574E+03   -0.42132E-04   -0.18372E-04 14208   0.527E-02    0.254E-03
DAV:   2    -0.125542807478E+03    0.95457E-07   -0.19884E-06 14208   0.593E-03
  86 F= -.12712197E+03 E0= -.12712119E+03  d E =-.815275E-06  mag=     0.0000
       N       E                     dE             d eps       ncg     rms          rms(c)
DAV:   1    -0.125542891262E+03   -0.83689E-04   -0.72889E-04 14208   0.105E-01    0.512E-03
DAV:   2    -0.125542891003E+03    0.25956E-06   -0.77754E-06 14880   0.116E-02
  87 F= -.12712197E+03 E0= -.12712119E+03  d E =-.140365E-05  mag=     0.0000
       N       E                     dE             d eps       ncg     rms          rms(c)
DAV:   1    -0.125543056515E+03   -0.16525E-03   -0.29162E-03 14208   0.210E-01    0.102E-02
DAV:   2    -0.125543055773E+03    0.74263E-06   -0.31418E-05 18912   0.230E-02    0.631E-03
DAV:   3    -0.125543055832E+03   -0.59569E-07   -0.40253E-06 23136   0.744E-03
  88 F= -.12712197E+03 E0= -.12712119E+03  d E =-.401720E-06  mag=     0.0000
       N       E                     dE             d eps       ncg     rms          rms(c)
DAV:   1    -0.125542931072E+03    0.12470E-03   -0.17001E-03 14208   0.160E-01    0.695E-03
DAV:   2    -0.125542930750E+03    0.32170E-06   -0.19778E-05 19824   0.181E-02    0.427E-03
DAV:   3    -0.125542930637E+03    0.11310E-06   -0.23195E-06 18384   0.579E-03
  89 F= -.12712197E+03 E0= -.12712119E+03  d E =-.150393E-05  mag=     0.0000
       N       E                     dE             d eps       ncg     rms          rms(c)
DAV:   1    -0.125542948421E+03   -0.17670E-04   -0.30401E-05 15504   0.217E-02    0.787E-04
DAV:   2    -0.125542948434E+03   -0.13425E-07   -0.58674E-07 19104   0.364E-03
  90 F= -.12712197E+03 E0= -.12712119E+03  d E =-.378049E-06  mag=     0.0000
       N       E                     dE             d eps       ncg     rms          rms(c)
DAV:   1    -0.125543001489E+03   -0.53068E-04   -0.28361E-04 14208   0.654E-02    0.311E-03
DAV:   2    -0.125543001362E+03    0.12709E-06   -0.31211E-06 15456   0.746E-03
  91 F= -.12712197E+03 E0= -.12712119E+03  d E =-.105236E-05  mag=     0.0000
       N       E                     dE             d eps       ncg     rms          rms(c)
DAV:   1    -0.125543106911E+03   -0.10542E-03   -0.11213E-03 14208   0.130E-01    0.621E-03
DAV:   2    -0.125543106611E+03    0.29992E-06   -0.11390E-05 15168   0.142E-02    0.389E-03
DAV:   3    -0.125543106696E+03   -0.84947E-07   -0.15986E-06 16944   0.502E-03
  92 F= -.12712197E+03 E0= -.12712119E+03  d E =-.189185E-05  mag=     0.0000
       N       E                     dE             d eps       ncg     rms          rms(c)
DAV:   1    -0.125543139986E+03   -0.33375E-04   -0.12209E-04 14688   0.430E-02    0.226E-03
DAV:   2    -0.125543139923E+03    0.62993E-07   -0.15273E-06 14208   0.553E-03
  93 F= -.12712197E+03 E0= -.12712119E+03  d E =-.751233E-06  mag=     0.0000
       N       E                     dE             d eps       ncg     rms          rms(c)
DAV:   1    -0.125543238227E+03   -0.98241E-04   -0.10445E-03 14208   0.126E-01    0.624E-03
DAV:   2    -0.125543237780E+03    0.44787E-06   -0.12031E-05 14304   0.146E-02    0.382E-03
DAV:   3    -0.125543237817E+03   -0.37817E-07   -0.17201E-06 14304   0.550E-03
  94 F= -.12712197E+03 E0= -.12712119E+03  d E =-.119382E-05  mag=    -0.0000
       N       E                     dE             d eps       ncg     rms          rms(c)
DAV:   1    -0.125543197573E+03    0.40207E-04   -0.17839E-04 14304   0.524E-02    0.222E-03
DAV:   2    -0.125543197517E+03    0.55978E-07   -0.27091E-06 14208   0.726E-03
  95 F= -.12712197E+03 E0= -.12712119E+03  d E =-.142433E-05  mag=     0.0000
       N       E                     dE             d eps       ncg     rms          rms(c)
DAV:   1    -0.125543217944E+03   -0.20371E-04   -0.49234E-05 19680   0.272E-02    0.104E-03
DAV:   2    -0.125543217917E+03    0.27228E-07   -0.79520E-07 16992   0.432E-03
  96 F= -.12712197E+03 E0= -.12712119E+03  d E =-.203376E-06  mag=     0.0000
       N       E                     dE             d eps       ncg     rms          rms(c)
DAV:   1    -0.125543278663E+03   -0.60719E-04   -0.40597E-04 14208   0.792E-02    0.380E-03
DAV:   2    -0.125543278490E+03    0.17276E-06   -0.47666E-06 14208   0.933E-03
  97 F= -.12712198E+03 E0= -.12712119E+03  d E =-.292113E-06  mag=     0.0000
       N       E                     dE             d eps       ncg     rms          rms(c)
DAV:   1    -0.125543290620E+03   -0.11957E-04   -0.13122E-05 14208   0.150E-02    0.121E-03
DAV:   2    -0.125543290588E+03    0.31932E-07   -0.28006E-07 14208   0.278E-03
  98 F= -.12712198E+03 E0= -.12712119E+03  d E =-.967394E-07  mag=     0.0000
       N       E                     dE             d eps       ncg     rms          rms(c)
DAV:   1    -0.125543317604E+03   -0.26985E-04   -0.76727E-05 18000   0.341E-02    0.173E-03
DAV:   2    -0.125543317537E+03    0.67233E-07   -0.99106E-07 14352   0.480E-03
  99 F= -.12712198E+03 E0= -.12712119E+03  d E =-.245068E-06  mag=     0.0000
       N       E                     dE             d eps       ncg     rms          rms(c)
DAV:   1    -0.125543371320E+03   -0.53715E-04   -0.30327E-04 14400   0.678E-02    0.333E-03
DAV:   2    -0.125543371192E+03    0.12802E-06   -0.36318E-06 14352   0.855E-03
 100 F= -.12712198E+03 E0= -.12712119E+03  d E =-.302322E-06  mag=     0.0000
       N       E                     dE             d eps       ncg     rms          rms(c)
DAV:   1    -0.125543377997E+03   -0.66769E-05   -0.75627E-06 14352   0.123E-02    0.100E-03
DAV:   2    -0.125543377941E+03    0.55073E-07   -0.50531E-07 14208   0.378E-03
 101 F= -.12712198E+03 E0= -.12712119E+03  d E =-.346785E-06  mag=     0.0000
       N       E                     dE             d eps       ncg     rms          rms(c)
DAV:   1    -0.125543389787E+03   -0.11791E-04   -0.26797E-05 14208   0.216E-02    0.130E-03
DAV:   2    -0.125543389751E+03    0.36554E-07   -0.55407E-07 14208   0.375E-03
 102 F= -.12712198E+03 E0= -.12712119E+03  d E =-.533789E-06  mag=     0.0000
       N       E                     dE             d eps       ncg     rms          rms(c)
DAV:   1    -0.125543393501E+03   -0.37143E-05   -0.33801E-06 14304   0.777E-03    0.580E-04
DAV:   2    -0.125543393481E+03    0.20458E-07   -0.22859E-07 14208   0.245E-03
 103 F= -.12712198E+03 E0= -.12712119E+03  d E =-.144968E-06  mag=     0.0000
       N       E                     dE             d eps       ncg     rms          rms(c)
DAV:   1    -0.125543404616E+03   -0.11114E-04   -0.30108E-05 14208   0.218E-02    0.133E-03
DAV:   2    -0.125543404576E+03    0.40116E-07   -0.48148E-07 15072   0.298E-03
 104 F= -.12712198E+03 E0= -.12712119E+03  d E =-.484708E-06  mag=     0.0000
       N       E                     dE             d eps       ncg     rms          rms(c)
DAV:   1    -0.125543408998E+03   -0.43824E-05   -0.51777E-06 14496   0.946E-03    0.655E-04
DAV:   2    -0.125543408989E+03    0.87102E-08   -0.13074E-07 14208   0.183E-03
 105 F= -.12712198E+03 E0= -.12712119E+03  d E =-.967334E-07  mag=     0.0000
       N       E                     dE             d eps       ncg     rms          rms(c)
DAV:   1    -0.125543412050E+03   -0.30517E-05   -0.28557E-06 15696   0.707E-03    0.495E-04
DAV:   2    -0.125543412043E+03    0.72459E-08   -0.90522E-08 14208   0.156E-03
 106 F= -.12712198E+03 E0= -.12712119E+03  d E =0.568106E-07  mag=     0.0000
