  16  16   0   4
  0.2068905E+02  0.5048000E-09  0.5048000E-09  0.1500000E-08  0.5000000E-15
  1.000000000000000E-004
  CAR 
 Lattice                                 
      9.75996929    -21.29118111  301     -0.98010612      1.00000000
    -21.291  0.0000E+00  0.0000E+00  0.0000E+00  0.0000E+00
    -21.188  0.0000E+00  0.0000E+00  0.0000E+00  0.0000E+00
    -21.084  0.0000E+00  0.0000E+00  0.0000E+00  0.0000E+00
    -20.981  0.0000E+00  0.0000E+00  0.0000E+00  0.0000E+00
    -20.877  0.0000E+00  0.0000E+00  0.0000E+00  0.0000E+00
    -20.774  0.0000E+00  0.0000E+00  0.0000E+00  0.0000E+00
    -20.670  0.0000E+00  0.0000E+00  0.0000E+00  0.0000E+00
    -20.567  0.0000E+00  0.0000E+00  0.0000E+00  0.0000E+00
    -20.463  0.2910E-19  0.2910E-19  0.3012E-20  0.3012E-20
    -20.360  0.3336E-14  0.3337E-14  0.3453E-15  0.3454E-15
    -20.256  0.3323E-10  0.3324E-10  0.3440E-11  0.3440E-11
    -20.153  0.4565E-07  0.4565E-07  0.4728E-08  0.4728E-08
    -20.049  0.9346E-05  0.9346E-05  0.9720E-06  0.9721E-06
    -19.946  0.3146E-03  0.3146E-03  0.3353E-04  0.3353E-04
    -19.842  0.2131E-02  0.2131E-02  0.2541E-03  0.2541E-03
    -19.739  0.4412E-02  0.4412E-02  0.7107E-03  0.7107E-03
    -19.635  0.4914E-02  0.4914E-02  0.1219E-02  0.1219E-02
    -19.532  0.5171E-02  0.5171E-02  0.1755E-02  0.1755E-02
    -19.428  0.4662E-02  0.4662E-02  0.2237E-02  0.2237E-02
    -19.325  0.5678E-02  0.5678E-02  0.2825E-02  0.2825E-02
    -19.221  0.4275E-02  0.4275E-02  0.3267E-02  0.3267E-02
    -19.118  0.5293E-02  0.5293E-02  0.3815E-02  0.3815E-02
    -19.014  0.5886E-02  0.5886E-02  0.4424E-02  0.4424E-02
    -18.911  0.3664E-02  0.3664E-02  0.4804E-02  0.4804E-02
    -18.807  0.5372E-02  0.5372E-02  0.5360E-02  0.5360E-02
    -18.704  0.6350E-02  0.6350E-02  0.6017E-02  0.6017E-02
    -18.600  0.4392E-02  0.4392E-02  0.6471E-02  0.6471E-02
    -18.497  0.3445E-02  0.3445E-02  0.6828E-02  0.6828E-02
    -18.393  0.6807E-02  0.6807E-02  0.7533E-02  0.7533E-02
    -18.290  0.5947E-02  0.5947E-02  0.8148E-02  0.8148E-02
    -18.186  0.4232E-02  0.4232E-02  0.8586E-02  0.8586E-02
    -18.083  0.3515E-02  0.3515E-02  0.8950E-02  0.8950E-02
    -17.979  0.7880E-02  0.7880E-02  0.9766E-02  0.9766E-02
    -17.876  0.1270E-01  0.1270E-01  0.1108E-01  0.1108E-01
    -17.772  0.1145E-01  0.1145E-01  0.1227E-01  0.1227E-01
    -17.669  0.1142E-01  0.1142E-01  0.1345E-01  0.1345E-01
    -17.565  0.1340E-01  0.1340E-01  0.1483E-01  0.1483E-01
    -17.462  0.1759E-01  0.1759E-01  0.1666E-01  0.1666E-01
    -17.358  0.2162E-01  0.2162E-01  0.1889E-01  0.1889E-01
    -17.255  0.1842E-01  0.1842E-01  0.2080E-01  0.2080E-01
    -17.151  0.7279E-02  0.7279E-02  0.2155E-01  0.2155E-01
    -17.048  0.4777E-02  0.4777E-02  0.2205E-01  0.2205E-01
    -16.944  0.7289E-02  0.7289E-02  0.2280E-01  0.2280E-01
    -16.841  0.6733E-02  0.6733E-02  0.2350E-01  0.2350E-01
    -16.737  0.5495E-02  0.5495E-02  0.2407E-01  0.2407E-01
    -16.634  0.4555E-02  0.4555E-02  0.2454E-01  0.2454E-01
    -16.530  0.2639E-02  0.2639E-02  0.2481E-01  0.2481E-01
    -16.427  0.4652E-02  0.4652E-02  0.2529E-01  0.2529E-01
    -16.323  0.9303E-02  0.9303E-02  0.2626E-01  0.2626E-01
    -16.219  0.6150E-02  0.6150E-02  0.2689E-01  0.2689E-01
    -16.116  0.4778E-02  0.4778E-02  0.2739E-01  0.2739E-01
    -16.012  0.4319E-02  0.4319E-02  0.2783E-01  0.2783E-01
    -15.909  0.4137E-02  0.4137E-02  0.2826E-01  0.2826E-01
    -15.805  0.3964E-02  0.3964E-02  0.2867E-01  0.2867E-01
    -15.702  0.9683E-02  0.9683E-02  0.2967E-01  0.2967E-01
    -15.598  0.1352E-01  0.1352E-01  0.3107E-01  0.3107E-01
    -15.495  0.1431E-01  0.1431E-01  0.3256E-01  0.3256E-01
    -15.391  0.1642E-01  0.1642E-01  0.3425E-01  0.3425E-01
    -15.288  0.1394E-01  0.1394E-01  0.3570E-01  0.3570E-01
    -15.184  0.1205E-01  0.1205E-01  0.3695E-01  0.3695E-01
    -15.081  0.1472E-01  0.1472E-01  0.3847E-01  0.3847E-01
    -14.977  0.1858E-01  0.1858E-01  0.4039E-01  0.4039E-01
    -14.874  0.1508E-01  0.1508E-01  0.4195E-01  0.4195E-01
    -14.770  0.1313E-01  0.1313E-01  0.4331E-01  0.4331E-01
    -14.667  0.9702E-02  0.9702E-02  0.4432E-01  0.4432E-01
    -14.563  0.1078E-01  0.1078E-01  0.4543E-01  0.4543E-01
    -14.460  0.1674E-01  0.1674E-01  0.4716E-01  0.4716E-01
    -14.356  0.2042E-01  0.2042E-01  0.4928E-01  0.4928E-01
    -14.253  0.1370E-01  0.1370E-01  0.5070E-01  0.5070E-01
    -14.149  0.9106E-02  0.9106E-02  0.5164E-01  0.5164E-01
    -14.046  0.7544E-02  0.7544E-02  0.5242E-01  0.5242E-01
    -13.942  0.8242E-02  0.8242E-02  0.5327E-01  0.5327E-01
    -13.839  0.7608E-02  0.7608E-02  0.5406E-01  0.5406E-01
    -13.735  0.4974E-02  0.4974E-02  0.5457E-01  0.5457E-01
    -13.632  0.3111E-02  0.3111E-02  0.5490E-01  0.5490E-01
    -13.528  0.4712E-02  0.4712E-02  0.5538E-01  0.5538E-01
    -13.425  0.4513E-02  0.4513E-02  0.5585E-01  0.5585E-01
    -13.321  0.6300E-02  0.6300E-02  0.5650E-01  0.5650E-01
    -13.218  0.5832E-02  0.5832E-02  0.5711E-01  0.5711E-01
    -13.114  0.6568E-02  0.6568E-02  0.5779E-01  0.5779E-01
    -13.011  0.8158E-02  0.8158E-02  0.5863E-01  0.5863E-01
    -12.907  0.7657E-02  0.7657E-02  0.5942E-01  0.5942E-01
    -12.804  0.8238E-02  0.8238E-02  0.6028E-01  0.6028E-01
    -12.700  0.5828E-02  0.5828E-02  0.6088E-01  0.6088E-01
    -12.597  0.7005E-02  0.7005E-02  0.6160E-01  0.6160E-01
    -12.493  0.4859E-02  0.4859E-02  0.6211E-01  0.6211E-01
    -12.390  0.4516E-02  0.4516E-02  0.6257E-01  0.6257E-01
    -12.286  0.8668E-02  0.8668E-02  0.6347E-01  0.6347E-01
    -12.183  0.6623E-02  0.6623E-02  0.6416E-01  0.6416E-01
    -12.079  0.7151E-02  0.7151E-02  0.6490E-01  0.6490E-01
    -11.976  0.1260E-01  0.1260E-01  0.6620E-01  0.6620E-01
    -11.872  0.1644E-01  0.1644E-01  0.6790E-01  0.6790E-01
    -11.769  0.1487E-01  0.1487E-01  0.6944E-01  0.6944E-01
    -11.665  0.1472E-01  0.1472E-01  0.7096E-01  0.7096E-01
    -11.562  0.1666E-01  0.1666E-01  0.7269E-01  0.7269E-01
    -11.458  0.1479E-01  0.1479E-01  0.7422E-01  0.7422E-01
    -11.355  0.8104E-02  0.8104E-02  0.7506E-01  0.7506E-01
    -11.251  0.9659E-02  0.9659E-02  0.7606E-01  0.7606E-01
    -11.148  0.1180E-01  0.1180E-01  0.7728E-01  0.7728E-01
    -11.044  0.1150E-01  0.1150E-01  0.7847E-01  0.7847E-01
    -10.941  0.5715E-02  0.5715E-02  0.7906E-01  0.7906E-01
    -10.837  0.6284E-02  0.6284E-02  0.7971E-01  0.7971E-01
    -10.734  0.1568E-01  0.1568E-01  0.8133E-01  0.8133E-01
    -10.630  0.1774E-01  0.1774E-01  0.8317E-01  0.8317E-01
    -10.527  0.7970E-02  0.7970E-02  0.8400E-01  0.8400E-01
    -10.423  0.6437E-02  0.6437E-02  0.8466E-01  0.8466E-01
    -10.320  0.1243E-01  0.1243E-01  0.8595E-01  0.8595E-01
    -10.216  0.1944E-01  0.1944E-01  0.8796E-01  0.8796E-01
    -10.113  0.1500E-01  0.1500E-01  0.8951E-01  0.8951E-01
    -10.009  0.8574E-02  0.8574E-02  0.9040E-01  0.9040E-01
     -9.906  0.8852E-02  0.8852E-02  0.9132E-01  0.9132E-01
     -9.802  0.1066E-01  0.1066E-01  0.9242E-01  0.9242E-01
     -9.699  0.1107E-01  0.1107E-01  0.9357E-01  0.9357E-01
     -9.595  0.8642E-02  0.8642E-02  0.9446E-01  0.9446E-01
     -9.492  0.1057E-01  0.1057E-01  0.9556E-01  0.9556E-01
     -9.388  0.1007E-01  0.1007E-01  0.9660E-01  0.9660E-01
     -9.285  0.1001E-01  0.1001E-01  0.9763E-01  0.9763E-01
     -9.181  0.8529E-02  0.8529E-02  0.9852E-01  0.9852E-01
     -9.078  0.2797E-02  0.2797E-02  0.9881E-01  0.9881E-01
     -8.974  0.5491E-02  0.5491E-02  0.9937E-01  0.9937E-01
     -8.871  0.1395E-01  0.1395E-01  0.1008E+00  0.1008E+00
     -8.767  0.1923E-01  0.1923E-01  0.1028E+00  0.1028E+00
     -8.664  0.1550E-01  0.1550E-01  0.1044E+00  0.1044E+00
     -8.560  0.8464E-02  0.8464E-02  0.1053E+00  0.1053E+00
     -8.457  0.8499E-02  0.8499E-02  0.1062E+00  0.1062E+00
     -8.353  0.1053E-01  0.1053E-01  0.1073E+00  0.1073E+00
     -8.250  0.1912E-01  0.1912E-01  0.1092E+00  0.1092E+00
     -8.146  0.2341E-01  0.2341E-01  0.1117E+00  0.1117E+00
     -8.043  0.2246E-01  0.2246E-01  0.1140E+00  0.1140E+00
     -7.939  0.1557E-01  0.1557E-01  0.1156E+00  0.1156E+00
     -7.836  0.1354E-01  0.1354E-01  0.1170E+00  0.1170E+00
     -7.732  0.1489E-01  0.1489E-01  0.1185E+00  0.1185E+00
     -7.629  0.2610E-01  0.2610E-01  0.1212E+00  0.1212E+00
     -7.525  0.2750E-01  0.2750E-01  0.1241E+00  0.1241E+00
     -7.422  0.2098E-01  0.2098E-01  0.1263E+00  0.1263E+00
     -7.318  0.2114E-01  0.2114E-01  0.1284E+00  0.1284E+00
     -7.215  0.2422E-01  0.2422E-01  0.1310E+00  0.1310E+00
     -7.111  0.2447E-01  0.2447E-01  0.1335E+00  0.1335E+00
     -7.008  0.2651E-01  0.2651E-01  0.1362E+00  0.1362E+00
     -6.904  0.2164E-01  0.2164E-01  0.1385E+00  0.1385E+00
     -6.801  0.2079E-01  0.2079E-01  0.1406E+00  0.1406E+00
     -6.697  0.2811E-01  0.2811E-01  0.1435E+00  0.1435E+00
     -6.594  0.2195E-01  0.2195E-01  0.1458E+00  0.1458E+00
     -6.490  0.2207E-01  0.2207E-01  0.1481E+00  0.1481E+00
     -6.387  0.2509E-01  0.2509E-01  0.1507E+00  0.1507E+00
     -6.283  0.2432E-01  0.2432E-01  0.1532E+00  0.1532E+00
     -6.180  0.2250E-01  0.2250E-01  0.1555E+00  0.1555E+00
     -6.076  0.1735E-01  0.1735E-01  0.1573E+00  0.1573E+00
     -5.973  0.1727E-01  0.1727E-01  0.1591E+00  0.1591E+00
     -5.869  0.2244E-01  0.2244E-01  0.1614E+00  0.1614E+00
     -5.766  0.2643E-01  0.2643E-01  0.1642E+00  0.1642E+00
     -5.662  0.1993E-01  0.1993E-01  0.1662E+00  0.1662E+00
     -5.559  0.1985E-01  0.1985E-01  0.1683E+00  0.1683E+00
     -5.455  0.2225E-01  0.2225E-01  0.1706E+00  0.1706E+00
     -5.352  0.2867E-01  0.2867E-01  0.1736E+00  0.1736E+00
     -5.248  0.2607E-01  0.2607E-01  0.1763E+00  0.1763E+00
     -5.145  0.1447E-01  0.1447E-01  0.1778E+00  0.1778E+00
     -5.041  0.1282E-01  0.1282E-01  0.1791E+00  0.1791E+00
     -4.938  0.1850E-01  0.1850E-01  0.1810E+00  0.1810E+00
     -4.834  0.1876E-01  0.1876E-01  0.1829E+00  0.1829E+00
     -4.731  0.1705E-01  0.1705E-01  0.1847E+00  0.1847E+00
     -4.627  0.1616E-01  0.1616E-01  0.1864E+00  0.1864E+00
     -4.524  0.1662E-01  0.1662E-01  0.1881E+00  0.1881E+00
     -4.420  0.1878E-01  0.1878E-01  0.1900E+00  0.1900E+00
     -4.317  0.2056E-01  0.2056E-01  0.1922E+00  0.1922E+00
     -4.213  0.2778E-01  0.2778E-01  0.1950E+00  0.1950E+00
     -4.110  0.4105E-01  0.4105E-01  0.1993E+00  0.1993E+00
     -4.006  0.3593E-01  0.3593E-01  0.2030E+00  0.2030E+00
     -3.903  0.2551E-01  0.2551E-01  0.2057E+00  0.2057E+00
     -3.799  0.1729E-01  0.1729E-01  0.2074E+00  0.2074E+00
     -3.696  0.1316E-01  0.1316E-01  0.2088E+00  0.2088E+00
     -3.592  0.1494E-01  0.1494E-01  0.2104E+00  0.2104E+00
     -3.489  0.1859E-01  0.1859E-01  0.2123E+00  0.2123E+00
     -3.385  0.2210E-01  0.2210E-01  0.2146E+00  0.2146E+00
     -3.282  0.1543E-01  0.1543E-01  0.2162E+00  0.2162E+00
     -3.178  0.1416E-01  0.1416E-01  0.2176E+00  0.2176E+00
     -3.075  0.1643E-01  0.1643E-01  0.2193E+00  0.2193E+00
     -2.971  0.2148E-01  0.2148E-01  0.2216E+00  0.2216E+00
     -2.867  0.2550E-01  0.2550E-01  0.2242E+00  0.2242E+00
     -2.764  0.1481E-01  0.1481E-01  0.2257E+00  0.2257E+00
     -2.660  0.1346E-01  0.1346E-01  0.2271E+00  0.2271E+00
     -2.557  0.2154E-01  0.2154E-01  0.2293E+00  0.2293E+00
     -2.453  0.2076E-01  0.2076E-01  0.2315E+00  0.2315E+00
     -2.350  0.1926E-01  0.1926E-01  0.2335E+00  0.2335E+00
     -2.246  0.2271E-01  0.2271E-01  0.2358E+00  0.2358E+00
     -2.143  0.1694E-01  0.1694E-01  0.2376E+00  0.2376E+00
     -2.039  0.4797E-02  0.4797E-02  0.2381E+00  0.2381E+00
     -1.936  0.4461E-02  0.4461E-02  0.2385E+00  0.2385E+00
     -1.832  0.8229E-02  0.8229E-02  0.2394E+00  0.2394E+00
     -1.729  0.5253E-02  0.5253E-02  0.2399E+00  0.2399E+00
     -1.625  0.4948E-02  0.4948E-02  0.2405E+00  0.2405E+00
     -1.522  0.7597E-02  0.7597E-02  0.2412E+00  0.2412E+00
     -1.418  0.5163E-02  0.5163E-02  0.2418E+00  0.2418E+00
     -1.315  0.2356E-02  0.2356E-02  0.2420E+00  0.2420E+00
     -1.211  0.5175E-03  0.5175E-03  0.2421E+00  0.2421E+00
     -1.108  0.6699E-04  0.6699E-04  0.2421E+00  0.2421E+00
     -1.004  0.6104E-03  0.6104E-03  0.2421E+00  0.2421E+00
     -0.901  0.2666E-02  0.2666E-02  0.2424E+00  0.2424E+00
     -0.797  0.3808E-02  0.3808E-02  0.2428E+00  0.2428E+00
     -0.694  0.4981E-02  0.4981E-02  0.2433E+00  0.2433E+00
     -0.590  0.1024E-01  0.1024E-01  0.2444E+00  0.2444E+00
     -0.487  0.1047E-01  0.1047E-01  0.2455E+00  0.2455E+00
     -0.383  0.1023E-01  0.1023E-01  0.2465E+00  0.2465E+00
     -0.280  0.1263E-01  0.1263E-01  0.2478E+00  0.2478E+00
     -0.176  0.1099E-01  0.1099E-01  0.2490E+00  0.2490E+00
     -0.073  0.6371E-02  0.6371E-02  0.2496E+00  0.2496E+00
      0.031  0.2588E-02  0.2588E-02  0.2499E+00  0.2499E+00
      0.134  0.8684E-03  0.8684E-03  0.2500E+00  0.2500E+00
      0.238  0.1707E-02  0.1707E-02  0.2502E+00  0.2502E+00
      0.341  0.6661E-02  0.6661E-02  0.2509E+00  0.2509E+00
      0.445  0.1009E-01  0.1009E-01  0.2519E+00  0.2519E+00
      0.548  0.7092E-02  0.7092E-02  0.2526E+00  0.2526E+00
      0.652  0.3642E-02  0.3642E-02  0.2530E+00  0.2530E+00
      0.755  0.7548E-02  0.7548E-02  0.2538E+00  0.2538E+00
      0.859  0.1236E-01  0.1236E-01  0.2551E+00  0.2551E+00
      0.962  0.1321E-01  0.1321E-01  0.2564E+00  0.2564E+00
      1.066  0.1028E-01  0.1028E-01  0.2575E+00  0.2575E+00
      1.169  0.4832E-02  0.4832E-02  0.2580E+00  0.2580E+00
      1.273  0.5052E-02  0.5052E-02  0.2585E+00  0.2585E+00
      1.376  0.5347E-02  0.5347E-02  0.2591E+00  0.2591E+00
      1.480  0.5129E-02  0.5129E-02  0.2596E+00  0.2596E+00
      1.583  0.6907E-02  0.6907E-02  0.2603E+00  0.2603E+00
      1.687  0.1140E-01  0.1140E-01  0.2615E+00  0.2615E+00
      1.790  0.8464E-02  0.8464E-02  0.2624E+00  0.2624E+00
      1.894  0.3194E-02  0.3194E-02  0.2627E+00  0.2627E+00
      1.997  0.3118E-02  0.3118E-02  0.2630E+00  0.2630E+00
      2.101  0.8638E-02  0.8638E-02  0.2639E+00  0.2639E+00
      2.204  0.1625E-01  0.1625E-01  0.2656E+00  0.2656E+00
      2.308  0.1409E-01  0.1409E-01  0.2671E+00  0.2671E+00
      2.411  0.1127E-01  0.1127E-01  0.2682E+00  0.2682E+00
      2.515  0.1207E-01  0.1207E-01  0.2695E+00  0.2695E+00
      2.618  0.1203E-01  0.1203E-01  0.2707E+00  0.2707E+00
      2.722  0.1055E-01  0.1055E-01  0.2718E+00  0.2718E+00
      2.825  0.6911E-02  0.6915E-02  0.2725E+00  0.2725E+00
      2.929  0.7864E-02  0.7872E-02  0.2734E+00  0.2734E+00
      3.032  0.1309E-01  0.1309E-01  0.2747E+00  0.2747E+00
      3.136  0.1359E-01  0.1359E-01  0.2761E+00  0.2761E+00
      3.239  0.1373E-01  0.1373E-01  0.2775E+00  0.2775E+00
      3.343  0.1154E-01  0.1154E-01  0.2787E+00  0.2787E+00
      3.446  0.7313E-02  0.7312E-02  0.2795E+00  0.2795E+00
      3.550  0.1105E-01  0.1105E-01  0.2806E+00  0.2806E+00
      3.653  0.1303E-01  0.1302E-01  0.2820E+00  0.2820E+00
      3.757  0.9521E-02  0.9519E-02  0.2830E+00  0.2830E+00
      3.860  0.1140E-01  0.1141E-01  0.2842E+00  0.2842E+00
      3.964  0.1875E-01  0.1875E-01  0.2861E+00  0.2861E+00
      4.067  0.1647E-01  0.1645E-01  0.2878E+00  0.2878E+00
      4.171  0.1294E-01  0.1295E-01  0.2891E+00  0.2891E+00
      4.274  0.1541E-01  0.1542E-01  0.2907E+00  0.2907E+00
      4.378  0.1641E-01  0.1641E-01  0.2924E+00  0.2924E+00
      4.481  0.1341E-01  0.1340E-01  0.2938E+00  0.2938E+00
      4.585  0.1447E-01  0.1446E-01  0.2953E+00  0.2953E+00
      4.688  0.1269E-01  0.1270E-01  0.2966E+00  0.2966E+00
      4.792  0.1527E-01  0.1530E-01  0.2982E+00  0.2982E+00
      4.895  0.1822E-01  0.1823E-01  0.3001E+00  0.3001E+00
      4.999  0.2062E-01  0.2060E-01  0.3022E+00  0.3022E+00
      5.102  0.1725E-01  0.1727E-01  0.3040E+00  0.3040E+00
      5.206  0.1613E-01  0.1611E-01  0.3057E+00  0.3057E+00
      5.309  0.1469E-01  0.1469E-01  0.3072E+00  0.3072E+00
      5.413  0.1768E-01  0.1772E-01  0.3090E+00  0.3090E+00
      5.516  0.1971E-01  0.1969E-01  0.3111E+00  0.3111E+00
      5.620  0.1581E-01  0.1580E-01  0.3127E+00  0.3127E+00
      5.723  0.1455E-01  0.1456E-01  0.3142E+00  0.3142E+00
      5.827  0.1995E-01  0.1996E-01  0.3163E+00  0.3163E+00
      5.930  0.2477E-01  0.2475E-01  0.3188E+00  0.3188E+00
      6.034  0.2519E-01  0.2520E-01  0.3215E+00  0.3215E+00
      6.137  0.2693E-01  0.2696E-01  0.3242E+00  0.3242E+00
      6.241  0.2629E-01  0.2629E-01  0.3270E+00  0.3270E+00
      6.344  0.2545E-01  0.2544E-01  0.3296E+00  0.3296E+00
      6.448  0.2145E-01  0.2143E-01  0.3318E+00  0.3318E+00
      6.551  0.1818E-01  0.1817E-01  0.3337E+00  0.3337E+00
      6.655  0.2644E-01  0.2648E-01  0.3364E+00  0.3364E+00
      6.758  0.3331E-01  0.3332E-01  0.3399E+00  0.3399E+00
      6.862  0.2934E-01  0.2931E-01  0.3429E+00  0.3429E+00
      6.965  0.3007E-01  0.3008E-01  0.3460E+00  0.3460E+00
      7.069  0.3446E-01  0.3445E-01  0.3496E+00  0.3496E+00
      7.172  0.2859E-01  0.2860E-01  0.3526E+00  0.3526E+00
      7.276  0.2919E-01  0.2923E-01  0.3556E+00  0.3556E+00
      7.379  0.3953E-01  0.3950E-01  0.3597E+00  0.3597E+00
      7.483  0.3191E-01  0.3190E-01  0.3630E+00  0.3630E+00
      7.586  0.2365E-01  0.2366E-01  0.3654E+00  0.3654E+00
      7.690  0.2554E-01  0.2557E-01  0.3681E+00  0.3681E+00
      7.793  0.2519E-01  0.2517E-01  0.3707E+00  0.3707E+00
      7.897  0.1838E-01  0.1835E-01  0.3726E+00  0.3726E+00
      8.000  0.1217E-01  0.1215E-01  0.3738E+00  0.3738E+00
      8.104  0.6006E-02  0.5990E-02  0.3745E+00  0.3745E+00
      8.207  0.1913E-02  0.1902E-02  0.3747E+00  0.3747E+00
      8.311  0.1157E-02  0.1160E-02  0.3748E+00  0.3748E+00
      8.414  0.1665E-02  0.1663E-02  0.3749E+00  0.3749E+00
      8.518  0.5189E-03  0.5154E-03  0.3750E+00  0.3750E+00
      8.621  0.2520E-04  0.2487E-04  0.3750E+00  0.3750E+00
      8.725  0.1713E-06  0.1679E-06  0.3750E+00  0.3750E+00
      8.828  0.1517E-09  0.1477E-09  0.3750E+00  0.3750E+00
      8.932  0.1681E-13  0.1625E-13  0.3750E+00  0.3750E+00
      9.035  0.0000E+00  0.0000E+00  0.3750E+00  0.3750E+00
      9.139  0.0000E+00  0.0000E+00  0.3750E+00  0.3750E+00
      9.242  0.0000E+00  0.0000E+00  0.3750E+00  0.3750E+00
      9.346  0.0000E+00  0.0000E+00  0.3750E+00  0.3750E+00
      9.449  0.0000E+00  0.0000E+00  0.3750E+00  0.3750E+00
      9.553  0.0000E+00  0.0000E+00  0.3750E+00  0.3750E+00
      9.656  0.0000E+00  0.0000E+00  0.3750E+00  0.3750E+00
      9.760  0.0000E+00  0.0000E+00  0.3750E+00  0.3750E+00
