Lattice                                 
           1
     4.371696    2.524000    0.000000
    -4.371696    2.524000    0.000000
     0.000000    0.000000   15.000000
   B    C 
     2    14
Direct configuration=     1
   0.33833034  0.66916432  0.10000000
   0.67165522  0.33584146  0.10000000
   0.16373946  0.31999962  0.10000000
   0.32250218  0.16126397  0.10000000
   0.16376430  0.84376384  0.10000000
   0.84623863  0.16123684  0.10000000
   0.68749850  0.84373000  0.10000000
   0.84626736  0.68499594  0.10000000
   0.24999933  0.24999967  0.32633333
   0.41666633  0.08333267  0.32633333
   0.24999933  0.74999967  0.32633333
   0.41666633  0.58333267  0.32633333
   0.74999933  0.24999967  0.32633333
   0.91666633  0.08333267  0.32633333
   0.74999933  0.74999967  0.32633333
   0.91666633  0.58333267  0.32633333
Direct configuration=     2
   0.33844108  0.66905605  0.10014359
   0.67179360  0.33570176  0.10008395
   0.16692486  0.32631915  0.09994232
   0.32851149  0.16430036  0.09997340
   0.16675446  0.84076805  0.09995429
   0.84305436  0.16440433  0.09995884
   0.68119525  0.84057039  0.09994268
   0.84320586  0.67899795  0.09997364
   0.24986343  0.24959598  0.32640632
   0.41630160  0.08328221  0.32639701
   0.24982229  0.75018852  0.32627021
   0.41677145  0.58322392  0.32622983
   0.75003419  0.24995612  0.32620860
   0.91686853  0.08312287  0.32638241
   0.75040365  0.75014245  0.32640781
   0.91671257  0.58369523  0.32639177
Direct configuration=     3
   0.33836056  0.66913478  0.10003918
   0.67169297  0.33580334  0.10002290
   0.16460857  0.32172384  0.09998426
   0.32414176  0.16209242  0.09999274
   0.16458014  0.84294647  0.09998753
   0.84536984  0.16210106  0.09998877
   0.68577872  0.84286793  0.09998436
   0.84543206  0.68335945  0.09999281
   0.24996225  0.24988952  0.32635325
   0.41656682  0.08331890  0.32635071
   0.24995103  0.75005119  0.32631611
   0.41669501  0.58330300  0.32630509
   0.75000884  0.24998779  0.32629930
   0.91672150  0.08327542  0.32634672
   0.75010965  0.75003862  0.32635365
   0.91667895  0.58343159  0.32634928
Direct configuration=     4
   0.33836092  0.66913961  0.10013304
   0.67169229  0.33580416  0.10007775
   0.16455759  0.32172765  0.09994745
   0.32414696  0.16213035  0.09997172
   0.16455971  0.84295273  0.09996122
   0.84539614  0.16209307  0.09995763
   0.68576717  0.84292409  0.09994776
   0.84538935  0.68335867  0.09997211
   0.24995675  0.24983658  0.32640362
   0.41653919  0.08329350  0.32638930
   0.24993604  0.75006557  0.32627640
   0.41671691  0.58328116  0.32623783
   0.75001509  0.24997944  0.32622230
   0.91675960  0.08323648  0.32637922
   0.75016098  0.75004307  0.32640487
   0.91670399  0.58345921  0.32638445
Direct configuration=     5
   0.33836105  0.66914128  0.10016543
   0.67169206  0.33580444  0.10009668
   0.16454000  0.32172896  0.09993475
   0.32414875  0.16214344  0.09996447
   0.16455266  0.84295489  0.09995214
   0.84540522  0.16209031  0.09994688
   0.68576319  0.84294347  0.09993512
   0.84537461  0.68335840  0.09996497
   0.24995485  0.24981831  0.32642100
   0.41652966  0.08328473  0.32640262
   0.24993087  0.75007053  0.32626270
   0.41672447  0.58327362  0.32621461
   0.75001724  0.24997656  0.32619572
   0.91677274  0.08322305  0.32639043
   0.75017869  0.75004461  0.32642254
   0.91671263  0.58346874  0.32639658
Direct configuration=     6
   0.33829054  0.66918984  0.10024889
   0.67169504  0.33581539  0.10015081
   0.16470403  0.32177706  0.09990560
   0.32404720  0.16209089  0.09993601
   0.16451539  0.84301011  0.09994010
   0.84528987  0.16217970  0.09990191
   0.68574923  0.84282255  0.09990635
   0.84539001  0.68344651  0.09993697
   0.25001747  0.24988722  0.32646449
   0.41663795  0.08329709  0.32641490
   0.25001327  0.74998708  0.32623482
   0.41671675  0.58327728  0.32617271
   0.75005295  0.24994329  0.32616154
   0.91673105  0.08326282  0.32641931
   0.75011059  0.74998163  0.32646591
   0.91669733  0.58335689  0.32640634
Direct configuration=     7
   0.33833550  0.66915887  0.10019567
   0.67169314  0.33580840  0.10011629
   0.16459942  0.32174639  0.09992419
   0.32411196  0.16212440  0.09995416
   0.16453915  0.84297489  0.09994778
   0.84536343  0.16212270  0.09993059
   0.68575813  0.84289966  0.09992470
   0.84538019  0.68339032  0.09995482
   0.24997753  0.24984327  0.32643676
   0.41656889  0.08328921  0.32640707
   0.24996072  0.75004030  0.32625260
   0.41672167  0.58327495  0.32619943
   0.75003018  0.24996451  0.32618334
   0.91675764  0.08323746  0.32640089
   0.75015402  0.75002179  0.32643826
   0.91670708  0.58342822  0.32640012
Direct configuration=     8
   0.33831273  0.66918750  0.10022101
   0.67165158  0.33584501  0.10013408
   0.16456171  0.32176689  0.09991543
   0.32412604  0.16211177  0.09994012
   0.16450295  0.84299108  0.09995166
   0.84537757  0.16213209  0.09990368
   0.68572775  0.84292976  0.09991626
   0.84540266  0.68338739  0.09994109
   0.25000446  0.24986125  0.32644817
   0.41661744  0.08328314  0.32639666
   0.24999461  0.75000487  0.32624803
   0.41673003  0.58326514  0.32620235
   0.75004806  0.24994640  0.32619735
   0.91675358  0.08324085  0.32641252
   0.75013525  0.74999373  0.32644896
   0.91671226  0.58337845  0.32638930
Direct configuration=     9
   0.33832262  0.66917506  0.10021000
   0.67166964  0.33582910  0.10012635
   0.16457810  0.32175798  0.09991924
   0.32411992  0.16211726  0.09994622
   0.16451868  0.84298405  0.09994998
   0.84537142  0.16212801  0.09991538
   0.68574095  0.84291668  0.09991993
   0.84539290  0.68338867  0.09994706
   0.24999276  0.24985344  0.32644321
   0.41659634  0.08328578  0.32640118
   0.24997988  0.75002026  0.32625001
   0.41672640  0.58326940  0.32620108
   0.75004029  0.24995427  0.32619126
   0.91675534  0.08323938  0.32640747
   0.75014341  0.75000593  0.32644431
   0.91671001  0.58340008  0.32639400
Direct configuration=    10
   0.33829899  0.66919872  0.10022700
   0.67165303  0.33584904  0.10013632
   0.16456242  0.32176703  0.09991087
   0.32410531  0.16215247  0.09993646
   0.16451434  0.84299127  0.09995538
   0.84535870  0.16214216  0.09989138
   0.68573445  0.84294156  0.09991196
   0.84535040  0.68340031  0.09993768
   0.25000657  0.24983067  0.32644894
   0.41660892  0.08326512  0.32638975
   0.24999236  0.75000649  0.32624760
   0.41674614  0.58324880  0.32621228
   0.75005587  0.24993713  0.32621073
   0.91677664  0.08321713  0.32641861
   0.75016472  0.74999073  0.32644926
   0.91672979  0.58338670  0.32638246
Direct configuration=    11
   0.33829041  0.66920731  0.10023318
   0.67164700  0.33585628  0.10013994
   0.16455673  0.32177032  0.09990782
   0.32410000  0.16216526  0.09993292
   0.16451277  0.84299390  0.09995734
   0.84535408  0.16214730  0.09988266
   0.68573209  0.84295060  0.09990906
   0.84533497  0.68340454  0.09993428
   0.25001159  0.24982240  0.32645102
   0.41661349  0.08325762  0.32638560
   0.24999689  0.75000149  0.32624673
   0.41675332  0.58324131  0.32621635
   0.75006152  0.24993090  0.32621780
   0.91678438  0.08320905  0.32642265
   0.75017246  0.74998521  0.32645106
   0.91673697  0.58338184  0.32637827
Direct configuration=    12
   0.33828553  0.66921415  0.10024181
   0.67163779  0.33586507  0.10013934
   0.16454512  0.32180442  0.09989673
   0.32407138  0.16216807  0.09993096
   0.16447487  0.84302573  0.09996166
   0.84532882  0.16217763  0.09986481
   0.68569928  0.84296390  0.09989844
   0.84533341  0.68343842  0.09993272
   0.25002760  0.24978847  0.32645277
   0.41661859  0.08323511  0.32638220
   0.25001051  0.74998712  0.32624421
   0.41677300  0.58322023  0.32622937
   0.75008065  0.24991061  0.32623041
   0.91680886  0.08318284  0.32643410
   0.75020538  0.74996834  0.32645229
   0.91675787  0.58337522  0.32637484
Direct configuration=    13
   0.33828401  0.66921628  0.10024449
   0.67163492  0.33586781  0.10013915
   0.16454151  0.32181503  0.09989328
   0.32406247  0.16216895  0.09993035
   0.16446308  0.84303563  0.09996301
   0.84532097  0.16218707  0.09985925
   0.68568907  0.84296804  0.09989513
   0.84533293  0.68344896  0.09993223
   0.25003258  0.24977791  0.32645331
   0.41662017  0.08322810  0.32638115
   0.25001475  0.74998265  0.32624343
   0.41677913  0.58321367  0.32623343
   0.75008660  0.24990430  0.32623433
   0.91681648  0.08317468  0.32643767
   0.75021562  0.74996309  0.32645267
   0.91676438  0.58337316  0.32637378
Direct configuration=    14
   0.33826516  0.66923609  0.10024492
   0.67161735  0.33588728  0.10013192
   0.16452028  0.32183279  0.09988222
   0.32404338  0.16219099  0.09993330
   0.16444547  0.84305391  0.09996719
   0.84530276  0.16220734  0.09984681
   0.68567285  0.84299204  0.09988451
   0.84531056  0.68346846  0.09993557
   0.25005264  0.24976039  0.32645439
   0.41664179  0.08320879  0.32638448
   0.25003544  0.74996067  0.32624257
   0.41679731  0.58319422  0.32624264
   0.75010560  0.24988413  0.32623920
   0.91683370  0.08315623  0.32644629
   0.75023195  0.74994178  0.32645356
   0.91678242  0.58335022  0.32637709
Direct configuration=    15
   0.33820862  0.66929551  0.10024618
   0.67156463  0.33594571  0.10011023
   0.16445658  0.32188610  0.09984901
   0.32398609  0.16225709  0.09994215
   0.16439265  0.84310873  0.09997972
   0.84524815  0.16226814  0.09980949
   0.68562420  0.84306405  0.09985267
   0.84524345  0.68352696  0.09994558
   0.25011283  0.24970783  0.32645762
   0.41670666  0.08315083  0.32639450
   0.25009752  0.74989475  0.32623999
   0.41685185  0.58313586  0.32627027
   0.75016261  0.24982363  0.32625382
   0.91688536  0.08310088  0.32647218
   0.75028093  0.74987787  0.32645624
   0.91683654  0.58328139  0.32638703
Direct configuration=    16
   0.33809554  0.66941436  0.10024872
   0.67145920  0.33606257  0.10006686
   0.16432920  0.32199272  0.09978259
   0.32387151  0.16238931  0.09995983
   0.16428700  0.84321837  0.10000479
   0.84513893  0.16238976  0.09973484
   0.68552689  0.84320805  0.09978898
   0.84510924  0.68364395  0.09996561
   0.25023319  0.24960270  0.32646408
   0.41683639  0.08303492  0.32641453
   0.25022166  0.74976290  0.32623482
   0.41696093  0.58301915  0.32632553
   0.75027663  0.24970263  0.32628304
   0.91698868  0.08299019  0.32652394
   0.75037889  0.74975004  0.32646160
   0.91694478  0.58314374  0.32640691
Direct configuration=    17
   0.33812814  0.66938009  0.10024798
   0.67148960  0.33602887  0.10007936
   0.16436593  0.32196197  0.09980174
   0.32390455  0.16235119  0.09995473
   0.16431747  0.84318676  0.09999756
   0.84517043  0.16235469  0.09975636
   0.68555494  0.84316653  0.09980734
   0.84514794  0.68361022  0.09995983
   0.25019848  0.24963302  0.32646222
   0.41679899  0.08306834  0.32640876
   0.25018587  0.74980091  0.32623631
   0.41692948  0.58305280  0.32630960
   0.75024375  0.24973752  0.32627462
   0.91695889  0.08302210  0.32650902
   0.75035065  0.74978690  0.32646005
   0.91691357  0.58318343  0.32640118
Direct configuration=    18
   0.33811496  0.66939454  0.10024534
   0.67147432  0.33604427  0.10007531
   0.16435456  0.32197633  0.09979621
   0.32389323  0.16236302  0.09995557
   0.16430437  0.84319986  0.10000192
   0.84515866  0.16236816  0.09974739
   0.68554090  0.84317839  0.09980210
   0.84513730  0.68362306  0.09996092
   0.25021060  0.24961959  0.32646505
   0.41681155  0.08305467  0.32641104
   0.25019786  0.74978803  0.32623830
   0.41694269  0.58303883  0.32631209
   0.75025611  0.24972422  0.32627726
   0.91697188  0.08300835  0.32651186
   0.75036318  0.74977389  0.32646286
   0.91692649  0.58317012  0.32640344
Direct configuration=    19
   0.33807542  0.66943791  0.10023742
   0.67142848  0.33609048  0.10006317
   0.16432046  0.32201940  0.09977963
   0.32385928  0.16239852  0.09995806
   0.16426507  0.84323916  0.10001499
   0.84512337  0.16240859  0.09972046
   0.68549877  0.84321398  0.09978638
   0.84510538  0.68366157  0.09996419
   0.25024696  0.24957932  0.32647354
   0.41684922  0.08301365  0.32641790
   0.25023384  0.74974937  0.32624427
   0.41698231  0.58299691  0.32631955
   0.75029320  0.24968431  0.32628520
   0.91701084  0.08296710  0.32652037
   0.75040079  0.74973487  0.32647130
   0.91696525  0.58313019  0.32641023
Direct configuration=    20
   0.33799634  0.66952464  0.10022157
   0.67133681  0.33618288  0.10003887
   0.16425227  0.32210554  0.09974646
   0.32379139  0.16246953  0.09996306
   0.16418647  0.84331777  0.10004114
   0.84505279  0.16248943  0.09966660
   0.68541450  0.84328515  0.09975493
   0.84504153  0.68373861  0.09997072
   0.25031968  0.24949878  0.32649051
   0.41692458  0.08293161  0.32643163
   0.25030580  0.74967205  0.32625621
   0.41706157  0.58291308  0.32633448
   0.75036738  0.24960451  0.32630108
   0.91708877  0.08288460  0.32653740
   0.75047600  0.74965684  0.32648818
   0.91704278  0.58305032  0.32642381
Direct configuration=    21
   0.33783819  0.66969810  0.10018988
   0.67115346  0.33636770  0.09999027
   0.16411587  0.32227782  0.09968013
   0.32365559  0.16261154  0.09997305
   0.16402928  0.84347498  0.10009344
   0.84491162  0.16265112  0.09955889
   0.68524598  0.84342749  0.09969204
   0.84491385  0.68389268  0.09998379
   0.25046512  0.24933770  0.32652447
   0.41707529  0.08276754  0.32645908
   0.25044973  0.74951741  0.32628010
   0.41722008  0.58274542  0.32636434
   0.75051573  0.24944489  0.32633283
   0.91724463  0.08271959  0.32657146
   0.75062643  0.74950077  0.32652193
   0.91719784  0.58289059  0.32645097
Direct configuration=    22
   0.33752187  0.67004502  0.10012649
   0.67078675  0.33673732  0.09989308
   0.16384308  0.32262237  0.09954747
   0.32338399  0.16289557  0.09999303
   0.16371489  0.84378941  0.10019804
   0.84462928  0.16297449  0.09934347
   0.68490892  0.84371218  0.09956626
   0.84465847  0.68420082  0.10000992
   0.25075599  0.24901554  0.32659238
   0.41737672  0.08243941  0.32651397
   0.25073758  0.74920813  0.32632786
   0.41753710  0.58241009  0.32642406
   0.75081244  0.24912567  0.32639634
   0.91755635  0.08238957  0.32663958
   0.75092728  0.74918862  0.32658943
   0.91750795  0.58257113  0.32650530
Direct configuration=    23
   0.33749777  0.67006969  0.10012076
   0.67076541  0.33676135  0.09988657
   0.16382163  0.32264594  0.09953780
   0.32335760  0.16292150  0.09999396
   0.16369346  0.84381423  0.10020630
   0.84460356  0.16299990  0.09932677
   0.68488837  0.84373723  0.09955711
   0.84463206  0.68422707  0.10001132
   0.25077999  0.24898995  0.32659804
   0.41739943  0.08241476  0.32651838
   0.25076152  0.74918277  0.32633259
   0.41755991  0.58238565  0.32642761
   0.75083623  0.24910046  0.32640095
   0.91757938  0.08236488  0.32664374
   0.75095144  0.74916320  0.32659510
   0.91753092  0.58254675  0.32650967
Direct configuration=    24
   0.33742546  0.67014371  0.10010360
   0.67070137  0.33683344  0.09986704
   0.16375726  0.32271665  0.09950881
   0.32327841  0.16299932  0.09999674
   0.16362917  0.84388869  0.10023110
   0.84452639  0.16307613  0.09927666
   0.68482673  0.84381235  0.09952964
   0.84455284  0.68430583  0.10001553
   0.25085197  0.24891320  0.32661502
   0.41746757  0.08234083  0.32653159
   0.25083334  0.74910669  0.32634675
   0.41762835  0.58231231  0.32643824
   0.75090758  0.24902485  0.32641478
   0.91764847  0.08229080  0.32665625
   0.75102392  0.74908692  0.32661212
   0.91759984  0.58247362  0.32652277
Direct configuration=    25
   0.33728085  0.67029175  0.10006927
   0.67057329  0.33697762  0.09982797
   0.16362853  0.32285808  0.09945082
   0.32312003  0.16315495  0.10000232
   0.16350061  0.84403761  0.10028070
   0.84437204  0.16322858  0.09917645
   0.68470345  0.84396260  0.09947470
   0.84439439  0.68446335  0.10002396
   0.25099594  0.24875970  0.32664899
   0.41760383  0.08219296  0.32655801
   0.25097698  0.74895452  0.32637509
   0.41776523  0.58216563  0.32645952
   0.75105028  0.24887362  0.32644245
   0.91778666  0.08214265  0.32668127
   0.75116887  0.74893436  0.32664616
   0.91773769  0.58232736  0.32654899
Direct configuration=    26
   0.33699162  0.67058783  0.10000062
   0.67031714  0.33726598  0.09974984
   0.16337106  0.32314094  0.09933484
   0.32280327  0.16346621  0.10001346
   0.16324347  0.84433545  0.10037990
   0.84406336  0.16353349  0.09897602
   0.68445689  0.84426310  0.09936483
   0.84407749  0.68477839  0.10004080
   0.25128388  0.24845269  0.32671693
   0.41787636  0.08189722  0.32661085
   0.25126425  0.74865020  0.32643175
   0.41803899  0.58187226  0.32650207
   0.75133569  0.24857116  0.32649779
   0.91806304  0.08184634  0.32673130
   0.75145878  0.74862924  0.32671425
   0.91801337  0.58203483  0.32660142
Direct configuration=    27
   0.33641317  0.67117998  0.09986331
   0.66980484  0.33784270  0.09959357
   0.16285613  0.32370666  0.09910289
   0.32216976  0.16408873  0.10003575
   0.16272920  0.84493113  0.10057830
   0.84344598  0.16414330  0.09857517
   0.68396376  0.84486410  0.09914508
   0.84344368  0.68540848  0.10007448
   0.25185976  0.24783868  0.32685280
   0.41842143  0.08130574  0.32671653
   0.25183881  0.74804156  0.32654509
   0.41858651  0.58128554  0.32658716
   0.75190651  0.24796624  0.32660847
   0.91861580  0.08125371  0.32683136
   0.75203860  0.74801900  0.32685041
   0.91856474  0.58144978  0.32670628
Direct configuration=    28
   0.33678864  0.67079561  0.09995244
   0.67013738  0.33746835  0.09969500
   0.16319038  0.32333945  0.09925345
   0.32258098  0.16368465  0.10002128
   0.16306302  0.84454447  0.10044952
   0.84384672  0.16374746  0.09883537
   0.68428385  0.84447399  0.09928772
   0.84385509  0.68499949  0.10005262
   0.25148595  0.24823724  0.32676461
   0.41806762  0.08168967  0.32664793
   0.25146586  0.74843663  0.32647152
   0.41823111  0.58166639  0.32653193
   0.75153598  0.24835890  0.32653663
   0.91825700  0.08163839  0.32676641
   0.75166224  0.74841511  0.32676203
   0.91820684  0.58182954  0.32663822
Direct configuration=    29
   0.33665715  0.67094164  0.09991368
   0.67000096  0.33761362  0.09966207
   0.16298683  0.32349921  0.09919058
   0.32243151  0.16385393  0.10002482
   0.16288998  0.84471241  0.10049879
   0.84370597  0.16391237  0.09873002
   0.68412589  0.84467502  0.09922790
   0.84370828  0.68516626  0.10005920
   0.25164558  0.24807589  0.32679880
   0.41822682  0.08152686  0.32668004
   0.25162673  0.74826577  0.32650693
   0.41838082  0.58150615  0.32655404
   0.75169130  0.24819428  0.32656366
   0.91840807  0.08147676  0.32678929
   0.75181374  0.74824560  0.32679654
   0.91835903  0.58165957  0.32667030
Direct configuration=    30
   0.33650061  0.67111548  0.09986755
   0.66983856  0.33778656  0.09962286
   0.16274452  0.32368941  0.09911574
   0.32225356  0.16405544  0.10002904
   0.16268398  0.84491235  0.10055744
   0.84353841  0.16410868  0.09860461
   0.68393785  0.84491434  0.09915670
   0.84353351  0.68536480  0.10006704
   0.25183562  0.24788380  0.32683950
   0.41841635  0.08133304  0.32671827
   0.25181824  0.74806237  0.32654909
   0.41855904  0.58131538  0.32658036
   0.75187620  0.24799830  0.32659583
   0.91858791  0.08128435  0.32681652
   0.75199410  0.74804380  0.32683762
   0.91854020  0.58145724  0.32670850
Direct configuration=    31
   0.33642938  0.67119458  0.09984655
   0.66976466  0.33786526  0.09960502
   0.16263426  0.32377595  0.09908168
   0.32217259  0.16414714  0.10003096
   0.16259024  0.84500333  0.10058412
   0.84346216  0.16419801  0.09854755
   0.68385228  0.84502324  0.09912429
   0.84345398  0.68545514  0.10007060
   0.25192209  0.24779639  0.32685803
   0.41850259  0.08124485  0.32673566
   0.25190539  0.74796981  0.32656828
   0.41864014  0.58122857  0.32659234
   0.75196033  0.24790912  0.32661047
   0.91866975  0.08119679  0.32682892
   0.75207618  0.74795198  0.32685631
   0.91862265  0.58136517  0.32672588
Direct configuration=    32
   0.33645183  0.67116966  0.09985317
   0.66978794  0.33784046  0.09961064
   0.16266900  0.32374868  0.09909241
   0.32219811  0.16411825  0.10003036
   0.16261978  0.84497466  0.10057571
   0.84348618  0.16416986  0.09856553
   0.68387925  0.84498892  0.09913450
   0.84347904  0.68542667  0.10006948
   0.25189484  0.24782393  0.32685219
   0.41847542  0.08127264  0.32673018
   0.25187793  0.74799898  0.32656223
   0.41861458  0.58125593  0.32658857
   0.75193382  0.24793722  0.32660586
   0.91864396  0.08122438  0.32682501
   0.75205032  0.74798091  0.32685042
   0.91859667  0.58139418  0.32672040
Direct configuration=    33
   0.33644114  0.67118152  0.09985002
   0.66977686  0.33785227  0.09960797
   0.16265246  0.32376166  0.09908730
   0.32218596  0.16413200  0.10003064
   0.16260572  0.84498831  0.10057972
   0.84347475  0.16418326  0.09855697
   0.68386641  0.84500526  0.09912964
   0.84346711  0.68544022  0.10007002
   0.25190781  0.24781082  0.32685497
   0.41848836  0.08125941  0.32673279
   0.25189100  0.74798510  0.32656511
   0.41862675  0.58124291  0.32659037
   0.75194644  0.24792385  0.32660806
   0.91865624  0.08121125  0.32682687
   0.75206263  0.74796714  0.32685323
   0.91860903  0.58138037  0.32672301
Direct configuration=    34
   0.33644645  0.67117562  0.09985158
   0.66978237  0.33784640  0.09960930
   0.16266068  0.32375521  0.09908984
   0.32219200  0.16412516  0.10003050
   0.16261271  0.84498152  0.10057773
   0.84348043  0.16417660  0.09856122
   0.68387279  0.84499714  0.09913206
   0.84347304  0.68543349  0.10006975
   0.25190137  0.24781734  0.32685359
   0.41848192  0.08126598  0.32673149
   0.25188450  0.74799200  0.32656368
   0.41862070  0.58124938  0.32658947
   0.75194017  0.24793050  0.32660696
   0.91865013  0.08121778  0.32682595
   0.75205651  0.74797398  0.32685183
   0.91860289  0.58138723  0.32672171
Direct configuration=    35
   0.33644403  0.67117831  0.09985087
   0.66977986  0.33784907  0.09960869
   0.16265694  0.32375815  0.09908868
   0.32218925  0.16412828  0.10003057
   0.16260952  0.84498462  0.10057863
   0.84347784  0.16417964  0.09855928
   0.68386988  0.84500084  0.09913096
   0.84347033  0.68543656  0.10006987
   0.25190431  0.24781436  0.32685422
   0.41848486  0.08126299  0.32673208
   0.25188747  0.74798885  0.32656433
   0.41862346  0.58124643  0.32658988
   0.75194303  0.24792746  0.32660746
   0.91865292  0.08121480  0.32682637
   0.75205930  0.74797086  0.32685247
   0.91860569  0.58138410  0.32672230
Direct configuration=    36
   0.33640491  0.67122209  0.09984344
   0.66973379  0.33789440  0.09961306
   0.16262229  0.32381137  0.09907158
   0.32216067  0.16417418  0.10002976
   0.16256966  0.84502824  0.10057978
   0.84343864  0.16422016  0.09854266
   0.68381710  0.84503238  0.09911417
   0.84343214  0.68547205  0.10006966
   0.25193934  0.24777966  0.32685530
   0.41853321  0.08121799  0.32674443
   0.25192241  0.74795008  0.32657603
   0.41866955  0.58119868  0.32659865
   0.75197907  0.24788757  0.32661042
   0.91869636  0.08116998  0.32682895
   0.75209015  0.74793203  0.32685384
   0.91864938  0.58133447  0.32673495
Direct configuration=    37
   0.33628755  0.67135341  0.09982117
   0.66959559  0.33803037  0.09962616
   0.16251836  0.32397104  0.09902028
   0.32207494  0.16431187  0.10002733
   0.16245007  0.84515911  0.10058321
   0.84332102  0.16434171  0.09849277
   0.68365874  0.84512702  0.09906380
   0.84331756  0.68557853  0.10006905
   0.25204444  0.24767556  0.32685853
   0.41867828  0.08108300  0.32678147
   0.25202725  0.74783376  0.32661114
   0.41880782  0.58105544  0.32662494
   0.75208719  0.24776787  0.32661928
   0.91882669  0.08103552  0.32683668
   0.75218271  0.74781554  0.32685797
   0.91878045  0.58118556  0.32677289
Direct configuration=    38
   0.33624017  0.67140644  0.09981218
   0.66953978  0.33808528  0.09963144
   0.16247639  0.32403551  0.09899957
   0.32204033  0.16436747  0.10002635
   0.16240178  0.84521196  0.10058459
   0.84327353  0.16439079  0.09847263
   0.68359479  0.84516523  0.09904346
   0.84327129  0.68562152  0.10006880
   0.25208688  0.24763353  0.32685984
   0.41873685  0.08102849  0.32679643
   0.25206958  0.74778680  0.32662532
   0.41886365  0.58099760  0.32663556
   0.75213085  0.24771955  0.32662286
   0.91887932  0.08098123  0.32683981
   0.75222008  0.74776851  0.32685963
   0.91883337  0.58112544  0.32678820
Direct configuration=    39
   0.33618975  0.67145647  0.09980524
   0.66950100  0.33813028  0.09964014
   0.16244417  0.32407651  0.09898337
   0.32199170  0.16441606  0.10002396
   0.16236724  0.84525999  0.10058098
   0.84322594  0.16443117  0.09846051
   0.68355992  0.84520207  0.09902734
   0.84322405  0.68566792  0.10006691
   0.25213259  0.24758509  0.32685963
   0.41877384  0.08098690  0.32680837
   0.25211445  0.74774011  0.32663876
   0.41890141  0.58095620  0.32664460
   0.75217661  0.24767193  0.32662647
   0.91891810  0.08093881  0.32684008
   0.75226651  0.74772086  0.32685978
   0.91887137  0.58108496  0.32680053
Direct configuration=    40
   0.33603851  0.67160658  0.09978441
   0.66938467  0.33826529  0.09966623
   0.16234751  0.32419950  0.09893477
   0.32184584  0.16456184  0.10001681
   0.16226362  0.84540408  0.10057014
   0.84308318  0.16455230  0.09842417
   0.68345531  0.84531257  0.09897899
   0.84308232  0.68580714  0.10006124
   0.25226974  0.24743979  0.32685901
   0.41888481  0.08086211  0.32684418
   0.25224904  0.74760003  0.32667911
   0.41901467  0.58083201  0.32667170
   0.75231388  0.24752909  0.32663728
   0.91903443  0.08081154  0.32684091
   0.75240582  0.74757793  0.32686020
   0.91898534  0.58096352  0.32683752
Direct configuration=    41
   0.33599180  0.67165295  0.09977798
   0.66934874  0.33830699  0.09967429
   0.16231766  0.32423749  0.09891976
   0.32180078  0.16460686  0.10001459
   0.16223161  0.84544859  0.10056680
   0.84303909  0.16458972  0.09841295
   0.68342300  0.84534670  0.09896405
   0.84303854  0.68585013  0.10005949
   0.25231209  0.24739492  0.32685882
   0.41891908  0.08082356  0.32685525
   0.25229061  0.74755676  0.32669156
   0.41904965  0.58079366  0.32668008
   0.75235628  0.24748497  0.32664062
   0.91907036  0.08077223  0.32684116
   0.75244884  0.74753378  0.32686033
   0.91902054  0.58092602  0.32684894
Direct configuration=    42
   0.33594580  0.67170395  0.09976963
   0.66930516  0.33835360  0.09968497
   0.16223630  0.32427987  0.09890803
   0.32175079  0.16465206  0.10000813
   0.16216659  0.84550752  0.10055770
   0.84300316  0.16463766  0.09840646
   0.68337719  0.84541854  0.09895207
   0.84301023  0.68590834  0.10005324
   0.25236678  0.24733262  0.32686154
   0.41895859  0.08077311  0.32686274
   0.25234462  0.74750076  0.32670780
   0.41909130  0.58074766  0.32668716
   0.75240921  0.24743033  0.32664932
   0.91911757  0.08072037  0.32683766
   0.75250902  0.74747706  0.32686336
   0.91906636  0.58088188  0.32685685
Direct configuration=    43
   0.33587396  0.67178361  0.09975659
   0.66923710  0.33842639  0.09970164
   0.16210925  0.32434607  0.09888972
   0.32167271  0.16472265  0.09999804
   0.16206503  0.84559956  0.10054348
   0.84294705  0.16471253  0.09839634
   0.68330564  0.84553074  0.09893336
   0.84296602  0.68599923  0.10004348
   0.25245219  0.24723533  0.32686579
   0.41902030  0.08069431  0.32687445
   0.25242896  0.74741331  0.32673315
   0.41915635  0.58067582  0.32669822
   0.75249188  0.24734501  0.32666291
   0.91919129  0.08063936  0.32683220
   0.75260300  0.74738848  0.32686808
   0.91913793  0.58081294  0.32686920
Direct configuration=    44
   0.33581629  0.67184427  0.09974604
   0.66918427  0.33848445  0.09971034
   0.16204117  0.32441347  0.09888491
   0.32160993  0.16479501  0.09998635
   0.16200408  0.84566744  0.10052830
   0.84287964  0.16477941  0.09839678
   0.68324453  0.84560039  0.09892794
   0.84289973  0.68606626  0.10003159
   0.25250873  0.24717234  0.32687264
   0.41908733  0.08062340  0.32687719
   0.25248627  0.74735068  0.32674979
   0.41922296  0.58060635  0.32670347
   0.75254786  0.24728389  0.32667675
   0.91925925  0.08056846  0.32682720
   0.75266076  0.74732668  0.32687512
   0.91920585  0.58074284  0.32687225
Direct configuration=    45
   0.33564326  0.67202624  0.09971437
   0.66902578  0.33865863  0.09973645
   0.16183694  0.32461567  0.09887050
   0.32142159  0.16501211  0.09995128
   0.16182123  0.84587108  0.10048276
   0.84267741  0.16498004  0.09839810
   0.68306122  0.84580935  0.09891166
   0.84270085  0.68626732  0.09999594
   0.25267834  0.24698336  0.32689319
   0.41928844  0.08041066  0.32688539
   0.25265822  0.74716282  0.32679968
   0.41942279  0.58039794  0.32671923
   0.75271581  0.24710053  0.32671828
   0.91946314  0.08035575  0.32681220
   0.75283402  0.74714128  0.32689625
   0.91940963  0.58053254  0.32688141
Direct configuration=    46
   0.33554804  0.67212767  0.09970356
   0.66891758  0.33877096  0.09972808
   0.16181025  0.32472148  0.09887854
   0.32134201  0.16511214  0.09993477
   0.16176744  0.84595264  0.10045651
   0.84257790  0.16506972  0.09841427
   0.68296530  0.84585484  0.09891859
   0.84259194  0.68634301  0.09997835
   0.25276895  0.24690237  0.32690021
   0.41937554  0.08033116  0.32688952
   0.25274957  0.74706717  0.32680106
   0.41950729  0.58030638  0.32672760
   0.75281015  0.24700085  0.32672685
   0.91953304  0.08027948  0.32682023
   0.75291096  0.74704642  0.32690314
   0.91948270  0.58043904  0.32688539
Direct configuration=    47
   0.33537472  0.67231231  0.09968390
   0.66872062  0.33897545  0.09971283
   0.16176167  0.32491408  0.09889318
   0.32119713  0.16529421  0.09990471
   0.16166951  0.84610109  0.10040873
   0.84239676  0.16523298  0.09844372
   0.68279069  0.84593766  0.09893121
   0.84239367  0.68648077  0.09994633
   0.25293390  0.24675494  0.32691300
   0.41953410  0.08018644  0.32689703
   0.25291587  0.74689305  0.32680356
   0.41966111  0.58013972  0.32674284
   0.75298190  0.24681940  0.32674244