<?xml version="1.0" encoding="ISO-8859-1"?>
<modeling>
 <generator>
  <i name="program" type="string">vasp </i>
  <i name="version" type="string">6.3.2  </i>
  <i name="subversion" type="string">27Jun22 (build Dec 22 2022 13:13:19) complex                          parallel </i>
  <i name="platform" type="string">LinuxIFC </i>
  <i name="date" type="string">2023 09 12 </i>
  <i name="time" type="string">18:02:08 </i>
 </generator>
 <incar>
  <i type="string" name="SYSTEM">Lattice</i>
  <i type="int" name="ISTART">     0</i>
  <i type="string" name="PREC">Accurate</i>
  <i type="string" name="ALGO">Normal</i>
  <i type="int" name="ICHARG">     2</i>
  <i type="int" name="NELM">    64</i>
  <i type="int" name="IBRION">     2</i>
  <i name="EDIFF">      0.00000100</i>
  <i name="EDIFFG">     -0.00100000</i>
  <i type="int" name="NSW">   128</i>
  <i type="int" name="ISIF">     2</i>
  <i name="ENCUT">    450.00000000</i>
  <i name="POTIM">      0.50000000</i>
  <i type="int" name="ISMEAR">     0</i>
  <i name="SIGMA">      0.10000000</i>
  <i type="logical" name="LWAVE"> F  </i>
  <i type="logical" name="LCHARG"> F  </i>
  <i type="string" name="GGA">PE</i>
  <i type="int" name="IVDW">    12</i>
 </incar>
 <primitive_cell>
  <structure name="primitive_cell" >
   <crystal>
    <varray name="basis" >
     <v>       4.36823214       2.52200000       0.00000000 </v>
     <v>      -4.36823214       2.52200000       0.00000000 </v>
     <v>       0.00000000       0.00000000      15.00000000 </v>
    </varray>
    <i name="volume">    330.50044346 </i>
    <varray name="rec_basis" >
     <v>       0.11446278       0.19825535       0.00000000 </v>
     <v>      -0.11446278       0.19825535       0.00000000 </v>
     <v>       0.00000000       0.00000000       0.06666667 </v>
    </varray>
   </crystal>
   <varray name="positions" >
    <v>       0.33833034       0.66916432       0.10000000 </v>
    <v>       0.67165522       0.33584146       0.10000000 </v>
    <v>       0.16373946       0.31999962       0.10000000 </v>
    <v>       0.32250218       0.16126397       0.10000000 </v>
    <v>       0.16376430       0.84376384       0.10000000 </v>
    <v>       0.84623863       0.16123684       0.10000000 </v>
    <v>       0.68749850       0.84373000       0.10000000 </v>
    <v>       0.84626736       0.68499594       0.10000000 </v>
    <v>       0.33333267       0.16666633       0.35120000 </v>
    <v>       0.49999967       0.99999933       0.35120000 </v>
    <v>       0.33333267       0.66666633       0.35120000 </v>
    <v>       0.49999967       0.49999933       0.35120000 </v>
    <v>       0.83333267       0.16666633       0.35120000 </v>
    <v>       0.99999967       0.99999933       0.35120000 </v>
    <v>       0.83333267       0.66666633       0.35120000 </v>
    <v>       0.99999967       0.49999933       0.35120000 </v>
   </varray>
  </structure>
  <varray name="primitive_index" >
   <v type="int" >        1 </v>
   <v type="int" >        2 </v>
   <v type="int" >        3 </v>
   <v type="int" >        4 </v>
   <v type="int" >        5 </v>
   <v type="int" >        6 </v>
   <v type="int" >        7 </v>
   <v type="int" >        8 </v>
   <v type="int" >        9 </v>
   <v type="int" >       10 </v>
   <v type="int" >       11 </v>
   <v type="int" >       12 </v>
   <v type="int" >       13 </v>
   <v type="int" >       14 </v>
   <v type="int" >       15 </v>
   <v type="int" >       16 </v>
  </varray>
 </primitive_cell>
 <kpoints>
  <generation param="Gamma">
   <v type="int" name="divisions">      11       11        1 </v>
   <v name="usershift">      0.00000000       0.00000000       0.00000000 </v>
   <v name="genvec1">      0.09090909      -0.00000000       0.00000000 </v>
   <v name="genvec2">     -0.00000000       0.09090909       0.00000000 </v>
   <v name="genvec3">      0.00000000       0.00000000       1.00000000 </v>
   <v name="shift">      0.00000000       0.00000000       0.00000000 </v>
  </generation>
  <varray name="kpointlist" >
   <v>       0.00000000       0.00000000       0.00000000 </v>
   <v>       0.09090909      -0.00000000       0.00000000 </v>
   <v>       0.00000000       0.09090909       0.00000000 </v>
   <v>      -0.09090909       0.09090909       0.00000000 </v>
   <v>       0.18181818      -0.00000000       0.00000000 </v>
   <v>      -0.00000000       0.18181818       0.00000000 </v>
   <v>      -0.18181818       0.18181818       0.00000000 </v>
   <v>       0.27272727       0.00000000       0.00000000 </v>
   <v>      -0.00000000       0.27272727       0.00000000 </v>
   <v>      -0.27272727       0.27272727       0.00000000 </v>
   <v>       0.36363636      -0.00000000       0.00000000 </v>
   <v>      -0.00000000       0.36363636       0.00000000 </v>
   <v>      -0.36363636       0.36363636       0.00000000 </v>
   <v>       0.45454545       0.00000000       0.00000000 </v>
   <v>       0.00000000       0.45454545       0.00000000 </v>
   <v>      -0.45454545       0.45454545       0.00000000 </v>
   <v>       0.09090909       0.09090909       0.00000000 </v>
   <v>      -0.09090909       0.18181818       0.00000000 </v>
   <v>      -0.18181818       0.09090909       0.00000000 </v>
   <v>       0.18181818       0.09090909       0.00000000 </v>
   <v>      -0.09090909       0.27272727       0.00000000 </v>
   <v>      -0.27272727       0.18181818       0.00000000 </v>
   <v>      -0.18181818       0.27272727       0.00000000 </v>
   <v>       0.09090909       0.18181818       0.00000000 </v>
   <v>       0.27272727      -0.09090909       0.00000000 </v>
   <v>       0.27272727       0.09090909       0.00000000 </v>
   <v>      -0.09090909       0.36363636       0.00000000 </v>
   <v>      -0.36363636       0.27272727       0.00000000 </v>
   <v>      -0.27272727       0.36363636       0.00000000 </v>
   <v>       0.09090909       0.27272727       0.00000000 </v>
   <v>       0.36363636      -0.09090909       0.00000000 </v>
   <v>       0.36363636       0.09090909       0.00000000 </v>
   <v>      -0.09090909       0.45454545       0.00000000 </v>
   <v>      -0.45454545       0.36363636       0.00000000 </v>
   <v>      -0.36363636       0.45454545       0.00000000 </v>
   <v>       0.09090909       0.36363636       0.00000000 </v>
   <v>       0.45454545      -0.09090909       0.00000000 </v>
   <v>       0.45454545       0.09090909       0.00000000 </v>
   <v>      -0.09090909      -0.45454545       0.00000000 </v>
   <v>       0.45454545       0.45454545       0.00000000 </v>
   <v>       0.18181818       0.18181818       0.00000000 </v>
   <v>      -0.18181818       0.36363636       0.00000000 </v>
   <v>      -0.36363636       0.18181818       0.00000000 </v>
   <v>       0.27272727       0.18181818       0.00000000 </v>
   <v>      -0.18181818       0.45454545       0.00000000 </v>
   <v>      -0.45454545       0.27272727       0.00000000 </v>
   <v>      -0.27272727       0.45454545       0.00000000 </v>
   <v>       0.18181818       0.27272727       0.00000000 </v>
   <v>       0.45454545      -0.18181818       0.00000000 </v>
   <v>       0.36363636       0.18181818       0.00000000 </v>
   <v>      -0.18181818      -0.45454545       0.00000000 </v>
   <v>       0.45454545       0.36363636       0.00000000 </v>
   <v>      -0.36363636      -0.45454545       0.00000000 </v>
   <v>       0.18181818       0.36363636       0.00000000 </v>
   <v>      -0.45454545      -0.18181818       0.00000000 </v>
   <v>       0.27272727       0.27272727       0.00000000 </v>
   <v>      -0.27272727      -0.45454545       0.00000000 </v>
   <v>       0.45454545       0.27272727       0.00000000 </v>
   <v>       0.36363636       0.27272727       0.00000000 </v>
   <v>      -0.27272727      -0.36363636       0.00000000 </v>
   <v>       0.36363636       0.36363636       0.00000000 </v>
  </varray>
  <varray name="weights" >
   <v>       0.00826446 </v>
   <v>       0.01652893 </v>
   <v>       0.01652893 </v>
   <v>       0.01652893 </v>
   <v>       0.01652893 </v>
   <v>       0.01652893 </v>
   <v>       0.01652893 </v>
   <v>       0.01652893 </v>
   <v>       0.01652893 </v>
   <v>       0.01652893 </v>
   <v>       0.01652893 </v>
   <v>       0.01652893 </v>
   <v>       0.01652893 </v>
   <v>       0.01652893 </v>
   <v>       0.01652893 </v>
   <v>       0.01652893 </v>
   <v>       0.01652893 </v>
   <v>       0.01652893 </v>
   <v>       0.01652893 </v>
   <v>       0.01652893 </v>
   <v>       0.01652893 </v>
   <v>       0.01652893 </v>
   <v>       0.01652893 </v>
   <v>       0.01652893 </v>
   <v>       0.01652893 </v>
   <v>       0.01652893 </v>
   <v>       0.01652893 </v>
   <v>       0.01652893 </v>
   <v>       0.01652893 </v>
   <v>       0.01652893 </v>
   <v>       0.01652893 </v>
   <v>       0.01652893 </v>
   <v>       0.01652893 </v>
   <v>       0.01652893 </v>
   <v>       0.01652893 </v>
   <v>       0.01652893 </v>
   <v>       0.01652893 </v>
   <v>       0.01652893 </v>
   <v>       0.01652893 </v>
   <v>       0.01652893 </v>
   <v>       0.01652893 </v>
   <v>       0.01652893 </v>
   <v>       0.01652893 </v>
   <v>       0.01652893 </v>
   <v>       0.01652893 </v>
   <v>       0.01652893 </v>
   <v>       0.01652893 </v>
   <v>       0.01652893 </v>
   <v>       0.01652893 </v>
   <v>       0.01652893 </v>
   <v>       0.01652893 </v>
   <v>       0.01652893 </v>
   <v>       0.01652893 </v>
   <v>       0.01652893 </v>
   <v>       0.01652893 </v>
   <v>       0.01652893 </v>
   <v>       0.01652893 </v>
   <v>       0.01652893 </v>
   <v>       0.01652893 </v>
   <v>       0.01652893 </v>
   <v>       0.01652893 </v>
  </varray>
 </kpoints>
 <parameters>
  <separator name="general" >
   <i type="string" name="SYSTEM">Lattice</i>
   <i type="logical" name="LCOMPAT"> F  </i>
  </separator>
  <separator name="electronic" >
   <i type="string" name="PREC">accura</i>
   <i name="ENMAX">    450.00000000</i>
   <i name="ENAUG">    644.87300000</i>
   <i name="EDIFF">      0.00000100</i>
   <i type="int" name="IALGO">    38</i>
   <i type="int" name="IWAVPR">    11</i>
   <i type="int" name="NBANDS">    48</i>
   <i type="int" name="NBANDSLOW">    -1</i>
   <i type="int" name="NBANDSHIGH">    -1</i>
   <i name="NELECT">     62.00000000</i>
   <i type="int" name="TURBO">     0</i>
   <i type="int" name="IRESTART">     0</i>
   <i type="int" name="NREBOOT">     0</i>
   <i type="int" name="NMIN">     0</i>
   <i name="EREF">      0.00000000</i>
   <separator name="electronic smearing" >
    <i type="int" name="ISMEAR">     0</i>
    <i name="SIGMA">      0.10000000</i>
    <i name="KSPACING">      0.50000000</i>
    <i type="logical" name="KGAMMA"> T  </i>
    <i type="logical" name="KBLOWUP"> T  </i>
   </separator>
   <separator name="electronic projectors" >
    <i type="logical" name="LREAL"> F  </i>
    <v name="ROPT">      0.00000000      0.00000000</v>
    <i type="int" name="LMAXPAW">  -100</i>
    <i type="int" name="LMAXMIX">     2</i>
    <i type="logical" name="NLSPLINE"> F  </i>
   </separator>
   <separator name="electronic startup" >
    <i type="int" name="ISTART">     0</i>
    <i type="int" name="ICHARG">     2</i>
    <i type="int" name="INIWAV">     1</i>
   </separator>
   <separator name="electronic spin" >
    <i type="int" name="ISPIN">     1</i>
    <i type="logical" name="LNONCOLLINEAR"> F  </i>
    <v name="MAGMOM">      1.00000000      1.00000000      1.00000000      1.00000000      1.00000000      1.00000000      1.00000000      1.00000000      1.00000000      1.00000000      1.00000000      1.00000000      1.00000000      1.00000000      1.00000000      1.00000000</v>
    <i name="NUPDOWN">     -1.00000000</i>
    <i type="logical" name="LSORBIT"> F  </i>
    <v name="SAXIS">      0.00000000      0.00000000      1.00000000</v>
    <i type="logical" name="LSPIRAL"> F  </i>
    <v name="QSPIRAL">      0.00000000      0.00000000      0.00000000</v>
    <i type="logical" name="LZEROZ"> F  </i>
   </separator>
   <separator name="electronic exchange-correlation" >
    <i type="logical" name="LASPH"> F  </i>
    <i type="logical" name="LMETAGGA"> F  </i>
   </separator>
   <separator name="electronic convergence" >
    <i type="int" name="NELM">    64</i>
    <i type="int" name="NELMDL">    -5</i>
    <i type="int" name="NELMIN">     2</i>
    <i name="ENINI">    450.00000000</i>
    <separator name="electronic convergence detail" >
     <i type="logical" name="LDIAG"> T  </i>
     <i type="logical" name="LSUBROT"> F  </i>
     <i name="WEIMIN">      0.00100000</i>
     <i name="EBREAK">      0.00000001</i>
     <i name="DEPER">      0.30000000</i>
     <i type="int" name="NRMM">     4</i>
     <i name="TIME">      0.40000000</i>
    </separator>
   </separator>
   <separator name="electronic mixer" >
    <i name="AMIX">      0.40000000</i>
    <i name="BMIX">      1.00000000</i>
    <i name="AMIN">      0.10000000</i>
    <i name="AMIX_MAG">      1.60000000</i>
    <i name="BMIX_MAG">      1.00000000</i>
    <separator name="electronic mixer details" >
     <i type="int" name="IMIX">     4</i>
     <i type="logical" name="MIXFIRST"> F  </i>
     <i type="int" name="MAXMIX">   -45</i>
     <i name="WC">    100.00000000</i>
     <i type="int" name="INIMIX">     1</i>
     <i type="int" name="MIXPRE">     1</i>
     <i type="int" name="MREMOVE">     5</i>
    </separator>
   </separator>
   <separator name="electronic dipolcorrection" >
    <i type="logical" name="LDIPOL"> F  </i>
    <i type="logical" name="LMONO"> F  </i>
    <i type="int" name="IDIPOL">     0</i>
    <i name="EPSILON">      1.00000000</i>
    <v name="DIPOL">   -100.00000000   -100.00000000   -100.00000000</v>
    <i name="EFIELD">      0.00000000</i>
   </separator>
  </separator>
  <separator name="grids" >
   <i type="int" name="NGX">    36</i>
   <i type="int" name="NGY">    36</i>
   <i type="int" name="NGZ">   108</i>
   <i type="int" name="NGXF">    72</i>
   <i type="int" name="NGYF">    72</i>
   <i type="int" name="NGZF">   216</i>
   <i type="logical" name="ADDGRID"> F  </i>
  </separator>
  <separator name="ionic" >
   <i type="int" name="NSW">   128</i>
   <i type="int" name="IBRION">     2</i>
   <i type="int" name="MDALGO">     0</i>
   <i type="int" name="ISIF">     2</i>
   <i name="PSTRESS">      0.00000000</i>
   <i name="EDIFFG">     -0.00100000</i>
   <i type="int" name="NFREE">     1</i>
   <i name="POTIM">      0.50000000</i>
   <i name="SMASS">     -3.00000000</i>
   <i name="SCALEE">      1.00000000</i>
  </separator>
  <separator name="ionic md" >
   <i name="TEBEG">      0.00010000</i>
   <i name="TEEND">      0.00010000</i>
   <i type="int" name="NBLOCK">     1</i>
   <i type="int" name="KBLOCK">   128</i>
   <i type="int" name="NPACO">   256</i>
   <i name="APACO">     10.00000000</i>
  </separator>
  <separator name="symmetry" >
   <i type="int" name="ISYM">     2</i>
   <i name="SYMPREC">      0.00001000</i>
  </separator>
  <separator name="dos" >
   <i type="int" name="LORBIT">     0</i>
   <v name="RWIGS">     -1.00000000     -1.00000000</v>
   <i type="int" name="NEDOS">   301</i>
   <i name="EMIN">     10.00000000</i>
   <i name="EMAX">    -10.00000000</i>
   <i name="EFERMI">      0.00000000</i>
  </separator>
  <separator name="writing" >
   <i type="int" name="NWRITE">     2</i>
   <i type="logical" name="LWAVE"> F  </i>
   <i type="logical" name="LDOWNSAMPLE"> F  </i>
   <i type="logical" name="LCHARG"> F  </i>
   <i type="logical" name="LPARD"> F  </i>
   <i type="logical" name="LVTOT"> F  </i>
   <i type="logical" name="LVHAR"> F  </i>
   <i type="logical" name="LELF"> F  </i>
   <i type="logical" name="LOPTICS"> F  </i>
   <v name="STM">      0.00000000      0.00000000      0.00000000      0.00000000      0.00000000      0.00000000      0.00000000</v>
  </separator>
  <separator name="performance" >
   <i type="int" name="NPAR">    24</i>
   <i type="int" name="NSIM">     4</i>
   <i type="int" name="NBLK">    -1</i>
   <i type="logical" name="LPLANE"> T  </i>
   <i type="logical" name="LSCALAPACK"> T  </i>
   <i type="logical" name="LSCAAWARE"> F  </i>
   <i type="logical" name="LSCALU"> F  </i>
   <i type="logical" name="LASYNC"> F  </i>
   <i type="logical" name="LORBITALREAL"> F  </i>
  </separator>
  <separator name="miscellaneous" >
   <i type="int" name="IDIOT">     3</i>
   <i type="int" name="PHON_NSTRUCT">    -1</i>
   <i type="logical" name="LMUSIC"> F  </i>
   <v name="POMASS">     10.81100000     12.01100000</v>
   <v name="DARWINR">      0.00000000      0.00000000</v>
   <v name="DARWINV">      1.00000000      1.00000000</v>
   <i type="logical" name="LCORR"> T  </i>
  </separator>
  <i type="logical" name="GGA_COMPAT"> T  </i>
  <i type="logical" name="LBERRY"> F  </i>
  <i type="int" name="ICORELEVEL">     0</i>
  <i type="logical" name="LDAU"> F  </i>
  <i type="int" name="I_CONSTRAINED_M">     0</i>
  <separator name="electronic exchange-correlation" >
   <i type="string" name="GGA">PE</i>
   <i type="int" name="VOSKOWN">     0</i>
   <i type="logical" name="LHFCALC"> F  </i>
   <i type="string" name="PRECFOCK"></i>
   <i type="logical" name="LSYMGRAD"> F  </i>
   <i type="logical" name="LHFONE"> F  </i>
   <i type="logical" name="LRHFCALC"> F  </i>
   <i type="logical" name="LTHOMAS"> F  </i>
   <i type="logical" name="LMODELHF"> F  </i>
   <i type="logical" name="LFOCKACE"> F  </i>
   <i name="ENCUT4O">     -1.00000000</i>
   <i type="int" name="EXXOEP">     0</i>
   <i type="int" name="FOURORBIT">     0</i>
   <i name="AEXX">      0.00000000</i>
   <i name="HFALPHA">      0.00000000</i>
   <i name="MCALPHA">      0.00000000</i>
   <i name="ALDAX">      1.00000000</i>
   <i name="AGGAX">      1.00000000</i>
   <i name="ALDAC">      1.00000000</i>
   <i name="AGGAC">      1.00000000</i>
   <i type="int" name="NKREDX">     1</i>
   <i type="int" name="NKREDY">     1</i>
   <i type="int" name="NKREDZ">     1</i>
   <i type="logical" name="SHIFTRED"> F  </i>
   <i type="logical" name="ODDONLY"> F  </i>
   <i type="logical" name="EVENONLY"> F  </i>
   <i type="int" name="LMAXFOCK">     0</i>
   <i type="int" name="NMAXFOCKAE">     0</i>
   <i type="logical" name="LFOCKAEDFT"> F  </i>
   <i name="HFSCREEN">      0.00000000</i>
   <i name="HFSCREENC">      0.00000000</i>
   <i type="int" name="NBANDSGWLOW">     0</i>
  </separator>
  <separator name="vdW DFT" >
   <i type="logical" name="LUSE_VDW"> F  </i>
   <i name="Zab_VDW">     -0.84910000</i>
   <i name="PARAM1">      0.12340000</i>
   <i name="PARAM2">      1.00000000</i>
   <i name="PARAM3">      0.00000000</i>
  </separator>
  <separator name="model GW" >
   <i type="int" name="MODEL_GW">     0</i>
   <i name="MODEL_EPS0">     12.39376663</i>
   <i name="MODEL_ALPHA">      1.00000000</i>
  </separator>
  <separator name="linear response parameters" >
   <i type="logical" name="LEPSILON"> F  </i>
   <i type="logical" name="LRPA"> F  </i>
   <i type="logical" name="LNABLA"> F  </i>
   <i type="logical" name="LVEL"> F  </i>
   <i name="CSHIFT">      0.10000000</i>
   <i name="OMEGAMAX">     -1.00000000</i>
   <i name="DEG_THRESHOLD">      0.00200000</i>
   <i name="RTIME">     -0.10000000</i>
   <i name="WPLASMAI">      0.00000000</i>
   <v name="DFIELD">      0.00000000      0.00000000      0.00000000</v>
   <v name="WPLASMA">      0.00000000      0.00000000      0.00000000      0.00000000      0.00000000      0.00000000      0.00000000      0.00000000      0.00000000</v>
  </separator>
  <separator name="orbital magnetization" >
   <i type="logical" name="NUCIND"> F  </i>
   <v name="MAGPOS">      0.00000000      0.00000000      0.00000000</v>
   <i type="logical" name="LNICSALL"> T  </i>
   <i type="logical" name="ORBITALMAG"> F  </i>
   <i type="logical" name="LMAGBLOCH"> F  </i>
   <i type="logical" name="LCHIMAG"> F  </i>
   <i type="logical" name="LGAUGE"> T  </i>
   <i type="int" name="MAGATOM">     0</i>
   <v name="MAGDIPOL">      0.00000000      0.00000000      0.00000000</v>
   <v name="AVECCONST">      0.00000000      0.00000000      0.00000000</v>
  </separator>
  <separator name="response functions" >
   <i type="logical" name="LFINITE_TEMPERATURE"> F  </i>
   <i type="logical" name="LADDER"> F  </i>
   <i type="logical" name="LRPAFORCE"> F  </i>
   <i type="logical" name="LFXC"> F  </i>
   <i type="logical" name="LHARTREE"> T  </i>
   <i type="int" name="IBSE">     0</i>
   <v type="int" name="KPOINT">    -1     0     0     0</v>
   <i type="logical" name="LTCTC"> F  </i>
   <i type="logical" name="LTCTE"> F  </i>
   <i type="logical" name="LTETE"> F  </i>
   <i type="logical" name="LTRIPLET"> F  </i>
   <i type="logical" name="LFXCEPS"> F  </i>
   <i type="logical" name="LFXHEG"> F  </i>
   <i type="int" name="NATURALO">     2</i>
   <i type="logical" name="LHOLEGF"> F  </i>
   <i type="logical" name="L2ORDER"> F  </i>
   <i type="logical" name="LDMP1"> F  </i>
   <i type="logical" name="LMP2LT"> F  </i>
   <i type="logical" name="LSMP2LT"> F  </i>
   <i type="logical" name="LGWLF"> F  </i>
   <i name="ENCUTGW">     -2.00000000</i>
   <i name="ENCUTGWSOFT">     -2.00000000</i>
   <i name="ENCUTLF">     -1.00000000</i>
   <i type="logical" name="LESF_SPLINES"> F  </i>
   <i type="int" name="LMAXMP2">    -1</i>
   <i name="SCISSOR">      0.00000000</i>
   <i type="int" name="NOMEGA">     0</i>
   <i type="int" name="NOMEGAR">     0</i>
   <i type="int" name="NBANDSGW">    -1</i>
   <i type="int" name="NBANDSO">    -1</i>
   <i type="int" name="NBANDSV">    -1</i>
   <i type="int" name="NELMGW">     1</i>
   <i type="int" name="NELMHF">     1</i>
   <i type="int" name="DIM">     3</i>
   <i type="int" name="IESPILON">     4</i>
   <i type="int" name="ANTIRES">     0</i>
   <i name="OMEGAMAX">    -30.00000000</i>
   <i name="OMEGAMIN">    -30.00000000</i>
   <i name="OMEGATL">   -200.00000000</i>
   <i type="int" name="OMEGAGRID">     0</i>
   <i name="CSHIFT">     -0.10000000</i>
   <i type="logical" name="LSELFENERGY"> F  </i>
   <i type="logical" name="LSPECTRAL"> F  </i>
   <i type="logical" name="LSPECTRALGW"> F  </i>
   <i type="logical" name="LSINGLES"> F  </i>
   <i type="logical" name="LFERMIGW"> F  </i>
   <i type="logical" name="ODDONLYGW"> F  </i>
   <i type="logical" name="EVENONLYGW"> F  </i>
   <i type="int" name="NKREDLFX">     1</i>
   <i type="int" name="NKREDLFY">     1</i>
   <i type="int" name="NKREDLFZ">     1</i>
   <i type="int" name="MAXMEM">  2800</i>
   <i type="int" name="TELESCOPE">     0</i>
   <i type="int" name="NTAUPAR">    -1</i>
   <i type="int" name="NOMEGAPAR">    -1</i>
   <i name="DAMP_NEWTON">      0.80000001</i>
   <i name="LAMBDA">      1.00000000</i>
  </separator>
  <separator name="External order field" >
   <i name="OFIELD_KAPPA">      0.00000000</i>
   <v name="OFIELD_K">      0.00000000      0.00000000      0.00000000</v>
   <i name="OFIELD_Q6_NEAR">      0.00000000</i>
   <i name="OFIELD_Q6_FAR">      0.00000000</i>
   <i name="OFIELD_A">      0.00000000</i>
  </separator>
  <separator name="optional k-points parameters" >
   <i type="int" name="KPOINTS_OPT_MODE">     1</i>
   <i type="logical" name="LKPOINTS_OPT"> F  </i>
  </separator>
  <separator name="solvation model" >
   <i type="logical" name="LSOL"> F  </i>
  </separator>
 </parameters>
 <atominfo>
  <atoms>      16 </atoms>
  <types>       2 </types>
  <array name="atoms" >
   <dimension dim="1">ion</dimension>
   <field type="string">element</field>
   <field type="int">atomtype</field>
   <set>
    <rc><c>B </c><c>   1</c></rc>
    <rc><c>B </c><c>   1</c></rc>
    <rc><c>C </c><c>   2</c></rc>
    <rc><c>C </c><c>   2</c></rc>
    <rc><c>C </c><c>   2</c></rc>
    <rc><c>C </c><c>   2</c></rc>
    <rc><c>C </c><c>   2</c></rc>
    <rc><c>C </c><c>   2</c></rc>
    <rc><c>C </c><c>   2</c></rc>
    <rc><c>C </c><c>   2</c></rc>
    <rc><c>C </c><c>   2</c></rc>
    <rc><c>C </c><c>   2</c></rc>
    <rc><c>C </c><c>   2</c></rc>
    <rc><c>C </c><c>   2</c></rc>
    <rc><c>C </c><c>   2</c></rc>
    <rc><c>C </c><c>   2</c></rc>
   </set>
  </array>
  <array name="atomtypes" >
   <dimension dim="1">type</dimension>
   <field type="int">atomspertype</field>
   <field type="string">element</field>
   <field>mass</field>
   <field>valence</field>
   <field type="string">pseudopotential</field>
   <set>
    <rc><c>   2</c><c>B </c><c>     10.81100000</c><c>      3.00000000</c><c>  PAW_PBE B 06Sep2000                   </c></rc>
    <rc><c>  14</c><c>C </c><c>     12.01100000</c><c>      4.00000000</c><c>  PAW_PBE C 08Apr2002                   </c></rc>
   </set>
  </array>
 </atominfo>
 <structure name="initialpos" >
  <crystal>
   <varray name="basis" >
    <v>       4.36823214       2.52200000       0.00000000 </v>
    <v>      -4.36823214       2.52200000       0.00000000 </v>
    <v>       0.00000000       0.00000000      15.00000000 </v>
   </varray>
   <i name="volume">    330.50044346 </i>
   <varray name="rec_basis" >
    <v>       0.11446278       0.19825535       0.00000000 </v>
    <v>      -0.11446278       0.19825535       0.00000000 </v>
    <v>       0.00000000       0.00000000       0.06666667 </v>
   </varray>
  </crystal>
  <varray name="positions" >
   <v>       0.33833034       0.66916432       0.10000000 </v>
   <v>       0.67165522       0.33584146       0.10000000 </v>
   <v>       0.16373946       0.31999962       0.10000000 </v>
   <v>       0.32250218       0.16126397       0.10000000 </v>
   <v>       0.16376430       0.84376384       0.10000000 </v>
   <v>       0.84623863       0.16123684       0.10000000 </v>
   <v>       0.68749850       0.84373000       0.10000000 </v>
   <v>       0.84626736       0.68499594       0.10000000 </v>
   <v>       0.33333267       0.16666633       0.35120000 </v>
   <v>       0.49999967       0.99999933       0.35120000 </v>
   <v>       0.33333267       0.66666633       0.35120000 </v>
   <v>       0.49999967       0.49999933       0.35120000 </v>
   <v>       0.83333267       0.16666633       0.35120000 </v>
   <v>       0.99999967       0.99999933       0.35120000 </v>
   <v>       0.83333267       0.66666633       0.35120000 </v>
   <v>       0.99999967       0.49999933       0.35120000 </v>
  </varray>
 </structure>
 <calculation>
  <scstep>
   <time name="dav">    5.84    9.06</time>
   <time name="total">    5.92    9.19</time>
   <energy>
    <i name="alphaZ">     62.53960761 </i>
    <i name="ewald">   4665.29061569 </i>
    <i name="hartreedc">  -6484.04545450 </i>
    <i name="XCdc">    196.87491194 </i>
    <i name="pawpsdc">   1606.30838033 </i>
    <i name="pawaedc">  -1612.56942176 </i>
    <i name="eentropy">     -0.01368467 </i>
    <i name="bandstr">   -317.88350341 </i>
    <i name="atom">   2202.35892741 </i>
    <i name="e_fr_energy">    318.86037864 </i>
    <i name="e_wo_entrp">    318.87406331 </i>
    <i name="e_0_energy">    318.86722097 </i>
   </energy>
  </scstep>
  <scstep>
   <time name="dav">    5.94    8.33</time>
   <time name="total">    5.94    8.34</time>
   <energy>
    <i name="e_fr_energy">   -119.73556738 </i>
    <i name="e_wo_entrp">   -119.71998509 </i>
    <i name="e_0_energy">   -119.72777624 </i>
   </energy>
  </scstep>
  <scstep>
   <time name="dav">    6.48    8.45</time>
   <time name="total">    6.48    8.46</time>
   <energy>
    <i name="e_fr_energy">   -151.50784236 </i>
    <i name="e_wo_entrp">   -151.49209122 </i>
    <i name="e_0_energy">   -151.49996679 </i>
   </energy>
  </scstep>
  <scstep>
   <time name="dav">    6.16    8.20</time>
   <time name="total">    6.17    8.22</time>
   <energy>
    <i name="e_fr_energy">   -151.98214813 </i>
    <i name="e_wo_entrp">   -151.96641723 </i>
    <i name="e_0_energy">   -151.97428268 </i>
   </energy>
  </scstep>
  <scstep>
   <time name="dav">    6.76    9.86</time>
   <time name="total">    6.96   10.13</time>
   <energy>
    <i name="e_fr_energy">   -151.99794571 </i>
    <i name="e_wo_entrp">   -151.98221377 </i>
    <i name="e_0_energy">   -151.99007974 </i>
   </energy>
  </scstep>
  <scstep>
   <time name="dav">    7.71   10.77</time>
   <time name="total">    8.06   11.23</time>
   <energy>
    <i name="e_fr_energy">   -143.47271370 </i>
    <i name="e_wo_entrp">   -143.46718900 </i>
    <i name="e_0_energy">   -143.46995135 </i>
   </energy>
  </scstep>
  <scstep>
   <time name="dav">    5.60    6.49</time>
   <time name="total">    5.80    6.77</time>
   <energy>
    <i name="e_fr_energy">   -140.53167325 </i>
    <i name="e_wo_entrp">   -140.53117479 </i>
    <i name="e_0_energy">   -140.53142402 </i>
   </energy>
  </scstep>
  <scstep>
   <time name="dav">    5.09    5.09</time>
   <time name="total">    5.33    5.36</time>
   <energy>
    <i name="e_fr_energy">   -140.49327943 </i>
    <i name="e_wo_entrp">   -140.49272020 </i>
    <i name="e_0_energy">   -140.49299981 </i>
   </energy>
  </scstep>
  <scstep>
   <time name="dav">    4.69    4.69</time>
   <time name="total">    4.85    4.85</time>
   <energy>
    <i name="e_fr_energy">   -140.47783335 </i>
    <i name="e_wo_entrp">   -140.47694218 </i>
    <i name="e_0_energy">   -140.47738777 </i>
   </energy>
  </scstep>
  <scstep>
   <time name="dav">    4.97    4.97</time>
   <time name="total">    5.18    5.18</time>
   <energy>
    <i name="e_fr_energy">   -140.46840816 </i>
    <i name="e_wo_entrp">   -140.46725492 </i>
    <i name="e_0_energy">   -140.46783154 </i>
   </energy>
  </scstep>
  <scstep>
   <time name="dav">    4.85    4.85</time>
   <time name="total">    5.01    5.01</time>
   <energy>
    <i name="e_fr_energy">   -140.46218028 </i>
    <i name="e_wo_entrp">   -140.46078764 </i>
    <i name="e_0_energy">   -140.46148396 </i>
   </energy>
  </scstep>
  <scstep>
   <time name="dav">    4.86    5.83</time>
   <time name="total">    5.10    6.12</time>
   <energy>
    <i name="e_fr_energy">   -140.46219596 </i>
    <i name="e_wo_entrp">   -140.46071727 </i>
    <i name="e_0_energy">   -140.46145662 </i>
   </energy>
  </scstep>
  <scstep>
   <time name="dav">    5.25    7.12</time>
   <time name="total">    5.44    7.35</time>
   <energy>
    <i name="e_fr_energy">   -140.46456035 </i>
    <i name="e_wo_entrp">   -140.46311782 </i>
    <i name="e_0_energy">   -140.46383908 </i>
   </energy>
  </scstep>
  <scstep>
   <time name="dav">    4.57    4.57</time>
   <time name="total">    4.75    4.77</time>
   <energy>
    <i name="e_fr_energy">   -140.46668408 </i>
    <i name="e_wo_entrp">   -140.46528182 </i>
    <i name="e_0_energy">   -140.46598295 </i>
   </energy>
  </scstep>
  <scstep>
   <time name="dav">    6.03    9.28</time>
   <time name="total">    6.24    9.55</time>
   <energy>
    <i name="e_fr_energy">   -140.46746636 </i>
    <i name="e_wo_entrp">   -140.46607414 </i>
    <i name="e_0_energy">   -140.46677025 </i>
   </energy>
  </scstep>
  <scstep>
   <time name="dav">    6.52   10.56</time>
   <time name="total">    6.74   10.87</time>
   <energy>
    <i name="e_fr_energy">   -140.46768835 </i>
    <i name="e_wo_entrp">   -140.46628899 </i>
    <i name="e_0_energy">   -140.46698867 </i>
   </energy>
  </scstep>
  <scstep>
   <time name="dav">    5.05    5.57</time>
   <time name="total">    5.23    5.79</time>
   <energy>
    <i name="e_fr_energy">   -140.46771048 </i>
    <i name="e_wo_entrp">   -140.46631183 </i>
    <i name="e_0_energy">   -140.46701115 </i>
   </energy>
  </scstep>
  <scstep>
   <time name="dav">    4.30    4.95</time>
   <time name="total">    4.50    5.21</time>
   <energy>
    <i name="e_fr_energy">   -140.46771825 </i>
    <i name="e_wo_entrp">   -140.46631956 </i>
    <i name="e_0_energy">   -140.46701890 </i>
   </energy>
  </scstep>
  <scstep>
   <time name="dav">    4.12    4.40</time>
   <time name="total">    4.30    4.65</time>
   <energy>
    <i name="e_fr_energy">   -140.46772050 </i>
    <i name="e_wo_entrp">   -140.46632259 </i>
    <i name="e_0_energy">   -140.46702155 </i>
   </energy>
  </scstep>
  <scstep>
   <time name="dav">    3.94    4.21</time>
   <time name="total">    4.13    4.47</time>
   <energy>
    <i name="e_fr_energy">   -140.46772155 </i>
    <i name="e_wo_entrp">   -140.46632390 </i>
    <i name="e_0_energy">   -140.46702273 </i>
   </energy>
  </scstep>
  <scstep>
   <time name="dav">    4.10    4.59</time>
   <time name="total">    4.14    4.66</time>
   <energy>
    <i name="alphaZ">     62.53960761 </i>
    <i name="ewald">   4665.29061569 </i>
    <i name="hartreedc">  -6715.84813360 </i>
    <i name="XCdc">    206.28257445 </i>
    <i name="pawpsdc">   6311.43175315 </i>
    <i name="pawaedc">  -6319.44246690 </i>
    <i name="eentropy">     -0.00139738 </i>
    <i name="bandstr">   -553.07920240 </i>
    <i name="atom">   2202.35892741 </i>
    <i name="e_fr_energy">   -140.46772197 </i>
    <i name="e_wo_entrp">   -140.46632460 </i>
    <i name="e_0_energy">   -140.46702328 </i>
   </energy>
  </scstep>
  <structure>
   <crystal>
    <varray name="basis" >
     <v>       4.36823214       2.52200000       0.00000000 </v>
     <v>      -4.36823214       2.52200000       0.00000000 </v>
     <v>       0.00000000       0.00000000      15.00000000 </v>
    </varray>
    <i name="volume">    330.50044346 </i>
    <varray name="rec_basis" >
     <v>       0.11446278       0.19825535       0.00000000 </v>
     <v>      -0.11446278       0.19825535       0.00000000 </v>
     <v>       0.00000000       0.00000000       0.06666667 </v>
    </varray>
   </crystal>
   <varray name="positions" >
    <v>       0.33833034       0.66916432       0.10000000 </v>
    <v>       0.67165522       0.33584146       0.10000000 </v>
    <v>       0.16373946       0.31999962       0.10000000 </v>
    <v>       0.32250218       0.16126397       0.10000000 </v>
    <v>       0.16376430       0.84376384       0.10000000 </v>
    <v>       0.84623863       0.16123684       0.10000000 </v>
    <v>       0.68749850       0.84373000       0.10000000 </v>
    <v>       0.84626736       0.68499594       0.10000000 </v>
    <v>       0.33333267       0.16666633       0.35120000 </v>
    <v>       0.49999967       0.99999933       0.35120000 </v>
    <v>       0.33333267       0.66666633       0.35120000 </v>
    <v>       0.49999967       0.49999933       0.35120000 </v>
    <v>       0.83333267       0.16666633       0.35120000 </v>
    <v>       0.99999967       0.99999933       0.35120000 </v>
    <v>       0.83333267       0.66666633       0.35120000 </v>
    <v>       0.99999967       0.49999933       0.35120000 </v>
   </varray>
  </structure>
  <varray name="forces" >
   <v>       0.00045429       0.00071985       0.04473251 </v>
   <v>       0.00507547       0.00057292       0.02618881 </v>
   <v>      -0.28473711       0.49238063       0.02023563 </v>
   <v>       0.28078429       0.48553510       0.02727689 </v>
   <v>       0.56983008      -0.00041714       0.02023624 </v>
   <v>      -0.56379788      -0.00071867       0.02724506 </v>
   <v>      -0.28585756      -0.49106075       0.02018754 </v>
   <v>       0.27813645      -0.48722237       0.02724406 </v>
   <v>      -0.00081345      -0.00164006      -0.02366355 </v>
   <v>      -0.00634854       0.01008323      -0.02154454 </v>
   <v>      -0.00003967      -0.00029453      -0.04901909 </v>
   <v>       0.01170490      -0.00034040      -0.02154613 </v>
   <v>       0.00218084       0.00013878      -0.02401237 </v>
   <v>       0.00000459       0.00024182      -0.02809909 </v>
   <v>      -0.00077145       0.00184476      -0.02401068 </v>
   <v>      -0.00580525      -0.00982317      -0.02145128 </v>
  </varray>
  <varray name="stress" >
   <v>       1.76085959       0.00065897       0.00097653 </v>
   <v>       0.00065898       1.76732208       0.00166517 </v>
   <v>       0.00097651       0.00166519      -6.25528730 </v>
  </varray>
  <energy>
   <i name="e_fr_energy">   -142.22610088 </i>
   <i name="e_wo_entrp">   -142.22470351 </i>
   <i name="e_0_energy">   -142.22540219 </i>
  </energy>
  <time name="totalsc">  120.57  150.69</time>
 </calculation>
 <calculation>
  <scstep>
   <time name="dav">    3.86    3.93</time>
   <time name="total">    4.04    4.11</time>
   <energy>
    <i name="alphaZ">     62.53960761 </i>
    <i name="ewald">   4661.93684003 </i>
    <i name="hartreedc">  -6714.84303902 </i>
    <i name="XCdc">    206.14588610 </i>
    <i name="pawpsdc">   6311.42618718 </i>
    <i name="pawaedc">  -6319.43689966 </i>
    <i name="eentropy">     -0.00623074 </i>
    <i name="bandstr">   -550.54036994 </i>
    <i name="atom">   2202.35892741 </i>
    <i name="e_fr_energy">   -140.41909104 </i>
    <i name="e_wo_entrp">   -140.41286030 </i>
    <i name="e_0_energy">   -140.41597567 </i>
   </energy>
  </scstep>
  <scstep>
   <time name="dav">    4.91    5.06</time>
   <time name="total">    5.08    5.25</time>
   <energy>
    <i name="e_fr_energy">   -140.38934248 </i>
    <i name="e_wo_entrp">   -140.38551231 </i>
    <i name="e_0_energy">   -140.38742740 </i>
   </energy>
  </scstep>
  <scstep>
   <time name="dav">    4.92    4.92</time>
   <time name="total">    5.11    5.13</time>
   <energy>
    <i name="e_fr_energy">   -140.38566240 </i>
    <i name="e_wo_entrp">   -140.38240605 </i>
    <i name="e_0_energy">   -140.38403422 </i>
   </energy>
  </scstep>
  <scstep>
   <time name="dav">    4.46    4.47</time>
   <time name="total">    4.61    4.63</time>
   <energy>
    <i name="e_fr_energy">   -140.38572630 </i>
    <i name="e_wo_entrp">   -140.38234662 </i>
    <i name="e_0_energy">   -140.38403646 </i>
   </energy>
  </scstep>
  <scstep>
   <time name="dav">    4.39    4.42</time>
   <time name="total">    4.54    4.57</time>
   <energy>
    <i name="e_fr_energy">   -140.38571680 </i>
    <i name="e_wo_entrp">   -140.38245192 </i>
    <i name="e_0_energy">   -140.38408436 </i>
   </energy>
  </scstep>
  <scstep>
   <time name="dav">    4.48    4.48</time>
   <time name="total">    4.63    4.64</time>
   <energy>
    <i name="e_fr_energy">   -140.38572418 </i>
    <i name="e_wo_entrp">   -140.38245516 </i>
    <i name="e_0_energy">   -140.38408967 </i>
   </energy>
  </scstep>
  <scstep>
   <time name="dav">    5.19    5.19</time>
   <time name="total">    5.35    5.35</time>
   <energy>
    <i name="e_fr_energy">   -140.38573857 </i>
    <i name="e_wo_entrp">   -140.38247880 </i>
    <i name="e_0_energy">   -140.38410868 </i>
   </energy>
  </scstep>
  <scstep>
   <time name="dav">    4.37    4.37</time>
   <time name="total">    4.52    4.52</time>
   <energy>
    <i name="e_fr_energy">   -140.38574643 </i>
    <i name="e_wo_entrp">   -140.38248643 </i>
    <i name="e_0_energy">   -140.38411643 </i>
   </energy>
  </scstep>
  <scstep>
   <time name="dav">    4.08    4.08</time>
   <time name="total">    4.23    4.23</time>
   <energy>
    <i name="e_fr_energy">   -140.38576057 </i>
    <i name="e_wo_entrp">   -140.38250667 </i>
    <i name="e_0_energy">   -140.38413362 </i>
   </energy>
  </scstep>
  <scstep>
   <time name="dav">    4.20    4.20</time>
   <time name="total">    4.35    4.35</time>
   <energy>
    <i name="e_fr_energy">   -140.38576197 </i>
    <i name="e_wo_entrp">   -140.38250920 </i>
    <i name="e_0_energy">   -140.38413559 </i>
   </energy>
  </scstep>
  <scstep>
   <time name="dav">    3.87    3.87</time>
   <time name="total">    4.02    4.02</time>
   <energy>
    <i name="e_fr_energy">   -140.38576668 </i>
    <i name="e_wo_entrp">   -140.38251581 </i>
    <i name="e_0_energy">   -140.38414125 </i>
   </energy>
  </scstep>
  <scstep>
   <time name="dav">    4.16    4.16</time>
   <time name="total">    4.18    4.18</time>
   <energy>
    <i name="alphaZ">     62.53960761 </i>
    <i name="ewald">   4661.93684003 </i>
    <i name="hartreedc">  -6712.27159944 </i>
    <i name="XCdc">    206.04169108 </i>
    <i name="pawpsdc">   6271.07404992 </i>
    <i name="pawaedc">  -6279.07084663 </i>
    <i name="eentropy">     -0.00325083 </i>
    <i name="bandstr">   -552.99118612 </i>
    <i name="atom">   2202.35892741 </i>
    <i name="e_fr_energy">   -140.38576698 </i>
    <i name="e_wo_entrp">   -140.38251616 </i>
    <i name="e_0_energy">   -140.38414157 </i>
   </energy>
  </scstep>
  <structure>
   <crystal>
    <varray name="basis" >
     <v>       4.36823214       2.52200000       0.00000000 </v>
     <v>      -4.36823214       2.52200000       0.00000000 </v>
     <v>       0.00000000       0.00000000      15.00000000 </v>
    </varray>
    <i name="volume">    330.50044346 </i>
    <varray name="rec_basis" >
     <v>       0.11446278       0.19825535       0.00000000 </v>
     <v>      -0.11446278       0.19825535       0.00000000 </v>
     <v>       0.00000000       0.00000000       0.06666667 </v>
    </varray>
   </crystal>
   <varray name="positions" >
    <v>       0.33833974       0.66916870       0.10014387 </v>
    <v>       0.67168872       0.33581891       0.10008423 </v>
    <v>       0.16687646       0.32628125       0.10006508 </v>
    <v>       0.32869651       0.16435731       0.10008773 </v>
    <v>       0.16690691       0.84061326       0.10006508 </v>
    <v>       0.84311848       0.16434325       0.10008762 </v>
    <v>       0.68122332       0.84061182       0.10006493 </v>
    <v>       0.84314325       0.67880010       0.10008762 </v>
    <v>       0.33331249       0.16665514       0.35112389 </v>
    <v>       0.50006105       0.00013083       0.35113071 </v>
    <v>       0.33332963       0.66666374       0.35104235 </v>
    <v>       0.50006105       0.49993144       0.35113070 </v>
    <v>       0.83334604       0.16665562       0.35112277 </v>
    <v>       0.00000200       0.00000162       0.35110963 </v>
    <v>       0.83334605       0.66668824       0.35112278 </v>
    <v>       0.99987366       0.49993744       0.35113101 </v>
   </varray>
  </structure>
  <varray name="forces" >
   <v>       0.00052908      -0.00084929       0.02672626 </v>
   <v>      -0.01229757      -0.00169285       0.02328853 </v>
   <v>       0.75334593      -1.30452199       0.03026050 </v>
   <v>      -0.74092401      -1.28644972       0.02355665 </v>
   <v>      -1.51076319      -0.00237696       0.03025898 </v>
   <v>       1.49604520       0.00481562       0.02356243 </v>
   <v>       0.75218835       1.30109913       0.03022613 </v>
   <v>      -0.73817330       1.28986267       0.02356712 </v>
   <v>       0.00260029       0.00528794      -0.02361790 </v>
   <v>       0.01527333      -0.02402182      -0.02874668 </v>
   <v>      -0.00000272       0.00074866      -0.02747972 </v>
   <v>      -0.02777972       0.00083597      -0.02874159 </v>
   <v>      -0.00677827      -0.00018069      -0.02366674 </v>
   <v>       0.00016251      -0.00048600      -0.02674541 </v>
   <v>       0.00256128      -0.00558147      -0.02367273 </v>
   <v>       0.01401282       0.02351080      -0.02877581 </v>
  </varray>
  <varray name="stress" >
   <v>      -5.61551398      -0.01631648       0.00075415 </v>
   <v>      -0.01631648      -5.66459923       0.00132501 </v>
   <v>       0.00075416       0.00132503      -6.22829055 </v>
  </varray>
  <energy>
   <i name="e_fr_energy">   -142.14912121 </i>
   <i name="e_wo_entrp">   -142.14587038 </i>
   <i name="e_0_energy">   -142.14749579 </i>
  </energy>
  <time name="totalsc">   58.89   59.24</time>
 </calculation>
 <calculation>
  <scstep>
   <time name="dav">    3.73    3.73</time>
   <time name="total">    3.89    3.89</time>
   <energy>
    <i name="alphaZ">     62.53960761 </i>
    <i name="ewald">   4664.15653209 </i>
    <i name="hartreedc">  -6712.73115890 </i>
    <i name="XCdc">    206.13370118 </i>
    <i name="pawpsdc">   6271.06982237 </i>
    <i name="pawaedc">  -6279.06664177 </i>
    <i name="eentropy">     -0.00060959 </i>
    <i name="bandstr">   -554.95593280 </i>
    <i name="atom">   2202.35892741 </i>
    <i name="e_fr_energy">   -140.49575240 </i>
    <i name="e_wo_entrp">   -140.49514281 </i>
    <i name="e_0_energy">   -140.49544760 </i>
   </energy>
  </scstep>
  <scstep>
   <time name="dav">    4.51    4.51</time>
   <time name="total">    4.66    4.67</time>
   <energy>
    <i name="e_fr_energy">   -140.48107413 </i>
    <i name="e_wo_entrp">   -140.47998979 </i>
    <i name="e_0_energy">   -140.48053196 </i>
   </energy>
  </scstep>
  <scstep>
   <time name="dav">    4.81    4.81</time>
   <time name="total">    4.97    4.97</time>
   <energy>
    <i name="e_fr_energy">   -140.47874830 </i>
    <i name="e_wo_entrp">   -140.47721390 </i>
    <i name="e_0_energy">   -140.47798110 </i>
   </energy>
  </scstep>
  <scstep>
   <time name="dav">    4.80    4.80</time>
   <time name="total">    4.95    4.95</time>
   <energy>
    <i name="e_fr_energy">   -140.47871662 </i>
    <i name="e_wo_entrp">   -140.47709255 </i>
    <i name="e_0_energy">   -140.47790459 </i>
   </energy>
  </scstep>
  <scstep>
   <time name="dav">    3.99    3.99</time>
   <time name="total">    4.14    4.14</time>
   <energy>
    <i name="e_fr_energy">   -140.47870103 </i>
    <i name="e_wo_entrp">   -140.47688999 </i>
    <i name="e_0_energy">   -140.47779551 </i>
   </energy>
  </scstep>
  <scstep>
   <time name="dav">    4.81    4.81</time>
   <time name="total">    4.96    4.96</time>
   <energy>
    <i name="e_fr_energy">   -140.47869954 </i>
    <i name="e_wo_entrp">   -140.47685939 </i>
    <i name="e_0_energy">   -140.47777947 </i>
   </energy>
  </scstep>
  <scstep>
   <time name="dav">    4.86    4.86</time>
   <time name="total">    5.02    5.02</time>
   <energy>
    <i name="e_fr_energy">   -140.47870305 </i>
    <i name="e_wo_entrp">   -140.47683158 </i>
    <i name="e_0_energy">   -140.47776732 </i>
   </energy>
  </scstep>
  <scstep>
   <time name="dav">    3.96    3.96</time>
   <time name="total">    4.11    4.11</time>
   <energy>
    <i name="e_fr_energy">   -140.47870635 </i>
    <i name="e_wo_entrp">   -140.47683081 </i>
    <i name="e_0_energy">   -140.47776858 </i>
   </energy>
  </scstep>
  <scstep>
   <time name="dav">    3.58    3.58</time>
   <time name="total">    3.73    3.73</time>
   <energy>
    <i name="e_fr_energy">   -140.47871558 </i>
    <i name="e_wo_entrp">   -140.47682824 </i>
    <i name="e_0_energy">   -140.47777191 </i>
   </energy>
  </scstep>
  <scstep>
   <time name="dav">    3.43    3.43</time>
   <time name="total">    3.59    3.59</time>
   <energy>
    <i name="e_fr_energy">   -140.47871857 </i>
    <i name="e_wo_entrp">   -140.47683167 </i>
    <i name="e_0_energy">   -140.47777512 </i>
   </energy>
  </scstep>
  <scstep>
   <time name="dav">    3.20    3.20</time>
   <time name="total">    3.35    3.35</time>
   <energy>
    <i name="e_fr_energy">   -140.47872190 </i>
    <i name="e_wo_entrp">   -140.47683496 </i>
    <i name="e_0_energy">   -140.47777843 </i>
   </energy>
  </scstep>
  <scstep>
   <time name="dav">    4.13    4.13</time>
   <time name="total">    4.15    4.15</time>
   <energy>
    <i name="alphaZ">     62.53960761 </i>
    <i name="ewald">   4664.15653209 </i>
    <i name="hartreedc">  -6714.69742076 </i>
    <i name="XCdc">    206.21244968 </i>
    <i name="pawpsdc">   6297.86952827 </i>
    <i name="pawaedc">  -6305.87541995 </i>
    <i name="eentropy">     -0.00188688 </i>
    <i name="bandstr">   -553.04103980 </i>
    <i name="atom">   2202.35892741 </i>
    <i name="e_fr_energy">   -140.47872234 </i>
    <i name="e_wo_entrp">   -140.47683545 </i>
    <i name="e_0_energy">   -140.47777889 </i>
   </energy>
  </scstep>
  <structure>
   <crystal>
    <varray name="basis" >
     <v>       4.36823214       2.52200000       0.00000000 </v>
     <v>      -4.36823214       2.52200000       0.00000000 </v>
     <v>       0.00000000       0.00000000      15.00000000 </v>
    </varray>
    <i name="volume">    330.50044346 </i>
    <varray name="rec_basis" >
     <v>       0.11446278       0.19825535       0.00000000 </v>
     <v>      -0.11446278       0.19825535       0.00000000 </v>
     <v>       0.00000000       0.00000000       0.06666667 </v>
    </varray>
   </crystal>
   <varray name="positions" >
    <v>       0.33833289       0.66916551       0.10003905 </v>
    <v>       0.67166431       0.33583534       0.10002286 </v>
    <v>       0.16459099       0.32170476       0.10001767 </v>
    <v>       0.32418362       0.16210365       0.10002381 </v>
    <v>       0.16461736       0.84290862       0.10001767 </v>
    <v>       0.84539167       0.16208007       0.10002379 </v>
    <v>       0.68579512       0.84288358       0.10001762 </v>
    <v>       0.84541932       0.68331409       0.10002378 </v>
    <v>       0.33332719       0.16666329       0.35117934 </v>
    <v>       0.50001633       0.00003503       0.35118119 </v>
    <v>       0.33333184       0.66666563       0.35115721 </v>
    <v>       0.50001633       0.49998090       0.35118119 </v>
    <v>       0.83333630       0.16666342       0.35117904 </v>
    <v>       0.00000030      -0.00000005       0.35117547 </v>
    <v>       0.83333630       0.66667228       0.35117904 </v>
    <v>       0.99996546       0.49998253       0.35118127 </v>
   </varray>
  </structure>
  <varray name="forces" >
   <v>       0.00044816       0.00030722       0.03970819 </v>
   <v>       0.00068789      -0.00001911       0.02553781 </v>
   <v>       0.00159251      -0.00331912       0.02295747 </v>
   <v>      -0.00130493      -0.00368304       0.02629144 </v>
   <v>      -0.00407285      -0.00105166       0.02295781 </v>
   <v>       0.00447352       0.00091876       0.02628752 </v>
   <v>       0.00046022       0.00323358       0.02290244 </v>
   <v>      -0.00235815       0.00346673       0.02628858 </v>
   <v>       0.00011000       0.00023701      -0.02364283 </v>
   <v>      -0.00050538       0.00085870      -0.02350986 </v>
   <v>      -0.00003489      -0.00001738      -0.04326532 </v>
   <v>       0.00103123      -0.00002793      -0.02350997 </v>
   <v>      -0.00025394       0.00004798      -0.02391221 </v>
   <v>       0.00004598       0.00003898      -0.02772915 </v>
   <v>       0.00012924      -0.00017443      -0.02391239 </v>
   <v>      -0.00044861      -0.00081629      -0.02344955 </v>
  </varray>
  <varray name="stress" >
   <v>      -0.72343343      -0.00504668       0.00092689 </v>
   <v>      -0.00504668      -0.73121548       0.00159880 </v>
   <v>       0.00092692       0.00159881      -6.24896540 </v>
  </varray>
  <energy>
   <i name="e_fr_energy">   -142.23870915 </i>
   <i name="e_wo_entrp">   -142.23682227 </i>
   <i name="e_0_energy">   -142.23776571 </i>
  </energy>
  <time name="totalsc">   55.75   55.78</time>
 </calculation>
 <calculation>
  <scstep>
   <time name="dav">    3.74    3.74</time>
   <time name="total">    3.89    3.89</time>
   <energy>
    <i name="alphaZ">     62.53960761 </i>
    <i name="ewald">   4668.45876177 </i>
    <i name="hartreedc">  -6718.99929124 </i>
    <i name="XCdc">    206.21345598 </i>
    <i name="pawpsdc">   6297.85823166 </i>
    <i name="pawaedc">  -6305.86411259 </i>
    <i name="eentropy">     -0.00188073 </i>
    <i name="bandstr">   -553.04223383 </i>
    <i name="atom">   2202.35892741 </i>
    <i name="e_fr_energy">   -140.47853396 </i>
    <i name="e_wo_entrp">   -140.47665324 </i>
    <i name="e_0_energy">   -140.47759360 </i>
   </energy>
  </scstep>
  <scstep>
   <time name="dav">    4.34    4.34</time>
   <time name="total">    4.49    4.49</time>
   <energy>
    <i name="e_fr_energy">   -140.47852864 </i>
    <i name="e_wo_entrp">   -140.47664470 </i>
    <i name="e_0_energy">   -140.47758667 </i>
   </energy>
  </scstep>
  <scstep>
   <time name="dav">    4.36    4.36</time>
   <time name="total">    4.51    4.52</time>
   <energy>
    <i name="e_fr_energy">   -140.47852691 </i>
    <i name="e_wo_entrp">   -140.47664611 </i>
    <i name="e_0_energy">   -140.47758651 </i>
   </energy>
  </scstep>
  <scstep>
   <time name="dav">    4.01    4.01</time>
   <time name="total">    4.16    4.16</time>
   <energy>
    <i name="e_fr_energy">   -140.47852798 </i>
    <i name="e_wo_entrp">   -140.47665151 </i>
    <i name="e_0_energy">   -140.47758975 </i>
   </energy>
  </scstep>
  <scstep>
   <time name="dav">    3.32    3.32</time>
   <time name="total">    3.48    3.48</time>
   <energy>
    <i name="e_fr_energy">   -140.47852910 </i>
    <i name="e_wo_entrp">   -140.47665554 </i>
    <i name="e_0_energy">   -140.47759232 </i>
   </energy>
  </scstep>
  <scstep>
   <time name="dav">    4.02    4.02</time>
   <time name="total">    4.04    4.04</time>
   <energy>
    <i name="alphaZ">     62.53960761 </i>
    <i name="ewald">   4668.45876177 </i>
    <i name="hartreedc">  -6719.01260212 </i>
    <i name="XCdc">    206.21307819 </i>
    <i name="pawpsdc">   6297.82761025 </i>
    <i name="pawaedc">  -6305.83348815 </i>
    <i name="eentropy">     -0.00187293 </i>
    <i name="bandstr">   -553.02855105 </i>
    <i name="atom">   2202.35892741 </i>
    <i name="e_fr_energy">   -140.47852903 </i>
    <i name="e_wo_entrp">   -140.47665610 </i>
    <i name="e_0_energy">   -140.47759257 </i>
   </energy>
  </scstep>
  <structure>
   <crystal>
    <varray name="basis" >
     <v>       4.36823214       2.52200000       0.00000000 </v>
     <v>      -4.36823214       2.52200000       0.00000000 </v>
     <v>       0.00000000       0.00000000      15.00000000 </v>
    </varray>
    <i name="volume">    330.50044346 </i>
    <varray name="rec_basis" >
     <v>       0.11446278       0.19825535       0.00000000 </v>
     <v>      -0.11446278       0.19825535       0.00000000 </v>
     <v>       0.00000000       0.00000000       0.06666667 </v>
    </varray>
   </crystal>
   <varray name="positions" >
    <v>       0.33833757       0.66916593       0.10014898 </v>
    <v>       0.67166759       0.33583181       0.10009351 </v>
    <v>       0.16458940       0.32170620       0.10008112 </v>
    <v>       0.32418295       0.16209748       0.10009655 </v>
    <v>       0.16460760       0.84290115       0.10008112 </v>
    <v>       0.84540236       0.16208432       0.10009652 </v>
    <v>       0.68578767       0.84288992       0.10008092 </v>
    <v>       0.84541858       0.68331796       0.10009652 </v>
    <v>       0.33332953       0.16666465       0.35111394 </v>
    <v>       0.50002131       0.00004518       0.35111620 </v>
    <v>       0.33333152       0.66666564       0.35103743 </v>
    <v>       0.50002132       0.49997542       0.35111620 </v>
    <v>       0.83333557       0.16666495       0.35111289 </v>
    <v>       0.00000085       0.00000007       0.35109876 </v>
    <v>       0.83333556       0.66667037       0.35111289 </v>
    <v>       0.99995595       0.49997762       0.35111645 </v>
   </varray>
  </structure>
  <varray name="forces" >
   <v>      -0.00145951      -0.00096607       0.03208080 </v>
   <v>      -0.00042617       0.00035693       0.02712747 </v>
   <v>       0.00479562      -0.00176723       0.02713813 </v>
   <v>      -0.00246242      -0.00348269       0.02386768 </v>
   <v>      -0.00312415       0.00098616       0.02713855 </v>
   <v>       0.00220014      -0.00093011       0.02385624 </v>
   <v>       0.00398494       0.00444507       0.02709092 </v>
   <v>      -0.00357787       0.00121192       0.02385773 </v>
   <v>      -0.00008450      -0.00025468      -0.02390682 </v>
   <v>       0.00098506      -0.00159587      -0.02769909 </v>
   <v>       0.00010778       0.00008100      -0.03107055 </v>
   <v>      -0.00197343       0.00011077      -0.02769773 </v>
   <v>       0.00034918      -0.00003811      -0.02400223 </v>
   <v>      -0.00007417      -0.00001480      -0.02605571 </v>
   <v>      -0.00011507       0.00023151      -0.02400356 </v>
   <v>       0.00087459       0.00162622      -0.02772183 </v>
  </varray>
  <varray name="stress" >
   <v>      -0.73668082       0.00358665       0.00093672 </v>
   <v>       0.00358666      -0.72010394       0.00163313 </v>
   <v>       0.00093673       0.00163313      -6.25168593 </v>
  </varray>
  <energy>
   <i name="e_fr_energy">   -142.23919378 </i>
   <i name="e_wo_entrp">   -142.23732085 </i>
   <i name="e_0_energy">   -142.23825732 </i>
  </energy>
  <time name="totalsc">   28.78   28.79</time>
 </calculation>
 <calculation>
  <scstep>
   <time name="dav">    3.73    3.73</time>
   <time name="total">    3.88    3.88</time>
   <energy>
    <i name="alphaZ">     62.53960761 </i>
    <i name="ewald">   4681.37850075 </i>
    <i name="hartreedc">  -6731.91797941 </i>
    <i name="XCdc">    206.21599541 </i>
    <i name="pawpsdc">   6297.84239767 </i>
    <i name="pawaedc">  -6305.84827525 </i>
    <i name="eentropy">     -0.00185409 </i>
    <i name="bandstr">   -553.04519935 </i>
    <i name="atom">   2202.35892741 </i>
    <i name="e_fr_energy">   -140.47787926 </i>
    <i name="e_wo_entrp">   -140.47602516 </i>
    <i name="e_0_energy">   -140.47695221 </i>
   </energy>
  </scstep>
  <scstep>
   <time name="dav">    4.04    4.04</time>
   <time name="total">    4.20    4.20</time>
   <energy>
    <i name="e_fr_energy">   -140.47786092 </i>
    <i name="e_wo_entrp">   -140.47599739 </i>
    <i name="e_0_energy">   -140.47692915 </i>
   </energy>
  </scstep>
  <scstep>
   <time name="dav">    3.86    3.86</time>
   <time name="total">    4.01    4.01</time>
   <energy>
    <i name="e_fr_energy">   -140.47782365 </i>
    <i name="e_wo_entrp">   -140.47596956 </i>
    <i name="e_0_energy">   -140.47689660 </i>
   </energy>
  </scstep>
  <scstep>
   <time name="dav">    4.87    4.87</time>
   <time name="total">    5.03    5.03</time>
   <energy>
    <i name="e_fr_energy">   -140.47782834 </i>
    <i name="e_wo_entrp">   -140.47598714 </i>
    <i name="e_0_energy">   -140.47690774 </i>
   </energy>
  </scstep>
  <scstep>
   <time name="dav">    4.72    4.72</time>
   <time name="total">    4.88    4.88</time>
   <energy>
    <i name="e_fr_energy">   -140.47783356 </i>
    <i name="e_wo_entrp">   -140.47600119 </i>
    <i name="e_0_energy">   -140.47691737 </i>
   </energy>
  </scstep>
  <scstep>
   <time name="dav">    4.18    4.18</time>
   <time name="total">    4.20    4.21</time>
   <energy>
    <i name="alphaZ">     62.53960761 </i>
    <i name="ewald">   4681.37850075 </i>
    <i name="hartreedc">  -6731.94702508 </i>
    <i name="XCdc">    206.21478565 </i>
    <i name="pawpsdc">   6297.81074694 </i>
    <i name="pawaedc">  -6305.81661235 </i>
    <i name="eentropy">     -0.00183021 </i>
    <i name="bandstr">   -553.01493400 </i>
    <i name="atom">   2202.35892741 </i>
    <i name="e_fr_energy">   -140.47783329 </i>
    <i name="e_wo_entrp">   -140.47600307 </i>
    <i name="e_0_energy">   -140.47691818 </i>
   </energy>
  </scstep>
  <structure>
   <crystal>
    <varray name="basis" >
     <v>       4.36823214       2.52200000       0.00000000 </v>
     <v>      -4.36823214       2.52200000       0.00000000 </v>
     <v>       0.00000000       0.00000000      15.00000000 </v>
    </varray>
    <i name="volume">    330.50044346 </i>
    <varray name="rec_basis" >
     <v>       0.11446278       0.19825535       0.00000000 </v>
     <v>      -0.11446278       0.19825535       0.00000000 </v>
     <v>       0.00000000       0.00000000       0.06666667 </v>
    </varray>
   </crystal>
   <varray name="positions" >
    <v>       0.33835161       0.66916719       0.10047876 </v>
    <v>       0.67167744       0.33582122       0.10030546 </v>
    <v>       0.16458463       0.32171053       0.10027147 </v>
    <v>       0.32418092       0.16207896       0.10031478 </v>
    <v>       0.16457832       0.84287873       0.10027147 </v>
    <v>       0.84543444       0.16209705       0.10031470 </v>
    <v>       0.68576533       0.84290895       0.10027082 </v>
    <v>       0.84541636       0.68332957       0.10031471 </v>
    <v>       0.33333655       0.16666871       0.35091775 </v>
    <v>       0.50003627       0.00007565       0.35092122 </v>
    <v>       0.33333055       0.66666566       0.35067809 </v>
    <v>       0.50003628       0.49995897       0.35092122 </v>
    <v>       0.83333338       0.16666954       0.35091446 </v>
    <v>       0.00000250       0.00000041       0.35086864 </v>
    <v>       0.83333335       0.66666464       0.35091446 </v>
    <v>       0.99992742       0.49996290       0.35092197 </v>
   </varray>
  </structure>
  <varray name="forces" >
   <v>      -0.00718128      -0.00478890       0.00926379 </v>
   <v>      -0.00376449       0.00148433       0.03192571 </v>
   <v>       0.01436479       0.00298813       0.03988154 </v>
   <v>      -0.00588749      -0.00283637       0.01678082 </v>
   <v>      -0.00017488       0.00707624       0.03988581 </v>
   <v>      -0.00467150      -0.00645907       0.01675230 </v>
   <v>       0.01447442       0.00800530       0.03985249 </v>
   <v>      -0.00723213      -0.00562050       0.01675098 </v>
   <v>      -0.00066516      -0.00172756      -0.02484284 </v>
   <v>       0.00547210      -0.00898256      -0.04042378 </v>
   <v>       0.00053718       0.00037604       0.00532568 </v>
   <v>      -0.01101287       0.00052800      -0.04041845 </v>
   <v>       0.00215828      -0.00029570      -0.02441691 </v>
   <v>      -0.00043223      -0.00017493      -0.02120046 </v>
   <v>      -0.00084489       0.00144821      -0.02442140 </v>
   <v>       0.00486013       0.00897933      -0.04069527 </v>
  </varray>
  <varray name="stress" >
   <v>      -0.77731423       0.02949686       0.00084036 </v>
   <v>       0.02949684      -0.68767761       0.00166172 </v>
   <v>       0.00084035       0.00166172      -6.25326331 </v>
  </varray>
  <energy>
   <i name="e_fr_energy">   -142.24053880 </i>
   <i name="e_wo_entrp">   -142.23870858 </i>
   <i name="e_0_energy">   -142.23962369 </i>
  </energy>
  <time name="totalsc">   30.41   30.42</time>
 </calculation>
 <calculation>
  <scstep>
   <time name="dav">    3.72    3.72</time>
   <time name="total">    3.88    3.88</time>
   <energy>
    <i name="alphaZ">     62.53960761 </i>
    <i name="ewald">   4707.27670803 </i>
    <i name="hartreedc">  -6757.80536970 </i>
    <i name="XCdc">    206.22048446 </i>
    <i name="pawpsdc">   6297.84286572 </i>
    <i name="pawaedc">  -6305.84872969 </i>
    <i name="eentropy">     -0.00179105 </i>
    <i name="bandstr">   -553.05881120 </i>
    <i name="atom">   2202.35892741 </i>
    <i name="e_fr_energy">   -140.47610841 </i>
    <i name="e_wo_entrp">   -140.47431736 </i>
    <i name="e_0_energy">   -140.47521288 </i>
   </energy>
  </scstep>
  <scstep>
   <time name="dav">    4.26    4.26</time>
   <time name="total">    4.41    4.41</time>
   <energy>
    <i name="e_fr_energy">   -140.47610563 </i>
    <i name="e_wo_entrp">   -140.47429780 </i>
    <i name="e_0_energy">   -140.47520172 </i>
   </energy>
  </scstep>
  <scstep>
   <time name="dav">    4.05    4.05</time>
   <time name="total">    4.20    4.20</time>
   <energy>
    <i name="e_fr_energy">   -140.47590666 </i>
    <i name="e_wo_entrp">   -140.47411675 </i>
    <i name="e_0_energy">   -140.47501171 </i>
   </energy>
  </scstep>
  <scstep>
   <time name="dav">    4.69    4.69</time>
   <time name="total">    4.84    4.84</time>
   <energy>
    <i name="e_fr_energy">   -140.47592403 </i>
    <i name="e_wo_entrp">   -140.47416010 </i>
    <i name="e_0_energy">   -140.47504206 </i>
   </energy>
  </scstep>
  <scstep>
   <time name="dav">    5.03    5.03</time>
   <time name="total">    5.18    5.18</time>
   <energy>
    <i name="e_fr_energy">   -140.47593190 </i>
    <i name="e_wo_entrp">   -140.47418551 </i>
    <i name="e_0_energy">   -140.47505871 </i>
   </energy>
  </scstep>
  <scstep>
   <time name="dav">    4.54    4.54</time>
   <time name="total">    4.56    4.56</time>
   <energy>
    <i name="alphaZ">     62.53960761 </i>
    <i name="ewald">   4707.27670803 </i>
    <i name="hartreedc">  -6757.85942746 </i>
    <i name="XCdc">    206.21797287 </i>
    <i name="pawpsdc">   6297.75137686 </i>
    <i name="pawaedc">  -6305.75720899 </i>
    <i name="eentropy">     -0.00174166 </i>
    <i name="bandstr">   -553.00214623 </i>
    <i name="atom">   2202.35892741 </i>
    <i name="e_fr_energy">   -140.47593156 </i>
    <i name="e_wo_entrp">   -140.47418990 </i>
    <i name="e_0_energy">   -140.47506073 </i>
   </energy>
  </scstep>
  <structure>
   <crystal>
    <varray name="basis" >
     <v>       4.36823214       2.52200000       0.00000000 </v>
     <v>      -4.36823214       2.52200000       0.00000000 </v>
     <v>       0.00000000       0.00000000      15.00000000 </v>
    </varray>
    <i name="volume">    330.50044346 </i>
    <varray name="rec_basis" >
     <v>       0.11446278       0.19825535       0.00000000 </v>
     <v>      -0.11446278       0.19825535       0.00000000 </v>
     <v>       0.00000000       0.00000000       0.06666667 </v>
    </varray>
   </crystal>
   <varray name="positions" >
    <v>       0.33837968       0.66916972       0.10113832 </v>
    <v>       0.67169712       0.33580003       0.10072936 </v>
    <v>       0.16457508       0.32171918       0.10065217 </v>
    <v>       0.32417687       0.16204192       0.10075122 </v>
    <v>       0.16451977       0.84283389       0.10065218 </v>
    <v>       0.84549859       0.16212251       0.10075108 </v>
    <v>       0.68572066       0.84294700       0.10065061 </v>
    <v>       0.84541192       0.68335277       0.10075111 </v>
    <v>       0.33335058       0.16667683       0.35052537 </v>
    <v>       0.50006618       0.00013658       0.35053127 </v>
    <v>       0.33332860       0.66666570       0.34995942 </v>
    <v>       0.50006622       0.49992608       0.35053126 </v>
    <v>       0.83332900       0.16667871       0.35051760 </v>
    <v>       0.00000579       0.00000110       0.35040841 </v>
    <v>       0.83332891       0.66665319       0.35051760 </v>
    <v>       0.99987037       0.49993344       0.35053302 </v>
   </varray>
  </structure>
  <varray name="forces" >
   <v>      -0.01862220      -0.01244167      -0.03628244 </v>
   <v>      -0.01044319       0.00373528       0.04153740 </v>
   <v>       0.03343017       0.01265097       0.06552157 </v>
   <v>      -0.01273533      -0.00155089       0.00279159 </v>
   <v>       0.00586909       0.01928043       0.06555785 </v>
   <v>      -0.01842462      -0.01752896       0.00275416 </v>
   <v>       0.03536861       0.01497690       0.06550828 </v>
   <v>      -0.01451400      -0.01927458       0.00272592 </v>
   <v>      -0.00181802      -0.00465932      -0.02685195 </v>
   <v>       0.01451521      -0.02387461      -0.06600810 </v>
   <v>       0.00139248       0.00096192       0.07791958 </v>
   <v>      -0.02922908       0.00136366      -0.06599660 </v>
   <v>       0.00575471      -0.00081285      -0.02538437 </v>
   <v>      -0.00114882      -0.00049519      -0.01162166 </v>
   <v>      -0.00229543       0.00386213      -0.02539522 </v>
   <v>       0.01290042       0.02380678      -0.06677603 </v>
  </varray>
  <varray name="stress" >
   <v>      -0.86171126       0.08135401       0.00007119 </v>
   <v>       0.08135401      -0.62594024       0.00133718 </v>
   <v>       0.00007120       0.00133715      -6.25211973 </v>
  </varray>
  <energy>
   <i name="e_fr_energy">   -142.24274952 </i>
   <i name="e_wo_entrp">   -142.24100786 </i>
   <i name="e_0_energy">   -142.24187869 </i>
  </energy>
  <time name="totalsc">   31.29   31.30</time>
 </calculation>
 <calculation>
  <scstep>
   <time name="dav">    3.76    3.76</time>
   <time name="total">    3.91    3.91</time>
   <energy>
    <i name="alphaZ">     62.53960761 </i>
    <i name="ewald">   4759.30807508 </i>
    <i name="hartreedc">  -6809.79381545 </i>
    <i name="XCdc">    206.22909130 </i>
    <i name="pawpsdc">   6297.76520140 </i>
    <i name="pawaedc">  -6305.77102333 </i>
    <i name="eentropy">     -0.00165931 </i>
    <i name="bandstr">   -553.10510504 </i>
    <i name="atom">   2202.35892741 </i>
    <i name="e_fr_energy">   -140.47070035 </i>
    <i name="e_wo_entrp">   -140.46904103 </i>
    <i name="e_0_energy">   -140.46987069 </i>
   </energy>
  </scstep>
  <scstep>
   <time name="dav">    4.54    4.54</time>
   <time name="total">    4.69    4.69</time>
   <energy>
    <i name="e_fr_energy">   -140.47099783 </i>
    <i name="e_wo_entrp">   -140.46931256 </i>
    <i name="e_0_energy">   -140.47015520 </i>
   </energy>
  </scstep>
  <scstep>
   <time name="dav">    4.14    4.14</time>
   <time name="total">    4.30    4.30</time>
   <energy>
    <i name="e_fr_energy">   -140.46995586 </i>
    <i name="e_wo_entrp">   -140.46830251 </i>
    <i name="e_0_energy">   -140.46912919 </i>
   </energy>
  </scstep>
  <scstep>
   <time name="dav">    4.70    4.70</time>
   <time name="total">    4.85    4.85</time>
   <energy>
    <i name="e_fr_energy">   -140.47005930 </i>
    <i name="e_wo_entrp">   -140.46845730 </i>
    <i name="e_0_energy">   -140.46925830 </i>
   </energy>
  </scstep>
  <scstep>
   <time name="dav">    5.23    5.23</time>
   <time name="total">    5.39    5.39</time>
   <energy>
    <i name="e_fr_energy">   -140.47009073 </i>
    <i name="e_wo_entrp">   -140.46852240 </i>
    <i name="e_0_energy">   -140.46930656 </i>
   </energy>
  </scstep>
  <scstep>
   <time name="dav">    4.66    4.66</time>
   <time name="total">    4.82    4.82</time>
   <energy>
    <i name="e_fr_energy">   -140.47008809 </i>
    <i name="e_wo_entrp">   -140.46853247 </i>
    <i name="e_0_energy">   -140.46931028 </i>
   </energy>
  </scstep>
  <scstep>
   <time name="dav">    4.46    4.46</time>
   <time name="total">    4.61    4.61</time>
   <energy>
    <i name="e_fr_energy">   -140.47009410 </i>
    <i name="e_wo_entrp">   -140.46854613 </i>
    <i name="e_0_energy">   -140.46932012 </i>
   </energy>
  </scstep>
  <scstep>
   <time name="dav">    4.27    4.27</time>
   <time name="total">    4.42    4.42</time>
   <energy>
    <i name="e_fr_energy">   -140.47010118 </i>
    <i name="e_wo_entrp">   -140.46855978 </i>
    <i name="e_0_energy">   -140.46933048 </i>
   </energy>
  </scstep>
  <scstep>
   <time name="dav">    3.94    3.94</time>
   <time name="total">    4.09    4.09</time>
   <energy>
    <i name="e_fr_energy">   -140.47010689 </i>
    <i name="e_wo_entrp">   -140.46856610 </i>
    <i name="e_0_energy">   -140.46933649 </i>
   </energy>
  </scstep>
  <scstep>
   <time name="dav">    3.98    3.98</time>
   <time name="total">    4.13    4.13</time>
   <energy>
    <i name="e_fr_energy">   -140.47011058 </i>
    <i name="e_wo_entrp">   -140.46856999 </i>
    <i name="e_0_energy">   -140.46934028 </i>
   </energy>
  </scstep>
  <scstep>
   <time name="dav">    3.97    3.97</time>
   <time name="total">    4.13    4.13</time>
   <energy>
    <i name="e_fr_energy">   -140.47011172 </i>
    <i name="e_wo_entrp">   -140.46857047 </i>
    <i name="e_0_energy">   -140.46934110 </i>
   </energy>
  </scstep>
  <scstep>
   <time name="dav">    3.80    3.80</time>
   <time name="total">    3.82    3.82</time>
   <energy>
    <i name="alphaZ">     62.53960761 </i>
    <i name="ewald">   4759.30807508 </i>
    <i name="hartreedc">  -6809.66402715 </i>
    <i name="XCdc">    206.22192659 </i>
    <i name="pawpsdc">   6297.48935921 </i>
    <i name="pawaedc">  -6305.49512694 </i>
    <i name="eentropy">     -0.00154150 </i>
    <i name="bandstr">   -553.22731253 </i>
    <i name="atom">   2202.35892741 </i>
    <i name="e_fr_energy">   -140.47011224 </i>
    <i name="e_wo_entrp">   -140.46857073 </i>
    <i name="e_0_energy">   -140.46934149 </i>
   </energy>
  </scstep>
  <structure>
   <crystal>
    <varray name="basis" >
     <v>       4.36823214       2.52200000       0.00000000 </v>
     <v>      -4.36823214       2.52200000       0.00000000 </v>
     <v>       0.00000000       0.00000000      15.00000000 </v>
    </varray>
    <i name="volume">    330.50044346 </i>
    <varray name="rec_basis" >
     <v>       0.11446278       0.19825535       0.00000000 </v>
     <v>      -0.11446278       0.19825535       0.00000000 </v>
     <v>       0.00000000       0.00000000       0.06666667 </v>
    </varray>
   </crystal>
   <varray name="positions" >
    <v>       0.33843582       0.66917478       0.10245743 </v>
    <v>       0.67173650       0.33575767       0.10157716 </v>
    <v>       0.16455597       0.32173649       0.10141358 </v>
    <v>       0.32416876       0.16196785       0.10162411 </v>
    <v>       0.16440267       0.84274421       0.10141360 </v>
    <v>       0.84562689       0.16217343       0.10162383 </v>
    <v>       0.68563130       0.84302311       0.10141019 </v>
    <v>       0.84540304       0.68339919       0.10162390 </v>
    <v>       0.33337866       0.16669307       0.34974061 </v>
    <v>       0.50012599       0.00025845       0.34975136 </v>
    <v>       0.33332471       0.66666580       0.34852207 </v>
    <v>       0.50012609       0.49986028       0.34975135 </v>
    <v>       0.83332026       0.16669705       0.34972388 </v>
    <v>       0.00001238       0.00000248       0.34948793 </v>
    <v>       0.83332005       0.66663028       0.34972387 </v>
    <v>       0.99975625       0.49987454       0.34975512 </v>
   </varray>
  </structure>
  <varray name="forces" >
   <v>      -0.04146960      -0.02774549      -0.12739933 </v>
   <v>      -0.02377320       0.00823855       0.06028688 </v>
   <v>       0.07127314       0.03247518       0.11693108 </v>
   <v>      -0.02642707       0.00087429      -0.02502439 </v>
   <v>       0.01844357       0.04368813       0.11712056 </v>
   <v>      -0.04583186      -0.03969427      -0.02496859 </v>
   <v>       0.07679323       0.02846124       0.11687279 </v>
   <v>      -0.02908139      -0.04645241      -0.02514831 </v>
   <v>      -0.00407473      -0.01044170      -0.03092259 </v>
   <v>       0.03285075      -0.05407882      -0.11720887 </v>
   <v>       0.00309162       0.00211696       0.22290602 </v>
   <v>      -0.06614746       0.00304147      -0.11719175 </v>
   <v>       0.01283967      -0.00185000      -0.02737584 </v>
   <v>      -0.00257794      -0.00112906       0.00748651 </v>
   <v>      -0.00514270       0.00859482      -0.02739853 </v>
   <v>       0.02923397       0.05390112      -0.11896565 </v>
  </varray>
  <varray name="stress" >
   <v>      -1.04352331       0.18467362      -0.00373024 </v>
   <v>       0.18467362      -0.51686515      -0.00076541 </v>
   <v>      -0.00373025      -0.00076543      -6.14006065 </v>
  </varray>
  <energy>
   <i name="e_fr_energy">   -142.24527887 </i>
   <i name="e_wo_entrp">   -142.24373737 </i>
   <i name="e_0_energy">   -142.24450812 </i>
  </energy>
  <time name="totalsc">   57.48   57.49</time>
 </calculation>
 <calculation>
  <scstep>
   <time name="dav">    3.88    3.88</time>
   <time name="total">    4.04    4.04</time>
   <energy>
    <i name="alphaZ">     62.53960761 </i>
    <i name="ewald">   4785.07439347 </i>
    <i name="hartreedc">  -6835.41741312 </i>
    <i name="XCdc">    206.22773150 </i>
    <i name="pawpsdc">   6297.48679744 </i>
    <i name="pawaedc">  -6305.49256747 </i>
    <i name="eentropy">     -0.00150454 </i>
    <i name="bandstr">   -553.24237141 </i>
    <i name="atom">   2202.35892741 </i>
    <i name="e_fr_energy">   -140.46639911 </i>
    <i name="e_wo_entrp">   -140.46489457 </i>
    <i name="e_0_energy">   -140.46564684 </i>
   </energy>
  </scstep>
  <scstep>
   <time name="dav">    4.36    4.36</time>
   <time name="total">    4.53    4.53</time>
   <energy>
    <i name="e_fr_energy">   -140.46639571 </i>
    <i name="e_wo_entrp">   -140.46488079 </i>
    <i name="e_0_energy">   -140.46563825 </i>
   </energy>
  </scstep>
  <scstep>
   <time name="dav">    4.08    4.08</time>
   <time name="total">    4.25    4.26</time>
   <energy>
    <i name="e_fr_energy">   -140.46620630 </i>
    <i name="e_wo_entrp">   -140.46471087 </i>
    <i name="e_0_energy">   -140.46545859 </i>
   </energy>
  </scstep>
  <scstep>
   <time name="dav">    4.92    4.92</time>
   <time name="total">    5.07    5.07</time>
   <energy>
    <i name="e_fr_energy">   -140.46622260 </i>
    <i name="e_wo_entrp">   -140.46475060 </i>
    <i name="e_0_energy">   -140.46548660 </i>
   </energy>
  </scstep>
  <scstep>
   <time name="dav">    5.32    5.32</time>
   <time name="total">    5.49    5.49</time>
   <energy>
    <i name="e_fr_energy">   -140.46623165 </i>
    <i name="e_wo_entrp">   -140.46477725 </i>
    <i name="e_0_energy">   -140.46550445 </i>
   </energy>
  </scstep>
  <scstep>
   <time name="dav">    4.83    4.83</time>
   <time name="total">    5.00    5.00</time>
   <energy>
    <i name="e_fr_energy">   -140.46623055 </i>
    <i name="e_wo_entrp">   -140.46478146 </i>
    <i name="e_0_energy">   -140.46550601 </i>
   </energy>
  </scstep>
  <scstep>
   <time name="dav">    4.21    4.21</time>
   <time name="total">    4.23    4.23</time>
   <energy>
    <i name="alphaZ">     62.53960761 </i>
    <i name="ewald">   4785.07439347 </i>
    <i name="hartreedc">  -6835.45133710 </i>
    <i name="XCdc">    206.22451855 </i>
    <i name="pawpsdc">   6297.20654645 </i>
    <i name="pawaedc">  -6305.21218098 </i>
    <i name="eentropy">     -0.00144500 </i>
    <i name="bandstr">   -553.20526175 </i>
    <i name="atom">   2202.35892741 </i>
    <i name="e_fr_energy">   -140.46623135 </i>
    <i name="e_wo_entrp">   -140.46478635 </i>
    <i name="e_0_energy">   -140.46550885 </i>
   </energy>
  </scstep>
  <structure>
   <crystal>
    <varray name="basis" >
     <v>       4.36823214       2.52200000       0.00000000 </v>
     <v>      -4.36823214       2.52200000       0.00000000 </v>
     <v>       0.00000000       0.00000000      15.00000000 </v>
    </varray>
    <i name="volume">    330.50044346 </i>
    <varray name="rec_basis" >
     <v>       0.11446278       0.19825535       0.00000000 </v>
     <v>      -0.11446278       0.19825535       0.00000000 </v>
     <v>       0.00000000       0.00000000       0.06666667 </v>
    </varray>
   </crystal>
   <varray name="positions" >
    <v>       0.33846349       0.66917727       0.10310774 </v>
    <v>       0.67175591       0.33573678       0.10199512 </v>
    <v>       0.16454656       0.32174503       0.10178894 </v>
    <v>       0.32416476       0.16193134       0.10205444 </v>
    <v>       0.16434494       0.84270000       0.10178897 </v>
    <v>       0.84569014       0.16219853       0.10205409 </v>
    <v>       0.68558725       0.84306063       0.10178466 </v>
    <v>       0.84539867       0.68342207       0.10205417 </v>
    <v>       0.33339250       0.16670107       0.34935373 </v>
    <v>       0.50015548       0.00031853       0.34936687 </v>
    <v>       0.33332280       0.66666584       0.34781347 </v>
    <v>       0.50015560       0.49982785       0.34936686 </v>
    <v>       0.83331594       0.16670609       0.34933258 </v>
    <v>       0.00001562       0.00000316       0.34903415 </v>
    <v>       0.83331568       0.66661898       0.34933257 </v>
    <v>       0.99969999       0.49984550       0.34937163 </v>
   </varray>
  </structure>
  <varray name="forces" >
   <v>      -0.05271923      -0.03529318      -0.17197506 </v>
   <v>      -0.03035667       0.01045734       0.06974343 </v>
   <v>       0.08975462       0.04260979       0.14209550 </v>
   <v>      -0.03316173       0.00210866      -0.03889171 </v>
   <v>       0.02504057       0.05575134       0.14240527 </v>
   <v>      -0.05938147      -0.05070198      -0.03872789 </v>
   <v>       0.09704141       0.03481553       0.14197248 </v>
   <v>      -0.03629202      -0.05990984      -0.03901427 </v>
   <v>      -0.00517417      -0.01327386      -0.03289755 </v>
   <v>       0.04203411      -0.06921136      -0.14241879 </v>
   <v>       0.00392649       0.00268235       0.29449212 </v>
[...]
       <r>   -8.3380    1.0000 </r>
       <r>   -8.3358    1.0000 </r>
       <r>   -7.5323    1.0000 </r>
       <r>   -6.8100    1.0000 </r>
       <r>   -6.8087    1.0000 </r>
       <r>   -6.4672    1.0000 </r>
       <r>   -6.2592    1.0000 </r>
       <r>   -6.1312    1.0000 </r>
       <r>   -6.1103    1.0000 </r>
       <r>   -5.6840    1.0000 </r>
       <r>   -5.5526    1.0000 </r>
       <r>   -5.1144    1.0000 </r>
       <r>   -4.9294    1.0000 </r>
       <r>   -4.1971    1.0000 </r>
       <r>   -4.1773    1.0000 </r>
       <r>   -3.7712    1.0000 </r>
       <r>   -3.7202    1.0000 </r>
       <r>   -1.3203    0.9979 </r>
       <r>   -0.4920    0.0000 </r>
       <r>    0.5965    0.0000 </r>
       <r>    1.3701    0.0000 </r>
       <r>    4.4695    0.0000 </r>
       <r>    5.2055    0.0000 </r>
       <r>    5.2098    0.0000 </r>
       <r>    5.3803    0.0000 </r>
       <r>    5.3865    0.0000 </r>
       <r>    5.8105    0.0000 </r>
       <r>    5.8515    0.0000 </r>
       <r>    5.8997    0.0000 </r>
       <r>    6.5034    0.0000 </r>
       <r>    6.5542    0.0000 </r>
       <r>    6.9946    0.0000 </r>
       <r>    7.0077    0.0000 </r>
       <r>    7.3755    0.0000 </r>
       <r>    7.5130    0.0000 </r>
      </set>
      <set comment="kpoint 61">
       <r>  -18.1348    1.0000 </r>
       <r>  -18.1335    1.0000 </r>
       <r>  -17.6342    1.0000 </r>
       <r>  -17.2936    1.0000 </r>
       <r>  -15.4504    1.0000 </r>
       <r>  -15.1784    1.0000 </r>
       <r>  -13.6186    1.0000 </r>
       <r>  -12.9483    1.0000 </r>
       <r>  -10.9868    1.0000 </r>
       <r>  -10.8469    1.0000 </r>
       <r>  -10.4504    1.0000 </r>
       <r>   -9.0682    1.0000 </r>
       <r>   -8.9173    1.0000 </r>
       <r>   -8.3380    1.0000 </r>
       <r>   -8.3358    1.0000 </r>
       <r>   -7.5323    1.0000 </r>
       <r>   -6.8100    1.0000 </r>
       <r>   -6.8086    1.0000 </r>
       <r>   -6.4672    1.0000 </r>
       <r>   -6.2592    1.0000 </r>
       <r>   -6.1312    1.0000 </r>
       <r>   -6.1103    1.0000 </r>
       <r>   -5.6840    1.0000 </r>
       <r>   -5.5526    1.0000 </r>
       <r>   -5.1144    1.0000 </r>
       <r>   -4.9294    1.0000 </r>
       <r>   -4.1971    1.0000 </r>
       <r>   -4.1773    1.0000 </r>
       <r>   -3.7712    1.0000 </r>
       <r>   -3.7202    1.0000 </r>
       <r>   -1.3203    0.9979 </r>
       <r>   -0.4920    0.0000 </r>
       <r>    0.5964    0.0000 </r>
       <r>    1.3701    0.0000 </r>
       <r>    4.4696    0.0000 </r>
       <r>    5.2055    0.0000 </r>
       <r>    5.2098    0.0000 </r>
       <r>    5.3803    0.0000 </r>
       <r>    5.3865    0.0000 </r>
       <r>    5.8105    0.0000 </r>
       <r>    5.8515    0.0000 </r>
       <r>    5.8997    0.0000 </r>
       <r>    6.5033    0.0000 </r>
       <r>    6.5542    0.0000 </r>
       <r>    6.9946    0.0000 </r>
       <r>    7.0078    0.0000 </r>
       <r>    7.3755    0.0000 </r>
       <r>    7.5130    0.0000 </r>
      </set>
     </set>
    </set>
   </array>
  </eigenvalues>
  <separator name="orbital magnetization" >
   <v name="MAGDIPOLOUT">      0.00000000      0.00000000      0.00000000</v>
  </separator>
  <dos>
   <i name="efermi">     -1.11815434 </i>
   <total>
    <array>
     <dimension dim="1">gridpoints</dimension>
     <dimension dim="2">spin</dimension>
     <field>energy</field>
     <field>total</field>
     <field>integrated</field>
     <set>
      <set comment="spin 1">
       <r>   -21.2622     0.0000     0.0000 </r>
       <r>   -21.1587     0.0000     0.0000 </r>
       <r>   -21.0552     0.0000     0.0000 </r>
       <r>   -20.9517     0.0000     0.0000 </r>
       <r>   -20.8482     0.0000     0.0000 </r>
       <r>   -20.7447     0.0000     0.0000 </r>
       <r>   -20.6412     0.0000     0.0000 </r>
       <r>   -20.5377     0.0000     0.0000 </r>
       <r>   -20.4342     0.0000     0.0000 </r>
       <r>   -20.3307     0.0000     0.0000 </r>
       <r>   -20.2272     0.0000     0.0000 </r>
       <r>   -20.1237     0.0000     0.0000 </r>
       <r>   -20.0202     0.0024     0.0002 </r>
       <r>   -19.9167     0.0805     0.0086 </r>
       <r>   -19.8132     0.5438     0.0649 </r>
       <r>   -19.7097     1.1338     0.1822 </r>
       <r>   -19.6062     1.2363     0.3102 </r>
       <r>   -19.5027     1.3424     0.4491 </r>
       <r>   -19.3992     1.2550     0.5790 </r>
       <r>   -19.2957     1.1681     0.6999 </r>
       <r>   -19.1922     1.5853     0.8640 </r>
       <r>   -19.0887     1.0379     0.9714 </r>
       <r>   -18.9852     1.1419     1.0896 </r>
       <r>   -18.8817     1.7397     1.2697 </r>
       <r>   -18.7782     1.2145     1.3954 </r>
       <r>   -18.6747     0.8161     1.4798 </r>
       <r>   -18.5712     1.5102     1.6361 </r>
       <r>   -18.4677     1.7053     1.8126 </r>
       <r>   -18.3642     1.3038     1.9476 </r>
       <r>   -18.2607     0.6656     2.0165 </r>
       <r>   -18.1572     1.2678     2.1477 </r>
       <r>   -18.0537     2.2799     2.3837 </r>
       <r>   -17.9502     2.4393     2.6362 </r>
       <r>   -17.8467     2.8310     2.9292 </r>
       <r>   -17.7432     2.7923     3.2182 </r>
       <r>   -17.6397     3.3167     3.5615 </r>
       <r>   -17.5362     4.7452     4.0526 </r>
       <r>   -17.4327     5.0539     4.5757 </r>
       <r>   -17.3292     4.7437     5.0667 </r>
       <r>   -17.2257     2.8173     5.3583 </r>
       <r>   -17.1222     1.3809     5.5012 </r>
       <r>   -17.0187     1.5291     5.6595 </r>
       <r>   -16.9152     2.0907     5.8759 </r>
       <r>   -16.8117     1.5479     6.0361 </r>
       <r>   -16.7082     1.1117     6.1511 </r>
       <r>   -16.6046     0.4917     6.2020 </r>
       <r>   -16.5011     1.1534     6.3214 </r>
       <r>   -16.3976     1.9525     6.5235 </r>
       <r>   -16.2941     1.8410     6.7141 </r>
       <r>   -16.1906     1.6043     6.8801 </r>
       <r>   -16.0871     1.2755     7.0121 </r>
       <r>   -15.9836     1.1540     7.1316 </r>
       <r>   -15.8801     0.4910     7.1824 </r>
       <r>   -15.7766     1.3174     7.3187 </r>
       <r>   -15.6731     3.5085     7.6819 </r>
       <r>   -15.5696     3.9613     8.0919 </r>
       <r>   -15.4661     4.3602     8.5432 </r>
       <r>   -15.3626     4.0034     8.9575 </r>
       <r>   -15.2591     3.1208     9.2805 </r>
       <r>   -15.1556     2.6587     9.5557 </r>
       <r>   -15.0521     3.3278     9.9001 </r>
       <r>   -14.9486     4.6130    10.3776 </r>
       <r>   -14.8451     4.3027    10.8229 </r>
       <r>   -14.7416     4.5203    11.2908 </r>
       <r>   -14.6381     2.7631    11.5768 </r>
       <r>   -14.5346     2.1293    11.7972 </r>
       <r>   -14.4311     3.7345    12.1837 </r>
       <r>   -14.3276     4.7429    12.6746 </r>
       <r>   -14.2241     4.6644    13.1574 </r>
       <r>   -14.1206     2.2958    13.3950 </r>
       <r>   -14.0171     1.7447    13.5756 </r>
       <r>   -13.9136     1.4248    13.7230 </r>
       <r>   -13.8101     1.0568    13.8324 </r>
       <r>   -13.7066     0.8320    13.9185 </r>
       <r>   -13.6031     1.1142    14.0339 </r>
       <r>   -13.4996     1.5393    14.1932 </r>
       <r>   -13.3961     1.2781    14.3255 </r>
       <r>   -13.2926     1.1447    14.4439 </r>
       <r>   -13.1891     1.6363    14.6133 </r>
       <r>   -13.0856     1.2672    14.7445 </r>
       <r>   -12.9821     2.3389    14.9866 </r>
       <r>   -12.8786     2.6123    15.2569 </r>
       <r>   -12.7751     1.2147    15.3827 </r>
       <r>   -12.6716     1.4911    15.5370 </r>
       <r>   -12.5681     1.8509    15.7286 </r>
       <r>   -12.4646     2.0064    15.9362 </r>
       <r>   -12.3611     1.5272    16.0943 </r>
       <r>   -12.2576     0.7399    16.1709 </r>
       <r>   -12.1541     2.1354    16.3919 </r>
       <r>   -12.0506     3.4333    16.7472 </r>
       <r>   -11.9471     3.8048    17.1410 </r>
       <r>   -11.8436     4.0550    17.5607 </r>
       <r>   -11.7401     4.0686    17.9819 </r>
       <r>   -11.6366     2.9276    18.2849 </r>
       <r>   -11.5331     3.8440    18.6827 </r>
       <r>   -11.4296     4.2555    19.1232 </r>
       <r>   -11.3261     2.7178    19.4045 </r>
       <r>   -11.2226     1.5259    19.5624 </r>
       <r>   -11.1191     1.7620    19.7448 </r>
       <r>   -11.0156     3.2292    20.0790 </r>
       <r>   -10.9120     3.2346    20.4138 </r>
       <r>   -10.8085     2.2432    20.6460 </r>
       <r>   -10.7050     1.4578    20.7969 </r>
       <r>   -10.6015     2.8677    21.0937 </r>
       <r>   -10.4980     4.8690    21.5976 </r>
       <r>   -10.3945     4.6299    22.0768 </r>
       <r>   -10.2910     2.2664    22.3114 </r>
       <r>   -10.1875     1.4194    22.4583 </r>
       <r>   -10.0840     2.8105    22.7492 </r>
       <r>    -9.9805     3.2279    23.0833 </r>
       <r>    -9.8770     3.9953    23.4968 </r>
       <r>    -9.7735     3.6003    23.8694 </r>
       <r>    -9.6700     2.3866    24.1165 </r>
       <r>    -9.5665     1.0903    24.2293 </r>
       <r>    -9.4630     1.3483    24.3689 </r>
       <r>    -9.3595     3.0342    24.6829 </r>
       <r>    -9.2560     3.2126    25.0154 </r>
       <r>    -9.1525     1.2613    25.1460 </r>
       <r>    -9.0490     1.8793    25.3405 </r>
       <r>    -8.9455     2.3652    25.5853 </r>
       <r>    -8.8420     3.2869    25.9255 </r>
       <r>    -8.7385     4.2268    26.3629 </r>
       <r>    -8.6350     3.1375    26.6877 </r>
       <r>    -8.5315     3.3567    27.0351 </r>
       <r>    -8.4280     2.8055    27.3255 </r>
       <r>    -8.3245     2.8355    27.6189 </r>
       <r>    -8.2210     4.2906    28.0630 </r>
       <r>    -8.1175     5.8081    28.6642 </r>
       <r>    -8.0140     5.0445    29.1863 </r>
       <r>    -7.9105     3.9007    29.5900 </r>
       <r>    -7.8070     4.0090    30.0050 </r>
       <r>    -7.7035     6.2160    30.6483 </r>
       <r>    -7.6000     5.9945    31.2688 </r>
       <r>    -7.4965     4.9306    31.7791 </r>
       <r>    -7.3930     5.1048    32.3074 </r>
       <r>    -7.2895     5.8033    32.9081 </r>
       <r>    -7.1860     6.5754    33.5886 </r>
       <r>    -7.0825     6.8944    34.3022 </r>
       <r>    -6.9790     6.3095    34.9553 </r>
       <r>    -6.8755     6.0233    35.5787 </r>
       <r>    -6.7720     5.5069    36.1487 </r>
       <r>    -6.6685     5.7753    36.7464 </r>
       <r>    -6.5650     7.1667    37.4882 </r>
       <r>    -6.4615     6.6228    38.1737 </r>
       <r>    -6.3580     5.5050    38.7434 </r>
       <r>    -6.2545     5.1102    39.2724 </r>
       <r>    -6.1510     4.6756    39.7563 </r>
       <r>    -6.0475     6.0928    40.3869 </r>
       <r>    -5.9440     6.7525    41.0858 </r>
       <r>    -5.8405     5.5184    41.6570 </r>
       <r>    -5.7370     3.4672    42.0158 </r>
       <r>    -5.6335     4.1474    42.4451 </r>
       <r>    -5.5300     8.0428    43.2775 </r>
       <r>    -5.4265     8.4103    44.1480 </r>
       <r>    -5.3230     5.0405    44.6697 </r>
       <r>    -5.2195     3.7353    45.0563 </r>
       <r>    -5.1159     4.4467    45.5166 </r>
       <r>    -5.0124     4.4788    45.9801 </r>
       <r>    -4.9089     4.4972    46.4456 </r>
       <r>    -4.8054     4.5189    46.9133 </r>
       <r>    -4.7019     4.2827    47.3566 </r>
       <r>    -4.5984     4.5366    47.8261 </r>
       <r>    -4.4949     4.2212    48.2630 </r>
       <r>    -4.3914     4.9660    48.7770 </r>
       <r>    -4.2879     5.6257    49.3593 </r>
       <r>    -4.1844     9.9854    50.3928 </r>
       <r>    -4.0809    10.6396    51.4940 </r>
       <r>    -3.9774     7.0927    52.2281 </r>
       <r>    -3.8739     5.3567    52.7825 </r>
       <r>    -3.7704     3.9048    53.1867 </r>
       <r>    -3.6669     4.4952    53.6520 </r>
       <r>    -3.5634     3.8984    54.0554 </r>
       <r>    -3.4599     3.7267    54.4412 </r>
       <r>    -3.3564     4.3994    54.8965 </r>
       <r>    -3.2529     4.8776    55.4013 </r>
       <r>    -3.1494     5.8566    56.0075 </r>
       <r>    -3.0459     4.1423    56.4362 </r>
       <r>    -2.9424     3.2104    56.7685 </r>
       <r>    -2.8389     6.0540    57.3951 </r>
       <r>    -2.7354     5.6913    57.9842 </r>
       <r>    -2.6319     4.3766    58.4372 </r>
       <r>    -2.5284     4.6221    58.9156 </r>
       <r>    -2.4249     5.9660    59.5331 </r>
       <r>    -2.3214     6.1685    60.1715 </r>
       <r>    -2.2179     3.1111    60.4935 </r>
       <r>    -2.1144     1.9584    60.6962 </r>
       <r>    -2.0109     2.8662    60.9929 </r>
       <r>    -1.9074     2.5137    61.2530 </r>
       <r>    -1.8039     1.0684    61.3636 </r>
       <r>    -1.7004     0.9634    61.4633 </r>
       <r>    -1.5969     1.6338    61.6324 </r>
       <r>    -1.4934     1.3997    61.7773 </r>
       <r>    -1.3899     1.0007    61.8809 </r>
       <r>    -1.2864     0.8052    61.9642 </r>
       <r>    -1.1829     0.3194    61.9973 </r>
       <r>    -1.0794     0.0364    62.0010 </r>
       <r>    -0.9759     0.2024    62.0220 </r>
       <r>    -0.8724     0.7641    62.1011 </r>
       <r>    -0.7689     0.8789    62.1921 </r>
       <r>    -0.6654     1.6298    62.3607 </r>
       <r>    -0.5619     3.3978    62.7124 </r>
       <r>    -0.4584     3.1663    63.0401 </r>
       <r>    -0.3549     2.4292    63.2916 </r>
       <r>    -0.2514     2.4294    63.5430 </r>
       <r>    -0.1479     2.0974    63.7601 </r>
       <r>    -0.0444     1.6488    63.9308 </r>
       <r>     0.0591     0.5720    63.9900 </r>
       <r>     0.1626     0.1850    64.0091 </r>
       <r>     0.2661     0.8311    64.0951 </r>
       <r>     0.3696     1.8429    64.2859 </r>
       <r>     0.4731     1.7667    64.4687 </r>
       <r>     0.5767     1.1860    64.5915 </r>
       <r>     0.6802     1.0780    64.7030 </r>
       <r>     0.7837     2.0191    64.9120 </r>
       <r>     0.8872     3.7590    65.3011 </r>
       <r>     0.9907     3.3411    65.6469 </r>
       <r>     1.0942     2.1080    65.8651 </r>
       <r>     1.1977     1.3653    66.0064 </r>
       <r>     1.3012     1.0153    66.1115 </r>
       <r>     1.4047     1.8514    66.3031 </r>
       <r>     1.5082     1.8811    66.4978 </r>
       <r>     1.6117     1.9753    66.7023 </r>
       <r>     1.7152     1.7399    66.8823 </r>
       <r>     1.8187     1.6775    67.0560 </r>
       <r>     1.9222     1.9134    67.2540 </r>
       <r>     2.0257     2.3819    67.5005 </r>
       <r>     2.1292     2.5628    67.7658 </r>
       <r>     2.2327     2.7185    68.0472 </r>
       <r>     2.3362     3.0216    68.3599 </r>
       <r>     2.4397     3.1215    68.6830 </r>
       <r>     2.5432     3.9228    69.0890 </r>
       <r>     2.6467     3.1165    69.4116 </r>
       <r>     2.7502     2.3606    69.6559 </r>
       <r>     2.8537     1.5890    69.8204 </r>
       <r>     2.9572     2.5897    70.0884 </r>
       <r>     3.0607     3.2805    70.4279 </r>
       <r>     3.1642     2.9288    70.7311 </r>
       <r>     3.2677     2.6164    71.0019 </r>
       <r>     3.3712     2.8798    71.2999 </r>
       <r>     3.4747     2.7202    71.5815 </r>
       <r>     3.5782     3.4377    71.9373 </r>
       <r>     3.6817     3.6374    72.3138 </r>
       <r>     3.7852     3.0156    72.6259 </r>
       <r>     3.8887     2.0414    72.8372 </r>
       <r>     3.9922     3.2264    73.1711 </r>
       <r>     4.0957     5.3837    73.7283 </r>
       <r>     4.1992     4.6536    74.2100 </r>
       <r>     4.3027     2.6658    74.4859 </r>
       <r>     4.4062     3.0328    74.7998 </r>
       <r>     4.5097     4.5972    75.2756 </r>
       <r>     4.6132     4.2398    75.7145 </r>
       <r>     4.7167     4.6842    76.1993 </r>
       <r>     4.8202     3.7079    76.5830 </r>
       <r>     4.9237     3.9463    76.9915 </r>
       <r>     5.0272     3.2103    77.3238 </r>
       <r>     5.1307     3.5526    77.6915 </r>
       <r>     5.2342     5.7598    78.2876 </r>
       <r>     5.3377     5.4761    78.8544 </r>
       <r>     5.4412     4.8838    79.3599 </r>
       <r>     5.5447     4.7642    79.8530 </r>
       <r>     5.6482     3.8841    80.2550 </r>
       <r>     5.7517     1.8968    80.4513 </r>
       <r>     5.8552     3.9673    80.8619 </r>
       <r>     5.9587     7.0647    81.5932 </r>
       <r>     6.0622     7.5086    82.3703 </r>
       <r>     6.1657     6.8080    83.0749 </r>
       <r>     6.2692     6.6308    83.7612 </r>
       <r>     6.3728     5.5139    84.3319 </r>
       <r>     6.4763     5.2145    84.8717 </r>
       <r>     6.5798     5.9445    85.4869 </r>
       <r>     6.6833     6.1667    86.1252 </r>
       <r>     6.7868     7.7818    86.9306 </r>
       <r>     6.8903     7.7955    87.7375 </r>
       <r>     6.9938     7.7181    88.5363 </r>
       <r>     7.0973     9.4511    89.5145 </r>
       <r>     7.2008     9.3354    90.4807 </r>
       <r>     7.3043     5.9211    91.0936 </r>
       <r>     7.4078     6.5361    91.7701 </r>
       <r>     7.5113     8.1982    92.6186 </r>
       <r>     7.6148     9.2323    93.5742 </r>
       <r>     7.7183     8.8759    94.4928 </r>
       <r>     7.8218     6.6890    95.1852 </r>
       <r>     7.9253     3.9908    95.5982 </r>
       <r>     8.0288     1.9153    95.7965 </r>
       <r>     8.1323     0.7331    95.8723 </r>
       <r>     8.2358     0.2775    95.9011 </r>
       <r>     8.3393     0.2825    95.9303 </r>
       <r>     8.4428     0.5051    95.9826 </r>
       <r>     8.5463     0.1604    95.9992 </r>
       <r>     8.6498     0.0079    96.0000 </r>
       <r>     8.7533     0.0001    96.0000 </r>
       <r>     8.8568     0.0000    96.0000 </r>
       <r>     8.9603     0.0000    96.0000 </r>
       <r>     9.0638     0.0000    96.0000 </r>
       <r>     9.1673     0.0000    96.0000 </r>
       <r>     9.2708     0.0000    96.0000 </r>
       <r>     9.3743     0.0000    96.0000 </r>
       <r>     9.4778     0.0000    96.0000 </r>
       <r>     9.5813     0.0000    96.0000 </r>
       <r>     9.6848     0.0000    96.0000 </r>
       <r>     9.7883     0.0000    96.0000 </r>
      </set>
     </set>
    </array>
   </total>
  </dos>
 </calculation>
 <structure name="finalpos" >
  <crystal>
   <varray name="basis" >
    <v>       4.36823214       2.52200000       0.00000000 </v>
    <v>      -4.36823214       2.52200000       0.00000000 </v>
    <v>       0.00000000       0.00000000      15.00000000 </v>
   </varray>
   <i name="volume">    330.50044346 </i>
   <varray name="rec_basis" >
    <v>       0.11446278       0.19825535       0.00000000 </v>
    <v>      -0.11446278       0.19825535       0.00000000 </v>
    <v>       0.00000000       0.00000000       0.06666667 </v>
   </varray>
  </crystal>
  <varray name="positions" >
   <v>       0.33824298       0.66912021       0.11360590 </v>
   <v>       0.67157938       0.33578814       0.11327337 </v>
   <v>       0.16451607       0.32166916       0.11323822 </v>
   <v>       0.32404565       0.16202247       0.11325291 </v>
   <v>       0.16451664       0.84284660       0.11324287 </v>
   <v>       0.84533963       0.16202195       0.11324129 </v>
   <v>       0.68568773       0.84284371       0.11323223 </v>
   <v>       0.84533811       0.68331682       0.11324610 </v>
   <v>       0.33344441       0.16672200       0.33796596 </v>
   <v>       0.50013544       0.00013928       0.33793471 </v>
   <v>       0.33342120       0.66671044       0.33763060 </v>
   <v>       0.50013546       0.49999656       0.33793475 </v>
   <v>       0.83341494       0.16672322       0.33796083 </v>
   <v>       0.00009315       0.00004686       0.33794415 </v>
   <v>       0.83341485       0.66669117       0.33796089 </v>
   <v>      -0.00000030       0.50000007       0.33793520 </v>
  </varray>
 </structure>
</modeling>
