       N       E                     dE             d eps       ncg     rms          rms(c)
DAV:   1     0.204711504118E+03    0.20471E+03   -0.25761E+04 14208   0.860E+02
DAV:   2    -0.116245704826E+03   -0.32096E+03   -0.31963E+03 19968   0.163E+02
DAV:   3    -0.129633898833E+03   -0.13388E+02   -0.13374E+02 26832   0.435E+01
DAV:   4    -0.129656975185E+03   -0.23076E-01   -0.23076E-01 20064   0.178E+00
DAV:   5    -0.129657039164E+03   -0.63980E-04   -0.63980E-04 25680   0.919E-02    0.246E+01
DAV:   6    -0.921093726094E+02    0.37548E+02   -0.71577E+01 25440   0.255E+01    0.140E+01
DAV:   7    -0.100568527637E+03   -0.84592E+01   -0.10162E+01 22752   0.102E+01    0.812E+00
DAV:   8    -0.110504093764E+03   -0.99356E+01   -0.87768E+00 24432   0.896E+00    0.434E+00
DAV:   9    -0.117236240591E+03   -0.67321E+01   -0.38924E+00 20112   0.611E+00    0.277E+00
DAV:  10    -0.123446674517E+03   -0.62104E+01   -0.80331E+00 23568   0.693E+00    0.162E+00
DAV:  11    -0.125293131876E+03   -0.18465E+01   -0.31076E+00 24576   0.391E+00    0.102E+00
DAV:  12    -0.125419936522E+03   -0.12680E+00   -0.21547E-01 20688   0.127E+00    0.491E-01
DAV:  13    -0.125446458772E+03   -0.26522E-01   -0.21382E-02 17808   0.520E-01    0.199E-01
DAV:  14    -0.125470248023E+03   -0.23789E-01   -0.59672E-03 21072   0.266E-01    0.867E-02
DAV:  15    -0.125478363187E+03   -0.81152E-02   -0.32919E-03 19488   0.154E-01    0.462E-02
DAV:  16    -0.125480434754E+03   -0.20716E-02   -0.65723E-04 16896   0.800E-02    0.231E-02
DAV:  17    -0.125481736335E+03   -0.13016E-02   -0.17815E-04 14784   0.506E-02    0.182E-02
DAV:  18    -0.125482430965E+03   -0.69463E-03   -0.90622E-05 15936   0.373E-02    0.131E-02
DAV:  19    -0.125482898826E+03   -0.46786E-03   -0.44692E-05 19104   0.246E-02    0.775E-03
DAV:  20    -0.125482944714E+03   -0.45889E-04   -0.22668E-05 21984   0.178E-02    0.476E-03
DAV:  21    -0.125482971681E+03   -0.26967E-04   -0.66083E-06 20832   0.949E-03    0.233E-03
DAV:  22    -0.125482992224E+03   -0.20542E-04   -0.21353E-06 20640   0.547E-03    0.146E-03
DAV:  23    -0.125483009832E+03   -0.17609E-04   -0.18884E-06 21024   0.414E-03    0.769E-04
DAV:  24    -0.125483013490E+03   -0.36581E-05   -0.38812E-07 22608   0.226E-03    0.393E-04
DAV:  25    -0.125483014507E+03   -0.10171E-05   -0.12224E-07 22224   0.116E-03    0.195E-04
DAV:  26    -0.125483015032E+03   -0.52470E-06   -0.31306E-08 21792   0.597E-04
   1 F= -.12707271E+03 E0= -.12707193E+03  d E =-.127073E+03  mag=    -0.0000
       N       E                     dE             d eps       ncg     rms          rms(c)
DAV:   1    -0.125491758325E+03   -0.87438E-02   -0.25268E+00 14208   0.489E+00    0.436E-01
DAV:   2    -0.125485075667E+03    0.66827E-02   -0.51089E-02 25680   0.625E-01    0.192E-01
DAV:   3    -0.125484341627E+03    0.73404E-03   -0.42012E-03 20688   0.177E-01    0.756E-02
DAV:   4    -0.125484313976E+03    0.27652E-04   -0.48348E-04 26352   0.609E-02    0.200E-02
DAV:   5    -0.125484316918E+03   -0.29422E-05   -0.12866E-05 23952   0.112E-02    0.835E-03
DAV:   6    -0.125484317171E+03   -0.25275E-06   -0.14105E-06 22512   0.361E-03
   2 F= -.12707340E+03 E0= -.12707262E+03  d E =-.687746E-03  mag=    -0.0000
       N       E                     dE             d eps       ncg     rms          rms(c)
DAV:   1    -0.125491298099E+03   -0.69812E-02   -0.59368E-01 14208   0.237E+00    0.211E-01
DAV:   2    -0.125489698552E+03    0.15995E-02   -0.12015E-02 25344   0.302E-01    0.929E-02
DAV:   3    -0.125489530746E+03    0.16781E-03   -0.97444E-04 21888   0.857E-02    0.371E-02
DAV:   4    -0.125489524948E+03    0.57979E-05   -0.11259E-04 23232   0.293E-02    0.922E-03
DAV:   5    -0.125489525586E+03   -0.63766E-06   -0.36686E-06 20352   0.584E-03
   3 F= -.12707891E+03 E0= -.12707812E+03  d E =-.619145E-02  mag=    -0.0000
       N       E                     dE             d eps       ncg     rms          rms(c)
DAV:   1    -0.125496398429E+03   -0.68735E-02   -0.34985E-01 14208   0.204E+00    0.123E-01
DAV:   2    -0.125496467984E+03   -0.69555E-04   -0.21227E-03 27744   0.179E-01    0.725E-02
DAV:   3    -0.125496462979E+03    0.50054E-05   -0.21280E-04 21024   0.503E-02    0.145E-02
DAV:   4    -0.125496464386E+03   -0.14071E-05   -0.21779E-05 26736   0.172E-02    0.561E-03
DAV:   5    -0.125496464679E+03   -0.29302E-06   -0.90164E-07 21120   0.400E-03
   4 F= -.12708558E+03 E0= -.12708479E+03  d E =-.667048E-02  mag=    -0.0000
       N       E                     dE             d eps       ncg     rms          rms(c)
DAV:   1    -0.125506335873E+03   -0.98715E-02   -0.31704E+00 14208   0.613E+00    0.368E-01
DAV:   2    -0.125507115664E+03   -0.77979E-03   -0.19831E-02 26496   0.545E-01    0.217E-01
DAV:   3    -0.125507054057E+03    0.61607E-04   -0.19642E-03 21312   0.152E-01    0.437E-02
DAV:   4    -0.125507068149E+03   -0.14092E-04   -0.19591E-04 26208   0.512E-02    0.169E-02
DAV:   5    -0.125507071062E+03   -0.29139E-05   -0.84972E-06 22080   0.121E-02    0.755E-03
DAV:   6    -0.125507071182E+03   -0.11956E-06   -0.55917E-06 23904   0.883E-03
   5 F= -.12709538E+03 E0= -.12709460E+03  d E =-.164751E-01  mag=    -0.0000
       N       E                     dE             d eps       ncg     rms          rms(c)
DAV:   1    -0.125510005061E+03   -0.29340E-02   -0.85083E-02 14304   0.114E+00    0.684E-02
DAV:   2    -0.125510000237E+03    0.48244E-05   -0.73107E-04 25488   0.119E-01    0.381E-02
DAV:   3    -0.125509983356E+03    0.16881E-04   -0.85505E-05 19296   0.353E-02    0.109E-02
DAV:   4    -0.125509984238E+03   -0.88182E-06   -0.12502E-05 25872   0.134E-02    0.437E-03
DAV:   5    -0.125509984654E+03   -0.41636E-06   -0.63078E-07 21456   0.324E-03
   6 F= -.12709817E+03 E0= -.12709738E+03  d E =-.278613E-02  mag=    -0.0000
       N       E                     dE             d eps       ncg     rms          rms(c)
DAV:   1    -0.125513550947E+03   -0.35667E-02   -0.56791E-01 14208   0.293E+00    0.176E-01
DAV:   2    -0.125513516000E+03    0.34947E-04   -0.48060E-03 25728   0.306E-01    0.981E-02
DAV:   3    -0.125513404123E+03    0.11188E-03   -0.56706E-04 20064   0.906E-02    0.277E-02
DAV:   4    -0.125513409767E+03   -0.56445E-05   -0.79220E-05 25440   0.335E-02    0.111E-02
DAV:   5    -0.125513410614E+03   -0.84671E-06   -0.31733E-06 19584   0.738E-03
   7 F= -.12710125E+03 E0= -.12710046E+03  d E =-.586634E-02  mag=     0.0000
       N       E                     dE             d eps       ncg     rms          rms(c)
DAV:   1    -0.125515375507E+03   -0.19657E-02   -0.71326E-02 14208   0.873E-01    0.506E-02
DAV:   2    -0.125515393247E+03   -0.17740E-04   -0.40151E-04 24672   0.719E-02    0.303E-02
DAV:   3    -0.125515391932E+03    0.13152E-05   -0.43025E-05 20160   0.197E-02    0.522E-03
DAV:   4    -0.125515392029E+03   -0.97311E-07   -0.26926E-06 25632   0.642E-03
   8 F= -.12710305E+03 E0= -.12710226E+03  d E =-.180159E-02  mag=     0.0000
       N       E                     dE             d eps       ncg     rms          rms(c)
DAV:   1    -0.125519834202E+03   -0.44423E-02   -0.64264E-01 14208   0.262E+00    0.151E-01
DAV:   2    -0.125519990710E+03   -0.15651E-03   -0.34016E-03 25920   0.210E-01    0.901E-02
DAV:   3    -0.125519976922E+03    0.13788E-04   -0.37655E-04 20784   0.574E-02    0.142E-02
DAV:   4    -0.125519977620E+03   -0.69769E-06   -0.21882E-05 24192   0.183E-02    0.688E-03
DAV:   5    -0.125519976101E+03    0.15186E-05   -0.33102E-06 21600   0.685E-03    0.263E-03
DAV:   6    -0.125519975792E+03    0.30879E-06   -0.99167E-07 23664   0.350E-03
   9 F= -.12710710E+03 E0= -.12710631E+03  d E =-.584939E-02  mag=    -0.0000
       N       E                     dE             d eps       ncg     rms          rms(c)
DAV:   1    -0.125523331960E+03   -0.33559E-02   -0.25741E+00 14208   0.524E+00    0.298E-01
DAV:   2    -0.125523958939E+03   -0.62698E-03   -0.13115E-02 27648   0.414E-01    0.178E-01
DAV:   3    -0.125523896233E+03    0.62706E-04   -0.15158E-03 22272   0.114E-01    0.265E-02
DAV:   4    -0.125523898381E+03   -0.21487E-05   -0.78785E-05 23712   0.354E-02    0.134E-02
DAV:   5    -0.125523894012E+03    0.43696E-05   -0.13232E-05 23952   0.139E-02    0.397E-03
DAV:   6    -0.125523893565E+03    0.44700E-06   -0.41284E-06 24336   0.729E-03
  10 F= -.12710996E+03 E0= -.12710918E+03  d E =-.871210E-02  mag=     0.0000
       N       E                     dE             d eps       ncg     rms          rms(c)
DAV:   1    -0.125525538735E+03   -0.16447E-02   -0.48843E-01 14208   0.279E+00    0.159E-01
DAV:   2    -0.125525452234E+03    0.86501E-04   -0.57057E-03 26592   0.327E-01    0.917E-02
DAV:   3    -0.125525396572E+03    0.55662E-04   -0.70991E-04 18000   0.955E-02    0.363E-02
DAV:   4    -0.125525397040E+03   -0.46749E-06   -0.17740E-04 25680   0.428E-02    0.186E-02
DAV:   5    -0.125525399617E+03   -0.25768E-05   -0.10916E-05 23472   0.133E-02    0.541E-03
DAV:   6    -0.125525401027E+03   -0.14101E-05   -0.13403E-06 21984   0.476E-03    0.311E-03
DAV:   7    -0.125525402080E+03   -0.10536E-05   -0.23691E-07 23904   0.187E-03    0.116E-03
DAV:   8    -0.125525403792E+03   -0.17117E-05   -0.30310E-07 20976   0.190E-03    0.835E-04
DAV:   9    -0.125525405811E+03   -0.20186E-05   -0.24720E-07 21840   0.149E-03    0.610E-04
DAV:  10    -0.125525407065E+03   -0.12545E-05   -0.91748E-08 22224   0.864E-04    0.284E-04
DAV:  11    -0.125525407493E+03   -0.42758E-06   -0.12457E-08 24240   0.307E-04
  11 F= -.12711111E+03 E0= -.12711033E+03  d E =-.115439E-02  mag=     0.0000
       N       E                     dE             d eps       ncg     rms          rms(c)
DAV:   1    -0.125525580104E+03   -0.17304E-03   -0.45245E-02 14208   0.848E-01    0.483E-02
DAV:   2    -0.125525572916E+03    0.71883E-05   -0.53847E-04 27696   0.100E-01    0.280E-02
DAV:   3    -0.125525568412E+03    0.45037E-05   -0.63513E-05 19728   0.285E-02    0.111E-02
DAV:   4    -0.125525568579E+03   -0.16751E-06   -0.15544E-05 25824   0.127E-02    0.555E-03
DAV:   5    -0.125525568837E+03   -0.25704E-06   -0.92848E-07 21600   0.390E-03
  12 F= -.12711139E+03 E0= -.12711061E+03  d E =-.143305E-02  mag=    -0.0000
       N       E                     dE             d eps       ncg     rms          rms(c)
DAV:   1    -0.125526593230E+03   -0.10247E-02   -0.56184E-02 14208   0.860E-01    0.529E-02
DAV:   2    -0.125526578874E+03    0.14356E-04   -0.50741E-04 24576   0.796E-02    0.275E-02
DAV:   3    -0.125526577252E+03    0.16229E-05   -0.27187E-05 20496   0.174E-02    0.113E-02
DAV:   4    -0.125526578387E+03   -0.11355E-05   -0.46395E-06 21312   0.731E-03    0.231E-03
DAV:   5    -0.125526578509E+03   -0.12224E-06   -0.27243E-07 24480   0.194E-03
  13 F= -.12711228E+03 E0= -.12711149E+03  d E =-.885438E-03  mag=     0.0000
       N       E                     dE             d eps       ncg     rms          rms(c)
DAV:   1    -0.125526925601E+03   -0.34721E-03   -0.39640E-02 14208   0.722E-01    0.446E-02
DAV:   2    -0.125526915542E+03    0.10058E-04   -0.35623E-04 23904   0.668E-02    0.232E-02
DAV:   3    -0.125526914661E+03    0.88151E-06   -0.19048E-05 18720   0.146E-02    0.956E-03
DAV:   4    -0.125526915558E+03   -0.89739E-06   -0.32742E-06 15600   0.622E-03
  14 F= -.12711251E+03 E0= -.12711173E+03  d E =-.111849E-02  mag=     0.0000
       N       E                     dE             d eps       ncg     rms          rms(c)
DAV:   1    -0.125527158566E+03   -0.24391E-03   -0.39326E-02 14784   0.812E-01    0.528E-02
DAV:   2    -0.125527136726E+03    0.21840E-04   -0.52587E-04 23376   0.990E-02    0.275E-02
DAV:   3    -0.125527125106E+03    0.11620E-04   -0.67415E-05 19632   0.313E-02    0.960E-03
DAV:   4    -0.125527125047E+03    0.58221E-07   -0.10193E-05 23856   0.115E-02    0.430E-03
DAV:   5    -0.125527125278E+03   -0.23025E-06   -0.47351E-07 20352   0.278E-03
  15 F= -.12711264E+03 E0= -.12711186E+03  d E =-.128510E-03  mag=    -0.0000
       N       E                     dE             d eps       ncg     rms          rms(c)
DAV:   1    -0.125527146851E+03   -0.21804E-04   -0.45384E-03 14976   0.276E-01    0.178E-02
DAV:   2    -0.125527144342E+03    0.25095E-05   -0.61604E-05 22608   0.338E-02    0.931E-03
DAV:   3    -0.125527143061E+03    0.12810E-05   -0.77525E-06 18288   0.106E-02    0.326E-03
DAV:   4    -0.125527143103E+03   -0.42300E-07   -0.11992E-06 21312   0.397E-03
  16 F= -.12711268E+03 E0= -.12711190E+03  d E =-.174616E-03  mag=    -0.0000
       N       E                     dE             d eps       ncg     rms          rms(c)
DAV:   1    -0.125527369877E+03   -0.22682E-03   -0.93687E-03 14208   0.360E-01    0.193E-02
DAV:   2    -0.125527366891E+03    0.29852E-05   -0.93136E-05 20208   0.345E-02    0.103E-02
DAV:   3    -0.125527366844E+03    0.46962E-07   -0.76506E-06 22464   0.934E-03
  17 F= -.12711284E+03 E0= -.12711206E+03  d E =-.156420E-03  mag=    -0.0000
       N       E                     dE             d eps       ncg     rms          rms(c)
DAV:   1    -0.125527487254E+03   -0.12036E-03   -0.89185E-03 14208   0.351E-01    0.198E-02
DAV:   2    -0.125527484479E+03    0.27749E-05   -0.88554E-05 19152   0.339E-02    0.108E-02
DAV:   3    -0.125527484699E+03   -0.21998E-06   -0.80217E-06 18480   0.963E-03
  18 F= -.12711289E+03 E0= -.12711211E+03  d E =-.208649E-03  mag=    -0.0000
       N       E                     dE             d eps       ncg     rms          rms(c)
DAV:   1    -0.125527698871E+03   -0.21439E-03   -0.11585E-02 14208   0.413E-01    0.267E-02
DAV:   2    -0.125527692660E+03    0.62115E-05   -0.17138E-04 16032   0.510E-02    0.147E-02
DAV:   3    -0.125527690565E+03    0.20951E-05   -0.18773E-05 20160   0.162E-02    0.465E-03
DAV:   4    -0.125527690784E+03   -0.21958E-06   -0.22663E-06 17088   0.550E-03
  19 F= -.12711298E+03 E0= -.12711220E+03  d E =-.867566E-04  mag=     0.0000
       N       E                     dE             d eps       ncg     rms          rms(c)
DAV:   1    -0.125527695096E+03   -0.45309E-05   -0.13638E-05 18912   0.143E-02    0.120E-03
DAV:   2    -0.125527695124E+03   -0.28031E-07   -0.19950E-07 21312   0.179E-03
  20 F= -.12711298E+03 E0= -.12711220E+03  d E =-.869805E-04  mag=    -0.0000
       N       E                     dE             d eps       ncg     rms          rms(c)
DAV:   1    -0.125527907054E+03   -0.21196E-03   -0.87398E-03 14208   0.353E-01    0.211E-02
DAV:   2    -0.125527905013E+03    0.20408E-05   -0.97985E-05 23520   0.401E-02    0.118E-02
DAV:   3    -0.125527903802E+03    0.12113E-05   -0.98318E-06 24096   0.118E-02    0.340E-03
DAV:   4    -0.125527903918E+03   -0.11588E-06   -0.11779E-06 22032   0.412E-03
  21 F= -.12711306E+03 E0= -.12711228E+03  d E =-.832640E-04  mag=    -0.0000
       N       E                     dE             d eps       ncg     rms          rms(c)
DAV:   1    -0.125527988970E+03   -0.85168E-04   -0.28417E-03 14208   0.201E-01    0.120E-02
DAV:   2    -0.125527988517E+03    0.45314E-06   -0.32560E-05 19632   0.232E-02    0.679E-03
DAV:   3    -0.125527988208E+03    0.30960E-06   -0.33694E-06 23136   0.697E-03
  22 F= -.12711308E+03 E0= -.12711229E+03  d E =-.959423E-04  mag=     0.0000
       N       E                     dE             d eps       ncg     rms          rms(c)
DAV:   1    -0.125528128546E+03   -0.14003E-03   -0.26392E-03 14208   0.176E-01    0.103E-02
DAV:   2    -0.125528129213E+03   -0.66715E-06   -0.19609E-05 16656   0.175E-02    0.622E-03
DAV:   3    -0.125528129369E+03   -0.15620E-06   -0.17737E-06 21264   0.474E-03
  23 F= -.12711314E+03 E0= -.12711236E+03  d E =-.646287E-04  mag=    -0.0000
       N       E                     dE             d eps       ncg     rms          rms(c)
DAV:   1    -0.125528517553E+03   -0.38834E-03   -0.23818E-02 14208   0.527E-01    0.299E-02
DAV:   2    -0.125528523540E+03   -0.59873E-05   -0.16456E-04 20400   0.509E-02    0.179E-02
DAV:   3    -0.125528523516E+03    0.24887E-07   -0.14871E-05 25056   0.132E-02    0.347E-03
DAV:   4    -0.125528523632E+03   -0.11645E-06   -0.14786E-06 20064   0.494E-03
  24 F= -.12711331E+03 E0= -.12711252E+03  d E =-.229349E-03  mag=    -0.0000
       N       E                     dE             d eps       ncg     rms          rms(c)
DAV:   1    -0.125529150435E+03   -0.62692E-03   -0.95338E-02 14208   0.105E+00    0.596E-02
DAV:   2    -0.125529175218E+03   -0.24783E-04   -0.65563E-04 22272   0.101E-01    0.355E-02
DAV:   3    -0.125529172862E+03    0.23560E-05   -0.58306E-05 25104   0.259E-02    0.690E-03
DAV:   4    -0.125529173206E+03   -0.34433E-06   -0.56526E-06 22032   0.958E-03
  25 F= -.12711350E+03 E0= -.12711271E+03  d E =-.420612E-03  mag=    -0.0000
       N       E                     dE             d eps       ncg     rms          rms(c)
DAV:   1    -0.125529801094E+03   -0.62823E-03   -0.38169E-01 14208   0.211E+00    0.119E-01
DAV:   2    -0.125529904897E+03   -0.10380E-03   -0.26230E-03 22944   0.202E-01    0.709E-02
DAV:   3    -0.125529890272E+03    0.14625E-04   -0.23380E-04 26352   0.516E-02    0.138E-02
DAV:   4    -0.125529891349E+03   -0.10771E-05   -0.21976E-05 25104   0.189E-02    0.576E-03
DAV:   5    -0.125529891276E+03    0.72886E-07   -0.32232E-06 20160   0.817E-03
  26 F= -.12711330E+03 E0= -.12711252E+03  d E =-.225259E-03  mag=     0.0000
       N       E                     dE             d eps       ncg     rms          rms(c)
DAV:   1    -0.125529374221E+03    0.51713E-03   -0.21230E-01 14208   0.157E+00    0.888E-02
DAV:   2    -0.125529433645E+03   -0.59424E-04   -0.14988E-03 23520   0.152E-01    0.529E-02
DAV:   3    -0.125529430472E+03    0.31726E-05   -0.12813E-04 23520   0.387E-02    0.105E-02
DAV:   4    -0.125529432220E+03   -0.17478E-05   -0.14907E-05 18048   0.173E-02    0.440E-03
DAV:   5    -0.125529432530E+03   -0.31064E-06   -0.39211E-06 21312   0.987E-03
  27 F= -.12711352E+03 E0= -.12711274E+03  d E =-.447961E-03  mag=    -0.0000
       N       E                     dE             d eps       ncg     rms          rms(c)
DAV:   1    -0.125529671225E+03   -0.23901E-03   -0.93547E-03 14208   0.353E-01    0.188E-02
DAV:   2    -0.125529674608E+03   -0.33836E-05   -0.87953E-05 24912   0.389E-02    0.116E-02
DAV:   3    -0.125529674724E+03   -0.11550E-06   -0.86658E-06 20352   0.119E-02
  28 F= -.12711362E+03 E0= -.12711284E+03  d E =-.998125E-04  mag=    -0.0000
       N       E                     dE             d eps       ncg     rms          rms(c)
DAV:   1    -0.125530022914E+03   -0.34831E-03   -0.36311E-02 14208   0.695E-01    0.376E-02
DAV:   2    -0.125530037230E+03   -0.14315E-04   -0.31865E-04 21216   0.748E-02    0.232E-02
DAV:   3    -0.125530036517E+03    0.71268E-06   -0.32806E-05 15744   0.225E-02    0.453E-03
DAV:   4    -0.125530036572E+03   -0.54672E-07   -0.52379E-06 16416   0.105E-02
  29 F= -.12711371E+03 E0= -.12711292E+03  d E =-.181528E-03  mag=    -0.0000
       N       E                     dE             d eps       ncg     rms          rms(c)
DAV:   1    -0.125530321882E+03   -0.28537E-03   -0.12170E-02 14208   0.384E-01    0.212E-02
DAV:   2    -0.125530326895E+03   -0.50125E-05   -0.10833E-04 19248   0.407E-02    0.129E-02
DAV:   3    -0.125530327862E+03   -0.96704E-06   -0.93120E-06 16320   0.122E-02
  30 F= -.12711383E+03 E0= -.12711305E+03  d E =-.123636E-03  mag=     0.0000
       N       E                     dE             d eps       ncg     rms          rms(c)
DAV:   1    -0.125530987024E+03   -0.66013E-03   -0.10945E-01 14208   0.115E+00    0.631E-02
DAV:   2    -0.125531029389E+03   -0.42365E-04   -0.91562E-04 20928   0.118E-01    0.383E-02
DAV:   3    -0.125531030799E+03   -0.14097E-05   -0.75886E-05 19632   0.317E-02    0.865E-03
DAV:   4    -0.125531031873E+03   -0.10744E-05   -0.11935E-05 14592   0.150E-02    0.347E-03
DAV:   5    -0.125531032232E+03   -0.35875E-06   -0.31888E-06 14400   0.882E-03
  31 F= -.12711403E+03 E0= -.12711325E+03  d E =-.326034E-03  mag=     0.0000
       N       E                     dE             d eps       ncg     rms          rms(c)
DAV:   1    -0.125531196903E+03   -0.16503E-03   -0.10958E-02 14208   0.364E-01    0.197E-02
DAV:   2    -0.125531201811E+03   -0.49079E-05   -0.99396E-05 21744   0.387E-02    0.121E-02
DAV:   3    -0.125531202620E+03   -0.80888E-06   -0.77783E-06 18912   0.109E-02
  32 F= -.12711404E+03 E0= -.12711326E+03  d E =-.337954E-03  mag=     0.0000
       N       E                     dE             d eps       ncg     rms          rms(c)
DAV:   1    -0.125531555477E+03   -0.35367E-03   -0.26364E-02 14208   0.586E-01    0.302E-02
DAV:   2    -0.125531566643E+03   -0.11165E-04   -0.22993E-04 22368   0.607E-02    0.187E-02
DAV:   3    -0.125531568544E+03   -0.19019E-05   -0.19772E-05 15600   0.175E-02    0.494E-03
DAV:   4    -0.125531568928E+03   -0.38390E-06   -0.48540E-06 14544   0.106E-02
  33 F= -.12711418E+03 E0= -.12711339E+03  d E =-.134169E-03  mag=     0.0000
       N       E                     dE             d eps       ncg     rms          rms(c)
DAV:   1    -0.125531861109E+03   -0.29256E-03   -0.32160E-02 14208   0.647E-01    0.331E-02
DAV:   2    -0.125531874797E+03   -0.13688E-04   -0.28342E-04 24192   0.674E-02    0.205E-02
DAV:   3    -0.125531876606E+03   -0.18083E-05   -0.23978E-05 16944   0.188E-02    0.548E-03
DAV:   4    -0.125531877017E+03   -0.41107E-06   -0.52712E-06 14784   0.108E-02
  34 F= -.12711423E+03 E0= -.12711345E+03  d E =-.185805E-03  mag=     0.0000
       N       E                     dE             d eps       ncg     rms          rms(c)
DAV:   1    -0.125532038962E+03   -0.16236E-03   -0.72257E-03 14208   0.313E-01    0.180E-02
DAV:   2    -0.125532040085E+03   -0.11229E-05   -0.87620E-05 18672   0.378E-02    0.106E-02
DAV:   3    -0.125532040134E+03   -0.48530E-07   -0.89607E-06 14256   0.122E-02
  35 F= -.12711428E+03 E0= -.12711350E+03  d E =-.527099E-04  mag=     0.0000
       N       E                     dE             d eps       ncg     rms          rms(c)
DAV:   1    -0.125532094429E+03   -0.54344E-04   -0.14008E-03 14208   0.138E-01    0.884E-03
DAV:   2    -0.125532094636E+03   -0.20702E-06   -0.17743E-05 14496   0.177E-02    0.530E-03
DAV:   3    -0.125532095116E+03   -0.47951E-06   -0.27527E-06 18960   0.758E-03
  36 F= -.12711429E+03 E0= -.12711351E+03  d E =-.592114E-04  mag=    -0.0000
       N       E                     dE             d eps       ncg     rms          rms(c)
DAV:   1    -0.125532169299E+03   -0.74663E-04   -0.14780E-03 14208   0.151E-01    0.854E-03
DAV:   2    -0.125532169119E+03    0.17954E-06   -0.15453E-05 15360   0.166E-02    0.491E-03
DAV:   3    -0.125532169284E+03   -0.16529E-06   -0.19294E-06 15168   0.654E-03
  37 F= -.12711431E+03 E0= -.12711353E+03  d E =-.224156E-04  mag=    -0.0000
       N       E                     dE             d eps       ncg     rms          rms(c)
DAV:   1    -0.125532231334E+03   -0.62214E-04   -0.15935E-03 14208   0.157E-01    0.883E-03
DAV:   2    -0.125532231091E+03    0.24224E-06   -0.16199E-05 14208   0.172E-02    0.507E-03
DAV:   3    -0.125532231272E+03   -0.18041E-06   -0.22745E-06 16944   0.722E-03
  38 F= -.12711432E+03 E0= -.12711354E+03  d E =-.306884E-04  mag=     0.0000
       N       E                     dE             d eps       ncg     rms          rms(c)
DAV:   1    -0.125532312117E+03   -0.81026E-04   -0.22529E-03 14208   0.192E-01    0.102E-02
DAV:   2    -0.125532311569E+03    0.54842E-06   -0.24924E-05 14208   0.218E-02    0.592E-03
DAV:   3    -0.125532311649E+03   -0.80369E-07   -0.37340E-06 14400   0.899E-03
  39 F= -.12711434E+03 E0= -.12711355E+03  d E =-.155465E-04  mag=    -0.0000
       N       E                     dE             d eps       ncg     rms          rms(c)
DAV:   1    -0.125532317265E+03   -0.56960E-05   -0.18441E-05 14208   0.184E-02    0.166E-03
DAV:   2    -0.125532317119E+03    0.14563E-06   -0.94975E-07 15456   0.506E-03
  40 F= -.12711433E+03 E0= -.12711355E+03  d E =-.154980E-04  mag=    -0.0000
       N       E                     dE             d eps       ncg     rms          rms(c)
DAV:   1    -0.125532347996E+03   -0.30731E-04   -0.21318E-04 14208   0.567E-02    0.330E-03
DAV:   2    -0.125532347874E+03    0.12248E-06   -0.22259E-06 14208   0.652E-03
  41 F= -.12711434E+03 E0= -.12711356E+03  d E =-.544754E-05  mag=    -0.0000
       N       E                     dE             d eps       ncg     rms          rms(c)
DAV:   1    -0.125532420498E+03   -0.72503E-04   -0.14685E-03 14208   0.149E-01    0.841E-03
DAV:   2    -0.125532420158E+03    0.34014E-06   -0.13003E-05 14208   0.147E-02    0.474E-03
DAV:   3    -0.125532420300E+03   -0.14167E-06   -0.15324E-06 14208   0.559E-03
  42 F= -.12711435E+03 E0= -.12711356E+03  d E =-.112591E-04  mag=     0.0000
       N       E                     dE             d eps       ncg     rms          rms(c)
DAV:   1    -0.125532454683E+03   -0.34525E-04   -0.37169E-04 14208   0.780E-02    0.452E-03
DAV:   2    -0.125532454514E+03    0.16918E-06   -0.51321E-06 14208   0.108E-02
  43 F= -.12711435E+03 E0= -.12711357E+03  d E =-.288604E-05  mag=     0.0000
       N       E                     dE             d eps       ncg     rms          rms(c)
DAV:   1    -0.125532460327E+03   -0.56435E-05   -0.10870E-05 15696   0.146E-02    0.148E-03
DAV:   2    -0.125532460133E+03    0.19368E-06   -0.11426E-06 14208   0.550E-03
  44 F= -.12711435E+03 E0= -.12711357E+03  d E =-.290215E-05  mag=     0.0000
       N       E                     dE             d eps       ncg     rms          rms(c)
DAV:   1    -0.125532490728E+03   -0.30401E-04   -0.17946E-04 15792   0.501E-02    0.269E-03
DAV:   2    -0.125532490682E+03    0.45435E-07   -0.18963E-06 18528   0.602E-03
  45 F= -.12711435E+03 E0= -.12711357E+03  d E =-.303224E-05  mag=     0.0000
       N       E                     dE             d eps       ncg     rms          rms(c)
DAV:   1    -0.125532580584E+03   -0.89856E-04   -0.15986E-03 14208   0.150E-01    0.747E-03
DAV:   2    -0.125532580733E+03   -0.14898E-06   -0.14967E-05 14208   0.159E-02    0.457E-03
DAV:   3    -0.125532581055E+03   -0.32176E-06   -0.19218E-06 15552   0.621E-03
  46 F= -.12711436E+03 E0= -.12711358E+03  d E =-.108351E-04  mag=     0.0000
       N       E                     dE             d eps       ncg     rms          rms(c)
DAV:   1    -0.125532751138E+03   -0.17040E-03   -0.64690E-03 14208   0.300E-01    0.145E-02
DAV:   2    -0.125532752124E+03   -0.98600E-06   -0.58250E-05 14496   0.311E-02    0.884E-03
DAV:   3    -0.125532752644E+03   -0.52029E-06   -0.62896E-06 14208   0.103E-02
  47 F= -.12711437E+03 E0= -.12711358E+03  d E =-.174268E-04  mag=    -0.0000
       N       E                     dE             d eps       ncg     rms          rms(c)
DAV:   1    -0.125532781522E+03   -0.29397E-04   -0.16989E-04 14400   0.510E-02    0.302E-03
DAV:   2    -0.125532781419E+03    0.10282E-06   -0.26732E-06 14304   0.828E-03
  48 F= -.12711437E+03 E0= -.12711359E+03  d E =-.299541E-05  mag=    -0.0000
       N       E                     dE             d eps       ncg     rms          rms(c)
DAV:   1    -0.125532862377E+03   -0.80856E-04   -0.14671E-03 14208   0.149E-01    0.797E-03
DAV:   2    -0.125532862344E+03    0.33419E-07   -0.16443E-05 14208   0.181E-02    0.499E-03
DAV:   3    -0.125532862830E+03   -0.48603E-06   -0.34312E-06 15456   0.928E-03
  49 F= -.12711437E+03 E0= -.12711359E+03  d E =-.704593E-05  mag=    -0.0000
       N       E                     dE             d eps       ncg     rms          rms(c)
DAV:   1    -0.125532901733E+03   -0.39389E-04   -0.25685E-04 14208   0.593E-02    0.336E-03
DAV:   2    -0.125532901679E+03    0.54086E-07   -0.30394E-06 15600   0.817E-03
  50 F= -.12711438E+03 E0= -.12711359E+03  d E =-.246601E-05  mag=    -0.0000
       N       E                     dE             d eps       ncg     rms          rms(c)
DAV:   1    -0.125533017406E+03   -0.11567E-03   -0.22546E-03 14208   0.174E-01    0.942E-03
DAV:   2    -0.125533017564E+03   -0.15746E-06   -0.21072E-05 14208   0.196E-02    0.578E-03
DAV:   3    -0.125533018106E+03   -0.54195E-06   -0.31264E-06 14496   0.833E-03
  51 F= -.12711438E+03 E0= -.12711360E+03  d E =-.976696E-05  mag=    -0.0000
       N       E                     dE             d eps       ncg     rms          rms(c)
DAV:   1    -0.125533238675E+03   -0.22111E-03   -0.91045E-03 14208   0.349E-01    0.181E-02
DAV:   2    -0.125533239916E+03   -0.12413E-05   -0.80148E-05 15648   0.375E-02    0.110E-02
DAV:   3    -0.125533240707E+03   -0.79092E-06   -0.89927E-06 14784   0.128E-02
  52 F= -.12711439E+03 E0= -.12711360E+03  d E =-.141864E-04  mag=     0.0000
       N       E                     dE             d eps       ncg     rms          rms(c)
DAV:   1    -0.125533294741E+03   -0.54825E-04   -0.48784E-04 14208   0.827E-02    0.481E-03
DAV:   2    -0.125533294487E+03    0.25406E-06   -0.59984E-06 15648   0.121E-02
  53 F= -.12711439E+03 E0= -.12711361E+03  d E =-.402226E-05  mag=     0.0000
       N       E                     dE             d eps       ncg     rms          rms(c)
DAV:   1    -0.125533448882E+03   -0.15414E-03   -0.42705E-03 14208   0.243E-01    0.131E-02
DAV:   2    -0.125533449027E+03   -0.14454E-06   -0.39427E-05 14208   0.279E-02    0.825E-03
DAV:   3    -0.125533450606E+03   -0.15794E-05   -0.77785E-06 14304   0.137E-02    0.252E-03
DAV:   4    -0.125533449658E+03    0.94786E-06   -0.45817E-06 14208   0.111E-02
  54 F= -.12711440E+03 E0= -.12711361E+03  d E =-.985631E-05  mag=    -0.0000
       N       E                     dE             d eps       ncg     rms          rms(c)
DAV:   1    -0.125533490374E+03   -0.39768E-04   -0.30881E-04 22512   0.663E-02    0.376E-03
DAV:   2    -0.125533490254E+03    0.12002E-06   -0.28340E-06 18624   0.724E-03
  55 F= -.12711440E+03 E0= -.12711362E+03  d E =-.274109E-05  mag=    -0.0000
       N       E                     dE             d eps       ncg     rms          rms(c)
DAV:   1    -0.125533607590E+03   -0.11722E-03   -0.27151E-03 14208   0.196E-01    0.108E-02
DAV:   2    -0.125533607209E+03    0.38072E-06   -0.26662E-05 15600   0.217E-02    0.637E-03
DAV:   3    -0.125533607362E+03   -0.15343E-06   -0.33703E-06 14400   0.762E-03
  56 F= -.12711440E+03 E0= -.12711362E+03  d E =-.626999E-05  mag=    -0.0000
       N       E                     dE             d eps       ncg     rms          rms(c)
DAV:   1    -0.125533582257E+03    0.24952E-04   -0.13420E-04 14208   0.438E-02    0.199E-03
DAV:   2    -0.125533582186E+03    0.70633E-07   -0.20954E-06 14208   0.662E-03
  57 F= -.12711440E+03 E0= -.12711362E+03  d E =-.653039E-05  mag=     0.0000
       N       E                     dE             d eps       ncg     rms          rms(c)
DAV:   1    -0.125533614485E+03   -0.32228E-04   -0.23240E-04 15264   0.596E-02    0.283E-03
DAV:   2    -0.125533614436E+03    0.49198E-07   -0.28360E-06 14208   0.755E-03
  58 F= -.12711441E+03 E0= -.12711362E+03  d E =-.245452E-05  mag=     0.0000
       N       E                     dE             d eps       ncg     rms          rms(c)
DAV:   1    -0.125533655534E+03   -0.41049E-04   -0.40675E-04 14208   0.794E-02    0.444E-03
DAV:   2    -0.125533655444E+03    0.89861E-07   -0.47284E-06 15168   0.960E-03
  59 F= -.12711441E+03 E0= -.12711362E+03  d E =-.343730E-05  mag=     0.0000
       N       E                     dE             d eps       ncg     rms          rms(c)
DAV:   1    -0.125533689026E+03   -0.33492E-04   -0.26848E-04 21072   0.642E-02    0.379E-03
DAV:   2    -0.125533688833E+03    0.19314E-06   -0.30528E-06 14496   0.815E-03
  60 F= -.12711441E+03 E0= -.12711363E+03  d E =-.143549E-05  mag=     0.0000
       N       E                     dE             d eps       ncg     rms          rms(c)
DAV:   1    -0.125533703289E+03   -0.14263E-04   -0.51251E-05 17232   0.285E-02    0.203E-03
DAV:   2    -0.125533703172E+03    0.11671E-06   -0.11536E-06 14496   0.549E-03
  61 F= -.12711441E+03 E0= -.12711363E+03  d E =-.156468E-05  mag=     0.0000
       N       E                     dE             d eps       ncg     rms          rms(c)
DAV:   1    -0.125533720622E+03   -0.17333E-04   -0.66940E-05 14880   0.328E-02    0.188E-03
DAV:   2    -0.125533720541E+03    0.81168E-07   -0.13128E-06 14544   0.575E-03
  62 F= -.12711441E+03 E0= -.12711363E+03  d E =-.793365E-06  mag=     0.0000
       N       E                     dE             d eps       ncg     rms          rms(c)
DAV:   1    -0.125533740864E+03   -0.20242E-04   -0.95780E-05 14544   0.391E-02    0.227E-03
DAV:   2    -0.125533740784E+03    0.79877E-07   -0.14667E-06 14256   0.585E-03
  63 F= -.12711441E+03 E0= -.12711363E+03  d E =-.106417E-05  mag=     0.0000
       N       E                     dE             d eps       ncg     rms          rms(c)
DAV:   1    -0.125533755550E+03   -0.14686E-04   -0.45235E-05 17376   0.272E-02    0.162E-03
DAV:   2    -0.125533755487E+03    0.62089E-07   -0.93046E-07 14880   0.494E-03
  64 F= -.12711441E+03 E0= -.12711363E+03  d E =-.634475E-06  mag=     0.0000
       N       E                     dE             d eps       ncg     rms          rms(c)
DAV:   1    -0.125533775129E+03   -0.19579E-04   -0.85530E-05 14592   0.370E-02    0.214E-03
DAV:   2    -0.125533775065E+03    0.63742E-07   -0.13015E-06 14352   0.548E-03
  65 F= -.12711441E+03 E0= -.12711363E+03  d E =-.893729E-06  mag=     0.0000
       N       E                     dE             d eps       ncg     rms          rms(c)
DAV:   1    -0.125533781658E+03   -0.65296E-05   -0.91018E-06 14976   0.127E-02    0.940E-04
DAV:   2    -0.125533781616E+03    0.42103E-07   -0.51695E-07 14208   0.373E-03
  66 F= -.12711441E+03 E0= -.12711363E+03  d E =-.201684E-06  mag=     0.0000
       N       E                     dE             d eps       ncg     rms          rms(c)
DAV:   1    -0.125533792189E+03   -0.10530E-04   -0.24579E-05 14208   0.201E-02    0.129E-03
DAV:   2    -0.125533792148E+03    0.40543E-07   -0.49601E-07 16272   0.335E-03
  67 F= -.12711441E+03 E0= -.12711363E+03  d E =-.273570E-06  mag=     0.0000
       N       E                     dE             d eps       ncg     rms          rms(c)
DAV:   1    -0.125533800391E+03   -0.82016E-05   -0.95527E-06 15600   0.126E-02    0.841E-04
DAV:   2    -0.125533800372E+03    0.18387E-07   -0.24034E-07 14208   0.254E-03
  68 F= -.12711441E+03 E0= -.12711363E+03  d E =-.168878E-06  mag=     0.0000
       N       E                     dE             d eps       ncg     rms          rms(c)
DAV:   1    -0.125533812166E+03   -0.11775E-04   -0.20283E-05 14208   0.182E-02    0.109E-03
DAV:   2    -0.125533812143E+03    0.22601E-07   -0.37347E-07 14208   0.299E-03
  69 F= -.12711441E+03 E0= -.12711363E+03  d E =-.247729E-06  mag=     0.0000
       N       E                     dE             d eps       ncg     rms          rms(c)
DAV:   1    -0.125533822418E+03   -0.10253E-04   -0.12255E-05 14304   0.141E-02    0.840E-04
DAV:   2    -0.125533822405E+03    0.13159E-07   -0.27079E-07 14208   0.256E-03
  70 F= -.12711441E+03 E0= -.12711363E+03  d E =-.172035E-06  mag=     0.0000
       N       E                     dE             d eps       ncg     rms          rms(c)
DAV:   1    -0.125533840288E+03   -0.17869E-04   -0.37803E-05 14208   0.246E-02    0.140E-03
DAV:   2    -0.125533840256E+03    0.31497E-07   -0.59079E-07 14208   0.351E-03
  71 F= -.12711441E+03 E0= -.12711363E+03  d E =-.293396E-06  mag=     0.0000
       N       E                     dE             d eps       ncg     rms          rms(c)
DAV:   1    -0.125533850793E+03   -0.10505E-04   -0.11453E-05 14208   0.136E-02    0.849E-04
DAV:   2    -0.125533850781E+03    0.12288E-07   -0.23355E-07 14208   0.247E-03
  72 F= -.12711441E+03 E0= -.12711363E+03  d E =-.127264E-06  mag=     0.0000
       N       E                     dE             d eps       ncg     rms          rms(c)
DAV:   1    -0.125533871885E+03   -0.21092E-04   -0.47877E-05 14208   0.274E-02    0.145E-03
DAV:   2    -0.125533871858E+03    0.27330E-07   -0.70230E-07 14208   0.390E-03
  73 F= -.12711441E+03 E0= -.12711363E+03  d E =-.223635E-06  mag=     0.0000
       N       E                     dE             d eps       ncg     rms          rms(c)
DAV:   1    -0.125533884894E+03   -0.13008E-04   -0.18259E-05 14208   0.170E-02    0.999E-04
DAV:   2    -0.125533884874E+03    0.19528E-07   -0.31912E-07 14208   0.281E-03
  74 F= -.12711441E+03 E0= -.12711363E+03  d E =-.203192E-06  mag=     0.0000
       N       E                     dE             d eps       ncg     rms          rms(c)
DAV:   1    -0.125533923736E+03   -0.38843E-04   -0.16950E-04 14208   0.511E-02    0.254E-03
DAV:   2    -0.125533923650E+03    0.86452E-07   -0.20580E-06 14208   0.633E-03
  75 F= -.12711441E+03 E0= -.12711363E+03  d E =-.543015E-06  mag=     0.0000
       N       E                     dE             d eps       ncg     rms          rms(c)
DAV:   1    -0.125534000382E+03   -0.76646E-04   -0.67181E-04 14208   0.102E-01    0.507E-03
DAV:   2    -0.125534000113E+03    0.26953E-06   -0.76076E-06 14208   0.118E-02
  76 F= -.12711441E+03 E0= -.12711363E+03  d E =-.140943E-06  mag=     0.0000
       N       E                     dE             d eps       ncg     rms          rms(c)
DAV:   1    -0.125533953920E+03    0.46463E-04   -0.27070E-04 14208   0.636E-02    0.254E-03
DAV:   2    -0.125533953904E+03    0.15654E-07   -0.38985E-06 14208   0.845E-03
  77 F= -.12711441E+03 E0= -.12711363E+03  d E =-.665428E-06  mag=     0.0000
       N       E                     dE             d eps       ncg     rms          rms(c)
DAV:   1    -0.125533941441E+03    0.12478E-04   -0.15881E-05 18720   0.165E-02    0.117E-03
DAV:   2    -0.125533941407E+03    0.34122E-07   -0.32353E-07 14208   0.293E-03
  78 F= -.12711441E+03 E0= -.12711363E+03  d E =-.622305E-06  mag=     0.0000
       N       E                     dE             d eps       ncg     rms          rms(c)
DAV:   1    -0.125533953725E+03   -0.12283E-04   -0.17585E-05 14208   0.165E-02    0.653E-04
DAV:   2    -0.125533953725E+03   -0.46111E-09   -0.40259E-07 14208   0.323E-03
  79 F= -.12711441E+03 E0= -.12711363E+03  d E =-.187923E-06  mag=     0.0000
       N       E                     dE             d eps       ncg     rms          rms(c)
DAV:   1    -0.125533990441E+03   -0.36716E-04   -0.15066E-04 14208   0.482E-02    0.236E-03
DAV:   2    -0.125533990364E+03    0.77138E-07   -0.18174E-06 19344   0.577E-03
  80 F= -.12711441E+03 E0= -.12711363E+03  d E =-.436751E-06  mag=     0.0000
       N       E                     dE             d eps       ncg     rms          rms(c)
DAV:   1    -0.125534062906E+03   -0.72465E-04   -0.59424E-04 14208   0.958E-02    0.466E-03
DAV:   2    -0.125534062701E+03    0.20472E-06   -0.63897E-06 14208   0.108E-02
  81 F= -.12711441E+03 E0= -.12711363E+03  d E =0.366762E-08  mag=     0.0000
       N       E                     dE             d eps       ncg     rms          rms(c)
DAV:   1    -0.125534016068E+03    0.46838E-04   -0.27234E-04 14208   0.638E-02    0.259E-03
DAV:   2    -0.125534016046E+03    0.22090E-07   -0.36812E-06 14640   0.814E-03
  82 F= -.12711441E+03 E0= -.12711363E+03  d E =-.514417E-06  mag=     0.0000
       N       E                     dE             d eps       ncg     rms          rms(c)
DAV:   1    -0.125534004461E+03    0.11607E-04   -0.13234E-05 20640   0.150E-02    0.108E-03
DAV:   2    -0.125534004439E+03    0.22194E-07   -0.21716E-07 14304   0.242E-03
  83 F= -.12711441E+03 E0= -.12711363E+03  d E =-.481387E-06  mag=     0.0000
       N       E                     dE             d eps       ncg     rms          rms(c)
DAV:   1    -0.125534025993E+03   -0.21532E-04   -0.49662E-05 14304   0.274E-02    0.114E-03
DAV:   2    -0.125534025990E+03    0.37280E-08   -0.76488E-07 14448   0.415E-03
  84 F= -.12711441E+03 E0= -.12711363E+03  d E =-.282458E-06  mag=     0.0000
       N       E                     dE             d eps       ncg     rms          rms(c)
DAV:   1    -0.125534090440E+03   -0.64447E-04   -0.43327E-04 14208   0.810E-02    0.390E-03
DAV:   2    -0.125534090267E+03    0.17349E-06   -0.49223E-06 16032   0.943E-03
  85 F= -.12711441E+03 E0= -.12711363E+03  d E =-.760408E-06  mag=     0.0000
       N       E                     dE             d eps       ncg     rms          rms(c)
DAV:   1    -0.125534218240E+03   -0.12780E-03   -0.17172E-03 14208   0.161E-01    0.782E-03
DAV:   2    -0.125534217743E+03    0.49736E-06   -0.18459E-05 19152   0.180E-02    0.484E-03
DAV:   3    -0.125534217829E+03   -0.85752E-07   -0.24461E-06 14400   0.636E-03
  86 F= -.12711441E+03 E0= -.12711363E+03  d E =-.749634E-06  mag=    -0.0000
       N       E                     dE             d eps       ncg     rms          rms(c)
DAV:   1    -0.125534144352E+03    0.73391E-04   -0.57761E-04 15792   0.935E-02    0.400E-03
DAV:   2    -0.125534144159E+03    0.19286E-06   -0.70115E-06 16848   0.112E-02
  87 F= -.12711441E+03 E0= -.12711363E+03  d E =-.987857E-06  mag=     0.0000
       N       E                     dE             d eps       ncg     rms          rms(c)
DAV:   1    -0.125534172511E+03   -0.28159E-04   -0.95651E-05 19776   0.374E-02    0.137E-03
DAV:   2    -0.125534172526E+03   -0.14469E-07   -0.14754E-06 17088   0.579E-03
  88 F= -.12711441E+03 E0= -.12711363E+03  d E =-.357184E-06  mag=    -0.0000
       N       E                     dE             d eps       ncg     rms          rms(c)
DAV:   1    -0.125534256979E+03   -0.84467E-04   -0.76392E-04 14208   0.108E-01    0.519E-03
DAV:   2    -0.125534256735E+03    0.24346E-06   -0.87830E-06 17952   0.126E-02
  89 F= -.12711441E+03 E0= -.12711363E+03  d E =-.544537E-06  mag=    -0.0000
       N       E                     dE             d eps       ncg     rms          rms(c)
DAV:   1    -0.125534288782E+03   -0.31803E-04   -0.95605E-05 14448   0.389E-02    0.235E-03
DAV:   2    -0.125534288706E+03    0.75616E-07   -0.12500E-06 14208   0.548E-03
  90 F= -.12711442E+03 E0= -.12711363E+03  d E =-.216507E-06  mag=    -0.0000
       N       E                     dE             d eps       ncg     rms          rms(c)
DAV:   1    -0.125534342440E+03   -0.53658E-04   -0.29414E-04 17184   0.666E-02    0.335E-03
DAV:   2    -0.125534342288E+03    0.15152E-06   -0.34250E-06 15216   0.861E-03
  91 F= -.12711442E+03 E0= -.12711363E+03  d E =-.528509E-06  mag=    -0.0000
       N       E                     dE             d eps       ncg     rms          rms(c)
DAV:   1    -0.125534449209E+03   -0.10677E-03   -0.11739E-03 14592   0.133E-01    0.654E-03
DAV:   2    -0.125534448879E+03    0.32984E-06   -0.13278E-05 14928   0.160E-02    0.413E-03
DAV:   3    -0.125534449152E+03   -0.27213E-06   -0.23514E-06 14496   0.724E-03
  92 F= -.12711442E+03 E0= -.12711363E+03  d E =-.867732E-06  mag=    -0.0000
       N       E                     dE             d eps       ncg     rms          rms(c)
DAV:   1    -0.125534393218E+03    0.55661E-04   -0.32506E-04 14208   0.701E-02    0.302E-03
DAV:   2    -0.125534393084E+03    0.13436E-06   -0.47378E-06 14208   0.991E-03
  93 F= -.12711442E+03 E0= -.12711363E+03  d E =-.731390E-06  mag=    -0.0000
       N       E                     dE             d eps       ncg     rms          rms(c)
DAV:   1    -0.125534408473E+03   -0.15255E-04   -0.37611E-05 17568   0.243E-02    0.115E-03
DAV:   2    -0.125534408440E+03    0.33089E-07   -0.10819E-06 15744   0.544E-03
  94 F= -.12711442E+03 E0= -.12711363E+03  d E =-.347558E-06  mag=    -0.0000
       N       E                     dE             d eps       ncg     rms          rms(c)
DAV:   1    -0.125534417605E+03   -0.91318E-05   -0.12190E-05 14592   0.144E-02    0.104E-03
DAV:   2    -0.125534417569E+03    0.36344E-07   -0.31451E-07 20592   0.294E-03
  95 F= -.12711442E+03 E0= -.12711363E+03  d E =-.328704E-06  mag=     0.0000
       N       E                     dE             d eps       ncg     rms          rms(c)
DAV:   1    -0.125534424827E+03   -0.72218E-05   -0.59838E-06 17424   0.100E-02    0.665E-04
DAV:   2    -0.125534424808E+03    0.18861E-07   -0.21700E-07 14208   0.242E-03
  96 F= -.12711442E+03 E0= -.12711363E+03  d E =-.113759E-06  mag=     0.0000
       N       E                     dE             d eps       ncg     rms          rms(c)
DAV:   1    -0.125534443936E+03   -0.19110E-04   -0.42824E-05 14208   0.259E-02    0.153E-03
DAV:   2    -0.125534443908E+03    0.28341E-07   -0.62212E-07 14208   0.357E-03
  97 F= -.12711442E+03 E0= -.12711363E+03  d E =-.254005E-06  mag=     0.0000
       N       E                     dE             d eps       ncg     rms          rms(c)
DAV:   1    -0.125534448844E+03   -0.49073E-05   -0.70494E-06 14208   0.111E-02    0.748E-04
DAV:   2    -0.125534448829E+03    0.14556E-07   -0.20511E-07 14208   0.241E-03
  98 F= -.12711442E+03 E0= -.12711363E+03  d E =-.703482E-07  mag=     0.0000
