Lattice                                 
           1
     4.306744    2.486500    0.000000
    -4.306744    2.486500    0.000000
     0.000000    0.000000   15.000000
   B    C 
     8     8
Direct configuration=     1
   0.66888689  0.00000000  0.10000000
   0.33111211  0.00000000  0.10000000
   0.00000000  0.33111211  0.10000000
   0.00000000  0.66888689  0.10000000
   0.33111211  0.33111211  0.10000000
   0.66888689  0.66888689  0.10000000
   0.66666600  0.33333300  0.09922189
   0.33333300  0.66666600  0.10077811
   0.27777711  0.22222189  0.46960000
   0.44444411  0.05555489  0.46960000
   0.27777711  0.72222189  0.46960000
   0.44444411  0.55555489  0.46960000
   0.77777711  0.22222189  0.46960000
   0.94444411  0.05555489  0.46960000
   0.77777711  0.72222189  0.46960000
   0.94444411  0.55555489  0.46960000
Direct configuration=     2
   0.67073679 -0.00000010  0.10002622
   0.32926232 -0.00000012  0.10002628
   0.00000010  0.32926221  0.10002622
   0.00000012  0.67073668  0.10002628
   0.32926200  0.32926197  0.10002631
   0.67073703  0.67073700  0.10002631
   0.66666614  0.33333286  0.09924261
   0.33333259  0.66666641  0.10081569
   0.27777225  0.22221744  0.46957332
   0.44444184  0.05555715  0.46957270
   0.27777720  0.72222180  0.46957221
   0.44444491  0.55555409  0.46957292
   0.77778054  0.22221846  0.46957313
   0.94444465  0.05555435  0.46957378
   0.77778156  0.72222675  0.46957332
   0.94444185  0.55555716  0.46957270
Direct configuration=     3
   0.66982632 -0.00000005  0.10001332
   0.33017274 -0.00000006  0.10001335
   0.00000005  0.33017268  0.10001332
   0.00000006  0.66982626  0.10001335
   0.33017257  0.33017256  0.10001336
   0.66982644  0.66982643  0.10001336
   0.66666607  0.33333293  0.09923241
   0.33333279  0.66666621  0.10079719
   0.27777464  0.22221963  0.46958645
   0.44444296  0.05555604  0.46958614
   0.27777715  0.72222185  0.46958589
   0.44444451  0.55555449  0.46958625
   0.77777885  0.22222015  0.46958636
   0.94444439  0.05555461  0.46958668
   0.77777937  0.72222436  0.46958645
   0.94444296  0.55555604  0.46958614
Direct configuration=     4
   0.66983184 -0.00000005  0.10001340
   0.33016722 -0.00000006  0.10001342
   0.00000005  0.33016716  0.10001340
   0.00000006  0.66983178  0.10001342
   0.33016705  0.33016704  0.10001344
   0.66983196  0.66983195  0.10001344
   0.66666607  0.33333293  0.09923247
   0.33333279  0.66666621  0.10079731
   0.27777463  0.22221961  0.46958637
   0.44444295  0.05555604  0.46958606
   0.27777715  0.72222185  0.46958580
   0.44444452  0.55555448  0.46958617
   0.77777886  0.22222014  0.46958628
   0.94444439  0.05555461  0.46958661
   0.77777939  0.72222437  0.46958637
   0.94444296  0.55555605  0.46958606
Direct configuration=     5
   0.66982958 -0.00000005  0.10001336
   0.33016948 -0.00000006  0.10001339
   0.00000005  0.33016942  0.10001336
   0.00000006  0.66982952  0.10001339
   0.33016931  0.33016930  0.10001341
   0.66982970  0.66982969  0.10001341
   0.66666607  0.33333293  0.09923244
   0.33333279  0.66666621  0.10079726
   0.27777464  0.22221962  0.46958640
   0.44444295  0.05555604  0.46958609
   0.27777715  0.72222185  0.46958584
   0.44444452  0.55555448  0.46958620
   0.77777886  0.22222014  0.46958631
   0.94444439  0.05555461  0.46958664
   0.77777938  0.72222436  0.46958640
   0.94444296  0.55555605  0.46958609
Direct configuration=     6
   0.66982795 -0.00000005  0.10001334
   0.33017111 -0.00000006  0.10001337
   0.00000005  0.33017105  0.10001334
   0.00000006  0.66982789  0.10001337
   0.33017094  0.33017093  0.10001338
   0.66982807  0.66982806  0.10001338
   0.66666607  0.33333293  0.09923243
   0.33333279  0.66666621  0.10079723
   0.27777464  0.22221962  0.46958643
   0.44444296  0.05555604  0.46958611
   0.27777715  0.72222185  0.46958586
   0.44444452  0.55555448  0.46958623
   0.77777886  0.22222014  0.46958633
   0.94444439  0.05555461  0.46958666
   0.77777938  0.72222436  0.46958643
   0.94444296  0.55555604  0.46958611
Direct configuration=     7
   0.66982713 -0.00000005  0.10001333
   0.33017192 -0.00000006  0.10001336
   0.00000005  0.33017187  0.10001333
   0.00000006  0.66982708  0.10001336
   0.33017176  0.33017175  0.10001337
   0.66982725  0.66982724  0.10001337
   0.66666607  0.33333293  0.09923242
   0.33333279  0.66666621  0.10079721
   0.27777464  0.22221963  0.46958644
   0.44444296  0.05555604  0.46958613
   0.27777715  0.72222185  0.46958587
   0.44444452  0.55555448  0.46958624
   0.77777885  0.22222015  0.46958635
   0.94444439  0.05555461  0.46958667
   0.77777937  0.72222436  0.46958644
   0.94444296  0.55555604  0.46958613
Direct configuration=     8
   0.66982720 -0.00000007  0.10003721
   0.33017197 -0.00000002  0.10003729
   0.00000007  0.33017180  0.10003721
   0.00000002  0.66982703  0.10003729
   0.33017185  0.33017183  0.10003733
   0.66982717  0.66982715  0.10003733
   0.66666606  0.33333294  0.09925426
   0.33333278  0.66666622  0.10082750
   0.27777783  0.22222332  0.46956220
   0.44444500  0.05555396  0.46956145
   0.27777670  0.72222230  0.46956087
   0.44444427  0.55555473  0.46956171
   0.77777588  0.22222312  0.46956198
   0.94444437  0.05555463  0.46956274
   0.77777568  0.72222117  0.46956220
   0.94444504  0.55555400  0.46956145
Direct configuration=     9
   0.66982739 -0.00000013  0.10010886
   0.33017212  0.00000009  0.10010908
   0.00000013  0.33017161  0.10010886
  -0.00000009  0.66982688  0.10010908
   0.33017212  0.33017206  0.10010919
   0.66982694  0.66982688  0.10010919
   0.66666601  0.33333299  0.09931977
   0.33333273  0.66666627  0.10091835
   0.27778741  0.22223439  0.46948949
   0.44445113  0.05554773  0.46948742
   0.27777533  0.72222367  0.46948586
   0.44444352  0.55555548  0.46948814
   0.77776695  0.22223205  0.46948889
   0.94444431  0.05555469  0.46949093
   0.77776461  0.72221159  0.46948949
   0.94445127  0.55554787  0.46948742
Direct configuration=    10
   0.66982778 -0.00000025  0.10025215
   0.33017241  0.00000032  0.10025265
   0.00000025  0.33017122  0.10025215
  -0.00000032  0.66982659  0.10025265
   0.33017266  0.33017253  0.10025291
   0.66982647  0.66982634  0.10025291
   0.66666591  0.33333309  0.09945080
   0.33333265  0.66666635  0.10110007
   0.27780656  0.22225653  0.46934406
   0.44446340  0.05553526  0.46933936
   0.27777259  0.72222641  0.46933585
   0.44444203  0.55555697  0.46934100
   0.77774910  0.22224990  0.46934270
   0.94444419  0.05555481  0.46934731
   0.77774247  0.72219244  0.46934406
   0.94446374  0.55553560  0.46933936
Direct configuration=    11
   0.66982855 -0.00000050  0.10053874
   0.33017298  0.00000078  0.10053981
   0.00000050  0.33017045  0.10053874
  -0.00000078  0.66982602  0.10053981
   0.33017375  0.33017348  0.10054036
   0.66982552  0.66982525  0.10054036
   0.66666570  0.33333330  0.09971287
   0.33333247  0.66666653  0.10146349
   0.27784487  0.22230082  0.46905320
   0.44448793  0.05551033  0.46904324
   0.27776712  0.72223188  0.46903582
   0.44443906  0.55555994  0.46904671
   0.77771339  0.22228561  0.46905034
   0.94444396  0.05555504  0.46906008
   0.77769818  0.72215413  0.46905320
   0.94448867  0.55551107  0.46904324
Direct configuration=    12
   0.66983010 -0.00000099  0.10111191
   0.33017414  0.00000169  0.10111412
   0.00000099  0.33016890  0.10111191
  -0.00000169  0.66982486  0.10111412
   0.33017593  0.33017536  0.10111525
   0.66982364  0.66982307  0.10111525
   0.66666530  0.33333370  0.10023699
   0.33333211  0.66666689  0.10219034
   0.27792148  0.22238940  0.46847148
   0.44453699  0.05546046  0.46845100
   0.27775616  0.72224284  0.46843577
   0.44443310  0.55556590  0.46845814
   0.77764198  0.22235702  0.46846560
   0.94444350  0.05555550  0.46848561
   0.77760960  0.72207752  0.46847148
   0.94453854  0.55546201  0.46845100
Direct configuration=    13
   0.66983318 -0.00000197  0.10225826
   0.33017646  0.00000351  0.10226275
   0.00000197  0.33016582  0.10225826
  -0.00000351  0.66982254  0.10226275
   0.33018028  0.33017913  0.10226504
   0.66981987  0.66981872  0.10226504
   0.66666450  0.33333450  0.10128524
   0.33333140  0.66666760  0.10364405
   0.27807471  0.22256656  0.46730805
   0.44463512  0.05536072  0.46726653
   0.27773426  0.72226474  0.46723566
   0.44442119  0.55557781  0.46728100
   0.77749915  0.22249985  0.46729612
   0.94444258  0.05555642  0.46733668
   0.77743244  0.72192429  0.46730805
   0.94463828  0.55536388  0.46726653
Direct configuration=    14
   0.66983936 -0.00000393  0.10455095
   0.33018109  0.00000715  0.10455999
   0.00000393  0.33015964  0.10455095
  -0.00000715  0.66981791  0.10455999
   0.33018899  0.33018668  0.10456462
   0.66981232  0.66981001  0.10456462
   0.66666289  0.33333611  0.10338175
   0.33332998  0.66666902  0.10655146
   0.27838116  0.22292087  0.46498118
   0.44483137  0.05516124  0.46489757
   0.27769046  0.72230854  0.46483544
   0.44439737  0.55560163  0.46492672
   0.77721349  0.22278551  0.46495717
   0.94444074  0.05555826  0.46503882
   0.77707813  0.72161784  0.46498118
   0.94483776  0.55516763  0.46489757
Direct configuration=    15
   0.66985172 -0.00000785  0.10913633
   0.33019035  0.00001444  0.10915449
   0.00000785  0.33014728  0.10913633
  -0.00001444  0.66980865  0.10915449
   0.33020640  0.33020177  0.10916378
   0.66979723  0.66979260  0.10916378
   0.66665968  0.33333932  0.10757475
   0.33332714  0.66667186  0.11236628
   0.27899405  0.22362950  0.46032745
   0.44522387  0.05476229  0.46015967
   0.27760285  0.72239615  0.46003499
   0.44434973  0.55564927  0.46021815
   0.77664218  0.22335682  0.46027928
   0.94443706  0.05556194  0.46044310
   0.77636950  0.72100495  0.46032745
   0.94523671  0.55477513  0.46015967
Direct configuration=    16
   0.66985172 -0.00000785  0.10913745
   0.33019035  0.00001444  0.10915561
   0.00000785  0.33014728  0.10913745
  -0.00001444  0.66980865  0.10915561
   0.33020640  0.33020177  0.10916490
   0.66979723  0.66979260  0.10916490
   0.66665968  0.33333932  0.10757577
   0.33332714  0.66667186  0.11236770
   0.27899410  0.22362953  0.46032632
   0.44522389  0.05476228  0.46015852
   0.27760286  0.72239614  0.46003383
   0.44434972  0.55564928  0.46021700
   0.77664215  0.22335685  0.46027814
   0.94443705  0.05556195  0.46044198
   0.77636947  0.72100490  0.46032632
   0.94523672  0.55477511  0.46015852
Direct configuration=    17
   0.66985172 -0.00000786  0.10914080
   0.33019036  0.00001444  0.10915896
   0.00000786  0.33014728  0.10914080
  -0.00001444  0.66980864  0.10915896
   0.33020641  0.33020179  0.10916826
   0.66979721  0.66979259  0.10916826
   0.66665968  0.33333932  0.10757883
   0.33332713  0.66667187  0.11237194
   0.27899423  0.22362962  0.46032292
   0.44522392  0.05476223  0.46015506
   0.27760287  0.72239613  0.46003033
   0.44434968  0.55564932  0.46021356
   0.77664208  0.22335692  0.46027472
   0.94443702  0.05556198  0.46043861
   0.77636938  0.72100477  0.46032292
   0.94523677  0.55477508  0.46015506
Direct configuration=    18
   0.66985172 -0.00000787  0.10914750
   0.33019037  0.00001443  0.10916568
   0.00000787  0.33014728  0.10914750
  -0.00001443  0.66980863  0.10916568
   0.33020644  0.33020181  0.10917498
   0.66979719  0.66979256  0.10917498
   0.66665968  0.33333932  0.10758494
   0.33332713  0.66667187  0.11238042
   0.27899451  0.22362982  0.46031612
   0.44522400  0.05476215  0.46014815
   0.27760290  0.72239610  0.46002334
   0.44434960  0.55564940  0.46020669
   0.77664193  0.22335707  0.46026789
   0.94443696  0.05556204  0.46043189
   0.77636918  0.72100449  0.46031612
   0.94523685  0.55477500  0.46014815
Direct configuration=    19
   0.66985172 -0.00000790  0.10916089
   0.33019040  0.00001442  0.10917910
   0.00000790  0.33014728  0.10916089
  -0.00001442  0.66980860  0.10917910
   0.33020648  0.33020187  0.10918841
   0.66979713  0.66979252  0.10918841
   0.66665968  0.33333932  0.10759717
   0.33332712  0.66667188  0.11239739
   0.27899505  0.22363021  0.46030252
   0.44522414  0.05476198  0.46013433
   0.27760295  0.72239605  0.46000935
   0.44434944  0.55564956  0.46019294
   0.77664164  0.22335736  0.46025422
   0.94443684  0.05556216  0.46041844
   0.77636879  0.72100395  0.46030252
   0.94523702  0.55477486  0.46013433
Direct configuration=    20
   0.66985172 -0.00000796  0.10918768
   0.33019045  0.00001441  0.10920594
   0.00000796  0.33014728  0.10918768
  -0.00001441  0.66980855  0.10920594
   0.33020657  0.33020198  0.10921529
   0.66979702  0.66979243  0.10921529
   0.66665968  0.33333932  0.10762162
   0.33332710  0.66667190  0.11243132
   0.27899615  0.22363098  0.46027531
   0.44522444  0.05476164  0.46010668
   0.27760306  0.72239594  0.45998138
   0.44434912  0.55564988  0.46016545
   0.77664105  0.22335795  0.46022689
   0.94443660  0.05556240  0.46039154
   0.77636802  0.72100285  0.46027531
   0.94523736  0.55477456  0.46010668
Direct configuration=    21
   0.66985172 -0.00000809  0.10924127
   0.33019055  0.00001437  0.10925963
   0.00000809  0.33014728  0.10924127
  -0.00001437  0.66980845  0.10925963
   0.33020674  0.33020220  0.10926903
   0.66979680  0.66979226  0.10926903
   0.66665967  0.33333933  0.10767052
   0.33332707  0.66667193  0.11249918
   0.27899834  0.22363253  0.46022091
   0.44522503  0.05476095  0.46005138
   0.27760329  0.72239571  0.45992543
   0.44434848  0.55565052  0.46011046
   0.77663988  0.22335912  0.46017223
   0.94443611  0.05556289  0.46033774
   0.77636647  0.72100066  0.46022091
   0.94523805  0.55477397  0.46005138
Direct configuration=    22
   0.66985171 -0.00000833  0.10934844
   0.33019076  0.00001430  0.10936701
   0.00000833  0.33014729  0.10934844
  -0.00001430  0.66980824  0.10936701
   0.33020708  0.33020264  0.10937651
   0.66979636  0.66979192  0.10937651
   0.66665966  0.33333934  0.10776833
   0.33332699  0.66667201  0.11263490
   0.27900272  0.22363563  0.46011209
   0.44522621  0.05475959  0.45994080
   0.27760373  0.72239527  0.45981353
   0.44434719  0.55565181  0.46000048
   0.77663753  0.22336147  0.46006291
   0.94443513  0.05556387  0.46023014
   0.77636337  0.72099628  0.46011209
   0.94523941  0.55477279  0.45994080
Direct configuration=    23
   0.66985170 -0.00000882  0.10956278
   0.33019117  0.00001416  0.10958177
   0.00000882  0.33014730  0.10956278
  -0.00001416  0.66980783  0.10958177
   0.33020777  0.33020352  0.10959148
   0.66979548  0.66979123  0.10959148
   0.66665964  0.33333936  0.10796394
   0.33332685  0.66667215  0.11290635
   0.27901147  0.22364183  0.45989447
   0.44522857  0.05475686  0.45971962
   0.27760463  0.72239437  0.45958974
   0.44434463  0.55565437  0.45978051
   0.77663283  0.22336617  0.45984428
   0.94443318  0.05556582  0.46001494
   0.77635717  0.72098753  0.45989447
   0.94524214  0.55477043  0.45971962
Direct configuration=    24
   0.66985169 -0.00000980  0.10999146
   0.33019200  0.00001387  0.11001129
   0.00000980  0.33014731  0.10999146
  -0.00001387  0.66980700  0.11001129
   0.33020915  0.33020529  0.11002142
   0.66979371  0.66978985  0.11002142
   0.66665959  0.33333941  0.10835517
   0.33332656  0.66667244  0.11344924
   0.27902898  0.22365422  0.45945922
   0.44523329  0.05475140  0.45927727
   0.27760641  0.72239259  0.45914216
   0.44433949  0.55565951  0.45934059
   0.77662343  0.22337557  0.45940700
   0.94442928  0.05556972  0.45958455
   0.77634478  0.72097002  0.45945922
   0.94524760  0.55476571  0.45927727
Direct configuration=    25
   0.66985166 -0.00001175  0.11084881
   0.33019365  0.00001330  0.11087032
   0.00001175  0.33014734  0.11084881
  -0.00001330  0.66980535  0.11087032
   0.33021191  0.33020881  0.11088130
   0.66979019  0.66978709  0.11088130
   0.66665950  0.33333950  0.10913763
   0.33332599  0.66667301  0.11453502
   0.27906400  0.22367902  0.45858872
   0.44524273  0.05474049  0.45839256
   0.27760998  0.72238902  0.45824700
   0.44432922  0.55566978  0.45846075
   0.77660464  0.22339436  0.45853244
   0.94442148  0.05557752  0.45872376
   0.77631998  0.72093500  0.45858872
   0.94525851  0.55475627  0.45839256
Direct configuration=    26
   0.66985161 -0.00001566  0.11256352
   0.33019695  0.00001215  0.11258838
   0.00001566  0.33014739  0.11256352
  -0.00001215  0.66980205  0.11258838
   0.33021743  0.33021586  0.11260105
   0.66978314  0.66978157  0.11260105
   0.66665931  0.33333969  0.11070254
   0.33332484  0.66667416  0.11670658
   0.27913404  0.22372860  0.45684772
   0.44526161  0.05471866  0.45662314
   0.27761711  0.72238189  0.45645668
   0.44430868  0.55569032  0.45670106
   0.77656706  0.22343194  0.45678333
   0.94440588  0.05559312  0.45700217
   0.77627040  0.72086496  0.45684772
   0.94528034  0.55473739  0.45662314
Direct configuration=    27
   0.66985149 -0.00002347  0.11599295
   0.33020356  0.00000985  0.11602451
   0.00002347  0.33014751  0.11599295
  -0.00000985  0.66979544  0.11602451
   0.33022846  0.33022997  0.11604057
   0.66976903  0.66977054  0.11604057
   0.66665893  0.33334007  0.11383236
   0.33332254  0.66667646  0.12104969
   0.27927412  0.22382777  0.45336573
   0.44529937  0.05467501  0.45308431
   0.27763138  0.72236762  0.45287604
   0.44426760  0.55573140  0.45318168
   0.77649189  0.22350711  0.45328511
   0.94437467  0.05562433  0.45355901
   0.77617123  0.72072488  0.45336573
   0.94532399  0.55469963  0.45308431
Direct configuration=    28
   0.66985127 -0.00003910  0.12285179
   0.33021677  0.00000526  0.12289676
   0.00003910  0.33014773  0.12285179
  -0.00000526  0.66978223  0.12289676
   0.33025053  0.33025818  0.12291959
   0.66974082  0.66974847  0.12291959
   0.66665819  0.33334081  0.12009201
   0.33331794  0.66668106  0.12973593
   0.27955428  0.22402610  0.44640174
   0.44537490  0.05458770  0.44600665
   0.27765992  0.72233908  0.44571475
   0.44418543  0.55581357  0.44614292
   0.77634156  0.22365744  0.44628866
   0.94431225  0.05568675  0.44667268
   0.77597290  0.72044472  0.44640174
   0.94541130  0.55462410  0.44600665
Direct configuration=    29
   0.66985082 -0.00007037  0.13656948
   0.33024319 -0.00000392  0.13664127
   0.00007037  0.33014818  0.13656948
   0.00000392  0.66975581  0.13664127
   0.33029466  0.33031460  0.13667763
   0.66968440  0.66970434  0.13667763
   0.66665669  0.33334231  0.13261130
   0.33330873  0.66669027  0.14710840
   0.28011460  0.22442278  0.43247376
   0.44552595  0.05441309  0.43185132
   0.27771700  0.72228200  0.43139217
   0.44402110  0.55597790  0.43206540
   0.77604089  0.22395811  0.43229577
   0.94418742  0.05581158  0.43290002
   0.77557622  0.71988440  0.43247376
   0.94558591  0.55447305  0.43185132
Direct configuration=    30
   0.66984993 -0.00013289  0.16400487
   0.33029604 -0.00002228  0.16413028
   0.00013289  0.33014907  0.16400487
   0.00002228  0.66970296  0.16413028
   0.33038293  0.33042743  0.16419372
   0.66957157  0.66961607  0.16419372
   0.66665370  0.33334530  0.15764989
   0.33329033  0.66670867  0.18185335
   0.28123525  0.22521613  0.40461781
   0.44582805  0.05406386  0.40354067
   0.27783117  0.72216783  0.40274702
   0.44369244  0.55630656  0.40391036
   0.77543955  0.22455945  0.40430999
   0.94393777  0.05606123  0.40535471
   0.77478287  0.71876375  0.40461781
   0.94593514  0.55417095  0.40354067
Direct configuration=    31
   0.66972508 -0.00023034  0.16839076
   0.33033976 -0.00010679  0.16852369
   0.00023034  0.33027392  0.16839076
   0.00010679  0.66965924  0.16852369
   0.33042104  0.33054232  0.16859003
   0.66945668  0.66957796  0.16859003
   0.66665206  0.33334694  0.16162921
   0.33328371  0.66671529  0.18736810
   0.28094358  0.22489511  0.40016281
   0.44564766  0.05425336  0.39903545
   0.27785820  0.72214080  0.39820131
   0.44372872  0.55627028  0.39942348
   0.77569713  0.22430187  0.39984115
   0.94394161  0.05605739  0.40093125
   0.77510389  0.71905542  0.40016281
   0.94574564  0.55435134  0.39903545
Direct configuration=    32
   0.66977555 -0.00019095  0.16661783
   0.33032208 -0.00007263  0.16674772
   0.00019095  0.33022345  0.16661783
   0.00007263  0.66967692  0.16674772
   0.33040563  0.33049588  0.16681288
   0.66950312  0.66959337  0.16681288
   0.66665272  0.33334628  0.16002062
   0.33328638  0.66671262  0.18513884
   0.28106149  0.22502488  0.40196368
   0.44572058  0.05417676  0.40085662
   0.27784727  0.72215173  0.40003885
   0.44371405  0.55628495  0.40123724
   0.77559301  0.22440599  0.40164762
   0.94394005  0.05605895  0.40271937
   0.77497412  0.71893751  0.40196368
   0.94582224  0.55427842  0.40085662
Direct configuration=    33
   0.66966365 -0.00026974  0.16641192
   0.33035526 -0.00014377  0.16654023
   0.00026974  0.33033535  0.16641192
   0.00014377  0.66964374  0.16654023
   0.33042656  0.33058012  0.16660364
   0.66941888  0.66957244  0.16660364
   0.66665056  0.33334844  0.15981169
   0.33328225  0.66671675  0.18484094
   0.28066465  0.22465695  0.40217123
   0.44553727  0.05437912  0.40108832
   0.27784937  0.72214963  0.40028426
   0.44379438  0.55620462  0.40146233
   0.77588232  0.22411668  0.40186238
   0.94398130  0.05601770  0.40290773
   0.77534205  0.71933435  0.40217123
   0.94561988  0.55446173  0.40108832
Direct configuration=    34
   0.66932794 -0.00050613  0.16579419
   0.33045477 -0.00035717  0.16591778
   0.00050613  0.33067106  0.16579419
   0.00035717  0.66954423  0.16591778
   0.33048934  0.33083285  0.16597591
   0.66916615  0.66950966  0.16597591
   0.66664409  0.33335491  0.15918487
   0.33326985  0.66672915  0.18394724
   0.27947416  0.22355317  0.40279386
   0.44498735  0.05498618  0.40178343
   0.27785564  0.72214336  0.40102047
   0.44403537  0.55596363  0.40213761
   0.77675024  0.22324876  0.40250666
   0.94410505  0.05589395  0.40347280
   0.77644583  0.72052484  0.40279386
   0.94501282  0.55501165  0.40178343
Direct configuration=    35
   0.66865654 -0.00097890  0.16455875
   0.33065379 -0.00078399  0.16467287
   0.00097890  0.33134246  0.16455875
   0.00078399  0.66934521  0.16467287
   0.33061490  0.33133832  0.16472046
   0.66866068  0.66938410  0.16472046
   0.66663115  0.33336785  0.15793125
   0.33324504  0.66675396  0.18215984
   0.27709316  0.22134560  0.40403912
   0.44388751  0.05620031  0.40317365
   0.27786819  0.72213081  0.40249289
   0.44451733  0.55548167  0.40348816
   0.77848608  0.22151292  0.40379522
   0.94435254  0.05564646  0.40460294
   0.77865340  0.72290584  0.40403912
   0.94379869  0.55611149  0.40317365
Direct configuration=    36
   0.66889068 -0.00081403  0.16498959
   0.33058438 -0.00063514  0.16510701
   0.00081403  0.33110832  0.16498959
   0.00063514  0.66941462  0.16510701
   0.33057111  0.33116205  0.16515828
   0.66883695  0.66942789  0.16515828
   0.66663566  0.33336334  0.15836843
   0.33325369  0.66674531  0.18278317
   0.27792350  0.22211546  0.40360485
   0.44427106  0.05577690  0.40268884
   0.27786381  0.72213519  0.40197941
   0.44434925  0.55564975  0.40301717
   0.77788073  0.22211827  0.40334585
   0.94426623  0.05573277  0.40420882
   0.77788354  0.72207550  0.40360485
   0.94422210  0.55572794  0.40268884
Direct configuration=    37
   0.66878208 -0.00085514  0.16498240
   0.33065035 -0.00067456  0.16509750
   0.00085514  0.33121692  0.16498240
   0.00067456  0.66934865  0.16509750
   0.33062040  0.33123838  0.16514500
   0.66876062  0.66937860  0.16514500
   0.66663311  0.33336589  0.15831204
   0.33325088  0.66674812  0.18269995
   0.27781216  0.22213226  0.40360852
   0.44431881  0.05574201  0.40273667
   0.27780905  0.72218995  0.40205620
   0.44440944  0.55558956  0.40305288
   0.77785043  0.22214857  0.40336073
   0.94433114  0.05566786  0.40417802
   0.77786674  0.72218684  0.40360852
   0.94425699  0.55568019  0.40273667
Direct configuration=    38
   0.66846678 -0.00097449  0.16496152
   0.33084184 -0.00078897  0.16506989
   0.00097449  0.33153222  0.16496152
   0.00078897  0.66915716  0.16506989
   0.33076350  0.33146000  0.16510647
   0.66853900  0.66923550  0.16510647
   0.66662570  0.33337330  0.15814832
   0.33324273  0.66675627  0.18245838
   0.27748892  0.22218105  0.40361916
   0.44445742  0.05564070  0.40287553
   0.27765006  0.72234894  0.40227912
   0.44458417  0.55541483  0.40315654
   0.77776247  0.22223653  0.40340392
   0.94451958  0.05547942  0.40408857
   0.77781795  0.72251008  0.40361916
   0.94435830  0.55554158  0.40287553
Direct configuration=    39
   0.66832690 -0.00102744  0.16495226
   0.33092681 -0.00083974  0.16505764
   0.00102744  0.33167210  0.16495226
   0.00083974  0.66907219  0.16505764
   0.33082699  0.33155832  0.16508938
   0.66844068  0.66917201  0.16508938
   0.66662242  0.33337658  0.15807569
   0.33323911  0.66675989  0.18235119
   0.27734551  0.22220269  0.40362388
   0.44451891  0.05559576  0.40293714
   0.27757952  0.72241948  0.40237802
   0.44466169  0.55533731  0.40320253
   0.77772344  0.22227556  0.40342308
   0.94460318  0.05539582  0.40404889
   0.77779631  0.72265349  0.40362388
   0.94440324  0.55548009  0.40293714
Direct configuration=    40
   0.66820993 -0.00103406  0.16496763
   0.33103665 -0.00085178  0.16506705
   0.00103406  0.33178907  0.16496763
   0.00085178  0.66896235  0.16506705
   0.33090872  0.33162917  0.16508809
   0.66836983  0.66909028  0.16508809
   0.66661599  0.33338301  0.15795307
   0.33323907  0.66675993  0.18218190
   0.27745087  0.22222864  0.40360189
   0.44450999  0.05560262  0.40302358
   0.27761615  0.72238285  0.40253715
   0.44460437  0.55539463  0.40325811
   0.77771279  0.22228621  0.40342966
   0.94455495  0.05544405  0.40394362
   0.77777036  0.72254813  0.40360189
   0.94439638  0.55548901  0.40302358
Direct configuration=    41
   0.66785903 -0.00105393  0.16501374
   0.33136617 -0.00088791  0.16509528
   0.00105393  0.33213997  0.16501374
   0.00088791  0.66863283  0.16509528
   0.33115390  0.33184173  0.16508423
   0.66815727  0.66884510  0.16508423
   0.66659670  0.33340230  0.15758519
   0.33323896  0.66676004  0.18167400
   0.27776693  0.22230650  0.40353595
   0.44448322  0.05562321  0.40328291
   0.27772606  0.72227294  0.40301452
   0.44443241  0.55556659  0.40342486
   0.77768085  0.22231815  0.40344942
   0.94441026  0.05558874  0.40362778
   0.77769250  0.72223207  0.40353595
   0.94437579  0.55551578  0.40328291
Direct configuration=    42
   0.66715722 -0.00109367  0.16510595
   0.33202521 -0.00096018  0.16515175
   0.00109367  0.33284178  0.16510595
   0.00096018  0.66797379  0.16515175
   0.33164427  0.33226685  0.16507651
   0.66773215  0.66835473  0.16507651
   0.66655812  0.33344088  0.15684944
   0.33323873  0.66676027  0.18065821
   0.27839904  0.22246220  0.40340406
   0.44442967  0.05566438  0.40380157
   0.27794588  0.72205312  0.40396927
   0.44408849  0.55591051  0.40375835
   0.77761697  0.22238203  0.40348892
   0.94412088  0.05587812  0.40299612
   0.77753680  0.72159996  0.40340406
   0.94433462  0.55556933  0.40380157
Direct configuration=    43
   0.66764716 -0.00106593  0.16504157
   0.33156512 -0.00090973  0.16511233
   0.00106593  0.33235184  0.16504157
   0.00090973  0.66843388  0.16511233
   0.33130193  0.33197007  0.16508190
   0.66802893  0.66869707  0.16508190
   0.66658505  0.33341395  0.15736308
   0.33323889  0.66676011  0.18136735
   0.27795775  0.22235350  0.40349613
   0.44446705  0.05563564  0.40343949
   0.27779242  0.72220658  0.40330275
   0.44432859  0.55567041  0.40352553
   0.77766157  0.22233743  0.40346134
   0.94432290  0.05567610  0.40343710
   0.77764550  0.72204125  0.40349613
   0.94436336  0.55553195  0.40343949
Direct configuration=    44
   0.66798189 -0.00086349  0.16509909
   0.33145402 -0.00073601  0.16515813
   0.00086349  0.33201711  0.16509909
   0.00073601  0.66854498  0.16515813
   0.33120416  0.33169757  0.16510208
   0.66830143  0.66879484  0.16510208
   0.66657711  0.33342189  0.15711254
   0.33326429  0.66673471  0.18107077
   0.27788088  0.22232161  0.40345576
   0.44442575  0.05565505  0.40355634
   0.27775423  0.72224477  0.40353360
   0.44437594  0.55562306  0.40359766
   0.77769667  0.22230233  0.40346460
   0.94434468  0.05565432  0.40327802
   0.77767739  0.72211812  0.40345576
   0.94434395  0.55557325  0.40355634
Direct configuration=    45
   0.66868109 -0.00044062  0.16521924
   0.33122193 -0.00037313  0.16525381
   0.00044062  0.33131791  0.16521924
   0.00037313  0.66877707  0.16525381
   0.33099990  0.33112834  0.16514424
   0.66887066  0.66899910  0.16514424
   0.66656054  0.33343846  0.15658919
   0.33331735  0.66668165  0.18045125
   0.27772029  0.22225499  0.40337142
   0.44433948  0.05569561  0.40380043
   0.27767446  0.72232454  0.40401582
   0.44447487  0.55552413  0.40374832
   0.77776999  0.22222901  0.40347142
   0.94439018  0.05560882  0.40294572
   0.77774401  0.72227871  0.40337142
   0.94430339  0.55565952  0.40380043
Direct configuration=    46
   0.66875925 -0.00056307  0.16529100
   0.33105389 -0.00047885  0.16531724
   0.00056307  0.33123975  0.16529100
   0.00047885  0.66894511  0.16531724
   0.33086216  0.33110178  0.16518125
   0.66889722  0.66913684  0.16518125
   0.66657762  0.33342138  0.15638481
   0.33331618  0.66668282  0.18021658
   0.27771283  0.22229946  0.40338226
   0.44443371  0.05566399  0.40380787
   0.27769796  0.72230104  0.40403133
   0.44441226  0.55558674  0.40375670
   0.77768652  0.22231248  0.40348379
   0.94439584  0.05560316  0.40296753
   0.77769954  0.72228617  0.40338226
   0.94433501  0.55556529  0.40380787
Direct configuration=    47
   0.66886274 -0.00072523  0.16538603
   0.33083137 -0.00061886  0.16540124
   0.00072523  0.33113626  0.16538603
   0.00061886  0.66916763  0.16540124
   0.33067975  0.33106660  0.16523027
   0.66893240  0.66931925  0.16523027
   0.66660025  0.33339875  0.15611418
   0.33331462  0.66668438  0.17990584
   0.27770294  0.22235835  0.40339662
   0.44455848  0.05562213  0.40381772
   0.27772908  0.72226992  0.40405186
   0.44432935  0.55566965  0.40376779
   0.77757598  0.22242302  0.40350018