<?xml version="1.0" encoding="ISO-8859-1"?>
<modeling>
 <generator>
  <i name="program" type="string">vasp </i>
  <i name="version" type="string">6.3.2  </i>
  <i name="subversion" type="string">27Jun22 (build Dec 22 2022 13:13:19) complex                          parallel </i>
  <i name="platform" type="string">LinuxIFC </i>
  <i name="date" type="string">2023 08 23 </i>
  <i name="time" type="string">00:25:54 </i>
 </generator>
 <incar>
  <i type="string" name="SYSTEM">Lattice</i>
  <i type="int" name="ISTART">     0</i>
  <i type="string" name="PREC">Accurate</i>
  <i type="string" name="ALGO">Normal</i>
  <i type="int" name="ISPIN">     2</i>
  <i type="int" name="ICHARG">     2</i>
  <i type="int" name="NELM">    64</i>
  <i type="int" name="IBRION">     2</i>
  <i name="EDIFF">      0.00000100</i>
  <i name="EDIFFG">     -0.00100000</i>
  <i type="int" name="NSW">   128</i>
  <i type="int" name="ISIF">     2</i>
  <i name="ENCUT">    450.00000000</i>
  <i name="POTIM">      0.50000000</i>
  <i type="int" name="ISMEAR">     0</i>
  <i name="SIGMA">      0.10000000</i>
  <i type="logical" name="LWAVE"> F  </i>
  <i type="logical" name="LCHARG"> F  </i>
  <i type="string" name="GGA">PE</i>
  <i type="int" name="IVDW">    12</i>
 </incar>
 <primitive_cell>
  <structure name="primitive_cell" >
   <crystal>
    <varray name="basis" >
     <v>       4.31973471       2.49400000       0.00000000 </v>
     <v>      -4.31973471       2.49400000       0.00000000 </v>
     <v>       0.00000000       0.00000000      15.00000000 </v>
    </varray>
    <i name="volume">    323.20255131 </i>
    <varray name="rec_basis" >
     <v>       0.11574785       0.20048115       0.00000000 </v>
     <v>      -0.11574785       0.20048115       0.00000000 </v>
     <v>       0.00000000       0.00000000       0.06666667 </v>
    </varray>
   </crystal>
   <varray name="positions" >
    <v>       0.66888689       1.00000000       0.10000000 </v>
    <v>       0.33111211       1.00000000       0.10000000 </v>
    <v>       1.00000000       0.33111211       0.10000000 </v>
    <v>       1.00000000       0.66888689       0.10000000 </v>
    <v>       0.33111211       0.33111211       0.10000000 </v>
    <v>       0.66888689       0.66888689       0.10000000 </v>
    <v>       0.66666600       0.33333300       0.09922189 </v>
    <v>       0.33333300       0.66666600       0.10077811 </v>
    <v>       0.24999933       0.24999967       0.46906667 </v>
    <v>       0.41666633       0.08333267       0.46906667 </v>
    <v>       0.24999933       0.74999967       0.46906667 </v>
    <v>       0.41666633       0.58333267       0.46906667 </v>
    <v>       0.74999933       0.24999967       0.46906667 </v>
    <v>       0.91666633       0.08333267       0.46906667 </v>
    <v>       0.74999933       0.74999967       0.46906667 </v>
    <v>       0.91666633       0.58333267       0.46906667 </v>
   </varray>
  </structure>
  <varray name="primitive_index" >
   <v type="int" >        1 </v>
   <v type="int" >        2 </v>
   <v type="int" >        3 </v>
   <v type="int" >        4 </v>
   <v type="int" >        5 </v>
   <v type="int" >        6 </v>
   <v type="int" >        7 </v>
   <v type="int" >        8 </v>
   <v type="int" >        9 </v>
   <v type="int" >       10 </v>
   <v type="int" >       11 </v>
   <v type="int" >       12 </v>
   <v type="int" >       13 </v>
   <v type="int" >       14 </v>
   <v type="int" >       15 </v>
   <v type="int" >       16 </v>
  </varray>
 </primitive_cell>
 <kpoints>
  <generation param="Gamma">
   <v type="int" name="divisions">      12       12        1 </v>
   <v name="usershift">      0.00000000       0.00000000       0.00000000 </v>
   <v name="genvec1">      0.08333333      -0.00000000       0.00000000 </v>
   <v name="genvec2">     -0.00000000       0.08333333       0.00000000 </v>
   <v name="genvec3">      0.00000000       0.00000000       1.00000000 </v>
   <v name="shift">      0.00000000       0.00000000       0.00000000 </v>
  </generation>
  <varray name="kpointlist" >
   <v>       0.00000000       0.00000000       0.00000000 </v>
   <v>       0.08333333      -0.00000000       0.00000000 </v>
   <v>      -0.08333333       0.08333333       0.00000000 </v>
   <v>       0.16666667      -0.00000000       0.00000000 </v>
   <v>      -0.16666667       0.16666667       0.00000000 </v>
   <v>       0.25000000      -0.00000000       0.00000000 </v>
   <v>      -0.25000000       0.25000000       0.00000000 </v>
   <v>       0.33333333       0.00000000       0.00000000 </v>
   <v>      -0.33333333       0.33333333       0.00000000 </v>
   <v>       0.41666667      -0.00000000       0.00000000 </v>
   <v>      -0.41666667       0.41666667       0.00000000 </v>
   <v>       0.50000000      -0.00000000       0.00000000 </v>
   <v>       0.50000000       0.50000000       0.00000000 </v>
   <v>       0.08333333       0.08333333       0.00000000 </v>
   <v>      -0.08333333       0.16666667       0.00000000 </v>
   <v>       0.16666667       0.08333333       0.00000000 </v>
   <v>      -0.08333333       0.25000000       0.00000000 </v>
   <v>      -0.25000000       0.16666667       0.00000000 </v>
   <v>       0.25000000       0.08333333       0.00000000 </v>
   <v>      -0.08333333       0.33333333       0.00000000 </v>
   <v>      -0.33333333       0.25000000       0.00000000 </v>
   <v>       0.33333333       0.08333333       0.00000000 </v>
   <v>      -0.08333333       0.41666667       0.00000000 </v>
   <v>      -0.41666667       0.33333333       0.00000000 </v>
   <v>       0.41666667       0.08333333       0.00000000 </v>
   <v>      -0.08333333       0.50000000       0.00000000 </v>
   <v>       0.50000000       0.41666667       0.00000000 </v>
   <v>       0.16666667       0.16666667       0.00000000 </v>
   <v>      -0.16666667       0.33333333       0.00000000 </v>
   <v>       0.25000000       0.16666667       0.00000000 </v>
   <v>      -0.16666667       0.41666667       0.00000000 </v>
   <v>      -0.41666667       0.25000000       0.00000000 </v>
   <v>       0.33333333       0.16666667       0.00000000 </v>
   <v>      -0.16666667       0.50000000       0.00000000 </v>
   <v>       0.50000000       0.33333333       0.00000000 </v>
   <v>       0.41666667       0.16666667       0.00000000 </v>
   <v>       0.41666667       0.41666667       0.00000000 </v>
   <v>       0.25000000       0.25000000       0.00000000 </v>
   <v>      -0.25000000       0.50000000       0.00000000 </v>
   <v>       0.33333333       0.25000000       0.00000000 </v>
   <v>      -0.25000000      -0.41666667       0.00000000 </v>
   <v>       0.41666667       0.33333333       0.00000000 </v>
   <v>       0.33333333       0.33333333       0.00000000 </v>
  </varray>
  <varray name="weights" >
   <v>       0.00694444 </v>
   <v>       0.02777778 </v>
   <v>       0.01388889 </v>
   <v>       0.02777778 </v>
   <v>       0.01388889 </v>
   <v>       0.02777778 </v>
   <v>       0.01388889 </v>
   <v>       0.02777778 </v>
   <v>       0.01388889 </v>
   <v>       0.02777778 </v>
   <v>       0.01388889 </v>
   <v>       0.01388889 </v>
   <v>       0.00694444 </v>
   <v>       0.01388889 </v>
   <v>       0.02777778 </v>
   <v>       0.02777778 </v>
   <v>       0.02777778 </v>
   <v>       0.02777778 </v>
   <v>       0.02777778 </v>
   <v>       0.02777778 </v>
   <v>       0.02777778 </v>
   <v>       0.02777778 </v>
   <v>       0.02777778 </v>
   <v>       0.02777778 </v>
   <v>       0.02777778 </v>
   <v>       0.02777778 </v>
   <v>       0.02777778 </v>
   <v>       0.01388889 </v>
   <v>       0.02777778 </v>
   <v>       0.02777778 </v>
   <v>       0.02777778 </v>
   <v>       0.02777778 </v>
   <v>       0.02777778 </v>
   <v>       0.02777778 </v>
   <v>       0.02777778 </v>
   <v>       0.02777778 </v>
   <v>       0.01388889 </v>
   <v>       0.01388889 </v>
   <v>       0.02777778 </v>
   <v>       0.02777778 </v>
   <v>       0.02777778 </v>
   <v>       0.02777778 </v>
   <v>       0.01388889 </v>
  </varray>
 </kpoints>
 <parameters>
  <separator name="general" >
   <i type="string" name="SYSTEM">Lattice</i>
   <i type="logical" name="LCOMPAT"> F  </i>
  </separator>
  <separator name="electronic" >
   <i type="string" name="PREC">accura</i>
   <i name="ENMAX">    450.00000000</i>
   <i name="ENAUG">    644.87300000</i>
   <i name="EDIFF">      0.00000100</i>
   <i type="int" name="IALGO">    38</i>
   <i type="int" name="IWAVPR">    11</i>
   <i type="int" name="NBANDS">    48</i>
   <i type="int" name="NBANDSLOW">    -1</i>
   <i type="int" name="NBANDSHIGH">    -1</i>
   <i name="NELECT">     56.00000000</i>
   <i type="int" name="TURBO">     0</i>
   <i type="int" name="IRESTART">     0</i>
   <i type="int" name="NREBOOT">     0</i>
   <i type="int" name="NMIN">     0</i>
   <i name="EREF">      0.00000000</i>
   <separator name="electronic smearing" >
    <i type="int" name="ISMEAR">     0</i>
    <i name="SIGMA">      0.10000000</i>
    <i name="KSPACING">      0.50000000</i>
    <i type="logical" name="KGAMMA"> T  </i>
    <i type="logical" name="KBLOWUP"> T  </i>
   </separator>
   <separator name="electronic projectors" >
    <i type="logical" name="LREAL"> F  </i>
    <v name="ROPT">      0.00000000      0.00000000</v>
    <i type="int" name="LMAXPAW">  -100</i>
    <i type="int" name="LMAXMIX">     2</i>
    <i type="logical" name="NLSPLINE"> F  </i>
   </separator>
   <separator name="electronic startup" >
    <i type="int" name="ISTART">     0</i>
    <i type="int" name="ICHARG">     2</i>
    <i type="int" name="INIWAV">     1</i>
   </separator>
   <separator name="electronic spin" >
    <i type="int" name="ISPIN">     2</i>
    <i type="logical" name="LNONCOLLINEAR"> F  </i>
    <v name="MAGMOM">      1.00000000      1.00000000      1.00000000      1.00000000      1.00000000      1.00000000      1.00000000      1.00000000      1.00000000      1.00000000      1.00000000      1.00000000      1.00000000      1.00000000      1.00000000      1.00000000</v>
    <i name="NUPDOWN">     -1.00000000</i>
    <i type="logical" name="LSORBIT"> F  </i>
    <v name="SAXIS">      0.00000000      0.00000000      1.00000000</v>
    <i type="logical" name="LSPIRAL"> F  </i>
    <v name="QSPIRAL">      0.00000000      0.00000000      0.00000000</v>
    <i type="logical" name="LZEROZ"> F  </i>
   </separator>
   <separator name="electronic exchange-correlation" >
    <i type="logical" name="LASPH"> F  </i>
    <i type="logical" name="LMETAGGA"> F  </i>
   </separator>
   <separator name="electronic convergence" >
    <i type="int" name="NELM">    64</i>
    <i type="int" name="NELMDL">    -5</i>
    <i type="int" name="NELMIN">     2</i>
    <i name="ENINI">    450.00000000</i>
    <separator name="electronic convergence detail" >
     <i type="logical" name="LDIAG"> T  </i>
     <i type="logical" name="LSUBROT"> F  </i>
     <i name="WEIMIN">      0.00100000</i>
     <i name="EBREAK">      0.00000001</i>
     <i name="DEPER">      0.30000000</i>
     <i type="int" name="NRMM">     4</i>
     <i name="TIME">      0.40000000</i>
    </separator>
   </separator>
   <separator name="electronic mixer" >
    <i name="AMIX">      0.40000000</i>
    <i name="BMIX">      1.00000000</i>
    <i name="AMIN">      0.10000000</i>
    <i name="AMIX_MAG">      1.60000000</i>
    <i name="BMIX_MAG">      1.00000000</i>
    <separator name="electronic mixer details" >
     <i type="int" name="IMIX">     4</i>
     <i type="logical" name="MIXFIRST"> F  </i>
     <i type="int" name="MAXMIX">   -45</i>
     <i name="WC">    100.00000000</i>
     <i type="int" name="INIMIX">     1</i>
     <i type="int" name="MIXPRE">     1</i>
     <i type="int" name="MREMOVE">     5</i>
    </separator>
   </separator>
   <separator name="electronic dipolcorrection" >
    <i type="logical" name="LDIPOL"> F  </i>
    <i type="logical" name="LMONO"> F  </i>
    <i type="int" name="IDIPOL">     0</i>
    <i name="EPSILON">      1.00000000</i>
    <v name="DIPOL">   -100.00000000   -100.00000000   -100.00000000</v>
    <i name="EFIELD">      0.00000000</i>
   </separator>
  </separator>
  <separator name="grids" >
   <i type="int" name="NGX">    36</i>
   <i type="int" name="NGY">    36</i>
   <i type="int" name="NGZ">   108</i>
   <i type="int" name="NGXF">    72</i>
   <i type="int" name="NGYF">    72</i>
   <i type="int" name="NGZF">   216</i>
   <i type="logical" name="ADDGRID"> F  </i>
  </separator>
  <separator name="ionic" >
   <i type="int" name="NSW">   128</i>
   <i type="int" name="IBRION">     2</i>
   <i type="int" name="MDALGO">     0</i>
   <i type="int" name="ISIF">     2</i>
   <i name="PSTRESS">      0.00000000</i>
   <i name="EDIFFG">     -0.00100000</i>
   <i type="int" name="NFREE">     1</i>
   <i name="POTIM">      0.50000000</i>
   <i name="SMASS">     -3.00000000</i>
   <i name="SCALEE">      1.00000000</i>
  </separator>
  <separator name="ionic md" >
   <i name="TEBEG">      0.00010000</i>
   <i name="TEEND">      0.00010000</i>
   <i type="int" name="NBLOCK">     1</i>
   <i type="int" name="KBLOCK">   128</i>
   <i type="int" name="NPACO">   256</i>
   <i name="APACO">     10.00000000</i>
  </separator>
  <separator name="symmetry" >
   <i type="int" name="ISYM">     2</i>
   <i name="SYMPREC">      0.00001000</i>
  </separator>
  <separator name="dos" >
   <i type="int" name="LORBIT">     0</i>
   <v name="RWIGS">     -1.00000000     -1.00000000</v>
   <i type="int" name="NEDOS">   301</i>
   <i name="EMIN">     10.00000000</i>
   <i name="EMAX">    -10.00000000</i>
   <i name="EFERMI">      0.00000000</i>
  </separator>
  <separator name="writing" >
   <i type="int" name="NWRITE">     2</i>
   <i type="logical" name="LWAVE"> F  </i>
   <i type="logical" name="LDOWNSAMPLE"> F  </i>
   <i type="logical" name="LCHARG"> F  </i>
   <i type="logical" name="LPARD"> F  </i>
   <i type="logical" name="LVTOT"> F  </i>
   <i type="logical" name="LVHAR"> F  </i>
   <i type="logical" name="LELF"> F  </i>
   <i type="logical" name="LOPTICS"> F  </i>
   <v name="STM">      0.00000000      0.00000000      0.00000000      0.00000000      0.00000000      0.00000000      0.00000000</v>
  </separator>
  <separator name="performance" >
   <i type="int" name="NPAR">    48</i>
   <i type="int" name="NSIM">     4</i>
   <i type="int" name="NBLK">    -1</i>
   <i type="logical" name="LPLANE"> T  </i>
   <i type="logical" name="LSCALAPACK"> T  </i>
   <i type="logical" name="LSCAAWARE"> F  </i>
   <i type="logical" name="LSCALU"> F  </i>
   <i type="logical" name="LASYNC"> F  </i>
   <i type="logical" name="LORBITALREAL"> F  </i>
  </separator>
  <separator name="miscellaneous" >
   <i type="int" name="IDIOT">     3</i>
   <i type="int" name="PHON_NSTRUCT">    -1</i>
   <i type="logical" name="LMUSIC"> F  </i>
   <v name="POMASS">     10.81100000     12.01100000</v>
   <v name="DARWINR">      0.00000000      0.00000000</v>
   <v name="DARWINV">      1.00000000      1.00000000</v>
   <i type="logical" name="LCORR"> T  </i>
  </separator>
  <i type="logical" name="GGA_COMPAT"> T  </i>
  <i type="logical" name="LBERRY"> F  </i>
  <i type="int" name="ICORELEVEL">     0</i>
  <i type="logical" name="LDAU"> F  </i>
  <i type="int" name="I_CONSTRAINED_M">     0</i>
  <separator name="electronic exchange-correlation" >
   <i type="string" name="GGA">PE</i>
   <i type="int" name="VOSKOWN">     0</i>
   <i type="logical" name="LHFCALC"> F  </i>
   <i type="string" name="PRECFOCK"></i>
   <i type="logical" name="LSYMGRAD"> F  </i>
   <i type="logical" name="LHFONE"> F  </i>
   <i type="logical" name="LRHFCALC"> F  </i>
   <i type="logical" name="LTHOMAS"> F  </i>
   <i type="logical" name="LMODELHF"> F  </i>
   <i type="logical" name="LFOCKACE"> F  </i>
   <i name="ENCUT4O">     -1.00000000</i>
   <i type="int" name="EXXOEP">     0</i>
   <i type="int" name="FOURORBIT">     0</i>
   <i name="AEXX">      0.00000000</i>
   <i name="HFALPHA">      0.00000000</i>
   <i name="MCALPHA">      0.00000000</i>
   <i name="ALDAX">      1.00000000</i>
   <i name="AGGAX">      1.00000000</i>
   <i name="ALDAC">      1.00000000</i>
   <i name="AGGAC">      1.00000000</i>
   <i type="int" name="NKREDX">     1</i>
   <i type="int" name="NKREDY">     1</i>
   <i type="int" name="NKREDZ">     1</i>
   <i type="logical" name="SHIFTRED"> F  </i>
   <i type="logical" name="ODDONLY"> F  </i>
   <i type="logical" name="EVENONLY"> F  </i>
   <i type="int" name="LMAXFOCK">     0</i>
   <i type="int" name="NMAXFOCKAE">     0</i>
   <i type="logical" name="LFOCKAEDFT"> F  </i>
   <i name="HFSCREEN">      0.00000000</i>
   <i name="HFSCREENC">      0.00000000</i>
   <i type="int" name="NBANDSGWLOW">     0</i>
  </separator>
  <separator name="vdW DFT" >
   <i type="logical" name="LUSE_VDW"> F  </i>
   <i name="Zab_VDW">     -0.84910000</i>
   <i name="PARAM1">      0.12340000</i>
   <i name="PARAM2">      1.00000000</i>
   <i name="PARAM3">      0.00000000</i>
  </separator>
  <separator name="model GW" >
   <i type="int" name="MODEL_GW">     0</i>
   <i name="MODEL_EPS0">     12.12009567</i>
   <i name="MODEL_ALPHA">      1.00000000</i>
  </separator>
  <separator name="linear response parameters" >
   <i type="logical" name="LEPSILON"> F  </i>
   <i type="logical" name="LRPA"> F  </i>
   <i type="logical" name="LNABLA"> F  </i>
   <i type="logical" name="LVEL"> F  </i>
   <i name="CSHIFT">      0.10000000</i>
   <i name="OMEGAMAX">     -1.00000000</i>
   <i name="DEG_THRESHOLD">      0.00200000</i>
   <i name="RTIME">     -0.10000000</i>
   <i name="WPLASMAI">      0.00000000</i>
   <v name="DFIELD">      0.00000000      0.00000000      0.00000000</v>
   <v name="WPLASMA">      0.00000000      0.00000000      0.00000000      0.00000000      0.00000000      0.00000000      0.00000000      0.00000000      0.00000000</v>
  </separator>
  <separator name="orbital magnetization" >
   <i type="logical" name="NUCIND"> F  </i>
   <v name="MAGPOS">      0.00000000      0.00000000      0.00000000</v>
   <i type="logical" name="LNICSALL"> T  </i>
   <i type="logical" name="ORBITALMAG"> F  </i>
   <i type="logical" name="LMAGBLOCH"> F  </i>
   <i type="logical" name="LCHIMAG"> F  </i>
   <i type="logical" name="LGAUGE"> T  </i>
   <i type="int" name="MAGATOM">     0</i>
   <v name="MAGDIPOL">      0.00000000      0.00000000      0.00000000</v>
   <v name="AVECCONST">      0.00000000      0.00000000      0.00000000</v>
  </separator>
  <separator name="response functions" >
   <i type="logical" name="LFINITE_TEMPERATURE"> F  </i>
   <i type="logical" name="LADDER"> F  </i>
   <i type="logical" name="LRPAFORCE"> F  </i>
   <i type="logical" name="LFXC"> F  </i>
   <i type="logical" name="LHARTREE"> T  </i>
   <i type="int" name="IBSE">     0</i>
   <v type="int" name="KPOINT">    -1     0     0     0</v>
   <i type="logical" name="LTCTC"> F  </i>
   <i type="logical" name="LTCTE"> F  </i>
   <i type="logical" name="LTETE"> F  </i>
   <i type="logical" name="LTRIPLET"> F  </i>
   <i type="logical" name="LFXCEPS"> F  </i>
   <i type="logical" name="LFXHEG"> F  </i>
   <i type="int" name="NATURALO">     2</i>
   <i type="logical" name="LHOLEGF"> F  </i>
   <i type="logical" name="L2ORDER"> F  </i>
   <i type="logical" name="LDMP1"> F  </i>
   <i type="logical" name="LMP2LT"> F  </i>
   <i type="logical" name="LSMP2LT"> F  </i>
   <i type="logical" name="LGWLF"> F  </i>
   <i name="ENCUTGW">     -2.00000000</i>
   <i name="ENCUTGWSOFT">     -2.00000000</i>
   <i name="ENCUTLF">     -1.00000000</i>
   <i type="logical" name="LESF_SPLINES"> F  </i>
   <i type="int" name="LMAXMP2">    -1</i>
   <i name="SCISSOR">      0.00000000</i>
   <i type="int" name="NOMEGA">     0</i>
   <i type="int" name="NOMEGAR">     0</i>
   <i type="int" name="NBANDSGW">    -1</i>
   <i type="int" name="NBANDSO">    -1</i>
   <i type="int" name="NBANDSV">    -1</i>
   <i type="int" name="NELMGW">     1</i>
   <i type="int" name="NELMHF">     1</i>
   <i type="int" name="DIM">     3</i>
   <i type="int" name="IESPILON">     4</i>
   <i type="int" name="ANTIRES">     0</i>
   <i name="OMEGAMAX">    -30.00000000</i>
   <i name="OMEGAMIN">    -30.00000000</i>
   <i name="OMEGATL">   -200.00000000</i>
   <i type="int" name="OMEGAGRID">     0</i>
   <i name="CSHIFT">     -0.10000000</i>
   <i type="logical" name="LSELFENERGY"> F  </i>
   <i type="logical" name="LSPECTRAL"> F  </i>
   <i type="logical" name="LSPECTRALGW"> F  </i>
   <i type="logical" name="LSINGLES"> F  </i>
   <i type="logical" name="LFERMIGW"> F  </i>
   <i type="logical" name="ODDONLYGW"> F  </i>
   <i type="logical" name="EVENONLYGW"> F  </i>
   <i type="int" name="NKREDLFX">     1</i>
   <i type="int" name="NKREDLFY">     1</i>
   <i type="int" name="NKREDLFZ">     1</i>
   <i type="int" name="MAXMEM">  2800</i>
   <i type="int" name="TELESCOPE">     0</i>
   <i type="int" name="NTAUPAR">    -1</i>
   <i type="int" name="NOMEGAPAR">    -1</i>
   <i name="DAMP_NEWTON">      0.80000001</i>
   <i name="LAMBDA">      1.00000000</i>
  </separator>
  <separator name="External order field" >
   <i name="OFIELD_KAPPA">      0.00000000</i>
   <v name="OFIELD_K">      0.00000000      0.00000000      0.00000000</v>
   <i name="OFIELD_Q6_NEAR">      0.00000000</i>
   <i name="OFIELD_Q6_FAR">      0.00000000</i>
   <i name="OFIELD_A">      0.00000000</i>
  </separator>
  <separator name="optional k-points parameters" >
   <i type="int" name="KPOINTS_OPT_MODE">     1</i>
   <i type="logical" name="LKPOINTS_OPT"> F  </i>
  </separator>
  <separator name="solvation model" >
   <i type="logical" name="LSOL"> F  </i>
  </separator>
 </parameters>
 <atominfo>
  <atoms>      16 </atoms>
  <types>       2 </types>
  <array name="atoms" >
   <dimension dim="1">ion</dimension>
   <field type="string">element</field>
   <field type="int">atomtype</field>
   <set>
    <rc><c>B </c><c>   1</c></rc>
    <rc><c>B </c><c>   1</c></rc>
    <rc><c>B </c><c>   1</c></rc>
    <rc><c>B </c><c>   1</c></rc>
    <rc><c>B </c><c>   1</c></rc>
    <rc><c>B </c><c>   1</c></rc>
    <rc><c>B </c><c>   1</c></rc>
    <rc><c>B </c><c>   1</c></rc>
    <rc><c>C </c><c>   2</c></rc>
    <rc><c>C </c><c>   2</c></rc>
    <rc><c>C </c><c>   2</c></rc>
    <rc><c>C </c><c>   2</c></rc>
    <rc><c>C </c><c>   2</c></rc>
    <rc><c>C </c><c>   2</c></rc>
    <rc><c>C </c><c>   2</c></rc>
    <rc><c>C </c><c>   2</c></rc>
   </set>
  </array>
  <array name="atomtypes" >
   <dimension dim="1">type</dimension>
   <field type="int">atomspertype</field>
   <field type="string">element</field>
   <field>mass</field>
   <field>valence</field>
   <field type="string">pseudopotential</field>
   <set>
    <rc><c>   8</c><c>B </c><c>     10.81100000</c><c>      3.00000000</c><c>  PAW_PBE B 06Sep2000                   </c></rc>
    <rc><c>   8</c><c>C </c><c>     12.01100000</c><c>      4.00000000</c><c>  PAW_PBE C 08Apr2002                   </c></rc>
   </set>
  </array>
 </atominfo>
 <structure name="initialpos" >
  <crystal>
   <varray name="basis" >
    <v>       4.31973471       2.49400000       0.00000000 </v>
    <v>      -4.31973471       2.49400000       0.00000000 </v>
    <v>       0.00000000       0.00000000      15.00000000 </v>
   </varray>
   <i name="volume">    323.20255131 </i>
   <varray name="rec_basis" >
    <v>       0.11574785       0.20048115       0.00000000 </v>
    <v>      -0.11574785       0.20048115       0.00000000 </v>
    <v>       0.00000000       0.00000000       0.06666667 </v>
   </varray>
  </crystal>
  <varray name="positions" >
   <v>       0.66888689       0.00000000       0.10000000 </v>
   <v>       0.33111211       0.00000000       0.10000000 </v>
   <v>       0.00000000       0.33111211       0.10000000 </v>
   <v>       0.00000000       0.66888689       0.10000000 </v>
   <v>       0.33111211       0.33111211       0.10000000 </v>
   <v>       0.66888689       0.66888689       0.10000000 </v>
   <v>       0.66666600       0.33333300       0.09922189 </v>
   <v>       0.33333300       0.66666600       0.10077811 </v>
   <v>       0.24999933       0.24999967       0.46906667 </v>
   <v>       0.41666633       0.08333267       0.46906667 </v>
   <v>       0.24999933       0.74999967       0.46906667 </v>
   <v>       0.41666633       0.58333267       0.46906667 </v>
   <v>       0.74999933       0.24999967       0.46906667 </v>
   <v>       0.91666633       0.08333267       0.46906667 </v>
   <v>       0.74999933       0.74999967       0.46906667 </v>
   <v>       0.91666633       0.58333267       0.46906667 </v>
  </varray>
 </structure>
 <calculation>
  <scstep>
   <time name="dav">    3.34    3.39</time>
   <time name="total">    3.38    3.44</time>
   <energy>
    <i name="alphaZ">     60.25272160 </i>
    <i name="ewald">   1862.93366463 </i>
    <i name="hartreedc">  -3278.38062086 </i>
    <i name="XCdc">    163.30262723 </i>
    <i name="pawpsdc">   1214.24570090 </i>
    <i name="pawaedc">  -1211.68112031 </i>
    <i name="eentropy">     -0.02104382 </i>
    <i name="bandstr">   -371.34141612 </i>
    <i name="atom">   1746.50554237 </i>
    <i name="e_fr_energy">    185.81605562 </i>
    <i name="e_wo_entrp">    185.83709943 </i>
    <i name="e_0_energy">    185.82657752 </i>
   </energy>
  </scstep>
  <scstep>
   <time name="dav">    5.17    5.22</time>
   <time name="total">    5.17    5.23</time>
   <energy>
    <i name="e_fr_energy">   -118.26879613 </i>
    <i name="e_wo_entrp">   -118.25620215 </i>
    <i name="e_0_energy">   -118.26249914 </i>
   </energy>
  </scstep>
  <scstep>
   <time name="dav">    5.83    5.87</time>
   <time name="total">    5.83    5.87</time>
   <energy>
    <i name="e_fr_energy">   -127.76255169 </i>
    <i name="e_wo_entrp">   -127.75008615 </i>
    <i name="e_0_energy">   -127.75631892 </i>
   </energy>
  </scstep>
  <scstep>
   <time name="dav">    5.46    5.52</time>
   <time name="total">    5.47    5.52</time>
   <energy>
    <i name="e_fr_energy">   -127.79174381 </i>
    <i name="e_wo_entrp">   -127.77927448 </i>
    <i name="e_0_energy">   -127.78550914 </i>
   </energy>
  </scstep>
  <scstep>
   <time name="dav">    5.43    5.48</time>
   <time name="total">    5.61    5.68</time>
   <energy>
    <i name="e_fr_energy">   -127.79177756 </i>
    <i name="e_wo_entrp">   -127.77930835 </i>
    <i name="e_0_energy">   -127.78554295 </i>
   </energy>
  </scstep>
  <scstep>
   <time name="dav">    4.42    4.46</time>
   <time name="total">    4.63    4.70</time>
   <energy>
    <i name="e_fr_energy">    -94.50072580 </i>
    <i name="e_wo_entrp">    -94.48999561 </i>
    <i name="e_0_energy">    -94.49536070 </i>
   </energy>
  </scstep>
  <scstep>
   <time name="dav">    5.26    5.30</time>
   <time name="total">    5.48    5.56</time>
   <energy>
    <i name="e_fr_energy">   -105.64934612 </i>
    <i name="e_wo_entrp">   -105.63976925 </i>
    <i name="e_0_energy">   -105.64455768 </i>
   </energy>
  </scstep>
  <scstep>
   <time name="dav">    5.10    5.14</time>
   <time name="total">    5.31    5.36</time>
   <energy>
    <i name="e_fr_energy">   -111.47095305 </i>
    <i name="e_wo_entrp">   -111.46151130 </i>
    <i name="e_0_energy">   -111.46623218 </i>
   </energy>
  </scstep>
  <scstep>
   <time name="dav">    4.04    4.08</time>
   <time name="total">    4.25    4.31</time>
   <energy>
    <i name="e_fr_energy">   -116.74831033 </i>
    <i name="e_wo_entrp">   -116.74565250 </i>
    <i name="e_0_energy">   -116.74698142 </i>
   </energy>
  </scstep>
  <scstep>
   <time name="dav">    5.08    5.11</time>
   <time name="total">    5.29    5.32</time>
   <energy>
    <i name="e_fr_energy">   -120.91507634 </i>
    <i name="e_wo_entrp">   -120.91025246 </i>
    <i name="e_0_energy">   -120.91266440 </i>
   </energy>
  </scstep>
  <scstep>
   <time name="dav">    4.92    4.96</time>
   <time name="total">    5.13    5.18</time>
   <energy>
    <i name="e_fr_energy">   -122.77896815 </i>
    <i name="e_wo_entrp">   -122.77576288 </i>
    <i name="e_0_energy">   -122.77736552 </i>
   </energy>
  </scstep>
  <scstep>
   <time name="dav">    5.52    5.55</time>
   <time name="total">    5.72    5.77</time>
   <energy>
    <i name="e_fr_energy">   -123.76307812 </i>
    <i name="e_wo_entrp">   -123.75845129 </i>
    <i name="e_0_energy">   -123.76076471 </i>
   </energy>
  </scstep>
  <scstep>
   <time name="dav">    5.30    5.34</time>
   <time name="total">    5.50    5.55</time>
   <energy>
    <i name="e_fr_energy">   -124.06812602 </i>
    <i name="e_wo_entrp">   -124.06208008 </i>
    <i name="e_0_energy">   -124.06510305 </i>
   </energy>
  </scstep>
  <scstep>
   <time name="dav">    4.32    4.36</time>
   <time name="total">    4.52    4.57</time>
   <energy>
    <i name="e_fr_energy">   -124.12190664 </i>
    <i name="e_wo_entrp">   -124.11580929 </i>
    <i name="e_0_energy">   -124.11885797 </i>
   </energy>
  </scstep>
  <scstep>
   <time name="dav">    4.01    4.03</time>
   <time name="total">    4.21    4.25</time>
   <energy>
    <i name="e_fr_energy">   -124.14537126 </i>
    <i name="e_wo_entrp">   -124.13928659 </i>
    <i name="e_0_energy">   -124.14232892 </i>
   </energy>
  </scstep>
  <scstep>
   <time name="dav">    4.06    4.09</time>
   <time name="total">    4.27    4.31</time>
   <energy>
    <i name="e_fr_energy">   -124.14681059 </i>
    <i name="e_wo_entrp">   -124.14075238 </i>
    <i name="e_0_energy">   -124.14378148 </i>
   </energy>
  </scstep>
  <scstep>
   <time name="dav">    3.58    3.60</time>
   <time name="total">    3.78    3.82</time>
   <energy>
    <i name="e_fr_energy">   -124.14743391 </i>
    <i name="e_wo_entrp">   -124.14138731 </i>
    <i name="e_0_energy">   -124.14441061 </i>
   </energy>
  </scstep>
  <scstep>
   <time name="dav">    3.66    3.68</time>
   <time name="total">    3.86    3.90</time>
   <energy>
    <i name="e_fr_energy">   -124.14746565 </i>
    <i name="e_wo_entrp">   -124.14140639 </i>
    <i name="e_0_energy">   -124.14443602 </i>
   </energy>
  </scstep>
  <scstep>
   <time name="dav">    3.37    3.39</time>
   <time name="total">    3.58    3.61</time>
   <energy>
    <i name="e_fr_energy">   -124.14751793 </i>
    <i name="e_wo_entrp">   -124.14145377 </i>
    <i name="e_0_energy">   -124.14448585 </i>
   </energy>
  </scstep>
  <scstep>
   <time name="dav">    3.64    3.68</time>
   <time name="total">    3.85    3.89</time>
   <energy>
    <i name="e_fr_energy">   -124.14754433 </i>
    <i name="e_wo_entrp">   -124.14148310 </i>
    <i name="e_0_energy">   -124.14451371 </i>
   </energy>
  </scstep>
  <scstep>
   <time name="dav">    3.40    3.42</time>
   <time name="total">    3.61    3.64</time>
   <energy>
    <i name="e_fr_energy">   -124.14759299 </i>
    <i name="e_wo_entrp">   -124.14153308 </i>
    <i name="e_0_energy">   -124.14456304 </i>
   </energy>
  </scstep>
  <scstep>
   <time name="dav">    4.13    4.16</time>
   <time name="total">    4.34    4.37</time>
   <energy>
    <i name="e_fr_energy">   -124.14761839 </i>
    <i name="e_wo_entrp">   -124.14155795 </i>
    <i name="e_0_energy">   -124.14458817 </i>
   </energy>
  </scstep>
  <scstep>
   <time name="dav">    4.29    4.32</time>
   <time name="total">    4.49    4.53</time>
   <energy>
    <i name="e_fr_energy">   -124.14762241 </i>
    <i name="e_wo_entrp">   -124.14156194 </i>
    <i name="e_0_energy">   -124.14459217 </i>
   </energy>
  </scstep>
  <scstep>
   <time name="dav">    5.42    5.45</time>
   <time name="total">    5.62    5.67</time>
   <energy>
    <i name="e_fr_energy">   -124.14762549 </i>
    <i name="e_wo_entrp">   -124.14156488 </i>
    <i name="e_0_energy">   -124.14459519 </i>
   </energy>
  </scstep>
  <scstep>
   <time name="dav">    3.90    3.93</time>
   <time name="total">    4.11    4.14</time>
   <energy>
    <i name="e_fr_energy">   -124.14762688 </i>
    <i name="e_wo_entrp">   -124.14156634 </i>
    <i name="e_0_energy">   -124.14459661 </i>
   </energy>
  </scstep>
  <scstep>
   <time name="dav">    5.69    5.73</time>
   <time name="total">    5.72    5.76</time>
   <energy>
    <i name="alphaZ">     60.25272160 </i>
    <i name="ewald">   1862.93366463 </i>
    <i name="hartreedc">  -3472.43386856 </i>
    <i name="XCdc">    168.09686438 </i>
    <i name="pawpsdc">   5754.27876725 </i>
    <i name="pawaedc">  -5753.63377243 </i>
    <i name="eentropy">     -0.00606039 </i>
    <i name="bandstr">   -490.14148608 </i>
    <i name="atom">   1746.50554237 </i>
    <i name="e_fr_energy">   -124.14762725 </i>
    <i name="e_wo_entrp">   -124.14156686 </i>
    <i name="e_0_energy">   -124.14459705 </i>
   </energy>
  </scstep>
  <structure>
   <crystal>
    <varray name="basis" >
     <v>       4.31973471       2.49400000       0.00000000 </v>
     <v>      -4.31973471       2.49400000       0.00000000 </v>
     <v>       0.00000000       0.00000000      15.00000000 </v>
    </varray>
    <i name="volume">    323.20255131 </i>
    <varray name="rec_basis" >
     <v>       0.11574785       0.20048115       0.00000000 </v>
     <v>      -0.11574785       0.20048115       0.00000000 </v>
     <v>       0.00000000       0.00000000       0.06666667 </v>
    </varray>
   </crystal>
   <varray name="positions" >
    <v>       0.66888689       0.00000000       0.10000000 </v>
    <v>       0.33111211       0.00000000       0.10000000 </v>
    <v>       0.00000000       0.33111211       0.10000000 </v>
    <v>       0.00000000       0.66888689       0.10000000 </v>
    <v>       0.33111211       0.33111211       0.10000000 </v>
    <v>       0.66888689       0.66888689       0.10000000 </v>
    <v>       0.66666600       0.33333300       0.09922189 </v>
    <v>       0.33333300       0.66666600       0.10077811 </v>
    <v>       0.24999933       0.24999967       0.46906667 </v>
    <v>       0.41666633       0.08333267       0.46906667 </v>
    <v>       0.24999933       0.74999967       0.46906667 </v>
    <v>       0.41666633       0.58333267       0.46906667 </v>
    <v>       0.74999933       0.24999967       0.46906667 </v>
    <v>       0.91666633       0.08333267       0.46906667 </v>
    <v>       0.74999933       0.74999967       0.46906667 </v>
    <v>       0.91666633       0.58333267       0.46906667 </v>
   </varray>
  </structure>
  <varray name="forces" >
   <v>       0.13139220       0.07584656       0.00819560 </v>
   <v>      -0.13135357      -0.07585306       0.00821791 </v>
   <v>       0.13139220      -0.07584656       0.00819560 </v>
   <v>      -0.13135357       0.07585306       0.00821791 </v>
   <v>       0.00000581      -0.15172568       0.00822185 </v>
   <v>       0.00000581       0.15172568       0.00822185 </v>
   <v>       0.00001558       0.00000000       0.00782131 </v>
   <v>      -0.00008077       0.00000000       0.01055738 </v>
   <v>       0.00004833      -0.00046708      -0.00837129 </v>
   <v>      -0.00043853      -0.00009506      -0.00854316 </v>
   <v>      -0.00007321       0.00000000      -0.00866566 </v>
   <v>       0.00012865       0.00000000      -0.00846863 </v>
   <v>       0.00051810       0.00000000      -0.00842679 </v>
   <v>       0.00018318      -0.00000000      -0.00825942 </v>
   <v>       0.00004833       0.00046708      -0.00837129 </v>
   <v>      -0.00043853       0.00009506      -0.00854316 </v>
  </varray>
  <varray name="stress" >
   <v>      -5.43836591       0.00000000      -0.00069555 </v>
   <v>       0.00000000      -5.43776239       0.00000000 </v>
   <v>      -0.00069556       0.00000000      -3.62592607 </v>
  </varray>
  <energy>
   <i name="e_fr_energy">   -125.63425173 </i>
   <i name="e_wo_entrp">   -125.62819134 </i>
   <i name="e_0_energy">   -125.63122154 </i>
  </energy>
  <time name="totalsc">  125.84  127.08</time>
 </calculation>
 <calculation>
  <scstep>
   <time name="dav">    3.47    3.49</time>
   <time name="total">    3.68    3.71</time>
   <energy>
    <i name="alphaZ">     60.25272160 </i>
    <i name="ewald">   1862.18470189 </i>
    <i name="hartreedc">  -3472.29681147 </i>
    <i name="XCdc">    168.06614694 </i>
    <i name="pawpsdc">   5754.27902861 </i>
    <i name="pawaedc">  -5753.63403685 </i>
    <i name="eentropy">     -0.00610739 </i>
    <i name="bandstr">   -489.50176698 </i>
    <i name="atom">   1746.50554237 </i>
    <i name="e_fr_energy">   -124.15058127 </i>
    <i name="e_wo_entrp">   -124.14447388 </i>
    <i name="e_0_energy">   -124.14752758 </i>
   </energy>
  </scstep>
  <scstep>
   <time name="dav">    5.47    5.50</time>
   <time name="total">    5.67    5.72</time>
   <energy>
    <i name="e_fr_energy">   -124.14811898 </i>
    <i name="e_wo_entrp">   -124.14202293 </i>
    <i name="e_0_energy">   -124.14507096 </i>
   </energy>
  </scstep>
  <scstep>
   <time name="dav">    5.11    5.14</time>
   <time name="total">    5.32    5.36</time>
   <energy>
    <i name="e_fr_energy">   -124.14772581 </i>
    <i name="e_wo_entrp">   -124.14167049 </i>
    <i name="e_0_energy">   -124.14469815 </i>
   </energy>
  </scstep>
  <scstep>
   <time name="dav">    5.05    5.08</time>
   <time name="total">    5.25    5.30</time>
   <energy>
    <i name="e_fr_energy">   -124.14771198 </i>
    <i name="e_wo_entrp">   -124.14166436 </i>
    <i name="e_0_energy">   -124.14468817 </i>
   </energy>
  </scstep>
  <scstep>
   <time name="dav">    4.90    4.93</time>
   <time name="total">    4.93    4.96</time>
   <energy>
    <i name="alphaZ">     60.25272160 </i>
    <i name="ewald">   1862.18470189 </i>
    <i name="hartreedc">  -3471.78146499 </i>
    <i name="XCdc">    168.05592482 </i>
    <i name="pawpsdc">   5739.94310338 </i>
    <i name="pawaedc">  -5739.29364892 </i>
    <i name="eentropy">     -0.00604904 </i>
    <i name="bandstr">   -490.00854282 </i>
    <i name="atom">   1746.50554237 </i>
    <i name="e_fr_energy">   -124.14771171 </i>
    <i name="e_wo_entrp">   -124.14166267 </i>
    <i name="e_0_energy">   -124.14468719 </i>
   </energy>
  </scstep>
  <structure>
   <crystal>
    <varray name="basis" >
     <v>       4.31973471       2.49400000       0.00000000 </v>
     <v>      -4.31973471       2.49400000       0.00000000 </v>
     <v>       0.00000000       0.00000000      15.00000000 </v>
    </varray>
    <i name="volume">    323.20255131 </i>
    <varray name="rec_basis" >
     <v>       0.11574785       0.20048115       0.00000000 </v>
     <v>      -0.11574785       0.20048115       0.00000000 </v>
     <v>       0.00000000       0.00000000       0.06666667 </v>
    </varray>
   </crystal>
   <varray name="positions" >
    <v>       0.67035415      -0.00000012       0.10002636 </v>
    <v>       0.32964500      -0.00000016       0.10002643 </v>
    <v>       0.00000012       0.32964485       0.10002636 </v>
    <v>       0.00000016       0.67035400       0.10002643 </v>
    <v>       0.32964469       0.32964463       0.10002644 </v>
    <v>       0.67035437       0.67035431       0.10002644 </v>
    <v>       0.66666609       0.33333291       0.09924704 </v>
    <v>       0.33333255       0.66666645       0.10081207 </v>
    <v>       0.24999509       0.24999488       0.46903974 </v>
    <v>       0.41666297       0.08333420       0.46903919 </v>
    <v>       0.24999892       0.75000008       0.46903880 </v>
    <v>       0.41666705       0.58333195       0.46903943 </v>
    <v>       0.75000223       0.24999677       0.46903956 </v>
    <v>       0.91666736       0.08333164       0.46904010 </v>
    <v>       0.75000412       0.75000391       0.46903974 </v>
    <v>       0.91666480       0.58333603       0.46903919 </v>
   </varray>
  </structure>
  <varray name="forces" >
   <v>      -0.12160755      -0.07020573       0.00826000 </v>
   <v>       0.12160082       0.07022690       0.00828004 </v>
   <v>      -0.12160755       0.07020573       0.00826000 </v>
   <v>       0.12160082      -0.07022690       0.00828004 </v>
   <v>      -0.00000339       0.14046904       0.00828332 </v>
   <v>      -0.00000339      -0.14046904       0.00828332 </v>
   <v>      -0.00002243      -0.00000000       0.00944469 </v>
   <v>       0.00006612      -0.00000000       0.00857785 </v>
   <v>      -0.00026875       0.00117971      -0.00841359 </v>
   <v>       0.00124931       0.00022856      -0.00850610 </v>
   <v>       0.00003028       0.00000000      -0.00856191 </v>
   <v>      -0.00020908       0.00000000      -0.00846691 </v>
   <v>      -0.00148177       0.00000000      -0.00844002 </v>
   <v>      -0.00032400      -0.00000000      -0.00836101 </v>
   <v>      -0.00026875      -0.00117971      -0.00841359 </v>
   <v>       0.00124931      -0.00022856      -0.00850610 </v>
  </varray>
  <varray name="stress" >
   <v>      -6.68926537       0.00000000      -0.00065343 </v>
   <v>       0.00000000      -6.69221124       0.00000000 </v>
   <v>      -0.00065345       0.00000000      -3.64378081 </v>
  </varray>
  <energy>
   <i name="e_fr_energy">   -125.63455435 </i>
   <i name="e_wo_entrp">   -125.62850531 </i>
   <i name="e_0_energy">   -125.63152983 </i>
  </energy>
  <time name="totalsc">   27.94   28.17</time>
 </calculation>
 <calculation>
  <scstep>
   <time name="dav">    3.32    3.34</time>
   <time name="total">    3.52    3.56</time>
   <energy>
    <i name="alphaZ">     60.25272160 </i>
    <i name="ewald">   1862.53234843 </i>
    <i name="hartreedc">  -3471.83450356 </i>
    <i name="XCdc">    168.07039128 </i>
    <i name="pawpsdc">   5739.77497973 </i>
    <i name="pawaedc">  -5739.12551730 </i>
    <i name="eentropy">     -0.00595828 </i>
    <i name="bandstr">   -490.31991697 </i>
    <i name="atom">   1746.50554237 </i>
    <i name="e_fr_energy">   -124.14991271 </i>
    <i name="e_wo_entrp">   -124.14395443 </i>
    <i name="e_0_energy">   -124.14693357 </i>
   </energy>
  </scstep>
  <scstep>
   <time name="dav">    5.26    5.30</time>
   <time name="total">    5.46    5.51</time>
   <energy>
    <i name="e_fr_energy">   -124.14935645 </i>
    <i name="e_wo_entrp">   -124.14335072 </i>
    <i name="e_0_energy">   -124.14635359 </i>
   </energy>
  </scstep>
  <scstep>
   <time name="dav">    4.55    4.58</time>
   <time name="total">    4.75    4.79</time>
   <energy>
    <i name="e_fr_energy">   -124.14926849 </i>
    <i name="e_wo_entrp">   -124.14323301 </i>
    <i name="e_0_energy">   -124.14625075 </i>
   </energy>
  </scstep>
  <scstep>
   <time name="dav">    5.01    5.04</time>
   <time name="total">    5.21    5.26</time>
   <energy>
    <i name="e_fr_energy">   -124.14926619 </i>
    <i name="e_wo_entrp">   -124.14322859 </i>
    <i name="e_0_energy">   -124.14624739 </i>
   </energy>
  </scstep>
  <scstep>
   <time name="dav">    5.19    5.23</time>
   <time name="total">    5.23    5.26</time>
   <energy>
    <i name="alphaZ">     60.25272160 </i>
    <i name="ewald">   1862.53234843 </i>
    <i name="hartreedc">  -3472.06321233 </i>
    <i name="XCdc">    168.07499515 </i>
    <i name="pawpsdc">   5746.50799447 </i>
    <i name="pawaedc">  -5745.86057782 </i>
    <i name="eentropy">     -0.00603736 </i>
    <i name="bandstr">   -490.09304072 </i>
    <i name="atom">   1746.50554237 </i>
    <i name="e_fr_energy">   -124.14926621 </i>
    <i name="e_wo_entrp">   -124.14322885 </i>
    <i name="e_0_energy">   -124.14624753 </i>
   </energy>
  </scstep>
  <structure>
   <crystal>
    <varray name="basis" >
     <v>       4.31973471       2.49400000       0.00000000 </v>
     <v>      -4.31973471       2.49400000       0.00000000 </v>
     <v>       0.00000000       0.00000000      15.00000000 </v>
    </varray>
    <i name="volume">    323.20255131 </i>
    <varray name="rec_basis" >
     <v>       0.11574785       0.20048115       0.00000000 </v>
     <v>      -0.11574785       0.20048115       0.00000000 </v>
     <v>       0.00000000       0.00000000       0.06666667 </v>
    </varray>
   </crystal>
   <varray name="positions" >
    <v>       0.66965514      -0.00000006       0.10001380 </v>
    <v>       0.33034394      -0.00000008       0.10001384 </v>
    <v>       0.00000006       0.33034386       0.10001380 </v>
    <v>       0.00000008       0.66965506       0.10001384 </v>
    <v>       0.33034378       0.33034374       0.10001385 </v>
    <v>       0.66965526       0.66965522       0.10001385 </v>
    <v>       0.66666605       0.33333295       0.09923506 </v>
    <v>       0.33333276       0.66666624       0.10079589 </v>
    <v>       0.24999711       0.24999716       0.46905257 </v>
    <v>       0.41666457       0.08333347       0.46905228 </v>
    <v>       0.24999912       0.74999988       0.46905207 </v>
    <v>       0.41666671       0.58333229       0.46905241 </v>
    <v>       0.75000085       0.24999815       0.46905248 </v>
    <v>       0.91666687       0.08333213       0.46905276 </v>
    <v>       0.75000184       0.75000189       0.46905257 </v>
    <v>       0.91666553       0.58333443       0.46905228 </v>
   </varray>
  </structure>
  <varray name="forces" >
   <v>      -0.00051613      -0.00030189       0.00823793 </v>
   <v>       0.00053095       0.00030994       0.00825910 </v>
   <v>      -0.00051613       0.00030189       0.00823793 </v>
   <v>       0.00053095      -0.00030994       0.00825910 </v>
   <v>       0.00000134       0.00061907       0.00826296 </v>
   <v>       0.00000134      -0.00061907       0.00826296 </v>
   <v>      -0.00000561      -0.00000000       0.00866273 </v>
   <v>      -0.00000330      -0.00000000       0.00949960 </v>
   <v>      -0.00011695       0.00039309      -0.00839563 </v>
   <v>       0.00044319       0.00007368      -0.00852686 </v>
   <v>      -0.00001971      -0.00000000      -0.00861495 </v>
   <v>      -0.00004778      -0.00000000      -0.00847159 </v>
   <v>      -0.00052715      -0.00000000      -0.00843748 </v>
   <v>      -0.00008124      -0.00000000      -0.00831328 </v>
   <v>      -0.00011695      -0.00039309      -0.00839563 </v>
   <v>       0.00044319      -0.00007368      -0.00852686 </v>
  </varray>
  <varray name="stress" >
   <v>      -6.13107621       0.00000000      -0.00068028 </v>
   <v>       0.00000000      -6.13226167       0.00000000 </v>
   <v>      -0.00068028       0.00000000      -3.62457490 </v>
  </varray>
  <energy>
   <i name="e_fr_energy">   -125.63600569 </i>
   <i name="e_wo_entrp">   -125.62996833 </i>
   <i name="e_0_energy">   -125.63298701 </i>
  </energy>
  <time name="totalsc">   27.27   27.48</time>
 </calculation>
 <calculation>
  <scstep>
   <time name="dav">    5.23    5.26</time>
   <time name="total">    5.44    5.48</time>
   <energy>
    <i name="alphaZ">     60.25272160 </i>
    <i name="ewald">   1862.53069778 </i>
    <i name="hartreedc">  -3472.06315279 </i>
    <i name="XCdc">    168.07484931 </i>
    <i name="pawpsdc">   5746.60470804 </i>
    <i name="pawaedc">  -5745.95729546 </i>
    <i name="eentropy">     -0.00603740 </i>
    <i name="bandstr">   -490.09129916 </i>
    <i name="atom">   1746.50554237 </i>
    <i name="e_fr_energy">   -124.14926571 </i>
    <i name="e_wo_entrp">   -124.14322832 </i>
    <i name="e_0_energy">   -124.14624701 </i>
   </energy>
  </scstep>
  <scstep>
   <time name="dav">    5.17    5.20</time>
   <time name="total">    5.20    5.23</time>
   <energy>
    <i name="alphaZ">     60.25272160 </i>
    <i name="ewald">   1862.53069778 </i>
    <i name="hartreedc">  -3472.06320980 </i>
    <i name="XCdc">    168.07484364 </i>
    <i name="pawpsdc">   5746.58290621 </i>
    <i name="pawaedc">  -5745.93549172 </i>
    <i name="eentropy">     -0.00603747 </i>
    <i name="bandstr">   -490.09123825 </i>
    <i name="atom">   1746.50554237 </i>
    <i name="e_fr_energy">   -124.14926566 </i>
    <i name="e_wo_entrp">   -124.14322819 </i>
    <i name="e_0_energy">   -124.14624693 </i>
   </energy>
  </scstep>
  <structure>
   <crystal>
    <varray name="basis" >
     <v>       4.31973471       2.49400000       0.00000000 </v>
     <v>      -4.31973471       2.49400000       0.00000000 </v>
     <v>       0.00000000       0.00000000      15.00000000 </v>
    </varray>
    <i name="volume">    323.20255131 </i>
    <varray name="rec_basis" >
     <v>       0.11574785       0.20048115       0.00000000 </v>
     <v>      -0.11574785       0.20048115       0.00000000 </v>
     <v>       0.00000000       0.00000000       0.06666667 </v>
    </varray>
   </crystal>
   <varray name="positions" >
    <v>       0.66965838      -0.00000006       0.10001386 </v>
    <v>       0.33034070      -0.00000008       0.10001390 </v>
    <v>       0.00000006       0.33034062       0.10001386 </v>
    <v>       0.00000008       0.66965830       0.10001390 </v>
    <v>       0.33034053       0.33034050       0.10001390 </v>
    <v>       0.66965850       0.66965847       0.10001390 </v>
    <v>       0.66666605       0.33333295       0.09923511 </v>
    <v>       0.33333276       0.66666624       0.10079597 </v>
    <v>       0.24999710       0.24999715       0.46905251 </v>
    <v>       0.41666456       0.08333347       0.46905222 </v>
    <v>       0.24999912       0.74999988       0.46905201 </v>
    <v>       0.41666671       0.58333229       0.46905235 </v>
    <v>       0.75000085       0.24999815       0.46905242 </v>
    <v>       0.91666687       0.08333213       0.46905270 </v>
    <v>       0.75000185       0.75000190       0.46905251 </v>
    <v>       0.91666553       0.58333444       0.46905222 </v>
   </varray>
  </structure>
  <varray name="forces" >
   <v>      -0.00144390      -0.00083664       0.00823473 </v>
   <v>       0.00145804       0.00084559       0.00825586 </v>
   <v>      -0.00144390       0.00083664       0.00823473 </v>
   <v>       0.00145804      -0.00084559       0.00825586 </v>
   <v>       0.00000169       0.00168980       0.00825957 </v>
   <v>       0.00000169      -0.00168980       0.00825957 </v>
   <v>      -0.00000504       0.00000000       0.00866384 </v>
   <v>      -0.00000315       0.00000000       0.00948478 </v>
   <v>      -0.00011779       0.00039764      -0.00839170 </v>
   <v>       0.00044772       0.00007454      -0.00852254 </v>
   <v>      -0.00001931      -0.00000000      -0.00861026 </v>
   <v>      -0.00004883      -0.00000000      -0.00846689 </v>
   <v>      -0.00053232      -0.00000000      -0.00843284 </v>
   <v>      -0.00008287      -0.00000000      -0.00831045 </v>
   <v>      -0.00011779      -0.00039764      -0.00839170 </v>
   <v>       0.00044772      -0.00007454      -0.00852254 </v>
  </varray>
  <varray name="stress" >
   <v>      -6.12989824       0.00000000      -0.00068026 </v>
   <v>       0.00000000      -6.13110685       0.00000000 </v>
   <v>      -0.00068024       0.00000000      -3.62511899 </v>
  </varray>
  <energy>
   <i name="e_fr_energy">   -125.63600562 </i>
   <i name="e_wo_entrp">   -125.62996815 </i>
   <i name="e_0_energy">   -125.63298689 </i>
  </energy>
  <time name="totalsc">   13.72   13.82</time>
 </calculation>
 <calculation>
  <scstep>
   <time name="dav">    4.34    4.38</time>
   <time name="total">    4.55    4.59</time>
   <energy>
    <i name="alphaZ">     60.25272160 </i>
    <i name="ewald">   1862.53134936 </i>
    <i name="hartreedc">  -3472.06372825 </i>
    <i name="XCdc">    168.07487491 </i>
    <i name="pawpsdc">   5746.56926878 </i>
    <i name="pawaedc">  -5745.92185300 </i>
    <i name="eentropy">     -0.00603733 </i>
    <i name="bandstr">   -490.09140432 </i>
    <i name="atom">   1746.50554237 </i>
    <i name="e_fr_energy">   -124.14926587 </i>
    <i name="e_wo_entrp">   -124.14322855 </i>
    <i name="e_0_energy">   -124.14624721 </i>
   </energy>
  </scstep>
  <scstep>
   <time name="dav">    4.83    4.85</time>
   <time name="total">    4.86    4.89</time>
   <energy>
    <i name="alphaZ">     60.25272160 </i>
    <i name="ewald">   1862.53134936 </i>
    <i name="hartreedc">  -3472.06440813 </i>
    <i name="XCdc">    168.07488859 </i>
    <i name="pawpsdc">   5746.56932956 </i>
    <i name="pawaedc">  -5745.92191552 </i>
    <i name="eentropy">     -0.00603743 </i>
    <i name="bandstr">   -490.09073628 </i>
    <i name="atom">   1746.50554237 </i>
    <i name="e_fr_energy">   -124.14926588 </i>
    <i name="e_wo_entrp">   -124.14322846 </i>
    <i name="e_0_energy">   -124.14624717 </i>
   </energy>
  </scstep>
  <structure>
   <crystal>
    <varray name="basis" >
     <v>       4.31973471       2.49400000       0.00000000 </v>
     <v>      -4.31973471       2.49400000       0.00000000 </v>
     <v>       0.00000000       0.00000000      15.00000000 </v>
    </varray>
    <i name="volume">    323.20255131 </i>
    <varray name="rec_basis" >
     <v>       0.11574785       0.20048115       0.00000000 </v>
     <v>      -0.11574785       0.20048115       0.00000000 </v>
     <v>       0.00000000       0.00000000       0.06666667 </v>
    </varray>
   </crystal>
   <varray name="positions" >
    <v>       0.66965710      -0.00000006       0.10001384 </v>
    <v>       0.33034198      -0.00000008       0.10001387 </v>
    <v>       0.00000006       0.33034190       0.10001384 </v>
    <v>       0.00000008       0.66965702       0.10001387 </v>
    <v>       0.33034181       0.33034178       0.10001388 </v>
    <v>       0.66965722       0.66965719       0.10001388 </v>
    <v>       0.66666605       0.33333295       0.09923509 </v>
    <v>       0.33333276       0.66666624       0.10079594 </v>
    <v>       0.24999710       0.24999715       0.46905253 </v>
    <v>       0.41666457       0.08333347       0.46905224 </v>
    <v>       0.24999912       0.74999988       0.46905204 </v>
    <v>       0.41666671       0.58333229       0.46905237 </v>
    <v>       0.75000085       0.24999815       0.46905244 </v>
    <v>       0.91666687       0.08333213       0.46905272 </v>
    <v>       0.75000185       0.75000190       0.46905253 </v>
    <v>       0.91666553       0.58333443       0.46905224 </v>
   </varray>
  </structure>
  <varray name="forces" >
   <v>      -0.00142604      -0.00082644       0.00823077 </v>
   <v>       0.00144023       0.00083524       0.00825183 </v>
   <v>      -0.00142604       0.00082644       0.00823077 </v>
   <v>       0.00144023      -0.00083524       0.00825183 </v>
   <v>       0.00000160       0.00166924       0.00825554 </v>
   <v>       0.00000160      -0.00166924       0.00825554 </v>
   <v>      -0.00000495      -0.00000000       0.00866590 </v>
   <v>      -0.00000317      -0.00000000       0.00948506 </v>
   <v>      -0.00011780       0.00039629      -0.00838895 </v>
   <v>       0.00044644       0.00007452      -0.00851984 </v>
   <v>      -0.00001934      -0.00000000      -0.00860761 </v>
   <v>      -0.00004830      -0.00000000      -0.00846419 </v>
   <v>      -0.00053078      -0.00000000      -0.00843012 </v>
   <v>      -0.00008233      -0.00000000      -0.00830774 </v>
   <v>      -0.00011780      -0.00039629      -0.00838895 </v>
   <v>       0.00044644      -0.00007452      -0.00851984 </v>
  </varray>
  <varray name="stress" >
   <v>      -6.12862114       0.00000000      -0.00068057 </v>
   <v>       0.00000000      -6.12984766       0.00000000 </v>
   <v>      -0.00068056       0.00000000      -3.62352202 </v>
  </varray>
  <energy>
   <i name="e_fr_energy">   -125.63600565 </i>
   <i name="e_wo_entrp">   -125.62996823 </i>
   <i name="e_0_energy">   -125.63298694 </i>
  </energy>
  <time name="totalsc">   12.49   12.58</time>
 </calculation>
 <calculation>
  <scstep>
   <time name="dav">    3.82    3.84</time>
   <time name="total">    4.03    4.06</time>
   <energy>
    <i name="alphaZ">     60.25272160 </i>
    <i name="ewald">   1862.53184888 </i>
    <i name="hartreedc">  -3472.06491452 </i>
    <i name="XCdc">    168.07491627 </i>
    <i name="pawpsdc">   5746.56844110 </i>
    <i name="pawaedc">  -5745.92102778 </i>
    <i name="eentropy">     -0.00603738 </i>
    <i name="bandstr">   -490.09075658 </i>
    <i name="atom">   1746.50554237 </i>
    <i name="e_fr_energy">   -124.14926604 </i>
    <i name="e_wo_entrp">   -124.14322867 </i>
    <i name="e_0_energy">   -124.14624736 </i>
   </energy>
  </scstep>
  <scstep>
   <time name="dav">    4.38    4.40</time>
   <time name="total">    4.41    4.44</time>
   <energy>
    <i name="alphaZ">     60.25272160 </i>
    <i name="ewald">   1862.53184888 </i>
    <i name="hartreedc">  -3472.06546706 </i>
    <i name="XCdc">    168.07492686 </i>
    <i name="pawpsdc">   5746.57220431 </i>
    <i name="pawaedc">  -5745.92479280 </i>
    <i name="eentropy">     -0.00603747 </i>
    <i name="bandstr">   -490.09021273 </i>
    <i name="atom">   1746.50554237 </i>
    <i name="e_fr_energy">   -124.14926605 </i>
    <i name="e_wo_entrp">   -124.14322857 </i>
    <i name="e_0_energy">   -124.14624731 </i>
   </energy>
  </scstep>
  <structure>
   <crystal>
    <varray name="basis" >
     <v>       4.31973471       2.49400000       0.00000000 </v>
     <v>      -4.31973471       2.49400000       0.00000000 </v>
     <v>       0.00000000       0.00000000      15.00000000 </v>
    </varray>
    <i name="volume">    323.20255131 </i>
    <varray name="rec_basis" >
     <v>       0.11574785       0.20048115       0.00000000 </v>
     <v>      -0.11574785       0.20048115       0.00000000 </v>
     <v>       0.00000000       0.00000000       0.06666667 </v>
    </varray>
   </crystal>
   <varray name="positions" >
    <v>       0.66965612      -0.00000006       0.10001382 </v>
    <v>       0.33034296      -0.00000008       0.10001386 </v>
    <v>       0.00000006       0.33034288       0.10001382 </v>
    <v>       0.00000008       0.66965604       0.10001386 </v>
    <v>       0.33034279       0.33034276       0.10001386 </v>
    <v>       0.66965624       0.66965621       0.10001386 </v>
    <v>       0.66666605       0.33333295       0.09923507 </v>
    <v>       0.33333276       0.66666624       0.10079591 </v>
    <v>       0.24999711       0.24999716       0.46905255 </v>
    <v>       0.41666457       0.08333347       0.46905226 </v>
    <v>       0.24999912       0.74999988       0.46905206 </v>
    <v>       0.41666671       0.58333229       0.46905239 </v>
    <v>       0.75000085       0.24999815       0.46905246 </v>
    <v>       0.91666687       0.08333213       0.46905274 </v>
    <v>       0.75000184       0.75000189       0.46905255 </v>
    <v>       0.91666553       0.58333443       0.46905226 </v>
   </varray>
  </structure>
  <varray name="forces" >
   <v>      -0.00126803      -0.00073521       0.00823060 </v>
   <v>       0.00128226       0.00074401       0.00825166 </v>
   <v>      -0.00126803       0.00073521       0.00823060 </v>
   <v>       0.00128226      -0.00074401       0.00825166 </v>
   <v>       0.00000162       0.00148673       0.00825540 </v>
   <v>       0.00000162      -0.00148673       0.00825540 </v>
   <v>      -0.00000492      -0.00000000       0.00866644 </v>
   <v>      -0.00000328      -0.00000000       0.00948810 </v>
   <v>      -0.00011764       0.00039513      -0.00838923 </v>
   <v>       0.00044533       0.00007429      -0.00852020 </v>
   <v>      -0.00001946      -0.00000000      -0.00860802 </v>
   <v>      -0.00004803      -0.00000000      -0.00846455 </v>
   <v>      -0.00052945      -0.00000000      -0.00843045 </v>
   <v>      -0.00008191      -0.00000000      -0.00830797 </v>
   <v>      -0.00011764      -0.00039513      -0.00838923 </v>
   <v>       0.00044533      -0.00007429      -0.00852020 </v>
  </varray>
  <varray name="stress" >
   <v>      -6.12775693       0.00000000      -0.00068046 </v>
   <v>       0.00000000      -6.12898487       0.00000000 </v>
   <v>      -0.00068047       0.00000000      -3.62416342 </v>
  </varray>
  <energy>
   <i name="e_fr_energy">   -125.63600567 </i>
   <i name="e_wo_entrp">   -125.62996820 </i>
   <i name="e_0_energy">   -125.63298694 </i>
  </energy>
  <time name="totalsc">   11.50   11.59</time>
 </calculation>
 <calculation>
  <scstep>
   <time name="dav">    3.25    3.28</time>
   <time name="total">    3.46    3.49</time>
   <energy>
    <i name="alphaZ">     60.25272160 </i>
    <i name="ewald">   1863.16136121 </i>
    <i name="hartreedc">  -3472.69550619 </i>
    <i name="XCdc">    168.07493723 </i>
    <i name="pawpsdc">   5746.57465878 </i>
    <i name="pawaedc">  -5745.92724844 </i>
    <i name="eentropy">     -0.00603754 </i>
    <i name="bandstr">   -490.08970173 </i>
    <i name="atom">   1746.50554237 </i>
    <i name="e_fr_energy">   -124.14927272 </i>
    <i name="e_wo_entrp">   -124.14323517 </i>
    <i name="e_0_energy">   -124.14625395 </i>
   </energy>
  </scstep>
  <scstep>
   <time name="dav">    3.70    3.72</time>
   <time name="total">    3.90    3.93</time>
   <energy>
    <i name="e_fr_energy">   -124.14927175 </i>
    <i name="e_wo_entrp">   -124.14323390 </i>
    <i name="e_0_energy">   -124.14625282 </i>
   </energy>
  </scstep>
  <scstep>
   <time name="dav">    3.99    4.01</time>
   <time name="total">    4.02    4.05</time>
   <energy>
    <i name="alphaZ">     60.25272160 </i>
    <i name="ewald">   1863.16136121 </i>
    <i name="hartreedc">  -3472.70385959 </i>
    <i name="XCdc">    168.07495988 </i>
    <i name="pawpsdc">   5746.56016614 </i>
    <i name="pawaedc">  -5745.91275438 </i>
    <i name="eentropy">     -0.00603765 </i>
    <i name="bandstr">   -490.08137069 </i>
    <i name="atom">   1746.50554237 </i>
    <i name="e_fr_energy">   -124.14927112 </i>
    <i name="e_wo_entrp">   -124.14323347 </i>
    <i name="e_0_energy">   -124.14625230 </i>
   </energy>
  </scstep>
  <structure>
   <crystal>
    <varray name="basis" >
     <v>       4.31973471       2.49400000       0.00000000 </v>
     <v>      -4.31973471       2.49400000       0.00000000 </v>
     <v>       0.00000000       0.00000000      15.00000000 </v>
    </varray>
    <i name="volume">    323.20255131 </i>
    <varray name="rec_basis" >
     <v>       0.11574785       0.20048115       0.00000000 </v>
     <v>      -0.11574785       0.20048115       0.00000000 </v>
     <v>       0.00000000       0.00000000       0.06666667 </v>
    </varray>
   </crystal>
   <varray name="positions" >
    <v>       0.66965624      -0.00000009       0.10003800 </v>
    <v>       0.33034299      -0.00000005       0.10003810 </v>
    <v>       0.00000009       0.33034276       0.10003800 </v>
    <v>       0.00000005       0.66965601       0.10003810 </v>
    <v>       0.33034285       0.33034280       0.10003812 </v>
    <v>       0.66965620       0.66965615       0.10003812 </v>
    <v>       0.66666602       0.33333298       0.09926052 </v>
    <v>       0.33333274       0.66666626       0.10082383 </v>
    <v>       0.24999993       0.25000117       0.46902790 </v>
    <v>       0.41666744       0.08333188       0.46902722 </v>
    <v>       0.24999902       0.74999998       0.46902676 </v>
    <v>       0.41666647       0.58333253       0.46902751 </v>
    <v>       0.74999820       0.25000080       0.46902768 </v>
    <v>       0.91666646       0.08333254       0.46902833 </v>
    <v>       0.74999783       0.74999907       0.46902790 </v>
    <v>       0.91666712       0.58333156       0.46902722 </v>
   </varray>
  </structure>
  <varray name="forces" >
   <v>      -0.00124902      -0.00072771       0.00794165 </v>
   <v>       0.00125700       0.00071499       0.00796127 </v>
   <v>      -0.00124902       0.00072771       0.00794165 </v>
   <v>       0.00125700      -0.00071499       0.00796127 </v>
   <v>      -0.00000103       0.00144160       0.00796428 </v>
   <v>      -0.00000103      -0.00144160       0.00796428 </v>
   <v>       0.00000964       0.00000000       0.00836662 </v>
   <v>      -0.00000261       0.00000000       0.00919477 </v>
   <v>       0.00041740      -0.00090604      -0.00812615 </v>
   <v>      -0.00118745      -0.00017157      -0.00819850 </v>
   <v>       0.00019108       0.00000000      -0.00824239 </v>
   <v>      -0.00005350       0.00000000      -0.00817155 </v>
   <v>       0.00136146       0.00000000      -0.00815271 </v>
   <v>       0.00002013       0.00000000      -0.00807984 </v>
   <v>       0.00041740       0.00090604      -0.00812615 </v>
   <v>      -0.00118745       0.00017157      -0.00819850 </v>
  </varray>
  <varray name="stress" >
   <v>      -6.12941253       0.00000000      -0.00067786 </v>
   <v>       0.00000000      -6.12722870       0.00000000 </v>
   <v>      -0.00067787       0.00000000      -3.62882415 </v>
  </varray>
  <energy>
   <i name="e_fr_energy">   -125.63605610 </i>
   <i name="e_wo_entrp">   -125.63001845 </i>
   <i name="e_0_energy">   -125.63303728 </i>
  </energy>
  <time name="totalsc">   14.45   14.57</time>
 </calculation>
 <calculation>
  <scstep>
   <time name="dav">    3.26    3.28</time>
   <time name="total">    3.46    3.49</time>
   <energy>
    <i name="alphaZ">     60.25272160 </i>
    <i name="ewald">   1865.05133112 </i>
    <i name="hartreedc">  -3474.59150118 </i>
    <i name="XCdc">    168.07495979 </i>
    <i name="pawpsdc">   5746.56272905 </i>
    <i name="pawaedc">  -5745.91531683 </i>
    <i name="eentropy">     -0.00603754 </i>
    <i name="bandstr">   -490.08372778 </i>
    <i name="atom">   1746.50554237 </i>
    <i name="e_fr_energy">   -124.14929939 </i>
    <i name="e_wo_entrp">   -124.14326185 </i>
    <i name="e_0_energy">   -124.14628062 </i>
   </energy>
  </scstep>
  <scstep>
   <time name="dav">    3.87    3.89</time>
   <time name="total">    4.07    4.10</time>
   <energy>
    <i name="e_fr_energy">   -124.14929096 </i>
    <i name="e_wo_entrp">   -124.14325254 </i>
    <i name="e_0_energy">   -124.14627175 </i>
   </energy>
  </scstep>
  <scstep>
   <time name="dav">    4.80    4.84</time>
   <time name="total">    5.00    5.05</time>
   <energy>
    <i name="e_fr_energy">   -124.14928470 </i>
    <i name="e_wo_entrp">   -124.14324693 </i>
    <i name="e_0_energy">   -124.14626581 </i>
   </energy>
  </scstep>
  <scstep>
   <time name="dav">    3.76    3.79</time>
   <time name="total">    3.80    3.83</time>
   <energy>
    <i name="alphaZ">     60.25272160 </i>
    <i name="ewald">   1865.05133112 </i>
    <i name="hartreedc">  -3474.60617869 </i>
    <i name="XCdc">    168.07499931 </i>
    <i name="pawpsdc">   5746.55574619 </i>
    <i name="pawaedc">  -5745.90832785 </i>
    <i name="eentropy">     -0.00603753 </i>
    <i name="bandstr">   -490.06908168 </i>
    <i name="atom">   1746.50554237 </i>
    <i name="e_fr_energy">   -124.14928516 </i>
    <i name="e_wo_entrp">   -124.14324763 </i>
    <i name="e_0_energy">   -124.14626639 </i>
   </energy>
  </scstep>
  <structure>
   <crystal>
    <varray name="basis" >
     <v>       4.31973471       2.49400000       0.00000000 </v>
     <v>      -4.31973471       2.49400000       0.00000000 </v>
     <v>       0.00000000       0.00000000      15.00000000 </v>
    </varray>
    <i name="volume">    323.20255131 </i>
    <varray name="rec_basis" >
     <v>       0.11574785       0.20048115       0.00000000 </v>
     <v>      -0.11574785       0.20048115       0.00000000 </v>
     <v>       0.00000000       0.00000000       0.06666667 </v>
    </varray>
   </crystal>
   <varray name="positions" >
    <v>       0.66965661      -0.00000018       0.10011056 </v>
    <v>       0.33034307       0.00000004       0.10011085 </v>
    <v>       0.00000018       0.33034239       0.10011056 </v>
    <v>      -0.00000004       0.66965593       0.10011085 </v>
    <v>       0.33034301       0.33034291       0.10011090 </v>
    <v>       0.66965609       0.66965599       0.10011090 </v>
    <v>       0.66666595       0.33333305       0.09933685 </v>
    <v>       0.33333268       0.66666632       0.10090756 </v>
    <v>       0.25000841       0.25001320       0.46895394 </v>
    <v>       0.41667605       0.08332712       0.46895211 </v>
    <v>       0.24999871       0.75000029       0.46895087 </v>
    <v>       0.41666576       0.58333324       0.46895289 </v>
    <v>       0.74999025       0.25000875       0.46895336 </v>
    <v>       0.91666525       0.08333375       0.46895509 </v>
    <v>       0.74998580       0.74999059       0.46895394 </v>
    <v>       0.91667188       0.58332295       0.46895211 </v>
   </varray>
  </structure>
  <varray name="forces" >
   <v>      -0.00129274      -0.00077683       0.00830522 </v>
   <v>       0.00129600       0.00068450       0.00832048 </v>
   <v>      -0.00129274       0.00077683       0.00830522 </v>
   <v>       0.00129600      -0.00068450       0.00832048 </v>
   <v>      -0.00001902       0.00143296       0.00832157 </v>
   <v>      -0.00001902      -0.00143296       0.00832157 </v>
   <v>       0.00005330       0.00000000       0.00852792 </v>
   <v>       0.00000204       0.00000000       0.00936198 </v>
   <v>       0.00201853      -0.00463944      -0.00852016 </v>
   <v>      -0.00598557      -0.00084199      -0.00842379 </v>
   <v>       0.00091015       0.00000000      -0.00834357 </v>
   <v>      -0.00012167       0.00000000      -0.00847513 </v>
   <v>       0.00692437      -0.00000000      -0.00849926 </v>
   <v>       0.00019742       0.00000000      -0.00857860 </v>
   <v>       0.00201853       0.00463944      -0.00852016 </v>
   <v>      -0.00598557       0.00084199      -0.00842379 </v>
  </varray>
  <varray name="stress" >
   <v>      -6.13650565       0.00000000      -0.00068721 </v>
   <v>       0.00000000      -6.12033383       0.00000000 </v>
   <v>      -0.00068718       0.00000000      -3.63308412 </v>
  </varray>
  <energy>
   <i name="e_fr_energy">   -125.63620647 </i>
   <i name="e_wo_entrp">   -125.63016894 </i>
   <i name="e_0_energy">   -125.63318770 </i>
  </energy>
  <time name="totalsc">   19.41   19.58</time>
 </calculation>
 <calculation>
  <scstep>
   <time name="dav">    3.23    3.25</time>
   <time name="total">    3.44    3.47</time>
   <energy>
    <i name="alphaZ">     60.25272160 </i>
    <i name="ewald">   1868.83771877 </i>
    <i name="hartreedc">  -3478.38573745 </i>
    <i name="XCdc">    168.07500537 </i>
    <i name="pawpsdc">   5746.56261232 </i>
    <i name="pawaedc">  -5745.91519721 </i>
    <i name="eentropy">     -0.00603731 </i>
    <i name="bandstr">   -490.07599309 </i>
    <i name="atom">   1746.50554237 </i>
    <i name="e_fr_energy">   -124.14936463 </i>
    <i name="e_wo_entrp">   -124.14332732 </i>
    <i name="e_0_energy">   -124.14634597 </i>
   </energy>
  </scstep>
  <scstep>
   <time name="dav">    3.88    3.91</time>
   <time name="total">    4.09    4.12</time>
   <energy>
    <i name="e_fr_energy">   -124.14933453 </i>
    <i name="e_wo_entrp">   -124.14329549 </i>
    <i name="e_0_energy">   -124.14631501 </i>
   </energy>
  </scstep>
  <scstep>
   <time name="dav">    4.67    4.70</time>
   <time name="total">    4.87    4.91</time>
   <energy>
    <i name="e_fr_energy">   -124.14930635 </i>
    <i name="e_wo_entrp">   -124.14326853 </i>
    <i name="e_0_energy">   -124.14628744 </i>
   </energy>
  </scstep>
  <scstep>
   <time name="dav">    4.51    4.54</time>
   <time name="total">    4.71    4.75</time>
   <energy>
    <i name="e_fr_energy">   -124.14930762 </i>
    <i name="e_wo_entrp">   -124.14327031 </i>
    <i name="e_0_energy">   -124.14628896 </i>
   </energy>
  </scstep>
  <scstep>
   <time name="dav">    3.43    3.46</time>
   <time name="total">    3.47    3.49</time>
   <energy>
    <i name="alphaZ">     60.25272160 </i>
    <i name="ewald">   1868.83771877 </i>
    <i name="hartreedc">  -3478.40191644 </i>
    <i name="XCdc">    168.07507065 </i>
    <i name="pawpsdc">   5746.55672176 </i>
    <i name="pawaedc">  -5745.90930202 </i>
    <i name="eentropy">     -0.00603719 </i>
    <i name="bandstr">   -490.05982780 </i>
    <i name="atom">   1746.50554237 </i>
    <i name="e_fr_energy">   -124.14930831 </i>
    <i name="e_wo_entrp">   -124.14327112 </i>
    <i name="e_0_energy">   -124.14628971 </i>
   </energy>
  </scstep>
  <structure>
   <crystal>
    <varray name="basis" >
     <v>       4.31973471       2.49400000       0.00000000 </v>
     <v>      -4.31973471       2.49400000       0.00000000 </v>
     <v>       0.00000000       0.00000000      15.00000000 </v>
    </varray>
    <i name="volume">    323.20255131 </i>
    <varray name="rec_basis" >
     <v>       0.11574785       0.20048115       0.00000000 </v>
     <v>      -0.11574785       0.20048115       0.00000000 </v>
     <v>       0.00000000       0.00000000       0.06666667 </v>
    </varray>
   </crystal>
   <varray name="positions" >
    <v>       0.66965734      -0.00000035       0.10025567 </v>
    <v>       0.33034324       0.00000023       0.10025633 </v>
    <v>       0.00000035       0.33034166       0.10025567 </v>
    <v>      -0.00000023       0.66965576       0.10025633 </v>
    <v>       0.33034334       0.33034314       0.10025645 </v>
    <v>       0.66965586       0.66965566       0.10025645 </v>
    <v>       0.66666580       0.33333320       0.09948951 </v>
    <v>       0.33333256       0.66666644       0.10107503 </v>
    <v>       0.25002537       0.25003726       0.46880603 </v>
    <v>       0.41669327       0.08331760       0.46880188 </v>
    <v>       0.24999810       0.75000090       0.46879908 </v>
    <v>       0.41666435       0.58333465       0.46880365 </v>
    <v>       0.74997435       0.25002465       0.46880472 </v>
    <v>       0.91666282       0.08333618       0.46880862 </v>
    <v>       0.74996174       0.74997363       0.46880603 </v>
    <v>       0.91668140       0.58330573       0.46880188 </v>
   </varray>
  </structure>
  <varray name="forces" >
   <v>      -0.00138430      -0.00085868       0.00833019 </v>
   <v>       0.00135900       0.00063323       0.00833627 </v>
   <v>      -0.00138430       0.00085868       0.00833019 </v>
   <v>       0.00135900      -0.00063323       0.00833627 </v>
   <v>      -0.00003982       0.00140807       0.00833323 </v>
   <v>      -0.00003982      -0.00140807       0.00833323 </v>
   <v>       0.00014328      -0.00000000       0.00810966 </v>
   <v>       0.00001105      -0.00000000       0.00893537 </v>
   <v>       0.00525714      -0.01216406      -0.00859413 </v>
   <v>      -0.01564080      -0.00221736      -0.00815310 </v>
   <v>       0.00234128      -0.00000000      -0.00782861 </v>
   <v>      -0.00027870      -0.00000000      -0.00837158 </v>
   <v>       0.01811474      -0.00000000      -0.00847641 </v>
   <v>       0.00056592      -0.00000000      -0.00887333 </v>
   <v>       0.00525714       0.01216406      -0.00859413 </v>
   <v>      -0.01564080       0.00221736      -0.00815310 </v>
  </varray>
  <varray name="stress" >
   <v>      -6.15164987       0.00000000      -0.00068336 </v>
   <v>       0.00000000      -6.10596496       0.00000000 </v>
   <v>      -0.00068336       0.00000000      -3.64306153 </v>
  </varray>
  <energy>
   <i name="e_fr_energy">   -125.63650314 </i>
   <i name="e_wo_entrp">   -125.63046595 </i>
   <i name="e_0_energy">   -125.63348455 </i>
  </energy>
  <time name="totalsc">   23.64   23.85</time>
 </calculation>
 <calculation>
  <scstep>
   <time name="dav">    3.27    3.29</time>
   <time name="total">    3.47    3.51</time>
   <energy>
    <i name="alphaZ">     60.25272160 </i>
    <i name="ewald">   1876.43628674 </i>
    <i name="hartreedc">  -3485.99236139 </i>
    <i name="XCdc">    168.07506358 </i>
    <i name="pawpsdc">   5746.56030393 </i>
    <i name="pawaedc">  -5745.91288573 </i>
    <i name="eentropy">     -0.00603654 </i>
    <i name="bandstr">   -490.06819380 </i>
    <i name="atom">   1746.50554237 </i>
    <i name="e_fr_energy">   -124.14955924 </i>
    <i name="e_wo_entrp">   -124.14352271 </i>
    <i name="e_0_energy">   -124.14654097 </i>
   </energy>
  </scstep>
  <scstep>
   <time name="dav">    3.91    3.94</time>
   <time name="total">    4.11    4.15</time>
   <energy>
    <i name="e_fr_energy">   -124.14945305 </i>
    <i name="e_wo_entrp">   -124.14341320 </i>
    <i name="e_0_energy">   -124.14643312 </i>
   </energy>
  </scstep>
  <scstep>
   <time name="dav">    4.50    4.53</time>
   <time name="total">    4.70    4.74</time>
   <energy>
    <i name="e_fr_energy">   -124.14933257 </i>
    <i name="e_wo_entrp">   -124.14329501 </i>
    <i name="e_0_energy">   -124.14631379 </i>
   </energy>
  </scstep>
  <scstep>
   <time name="dav">    5.12    5.15</time>
   <time name="total">    5.32    5.37</time>
   <energy>
    <i name="e_fr_energy">   -124.14933568 </i>
    <i name="e_wo_entrp">   -124.14329913 </i>
    <i name="e_0_energy">   -124.14631741 </i>
   </energy>
  </scstep>
  <scstep>
   <time name="dav">    4.02    4.05</time>
   <time name="total">    4.06    4.09</time>
   <energy>
    <i name="alphaZ">     60.25272160 </i>
    <i name="ewald">   1876.43628674 </i>
    <i name="hartreedc">  -3486.02834289 </i>
    <i name="XCdc">    168.07519345 </i>
    <i name="pawpsdc">   5746.53134781 </i>
    <i name="pawaedc">  -5745.88392250 </i>
    <i name="eentropy">     -0.00603627 </i>
    <i name="bandstr">   -490.03212502 </i>
    <i name="atom">   1746.50554237 </i>
    <i name="e_fr_energy">   -124.14933473 </i>
    <i name="e_wo_entrp">   -124.14329845 </i>
    <i name="e_0_energy">   -124.14631659 </i>
   </energy>
  </scstep>
  <structure>
   <crystal>
    <varray name="basis" >
     <v>       4.31973471       2.49400000       0.00000000 </v>
     <v>      -4.31973471       2.49400000       0.00000000 </v>
     <v>       0.00000000       0.00000000      15.00000000 </v>
    </varray>
    <i name="volume">    323.20255131 </i>
    <varray name="rec_basis" >
     <v>       0.11574785       0.20048115       0.00000000 </v>
     <v>      -0.11574785       0.20048115       0.00000000 </v>
     <v>       0.00000000       0.00000000       0.06666667 </v>
    </varray>
   </crystal>
   <varray name="positions" >
    <v>       0.66965881      -0.00000069       0.10054590 </v>
    <v>       0.33034358       0.00000060       0.10054730 </v>
    <v>       0.00000069       0.33034019       0.10054590 </v>
    <v>      -0.00000060       0.66965542       0.10054730 </v>
    <v>       0.33034400       0.33034359       0.10054754 </v>
    <v>       0.66965541       0.66965500       0.10054754 </v>
    <v>       0.66666552       0.33333348       0.09979482 </v>
    <v>       0.33333231       0.66666669       0.10140998 </v>
    <v>       0.25005928       0.25008538       0.46851021 </v>
    <v>       0.41672772       0.08329857       0.46850143 </v>
    <v>       0.24999688       0.75000212       0.46849552 </v>
    <v>       0.41666151       0.58333749       0.46850516 </v>
    <v>       0.74994256       0.25005644       0.46850744 </v>
    <v>       0.91665796       0.08334104       0.46851567 </v>
    <v>       0.74991362       0.74993972       0.46851021 </v>
    <v>       0.91670043       0.58327128       0.46850143 </v>
   </varray>
  </structure>
  <varray name="forces" >
   <v>      -0.00156532      -0.00103149       0.00849376 </v>
   <v>       0.00149343       0.00052328       0.00848072 </v>
   <v>      -0.00156532       0.00103149       0.00849376 </v>
   <v>       0.00149343      -0.00052328       0.00848072 </v>
   <v>      -0.00008993       0.00136154       0.00847063 </v>
   <v>      -0.00008993      -0.00136154       0.00847063 </v>
   <v>       0.00032128       0.00000000       0.00747507 </v>
   <v>       0.00002804       0.00000000       0.00830398 </v>
   <v>       0.01170176      -0.02723861      -0.00888088 </v>
   <v>      -0.03493726      -0.00497798      -0.00775251 </v>
   <v>       0.00517532       0.00000000      -0.00693497 </v>
   <v>      -0.00056475       0.00000000      -0.00830130 </v>
   <v>       0.04048682       0.00000000      -0.00857298 </v>
   <v>       0.00134793       0.00000000      -0.00959323 </v>
[...]
    <v>       0.41289201       0.58710699       0.40218753 </v>
    <v>       0.74620396       0.25379504       0.40196139 </v>
    <v>       0.91287740       0.08712160       0.40177852 </v>
    <v>       0.74605849       0.75367387       0.40205972 </v>
    <v>       0.91296867       0.58702565       0.40220898 </v>
   </varray>
  </structure>
  <varray name="forces" >
   <v>      -0.00992587      -0.00504401      -0.00313976 </v>
   <v>       0.03937602       0.05416926       0.00478805 </v>
   <v>      -0.00992587       0.00504401      -0.00313976 </v>
   <v>       0.03937602      -0.05416926       0.00478805 </v>
   <v>       0.00875581       0.00216975      -0.00539973 </v>
   <v>       0.00875581      -0.00216975      -0.00539973 </v>
   <v>      -0.06160277       0.00000000      -0.00205140 </v>
   <v>       0.00027397       0.00000000       0.00311881 </v>
   <v>       0.02908106      -0.04185867      -0.00025993 </v>
   <v>      -0.06510897       0.01146530      -0.01741928 </v>
   <v>       0.03085247       0.00000000      -0.02701420 </v>
   <v>      -0.01103674       0.00000000       0.00687266 </v>
   <v>       0.02748042      -0.00000000       0.02518145 </v>
   <v>       0.00967655      -0.00000000       0.03675396 </v>
   <v>       0.02908106       0.04185867      -0.00025993 </v>
   <v>      -0.06510897      -0.01146530      -0.01741928 </v>
  </varray>
  <varray name="stress" >
   <v>      -8.95117819       0.00000000      -0.23421986 </v>
   <v>       0.00000000      -8.55833329       0.00000000 </v>
   <v>      -0.23421986       0.00000000      -1.47187376 </v>
  </varray>
  <energy>
   <i name="e_fr_energy">   -125.91242086 </i>
   <i name="e_wo_entrp">   -125.90659383 </i>
   <i name="e_0_energy">   -125.90950734 </i>
  </energy>
  <time name="totalsc">   20.40   20.58</time>
 </calculation>
 <calculation>
  <scstep>
   <time name="dav">    3.25    3.27</time>
   <time name="total">    3.45    3.48</time>
   <energy>
    <i name="alphaZ">     60.25272160 </i>
    <i name="ewald">   4425.35125528 </i>
    <i name="hartreedc">  -6034.14490907 </i>
    <i name="XCdc">    168.24050317 </i>
    <i name="pawpsdc">   5736.37153511 </i>
    <i name="pawaedc">  -5735.72158833 </i>
    <i name="eentropy">     -0.00588054 </i>
    <i name="bandstr">   -490.90834696 </i>
    <i name="atom">   1746.50554237 </i>
    <i name="e_fr_energy">   -124.05916738 </i>
    <i name="e_wo_entrp">   -124.05328684 </i>
    <i name="e_0_energy">   -124.05622711 </i>
   </energy>
  </scstep>
  <scstep>
   <time name="dav">    6.14    6.17</time>
   <time name="total">    6.34    6.38</time>
   <energy>
    <i name="e_fr_energy">   -124.05942331 </i>
    <i name="e_wo_entrp">   -124.05354460 </i>
    <i name="e_0_energy">   -124.05648395 </i>
   </energy>
  </scstep>
  <scstep>
   <time name="dav">    4.33    4.35</time>
   <time name="total">    4.53    4.57</time>
   <energy>
    <i name="e_fr_energy">   -124.05936126 </i>
    <i name="e_wo_entrp">   -124.05348322 </i>
    <i name="e_0_energy">   -124.05642224 </i>
   </energy>
  </scstep>
  <scstep>
   <time name="dav">    5.25    5.28</time>
   <time name="total">    5.45    5.50</time>
   <energy>
    <i name="e_fr_energy">   -124.05936226 </i>
    <i name="e_wo_entrp">   -124.05348407 </i>
    <i name="e_0_energy">   -124.05642317 </i>
   </energy>
  </scstep>
  <scstep>
   <time name="dav">    5.11    5.14</time>
   <time name="total">    5.14    5.17</time>
   <energy>
    <i name="alphaZ">     60.25272160 </i>
    <i name="ewald">   4425.35125528 </i>
    <i name="hartreedc">  -6034.17160179 </i>
    <i name="XCdc">    168.24174997 </i>
    <i name="pawpsdc">   5734.66052656 </i>
    <i name="pawaedc">  -5734.01003588 </i>
    <i name="eentropy">     -0.00587804 </i>
    <i name="bandstr">   -490.88364229 </i>
    <i name="atom">   1746.50554237 </i>
    <i name="e_fr_energy">   -124.05936224 </i>
    <i name="e_wo_entrp">   -124.05348420 </i>
    <i name="e_0_energy">   -124.05642322 </i>
   </energy>
  </scstep>
  <structure>
   <crystal>
    <varray name="basis" >
     <v>       4.31973471       2.49400000       0.00000000 </v>
     <v>      -4.31973471       2.49400000       0.00000000 </v>
     <v>       0.00000000       0.00000000      15.00000000 </v>
    </varray>
    <i name="volume">    323.20255131 </i>
    <varray name="rec_basis" >
     <v>       0.11574785       0.20048115       0.00000000 </v>
     <v>      -0.11574785       0.20048115       0.00000000 </v>
     <v>       0.00000000       0.00000000       0.06666667 </v>
    </varray>
   </crystal>
   <varray name="positions" >
    <v>       0.67359834      -0.00444860       0.16710542 </v>
    <v>       0.33484818      -0.00441478       0.16698208 </v>
    <v>       0.00444860       0.32640066       0.16710542 </v>
    <v>       0.00441478       0.66515082       0.16698208 </v>
    <v>       0.33532305       0.32652376       0.16687126 </v>
    <v>       0.67347524       0.66467595       0.16687126 </v>
    <v>       0.67115695       0.32884205       0.15909296 </v>
    <v>       0.33752185       0.66247715       0.17493460 </v>
    <v>       0.24575628       0.25452109       0.40203026 </v>
    <v>       0.41240846       0.08760926       0.40219640 </v>
    <v>       0.24559026       0.75440874       0.40232877 </v>
    <v>       0.41231189       0.58768711       0.40216874 </v>
    <v>       0.74563331       0.25436569       0.40191611 </v>
    <v>       0.91230483       0.08769417       0.40172131 </v>
    <v>       0.74547791       0.75424272       0.40203026 </v>
    <v>       0.91238974       0.58759054       0.40219640 </v>
   </varray>
  </structure>
  <varray name="forces" >
   <v>      -0.00713569      -0.01700275      -0.00209699 </v>
   <v>       0.04779219       0.05125382       0.00579780 </v>
   <v>      -0.00713569       0.01700275      -0.00209699 </v>
   <v>       0.04779219      -0.05125382       0.00579780 </v>
   <v>       0.00290652       0.00213321      -0.00679866 </v>
   <v>       0.00290652      -0.00213321      -0.00679866 </v>
   <v>      -0.07123751      -0.00000000      -0.00325308 </v>
   <v>       0.00002411      -0.00000000       0.00396786 </v>
   <v>       0.02981535      -0.04307484       0.00000597 </v>
   <v>      -0.06639548       0.01010568      -0.02022543 </v>
   <v>       0.02863042      -0.00000000      -0.03087564 </v>
   <v>      -0.00878055      -0.00000000       0.00701026 </v>
   <v>       0.02682480      -0.00000000       0.02851901 </v>
   <v>       0.01057295      -0.00000000       0.04126621 </v>
   <v>       0.02981535       0.04307484       0.00000597 </v>
   <v>      -0.06639548      -0.01010568      -0.02022543 </v>
  </varray>
  <varray name="stress" >
   <v>      -9.07048418       0.00000000      -0.23824094 </v>
   <v>       0.00000000      -8.62432284       0.00000000 </v>
   <v>      -0.23824098       0.00000000      -1.48100790 </v>
  </varray>
  <energy>
   <i name="e_fr_energy">   -125.91257888 </i>
   <i name="e_wo_entrp">   -125.90670084 </i>
   <i name="e_0_energy">   -125.90963986 </i>
  </energy>
  <time name="totalsc">   28.00   28.22</time>
 </calculation>
 <calculation>
  <scstep>
   <time name="dav">    3.26    3.28</time>
   <time name="total">    3.46    3.49</time>
   <energy>
    <i name="alphaZ">     60.25272160 </i>
    <i name="ewald">   4427.17830165 </i>
    <i name="hartreedc">  -6036.16963197 </i>
    <i name="XCdc">    168.23044881 </i>
    <i name="pawpsdc">   5734.63605134 </i>
    <i name="pawaedc">  -5733.98554942 </i>
    <i name="eentropy">     -0.00579605 </i>
    <i name="bandstr">   -490.70049407 </i>
    <i name="atom">   1746.50554237 </i>
    <i name="e_fr_energy">   -124.05840573 </i>
    <i name="e_wo_entrp">   -124.05260968 </i>
    <i name="e_0_energy">   -124.05550771 </i>
   </energy>
  </scstep>
  <scstep>
   <time name="dav">    6.24    6.27</time>
   <time name="total">    6.44    6.49</time>
   <energy>
    <i name="e_fr_energy">   -124.05942534 </i>
    <i name="e_wo_entrp">   -124.05362765 </i>
    <i name="e_0_energy">   -124.05652649 </i>
   </energy>
  </scstep>
  <scstep>
   <time name="dav">    4.62    4.64</time>
   <time name="total">    4.82    4.86</time>
   <energy>
    <i name="e_fr_energy">   -124.05916844 </i>
    <i name="e_wo_entrp">   -124.05336860 </i>
    <i name="e_0_energy">   -124.05626852 </i>
   </energy>
  </scstep>
  <scstep>
   <time name="dav">    5.64    5.67</time>
   <time name="total">    5.84    5.89</time>
   <energy>
    <i name="e_fr_energy">   -124.05917141 </i>
    <i name="e_wo_entrp">   -124.05337225 </i>
    <i name="e_0_energy">   -124.05627183 </i>
   </energy>
  </scstep>
  <scstep>
   <time name="dav">    5.39    5.42</time>
   <time name="total">    5.42    5.45</time>
   <energy>
    <i name="alphaZ">     60.25272160 </i>
    <i name="ewald">   4427.17830165 </i>
    <i name="hartreedc">  -6036.23486197 </i>
    <i name="XCdc">    168.23354990 </i>
    <i name="pawpsdc">   5730.81975759 </i>
    <i name="pawaedc">  -5730.16806016 </i>
    <i name="eentropy">     -0.00579837 </i>
    <i name="bandstr">   -490.64032382 </i>
    <i name="atom">   1746.50554237 </i>
    <i name="e_fr_energy">   -124.05917122 </i>
    <i name="e_wo_entrp">   -124.05337285 </i>
    <i name="e_0_energy">   -124.05627204 </i>
   </energy>
  </scstep>
  <structure>
   <crystal>
    <varray name="basis" >
     <v>       4.31973471       2.49400000       0.00000000 </v>
     <v>      -4.31973471       2.49400000       0.00000000 </v>
     <v>       0.00000000       0.00000000      15.00000000 </v>
    </varray>
    <i name="volume">    323.20255131 </i>
    <varray name="rec_basis" >
     <v>       0.11574785       0.20048115       0.00000000 </v>
     <v>      -0.11574785       0.20048115       0.00000000 </v>
     <v>       0.00000000       0.00000000       0.06666667 </v>
    </varray>
   </crystal>
   <varray name="positions" >
    <v>       0.67470729      -0.00550644       0.16716885 </v>
    <v>       0.33607779      -0.00549586       0.16702157 </v>
    <v>       0.00550644       0.32529171       0.16716885 </v>
    <v>       0.00549586       0.66392121       0.16702157 </v>
    <v>       0.33665418       0.32550575       0.16693749 </v>
    <v>       0.67449325       0.66334482       0.16693749 </v>
    <v>       0.67237898       0.32762002       0.15803745 </v>
    <v>       0.33865347       0.66134553       0.17605339 </v>
    <v>       0.24461859       0.25568225       0.40197134 </v>
    <v>       0.41127868       0.08876713       0.40217126 </v>
    <v>       0.24444316       0.75555584       0.40233781 </v>
    <v>       0.41115167       0.58884733       0.40213118 </v>
    <v>       0.74449199       0.25550701       0.40182556 </v>
    <v>       0.91115970       0.08883930       0.40160690 </v>
    <v>       0.74431675       0.75538041       0.40197134 </v>
    <v>       0.91123187       0.58872032       0.40217126 </v>
   </varray>
  </structure>
  <varray name="forces" >
   <v>      -0.00489286      -0.04296567      -0.00004169 </v>
   <v>       0.06726531       0.04772403       0.00767091 </v>
   <v>      -0.00489286       0.04296567      -0.00004169 </v>
   <v>       0.06726531      -0.04772403       0.00767091 </v>
   <v>      -0.00906909       0.00511161      -0.00944560 </v>
   <v>      -0.00906909      -0.00511161      -0.00944560 </v>
   <v>      -0.08959931       0.00000000      -0.00636735 </v>
   <v>       0.00021802      -0.00000000       0.00596026 </v>
   <v>       0.03128508      -0.04553248       0.00068272 </v>
   <v>      -0.06886832       0.00741830      -0.02582848 </v>
   <v>       0.02417917       0.00000000      -0.03863601 </v>
   <v>      -0.00418311       0.00000000       0.00724215 </v>
   <v>       0.02555798       0.00000000       0.03535553 </v>
   <v>       0.01238699       0.00000000       0.05036969 </v>
   <v>       0.03128508       0.04553248       0.00068272 </v>
   <v>      -0.06886832      -0.00741830      -0.02582848 </v>
  </varray>
  <varray name="stress" >
   <v>      -9.33144224       0.00000000      -0.24813525 </v>
   <v>       0.00000000      -8.77332022       0.00000000 </v>
   <v>      -0.24813527       0.00000000      -1.49959806 </v>
  </varray>
  <energy>
   <i name="e_fr_energy">   -125.91293398 </i>
   <i name="e_wo_entrp">   -125.90713561 </i>
   <i name="e_0_energy">   -125.91003479 </i>
  </energy>
  <time name="totalsc">   29.06   29.29</time>
 </calculation>
 <calculation>
  <scstep>
   <time name="dav">    3.25    3.27</time>
   <time name="total">    3.45    3.49</time>
   <energy>
    <i name="alphaZ">     60.25272160 </i>
    <i name="ewald">   4430.51822313 </i>
    <i name="hartreedc">  -6039.98931617 </i>
    <i name="XCdc">    168.20504717 </i>
    <i name="pawpsdc">   5730.76127996 </i>
    <i name="pawaedc">  -5730.10954987 </i>
    <i name="eentropy">     -0.00457760 </i>
    <i name="bandstr">   -490.19509402 </i>
    <i name="atom">   1746.50554237 </i>
    <i name="e_fr_energy">   -124.05572343 </i>
    <i name="e_wo_entrp">   -124.05114583 </i>
    <i name="e_0_energy">   -124.05343463 </i>
   </energy>
  </scstep>
  <scstep>
   <time name="dav">    6.40    6.43</time>
   <time name="total">    6.59    6.64</time>
   <energy>
    <i name="e_fr_energy">   -124.05989805 </i>
    <i name="e_wo_entrp">   -124.05531399 </i>
    <i name="e_0_energy">   -124.05760602 </i>
   </energy>
  </scstep>
  <scstep>
   <time name="dav">    5.34    5.38</time>
   <time name="total">    5.54    5.59</time>
   <energy>
    <i name="e_fr_energy">   -124.05884930 </i>
    <i name="e_wo_entrp">   -124.05425631 </i>
    <i name="e_0_energy">   -124.05655281 </i>
   </energy>
  </scstep>
  <scstep>
   <time name="dav">    5.19    5.22</time>
   <time name="total">    5.39    5.43</time>
   <energy>
    <i name="e_fr_energy">   -124.05885773 </i>
    <i name="e_wo_entrp">   -124.05426889 </i>
    <i name="e_0_energy">   -124.05656331 </i>
   </energy>
  </scstep>
  <scstep>
   <time name="dav">    5.43    5.46</time>
   <time name="total">    5.63    5.68</time>
   <energy>
    <i name="e_fr_energy">   -124.05885665 </i>
    <i name="e_wo_entrp">   -124.05427130 </i>
    <i name="e_0_energy">   -124.05656397 </i>
   </energy>
  </scstep>
  <scstep>
   <time name="dav">    4.17    4.20</time>
   <time name="total">    4.37    4.41</time>
   <energy>
    <i name="e_fr_energy">   -124.05886046 </i>
    <i name="e_wo_entrp">   -124.05427789 </i>
    <i name="e_0_energy">   -124.05656918 </i>
   </energy>
  </scstep>
  <scstep>
   <time name="dav">    5.34    5.37</time>
   <time name="total">    5.54    5.58</time>
   <energy>
    <i name="e_fr_energy">   -124.05885508 </i>
    <i name="e_wo_entrp">   -124.05427311 </i>
    <i name="e_0_energy">   -124.05656410 </i>
   </energy>
  </scstep>
  <scstep>
   <time name="dav">    5.53    5.56</time>
   <time name="total">    5.56    5.60</time>
   <energy>
    <i name="alphaZ">     60.25272160 </i>
    <i name="ewald">   4430.51822313 </i>
    <i name="hartreedc">  -6040.13755170 </i>
    <i name="XCdc">    168.21286762 </i>
    <i name="pawpsdc">   5721.22717504 </i>
    <i name="pawaedc">  -5720.57244159 </i>
    <i name="eentropy">     -0.00458128 </i>
    <i name="bandstr">   -490.06080993 </i>
    <i name="atom">   1746.50554237 </i>
    <i name="e_fr_energy">   -124.05885473 </i>
    <i name="e_wo_entrp">   -124.05427345 </i>
    <i name="e_0_energy">   -124.05656409 </i>
   </energy>
  </scstep>
  <structure>
   <crystal>
    <varray name="basis" >
     <v>       4.31973471       2.49400000       0.00000000 </v>
     <v>      -4.31973471       2.49400000       0.00000000 </v>
     <v>       0.00000000       0.00000000      15.00000000 </v>
    </varray>
    <i name="volume">    323.20255131 </i>
    <varray name="rec_basis" >
     <v>       0.11574785       0.20048115       0.00000000 </v>
     <v>      -0.11574785       0.20048115       0.00000000 </v>
     <v>       0.00000000       0.00000000       0.06666667 </v>
    </varray>
   </crystal>
   <varray name="positions" >
    <v>       0.67692520      -0.00762213       0.16729572 </v>
    <v>       0.33853701      -0.00765801       0.16710056 </v>
    <v>       0.00762213       0.32307380       0.16729572 </v>
    <v>       0.00765801       0.66146199       0.16710056 </v>
    <v>       0.33931644       0.32346973       0.16706996 </v>
    <v>       0.67652927       0.66068256       0.16706996 </v>
    <v>       0.67482303       0.32517597       0.15592643 </v>
    <v>       0.34091673       0.65908227       0.17829099 </v>
    <v>       0.24234320       0.25800458       0.40185351 </v>
    <v>       0.40901912       0.09108285       0.40212096 </v>
    <v>       0.24214895       0.75785005       0.40235590 </v>
    <v>       0.40883122       0.59116778       0.40205606 </v>
    <v>       0.74220936       0.25778964       0.40164444 </v>
    <v>       0.90886942       0.09112958       0.40137808 </v>
    <v>       0.74199442       0.75765580       0.40185351 </v>
    <v>       0.90891615       0.59097988       0.40212096 </v>
   </varray>
  </structure>
  <varray name="forces" >
   <v>      -0.00477133      -0.09665562       0.00335880 </v>
   <v>       0.10790610       0.04552232       0.01041504 </v>
   <v>      -0.00477133       0.09665562       0.00335880 </v>
   <v>       0.10790610      -0.04552232       0.01041504 </v>
   <v>      -0.03376859       0.01379886      -0.01244823 </v>
   <v>      -0.03376859      -0.01379886      -0.01244823 </v>
   <v>      -0.12274145      -0.00000000      -0.00477596 </v>
   <v>       0.00501384      -0.00000000       0.00011949 </v>
   <v>       0.03416942      -0.05094119       0.00237553 </v>
   <v>      -0.07399117       0.00202564      -0.03704447 </v>
   <v>       0.01464606      -0.00000000      -0.05402589 </v>
   <v>       0.00502781      -0.00000000       0.00743874 </v>
   <v>       0.02297508      -0.00000000       0.04912163 </v>
   <v>       0.01598979      -0.00000000       0.06880863 </v>
   <v>       0.03416942       0.05094119       0.00237553 </v>
   <v>      -0.07399117      -0.00202564      -0.03704447 </v>
  </varray>
  <varray name="stress" >
   <v>      -9.96413564       0.00000000      -0.26149102 </v>
   <v>       0.00000000      -9.18292225       0.00000000 </v>
   <v>      -0.26149102       0.00000000      -1.54146741 </v>
  </varray>
  <energy>
   <i name="e_fr_energy">   -125.91371287 </i>
   <i name="e_wo_entrp">   -125.90913159 </i>
   <i name="e_0_energy">   -125.91142223 </i>
  </energy>
  <time name="totalsc">   45.15   45.51</time>
 </calculation>
 <calculation>
  <scstep>
   <time name="dav">    3.25    3.26</time>
   <time name="total">    3.45    3.48</time>
   <energy>
    <i name="alphaZ">     60.25272160 </i>
    <i name="ewald">   4435.96601984 </i>
    <i name="hartreedc">  -6046.69414002 </i>
    <i name="XCdc">    168.13267788 </i>
    <i name="pawpsdc">   5721.22349872 </i>
    <i name="pawaedc">  -5720.56877352 </i>
    <i name="eentropy">     -0.00352324 </i>
    <i name="bandstr">   -488.85234554 </i>
    <i name="atom">   1746.50554237 </i>
    <i name="e_fr_energy">   -124.03832191 </i>
    <i name="e_wo_entrp">   -124.03479867 </i>
    <i name="e_0_energy">   -124.03656029 </i>
   </energy>
  </scstep>
  <scstep>
   <time name="dav">    6.45    6.49</time>
   <time name="total">    6.65    6.70</time>
   <energy>
    <i name="e_fr_energy">   -124.05578500 </i>
    <i name="e_wo_entrp">   -124.05243284 </i>
    <i name="e_0_energy">   -124.05410892 </i>
   </energy>
  </scstep>
  <scstep>
   <time name="dav">    5.81    5.84</time>
   <time name="total">    6.01    6.06</time>
   <energy>
    <i name="e_fr_energy">   -124.05159075 </i>
    <i name="e_wo_entrp">   -124.04840387 </i>
    <i name="e_0_energy">   -124.04999731 </i>
   </energy>
  </scstep>
  <scstep>
