Lattice                                 
           1
     4.319735    2.494000    0.000000
    -4.319735    2.494000    0.000000
     0.000000    0.000000   15.000000
   B    C 
     8     8
Direct configuration=     1
   0.66888689  0.00000000  0.10000000
   0.33111211  0.00000000  0.10000000
   0.00000000  0.33111211  0.10000000
   0.00000000  0.66888689  0.10000000
   0.33111211  0.33111211  0.10000000
   0.66888689  0.66888689  0.10000000
   0.66666600  0.33333300  0.09922189
   0.33333300  0.66666600  0.10077811
   0.24999933  0.24999967  0.46906667
   0.41666633  0.08333267  0.46906667
   0.24999933  0.74999967  0.46906667
   0.41666633  0.58333267  0.46906667
   0.74999933  0.24999967  0.46906667
   0.91666633  0.08333267  0.46906667
   0.74999933  0.74999967  0.46906667
   0.91666633  0.58333267  0.46906667
Direct configuration=     2
   0.67035415 -0.00000012  0.10002636
   0.32964500 -0.00000016  0.10002643
   0.00000012  0.32964485  0.10002636
   0.00000016  0.67035400  0.10002643
   0.32964469  0.32964463  0.10002644
   0.67035437  0.67035431  0.10002644
   0.66666609  0.33333291  0.09924704
   0.33333255  0.66666645  0.10081207
   0.24999509  0.24999488  0.46903974
   0.41666297  0.08333420  0.46903919
   0.24999892  0.75000008  0.46903880
   0.41666705  0.58333195  0.46903943
   0.75000223  0.24999677  0.46903956
   0.91666736  0.08333164  0.46904010
   0.75000412  0.75000391  0.46903974
   0.91666480  0.58333603  0.46903919
Direct configuration=     3
   0.66965514 -0.00000006  0.10001380
   0.33034394 -0.00000008  0.10001384
   0.00000006  0.33034386  0.10001380
   0.00000008  0.66965506  0.10001384
   0.33034378  0.33034374  0.10001385
   0.66965526  0.66965522  0.10001385
   0.66666605  0.33333295  0.09923506
   0.33333276  0.66666624  0.10079589
   0.24999711  0.24999716  0.46905257
   0.41666457  0.08333347  0.46905228
   0.24999912  0.74999988  0.46905207
   0.41666671  0.58333229  0.46905241
   0.75000085  0.24999815  0.46905248
   0.91666687  0.08333213  0.46905276
   0.75000184  0.75000189  0.46905257
   0.91666553  0.58333443  0.46905228
Direct configuration=     4
   0.66965838 -0.00000006  0.10001386
   0.33034070 -0.00000008  0.10001390
   0.00000006  0.33034062  0.10001386
   0.00000008  0.66965830  0.10001390
   0.33034053  0.33034050  0.10001390
   0.66965850  0.66965847  0.10001390
   0.66666605  0.33333295  0.09923511
   0.33333276  0.66666624  0.10079597
   0.24999710  0.24999715  0.46905251
   0.41666456  0.08333347  0.46905222
   0.24999912  0.74999988  0.46905201
   0.41666671  0.58333229  0.46905235
   0.75000085  0.24999815  0.46905242
   0.91666687  0.08333213  0.46905270
   0.75000185  0.75000190  0.46905251
   0.91666553  0.58333444  0.46905222
Direct configuration=     5
   0.66965710 -0.00000006  0.10001384
   0.33034198 -0.00000008  0.10001387
   0.00000006  0.33034190  0.10001384
   0.00000008  0.66965702  0.10001387
   0.33034181  0.33034178  0.10001388
   0.66965722  0.66965719  0.10001388
   0.66666605  0.33333295  0.09923509
   0.33333276  0.66666624  0.10079594
   0.24999710  0.24999715  0.46905253
   0.41666457  0.08333347  0.46905224
   0.24999912  0.74999988  0.46905204
   0.41666671  0.58333229  0.46905237
   0.75000085  0.24999815  0.46905244
   0.91666687  0.08333213  0.46905272
   0.75000185  0.75000190  0.46905253
   0.91666553  0.58333443  0.46905224
Direct configuration=     6
   0.66965612 -0.00000006  0.10001382
   0.33034296 -0.00000008  0.10001386
   0.00000006  0.33034288  0.10001382
   0.00000008  0.66965604  0.10001386
   0.33034279  0.33034276  0.10001386
   0.66965624  0.66965621  0.10001386
   0.66666605  0.33333295  0.09923507
   0.33333276  0.66666624  0.10079591
   0.24999711  0.24999716  0.46905255
   0.41666457  0.08333347  0.46905226
   0.24999912  0.74999988  0.46905206
   0.41666671  0.58333229  0.46905239
   0.75000085  0.24999815  0.46905246
   0.91666687  0.08333213  0.46905274
   0.75000184  0.75000189  0.46905255
   0.91666553  0.58333443  0.46905226
Direct configuration=     7
   0.66965624 -0.00000009  0.10003800
   0.33034299 -0.00000005  0.10003810
   0.00000009  0.33034276  0.10003800
   0.00000005  0.66965601  0.10003810
   0.33034285  0.33034280  0.10003812
   0.66965620  0.66965615  0.10003812
   0.66666602  0.33333298  0.09926052
   0.33333274  0.66666626  0.10082383
   0.24999993  0.25000117  0.46902790
   0.41666744  0.08333188  0.46902722
   0.24999902  0.74999998  0.46902676
   0.41666647  0.58333253  0.46902751
   0.74999820  0.25000080  0.46902768
   0.91666646  0.08333254  0.46902833
   0.74999783  0.74999907  0.46902790
   0.91666712  0.58333156  0.46902722
Direct configuration=     8
   0.66965661 -0.00000018  0.10011056
   0.33034307  0.00000004  0.10011085
   0.00000018  0.33034239  0.10011056
  -0.00000004  0.66965593  0.10011085
   0.33034301  0.33034291  0.10011090
   0.66965609  0.66965599  0.10011090
   0.66666595  0.33333305  0.09933685
   0.33333268  0.66666632  0.10090756
   0.25000841  0.25001320  0.46895394
   0.41667605  0.08332712  0.46895211
   0.24999871  0.75000029  0.46895087
   0.41666576  0.58333324  0.46895289
   0.74999025  0.25000875  0.46895336
   0.91666525  0.08333375  0.46895509
   0.74998580  0.74999059  0.46895394
   0.91667188  0.58332295  0.46895211
Direct configuration=     9
   0.66965734 -0.00000035  0.10025567
   0.33034324  0.00000023  0.10025633
   0.00000035  0.33034166  0.10025567
  -0.00000023  0.66965576  0.10025633
   0.33034334  0.33034314  0.10025645
   0.66965586  0.66965566  0.10025645
   0.66666580  0.33333320  0.09948951
   0.33333256  0.66666644  0.10107503
   0.25002537  0.25003726  0.46880603
   0.41669327  0.08331760  0.46880188
   0.24999810  0.75000090  0.46879908
   0.41666435  0.58333465  0.46880365
   0.74997435  0.25002465  0.46880472
   0.91666282  0.08333618  0.46880862
   0.74996174  0.74997363  0.46880603
   0.91668140  0.58330573  0.46880188
Direct configuration=    10
   0.66965881 -0.00000069  0.10054590
   0.33034358  0.00000060  0.10054730
   0.00000069  0.33034019  0.10054590
  -0.00000060  0.66965542  0.10054730
   0.33034400  0.33034359  0.10054754
   0.66965541  0.66965500  0.10054754
   0.66666552  0.33333348  0.09979482
   0.33333231  0.66666669  0.10140998
   0.25005928  0.25008538  0.46851021
   0.41672772  0.08329857  0.46850143
   0.24999688  0.75000212  0.46849552
   0.41666151  0.58333749  0.46850516
   0.74994256  0.25005644  0.46850744
   0.91665796  0.08334104  0.46851567
   0.74991362  0.74993972  0.46851021
   0.91670043  0.58327128  0.46850143
Direct configuration=    11
   0.66966174 -0.00000136  0.10112634
   0.33034426  0.00000134  0.10112923
   0.00000136  0.33033726  0.10112634
  -0.00000134  0.66965474  0.10112923
   0.33034531  0.33034450  0.10112974
   0.66965450  0.66965369  0.10112974
   0.66666494  0.33333406  0.10040545
   0.33333182  0.66666718  0.10207986
   0.25012711  0.25018162  0.46791856
   0.41679661  0.08326049  0.46790052
   0.24999443  0.75000457  0.46788839
   0.41665584  0.58334316  0.46790819
   0.74987897  0.25012003  0.46791288
   0.91664825  0.08335075  0.46792978
   0.74981738  0.74987189  0.46791856
   0.91673851  0.58320239  0.46790052
Direct configuration=    12
   0.66966759 -0.00000272  0.10228724
   0.33034561  0.00000283  0.10229310
   0.00000272  0.33033141  0.10228724
  -0.00000283  0.66965339  0.10229310
   0.33034794  0.33034632  0.10229414
   0.66965268  0.66965106  0.10229414
   0.66666378  0.33333522  0.10162672
   0.33333083  0.66666817  0.10341964
   0.25026276  0.25037410  0.46673527
   0.41693439  0.08318434  0.46669869
   0.24998954  0.75000946  0.46667414
   0.41664449  0.58335451  0.46671424
   0.74975179  0.25024721  0.46672375
   0.91662882  0.08337018  0.46675799
   0.74962490  0.74973624  0.46673527
   0.91681466  0.58306461  0.46669869
Direct configuration=    13
   0.66967931 -0.00000544  0.10460903
   0.33034832  0.00000580  0.10462083
   0.00000544  0.33031969  0.10460903
  -0.00000580  0.66965068  0.10462083
   0.33035320  0.33034995  0.10462292
   0.66964905  0.66964580  0.10462292
   0.66666146  0.33333754  0.10406925
   0.33332886  0.66667014  0.10609918
   0.25053406  0.25075907  0.46436868
   0.41720995  0.08303204  0.46429505
   0.24997975  0.75001925  0.46424562
   0.41662181  0.58337719  0.46432635
   0.74949743  0.25050157  0.46434550
   0.91658995  0.08340905  0.46441441
   0.74923993  0.74946494  0.46436868
   0.91696696  0.58278905  0.46429505
Direct configuration=    14
   0.66970274 -0.00001086  0.10925261
   0.33035373  0.00001175  0.10927630
   0.00001086  0.33029626  0.10925261
  -0.00001175  0.66964527  0.10927630
   0.33036371  0.33035722  0.10928050
   0.66964178  0.66963529  0.10928050
   0.66665683  0.33334217  0.10895432
   0.33332491  0.66667409  0.11145827
   0.25107666  0.25152900  0.45963551
   0.41776108  0.08272744  0.45948776
   0.24996018  0.75003882  0.45938859
   0.41657643  0.58342257  0.45955056
   0.74898871  0.25101029  0.45958899
   0.91651222  0.08348678  0.45972725
   0.74847000  0.74892234  0.45963551
   0.91727156  0.58223792  0.45948776
Direct configuration=    15
   0.66970274 -0.00001087  0.10925379
   0.33035373  0.00001175  0.10927748
   0.00001087  0.33029626  0.10925379
  -0.00001175  0.66964527  0.10927748
   0.33036372  0.33035722  0.10928169
   0.66964178  0.66963528  0.10928169
   0.66665683  0.33334217  0.10895556
   0.33332491  0.66667409  0.11145963
   0.25107670  0.25152904  0.45963431
   0.41776110  0.08272744  0.45948654
   0.24996019  0.75003881  0.45938736
   0.41657641  0.58342259  0.45954934
   0.74898870  0.25101030  0.45958778
   0.91651221  0.08348679  0.45972605
   0.74846996  0.74892230  0.45963431
   0.91727156  0.58223790  0.45948654
Direct configuration=    16
   0.66970275 -0.00001087  0.10925733
   0.33035374  0.00001175  0.10928104
   0.00001087  0.33029625  0.10925733
  -0.00001175  0.66964526  0.10928104
   0.33036372  0.33035723  0.10928524
   0.66964177  0.66963528  0.10928524
   0.66665683  0.33334217  0.10895928
   0.33332491  0.66667409  0.11146372
   0.25107682  0.25152914  0.45963069
   0.41776116  0.08272741  0.45948288
   0.24996022  0.75003878  0.45938366
   0.41657637  0.58342263  0.45954570
   0.74898864  0.25101036  0.45958415
   0.91651216  0.08348684  0.45972247
   0.74846986  0.74892218  0.45963069
   0.91727159  0.58223784  0.45948288
Direct configuration=    17
   0.66970276 -0.00001089  0.10926442
   0.33035375  0.00001174  0.10928814
   0.00001089  0.33029624  0.10926442
  -0.00001174  0.66964525  0.10928814
   0.33036374  0.33035724  0.10929235
   0.66964176  0.66963526  0.10929235
   0.66665683  0.33334217  0.10896672
   0.33332490  0.66667410  0.11147188
   0.25107706  0.25152934  0.45962347
   0.41776128  0.08272737  0.45947555
   0.24996027  0.75003873  0.45937627
   0.41657629  0.58342271  0.45953841
   0.74898853  0.25101047  0.45957689
   0.91651206  0.08348694  0.45971531
   0.74846966  0.74892194  0.45962347
   0.91727163  0.58223772  0.45947555
Direct configuration=    18
   0.66970280 -0.00001091  0.10927859
   0.33035376  0.00001174  0.10930235
   0.00001091  0.33029620  0.10927859
  -0.00001174  0.66964524  0.10930235
   0.33036377  0.33035727  0.10930657
   0.66964173  0.66963523  0.10930657
   0.66665683  0.33334217  0.10898160
   0.33332489  0.66667411  0.11148821
   0.25107754  0.25152975  0.45960901
   0.41776152  0.08272729  0.45946090
   0.24996038  0.75003862  0.45936148
   0.41657612  0.58342288  0.45952384
   0.74898832  0.25101068  0.45956238
   0.91651187  0.08348713  0.45970098
   0.74846925  0.74892146  0.45960901
   0.91727171  0.58223748  0.45946090
Direct configuration=    19
   0.66970287 -0.00001097  0.10930694
   0.33035380  0.00001173  0.10933077
   0.00001097  0.33029613  0.10930694
  -0.00001173  0.66964520  0.10933077
   0.33036383  0.33035733  0.10933500
   0.66964167  0.66963517  0.10933500
   0.66665682  0.33334218  0.10901136
   0.33332487  0.66667413  0.11152087
   0.25107849  0.25153057  0.45958011
   0.41776199  0.08272711  0.45943159
   0.24996061  0.75003839  0.45933190
   0.41657579  0.58342321  0.45949470
   0.74898788  0.25101112  0.45953334
   0.91651149  0.08348751  0.45967233
   0.74846843  0.74892051  0.45958011
   0.91727189  0.58223701  0.45943159
Direct configuration=    20
   0.66970300 -0.00001108  0.10936365
   0.33035388  0.00001171  0.10938762
   0.00001108  0.33029600  0.10936365
  -0.00001171  0.66964512  0.10938762
   0.33036395  0.33035745  0.10939187
   0.66964155  0.66963505  0.10939187
   0.66665681  0.33334219  0.10907089
   0.33332483  0.66667417  0.11158618
   0.25108040  0.25153221  0.45952230
   0.41776293  0.08272677  0.45937297
   0.24996106  0.75003794  0.45927274
   0.41657513  0.58342387  0.45943642
   0.74898701  0.25101199  0.45947528
   0.91651073  0.08348827  0.45961502
   0.74846679  0.74891860  0.45952230
   0.91727223  0.58223607  0.45937297
Direct configuration=    21
   0.66970327 -0.00001130  0.10947705
   0.33035402  0.00001167  0.10950130
   0.00001130  0.33029573  0.10947705
  -0.00001167  0.66964498  0.10950130
   0.33036418  0.33035769  0.10950560
   0.66964131  0.66963482  0.10950560
   0.66665678  0.33334222  0.10918995
   0.33332474  0.66667426  0.11171681
   0.25108421  0.25153548  0.45940668
   0.41776482  0.08272608  0.45925573
   0.24996195  0.75003705  0.45915442
   0.41657381  0.58342519  0.45931986
   0.74898528  0.25101372  0.45935915
   0.91650921  0.08348979  0.45950041
   0.74846352  0.74891479  0.45940668
   0.91727292  0.58223418  0.45925573
Direct configuration=    22
   0.66970380 -0.00001174  0.10970385
   0.33035432  0.00001158  0.10972867
   0.00001174  0.33029520  0.10970385
  -0.00001158  0.66964468  0.10972867
   0.33036466  0.33035816  0.10973307
   0.66964084  0.66963434  0.10973307
   0.66665672  0.33334228  0.10942806
   0.33332456  0.66667444  0.11197806
   0.25109184  0.25154202  0.45917545
   0.41776860  0.08272470  0.45902126
   0.24996374  0.75003526  0.45891779
   0.41657117  0.58342783  0.45908674
   0.74898180  0.25101720  0.45912689
   0.91650617  0.08349283  0.45927118
   0.74845698  0.74890716  0.45917545
   0.91727430  0.58223040  0.45902126
Direct configuration=    23
   0.66970487 -0.00001263  0.11015745
   0.33035492  0.00001142  0.11018341
   0.00001263  0.33029413  0.11015745
  -0.00001142  0.66964408  0.11018341
   0.33036561  0.33035911  0.11018801
   0.66963989  0.66963339  0.11018801
   0.66665661  0.33334239  0.10990429
   0.33332420  0.66667480  0.11250057
   0.25110710  0.25155511  0.45871298
   0.41777616  0.08272193  0.45855232
   0.24996733  0.75003167  0.45844452
   0.41656588  0.58343312  0.45862050
   0.74897485  0.25102415  0.45866238
   0.91650008  0.08349892  0.45881272
   0.74844389  0.74889190  0.45871298
   0.91727707  0.58222284  0.45855232
Direct configuration=    24
   0.66970701 -0.00001439  0.11106465
   0.33035611  0.00001108  0.11109290
   0.00001439  0.33029199  0.11106465
  -0.00001108  0.66964289  0.11109290
   0.33036751  0.33036102  0.11109789
   0.66963798  0.66963149  0.11109789
   0.66665638  0.33334262  0.11085675
   0.33332349  0.66667551  0.11354558
   0.25113761  0.25158128  0.45778805
   0.41779128  0.08271641  0.45761443
   0.24997449  0.75002451  0.45749799
   0.41655531  0.58344369  0.45768802
   0.74896096  0.25103804  0.45773334
   0.91648790  0.08351110  0.45789581
   0.74841772  0.74886139  0.45778805
   0.91728259  0.58220772  0.45761443
Direct configuration=    25
   0.66971128 -0.00001793  0.11287906
   0.33035849  0.00001041  0.11291186
   0.00001793  0.33028772  0.11287906
  -0.00001041  0.66964051  0.11291186
   0.33037132  0.33036482  0.11291764
   0.66963418  0.66962768  0.11291764
   0.66665593  0.33334307  0.11276167
   0.33332208  0.66667692  0.11563561
   0.25119864  0.25163362  0.45593818
   0.41782152  0.08270536  0.45573866
   0.24998882  0.75001018  0.45560492
   0.41653416  0.58346484  0.45582305
   0.74893317  0.25106583  0.45587528
   0.91646355  0.08353545  0.45606199
   0.74836538  0.74880036  0.45593818
   0.91729364  0.58217748  0.45573866
Direct configuration=    26
   0.66971984 -0.00002499  0.11650788
   0.33036325  0.00000908  0.11654980
   0.00002499  0.33027916  0.11650788
  -0.00000908  0.66963575  0.11654980
   0.33037893  0.33037242  0.11655715
   0.66962658  0.66962007  0.11655715
   0.66665502  0.33334398  0.11657151
   0.33331924  0.66667976  0.11981567
   0.25132069  0.25173830  0.45223844
   0.41788200  0.08268327  0.45198711
   0.25001748  0.74998152  0.45181879
   0.41649187  0.58350713  0.45209312
   0.74887759  0.25112141  0.45215915
   0.91641484  0.08358416  0.45239434
   0.74826070  0.74867831  0.45223844
   0.91731573  0.58211700  0.45198711
Direct configuration=    27
   0.66973694 -0.00003913  0.12376552
   0.33037278  0.00000641  0.12382566
   0.00003913  0.33026206  0.12376552
  -0.00000641  0.66962622  0.12382566
   0.33039416  0.33038763  0.12383617
   0.66961137  0.66960484  0.12383617
   0.66665320  0.33334580  0.12419118
   0.33331356  0.66668544  0.12817579
   0.25156479  0.25194767  0.44483897
   0.41800295  0.08263908  0.44448401
   0.25007481  0.74992419  0.44424651
   0.41640729  0.58359171  0.44463325
   0.74876642  0.25123258  0.44472689
   0.91631743  0.08368157  0.44505905
   0.74805133  0.74843421  0.44483897
   0.91735992  0.58199605  0.44448401
Direct configuration=    28
   0.66977115 -0.00006740  0.13828080
   0.33039183  0.00000107  0.13837740
   0.00006740  0.33022785  0.13828080
  -0.00000107  0.66960717  0.13837740
   0.33042460  0.33041804  0.13839420
   0.66958096  0.66957440  0.13839420
   0.66664957  0.33334943  0.13943053
   0.33330220  0.66669680  0.14489602
   0.25205300  0.25236641  0.43004002
   0.41824485  0.08255070  0.42947781
   0.25018946  0.74980954  0.42910197
   0.41623812  0.58376088  0.42971352
   0.74854410  0.25145490  0.42986236
   0.91612260  0.08387640  0.43038847
   0.74763259  0.74794600  0.43004002
   0.91744830  0.58175415  0.42947781
Direct configuration=    29
   0.66983957 -0.00012395  0.16731135
   0.33042993 -0.00000960  0.16748087
   0.00012395  0.33015943  0.16731135
   0.00000960  0.66956907  0.16748087
   0.33048550  0.33047887  0.16751027
   0.66952013  0.66951350  0.16751027
   0.66664230  0.33335670  0.16990922
   0.33327949  0.66671951  0.17833650
   0.25302942  0.25320388  0.40044211
   0.41872866  0.08237394  0.39946542
   0.25041875  0.74958025  0.39881289
   0.41589979  0.58409921  0.39987406
   0.74809945  0.25189955  0.40013332
   0.91573295  0.08426605  0.40104731
   0.74679512  0.74696958  0.40044211
   0.91762506  0.58127034  0.39946542
Direct configuration=    30
   0.66980600 -0.00009621  0.15306727
   0.33041124 -0.00000436  0.15320101
   0.00009621  0.33019300  0.15306727
   0.00000436  0.66958776  0.15320101
   0.33045562  0.33044903  0.15322423
   0.66954997  0.66954338  0.15322423
   0.66664586  0.33335314  0.15495460
   0.33329063  0.66670837  0.16192865
   0.25255033  0.25279297  0.41496457
   0.41849128  0.08246067  0.41419125
   0.25030625  0.74969275  0.41367448
   0.41606579  0.58393321  0.41451504
   0.74831762  0.25168138  0.41472012
   0.91592414  0.08407486  0.41544380
   0.74720603  0.74744867  0.41496457
   0.91753833  0.58150772  0.41419125
Direct configuration=    31
   0.66982299 -0.00011025  0.16027579
   0.33042070 -0.00000702  0.16042763
   0.00011025  0.33017601  0.16027579
   0.00000702  0.66957830  0.16042763
   0.33047074  0.33046413  0.16045399
   0.66953487  0.66952826  0.16045399
   0.66664406  0.33335494  0.16252271
   0.33328500  0.66671400  0.17023219
   0.25279278  0.25300092  0.40761517
   0.41861141  0.08241678  0.40673893
   0.25036318  0.74963582  0.40615345
   0.41598178  0.58401722  0.40710566
   0.74820721  0.25179179  0.40733816
   0.91582738  0.08417162  0.40815815
   0.74699808  0.74720622  0.40761517
   0.91758222  0.58138759  0.40673893
Direct configuration=    32
   0.66982835 -0.00011468  0.16255298
   0.33042369 -0.00000785  0.16271055
   0.00011468  0.33017065  0.16255298
   0.00000785  0.66957531  0.16271055
   0.33047552  0.33046890  0.16273789
   0.66953010  0.66952348  0.16273789
   0.66664349  0.33335551  0.16491350
   0.33328321  0.66671579  0.17285531
   0.25286938  0.25306661  0.40529347
   0.41864936  0.08240292  0.40438471
   0.25038117  0.74961783  0.40377754
   0.41595524  0.58404376  0.40476502
   0.74817233  0.25182667  0.40500617
   0.91579682  0.08420218  0.40585659
   0.74693239  0.74712962  0.40529347
   0.91759608  0.58134964  0.40438471
Direct configuration=    33
   0.66975212 -0.00018402  0.16833663
   0.33045194 -0.00006651  0.16850784
   0.00018402  0.33024688  0.16833663
   0.00006651  0.66954706  0.16850784
   0.33049862  0.33052716  0.16853724
   0.66947184  0.66950038  0.16853724
   0.66664018  0.33335882  0.17093987
   0.33327384  0.66672516  0.17946556
   0.25234302  0.25241088  0.39939301
   0.41817023  0.08265127  0.39843614
   0.25034790  0.74965110  0.39779399
   0.41603817  0.58396083  0.39883741
   0.74859489  0.25140411  0.39909161
   0.91589054  0.08410846  0.39998317
   0.74758812  0.74765598  0.39939301
   0.91734773  0.58182877  0.39843614
Direct configuration=    34
   0.66977413 -0.00016400  0.16666698
   0.33044378 -0.00004958  0.16683425
   0.00016400  0.33022487  0.16666698
   0.00004958  0.66955522  0.16683425
   0.33049195  0.33051034  0.16686306
   0.66948866  0.66950705  0.16686306
   0.66664113  0.33335787  0.16920015
   0.33327654  0.66672246  0.17755728
   0.25249497  0.25260018  0.40109638
   0.41830855  0.08257958  0.40015340
   0.25035751  0.74964149  0.39952135
   0.41601423  0.58398477  0.40054862
   0.74847291  0.25152609  0.40079905
   0.91586348  0.08413552  0.40167873
   0.74739882  0.74750403  0.40109638
   0.91741942  0.58169045  0.40015340
Direct configuration=    35
   0.66969384 -0.00021551  0.16599670
   0.33046726 -0.00009453  0.16616134
   0.00021551  0.33030516  0.16599670
   0.00009453  0.66953174  0.16616134
   0.33050455  0.33054706  0.16618933
   0.66945194  0.66949445  0.16618933
   0.66663358  0.33336542  0.16845516
   0.33326969  0.66672931  0.17673924
   0.25196210  0.25202637  0.40177655
   0.41791836  0.08277311  0.40087374
   0.25028366  0.74971534  0.40026508
   0.41614135  0.58385765  0.40125436
   0.74881905  0.25117995  0.40149317
   0.91600573  0.08399327  0.40233102
   0.74797263  0.74803690  0.40177655
   0.91722589  0.58208064  0.40087374
Direct configuration=    36
   0.66945296 -0.00037002  0.16398585
   0.33053771 -0.00022939  0.16414258
   0.00037002  0.33054604  0.16398585
   0.00022939  0.66946129  0.16414258
   0.33054235  0.33065720  0.16416815
   0.66934180  0.66945665  0.16416815
   0.66661091  0.33338809  0.16622019
   0.33324913  0.66674987  0.17428509
   0.25036347  0.25030493  0.40381707
   0.41674780  0.08335371  0.40303476
   0.25006212  0.74993688  0.40249625
   0.41652270  0.58347630  0.40337158
   0.74985747  0.25014153  0.40357551
   0.91643247  0.08356653  0.40428790
   0.74969407  0.74963553  0.40381707
   0.91664529  0.58325120  0.40303476
Direct configuration=    37
   0.66941797 -0.00039247  0.16369373
   0.33054795 -0.00024898  0.16384931
   0.00039247  0.33058103  0.16369373
   0.00024898  0.66945105  0.16384931
   0.33054784  0.33067320  0.16387453
   0.66932580  0.66945116  0.16387453
   0.66660762  0.33339138  0.16589550
   0.33324614  0.66675286  0.17392857
   0.25013123  0.25005485  0.40411350
   0.41657775  0.08343805  0.40334869
   0.25002993  0.74996907  0.40282038
   0.41657810  0.58342090  0.40367916
   0.75000833  0.24999067  0.40387801
   0.91649446  0.08350454  0.40457218
   0.74994415  0.74986777  0.40411350
   0.91656095  0.58342125  0.40334869
Direct configuration=    38
   0.66937756 -0.00040229  0.16371231
   0.33056956 -0.00026650  0.16386682
   0.00040229  0.33062144  0.16371231
   0.00026650  0.66942944  0.16386682
   0.33055939  0.33068589  0.16389096
   0.66931311  0.66943961  0.16389096
   0.66660592  0.33339308  0.16584393
   0.33324719  0.66675181  0.17387358
   0.25004686  0.25005745  0.40409152
   0.41660483  0.08340952  0.40337255
   0.24998580  0.75001320  0.40287347
   0.41661913  0.58337987  0.40368517
   0.74997442  0.25002458  0.40386973
   0.91655607  0.08344293  0.40451914
   0.74994155  0.74995214  0.40409152
   0.91658948  0.58339417  0.40337255
Direct configuration=    39
   0.66925631 -0.00043174  0.16376804
   0.33063439 -0.00031905  0.16391934
   0.00043174  0.33074269  0.16376804
   0.00031905  0.66936461  0.16391934
   0.33059405  0.33072395  0.16394024
   0.66927505  0.66940495  0.16394024
   0.66660082  0.33339818  0.16568920
   0.33325036  0.66674864  0.17370861
   0.24979375  0.25006524  0.40402559
   0.41668608  0.08332390  0.40344413
   0.24985340  0.75014560  0.40303273
   0.41674221  0.58325679  0.40370321
   0.74987271  0.25012629  0.40384487
   0.91674090  0.08325810  0.40436003
   0.74993376  0.75020525  0.40402559
   0.91667510  0.58331292  0.40344413
Direct configuration=    40
   0.66901382 -0.00049066  0.16387950
   0.33076405 -0.00042416  0.16402439
   0.00049066  0.33098518  0.16387950
   0.00042416  0.66923495  0.16402439
   0.33066337  0.33080008  0.16403881
   0.66919892  0.66933563  0.16403881
   0.66659062  0.33340838  0.16537973
   0.33325669  0.66674231  0.17337868
   0.24928753  0.25008084  0.40389373
   0.41684856  0.08315268  0.40358727
   0.24958861  0.75041039  0.40335125
   0.41698837  0.58301063  0.40373929
   0.74966928  0.25032972  0.40379516
   0.91711054  0.08288846  0.40404180
   0.74991816  0.75071147  0.40389373
   0.91684632  0.58315044  0.40358727
Direct configuration=    41
   0.66917288 -0.00045201  0.16380639
   0.33067900 -0.00035521  0.16395548
   0.00045201  0.33082612  0.16380639
   0.00035521  0.66932000  0.16395548
   0.33061790  0.33075014  0.16397416
   0.66924886  0.66938110  0.16397416
   0.66659731  0.33340169  0.16558273
   0.33325254  0.66674646  0.17359511
   0.24961959  0.25007061  0.40398023
   0.41674198  0.08326500  0.40349337
   0.24976230  0.75023670  0.40314231
   0.41682690  0.58317210  0.40371562
   0.74980272  0.25019628  0.40382777
   0.91686807  0.08313093  0.40425054
   0.74992839  0.75037941  0.40398023
   0.91673400  0.58325702  0.40349337
Direct configuration=    42
   0.66915312 -0.00045277  0.16382744
   0.33069353 -0.00036157  0.16397547
   0.00045277  0.33084588  0.16382744
   0.00036157  0.66930547  0.16397547
   0.33062379  0.33075113  0.16399287
   0.66924787  0.66937521  0.16399287
   0.66659498  0.33340402  0.16552666
   0.33325574  0.66674326  0.17353632
   0.24962690  0.25005813  0.40395750
   0.41672907  0.08327760  0.40351624
   0.24977120  0.75022780  0.40319421
   0.41681472  0.58318428  0.40372081
   0.74981367  0.25018533  0.40381906
   0.91685845  0.08314055  0.40419725
   0.74994087  0.75037210  0.40395750
   0.91672140  0.58326993  0.40351624
Direct configuration=    43
   0.66909384 -0.00045505  0.16389059
   0.33073714 -0.00038064  0.16403542
   0.00045505  0.33090516  0.16389059
   0.00038064  0.66926186  0.16403542
   0.33064147  0.33075410  0.16404901
   0.66924490  0.66935753  0.16404901
   0.66658800  0.33341100  0.16535843
   0.33326536  0.66673364  0.17335995
   0.24964881  0.25002070  0.40388932
   0.41669035  0.08331542  0.40358483
   0.24979789  0.75020111  0.40334991
   0.41677818  0.58322082  0.40373637
   0.74984653  0.25015247  0.40379292
   0.91682960  0.08316940  0.40403739
   0.74997830  0.75035019  0.40388932
   0.91668358  0.58330865  0.40358483
Direct configuration=    44
   0.66897528 -0.00045961  0.16401689
   0.33082437 -0.00041878  0.16415533
   0.00045961  0.33102372  0.16401689
   0.00041878  0.66917463  0.16415533
   0.33067682  0.33076002  0.16416130
   0.66923898  0.66932218  0.16416130
   0.66657404  0.33342496  0.16502199
   0.33328461  0.66671439  0.17300722
   0.24969263  0.24994583  0.40375296
   0.41661291  0.08339104  0.40372202
   0.24985127  0.75014773  0.40366130
   0.41670511  0.58329389  0.40376750
   0.74991223  0.25008677  0.40374064
   0.91677190  0.08322710  0.40371765
   0.75005317  0.75030637  0.40375296
   0.91660796  0.58338609  0.40372202
Direct configuration=    45
   0.66873816 -0.00046873  0.16426950
   0.33099882 -0.00049505  0.16439516
   0.00046873  0.33126084  0.16426950
   0.00049505  0.66900018  0.16439516
   0.33074754  0.33077188  0.16438588
   0.66922712  0.66925146  0.16438588
   0.66654611  0.33345289  0.16434911
   0.33332309  0.66667591  0.17230175
   0.24978028  0.24979609  0.40348024
   0.41645803  0.08354230  0.40399640
   0.24995802  0.75004098  0.40428408
   0.41655897  0.58344003  0.40382976
   0.75004365  0.24995535  0.40363609
   0.91665649  0.08334251  0.40307819
   0.75020291  0.75021872  0.40348024
   0.91645670  0.58354097  0.40399640
Direct configuration=    46
   0.66878889 -0.00046678  0.16421547
   0.33096150 -0.00047873  0.16434386
   0.00046678  0.33121011  0.16421547
   0.00047873  0.66903750  0.16434386
   0.33073241  0.33076934  0.16433784
   0.66922966  0.66926659  0.16433784
   0.66655208  0.33344692  0.16449304
   0.33331486  0.66668414  0.17245266
   0.24976153  0.24982812  0.40353858
   0.41649116  0.08350995  0.40393771
   0.24993519  0.75006381  0.40415087
   0.41659023  0.58340877  0.40381644
   0.75001554  0.24998346  0.40365846
   0.91668118  0.08331782  0.40321498
   0.75017088  0.75023747  0.40353858
   0.91648905  0.58350784  0.40393771
Direct configuration=    47
   0.66900514 -0.00038378  0.16428173
   0.33087777 -0.00038309  0.16440870
   0.00038378  0.33099386  0.16428173
   0.00038309  0.66912123  0.16440870
   0.33066369  0.33064652  0.16439705
   0.66935248  0.66933531  0.16439705
   0.66654809  0.33345091  0.16432030
   0.33333922  0.66665978  0.17228208
   0.24991195  0.25001269  0.40350855
   0.41656694  0.08345300  0.40395691
   0.24992488  0.75007412  0.40420330
   0.41659715  0.58340185  0.40382012
   0.74996387  0.25003513  0.40364779