  16  16   0  16
  0.2059081E+02  0.5036000E-09  0.5036000E-09  0.1500000E-08  0.5000000E-15
  1.000000000000000E-004
  CAR 
 Lattice                                 
      9.77987203    -21.32300586  301     -0.95970337      1.00000000
    -21.323  0.0000E+00  0.0000E+00  0.0000E+00  0.0000E+00
    -21.219  0.0000E+00  0.0000E+00  0.0000E+00  0.0000E+00
    -21.116  0.0000E+00  0.0000E+00  0.0000E+00  0.0000E+00
    -21.012  0.0000E+00  0.0000E+00  0.0000E+00  0.0000E+00
    -20.908  0.0000E+00  0.0000E+00  0.0000E+00  0.0000E+00
    -20.805  0.0000E+00  0.0000E+00  0.0000E+00  0.0000E+00
    -20.701  0.0000E+00  0.0000E+00  0.0000E+00  0.0000E+00
    -20.597  0.0000E+00  0.0000E+00  0.0000E+00  0.0000E+00
    -20.494  0.2905E-19  0.2905E-19  0.3012E-20  0.3012E-20
    -20.390  0.3072E-14  0.3073E-14  0.3185E-15  0.3186E-15
    -20.286  0.3148E-10  0.3148E-10  0.3264E-11  0.3264E-11
    -20.183  0.4417E-07  0.4417E-07  0.4582E-08  0.4583E-08
    -20.079  0.9180E-05  0.9180E-05  0.9563E-06  0.9563E-06
    -19.975  0.3119E-03  0.3119E-03  0.3330E-04  0.3330E-04
    -19.872  0.2121E-02  0.2121E-02  0.2532E-03  0.2532E-03
    -19.768  0.4395E-02  0.4395E-02  0.7089E-03  0.7089E-03
    -19.664  0.4890E-02  0.4890E-02  0.1216E-02  0.1216E-02
    -19.561  0.5157E-02  0.5157E-02  0.1751E-02  0.1751E-02
    -19.457  0.4627E-02  0.4627E-02  0.2230E-02  0.2230E-02
    -19.353  0.5666E-02  0.5666E-02  0.2818E-02  0.2818E-02
    -19.249  0.4264E-02  0.4264E-02  0.3260E-02  0.3260E-02
    -19.146  0.5228E-02  0.5228E-02  0.3802E-02  0.3802E-02
    -19.042  0.5911E-02  0.5911E-02  0.4415E-02  0.4415E-02
    -18.938  0.3650E-02  0.3650E-02  0.4793E-02  0.4793E-02
    -18.835  0.5279E-02  0.5280E-02  0.5340E-02  0.5340E-02
    -18.731  0.6356E-02  0.6356E-02  0.5999E-02  0.5999E-02
    -18.627  0.4455E-02  0.4454E-02  0.6461E-02  0.6461E-02
    -18.524  0.3350E-02  0.3350E-02  0.6808E-02  0.6808E-02
    -18.420  0.6700E-02  0.6700E-02  0.7503E-02  0.7503E-02
    -18.316  0.6035E-02  0.6035E-02  0.8129E-02  0.8129E-02
    -18.213  0.4239E-02  0.4239E-02  0.8568E-02  0.8568E-02
    -18.109  0.3461E-02  0.3461E-02  0.8927E-02  0.8927E-02
    -18.005  0.7374E-02  0.7374E-02  0.9691E-02  0.9691E-02
    -17.902  0.1247E-01  0.1247E-01  0.1098E-01  0.1098E-01
    -17.798  0.1144E-01  0.1144E-01  0.1217E-01  0.1217E-01
    -17.694  0.1119E-01  0.1119E-01  0.1333E-01  0.1333E-01
    -17.591  0.1313E-01  0.1313E-01  0.1469E-01  0.1469E-01
    -17.487  0.1695E-01  0.1695E-01  0.1645E-01  0.1645E-01
    -17.383  0.2118E-01  0.2118E-01  0.1864E-01  0.1864E-01
    -17.280  0.1927E-01  0.1927E-01  0.2064E-01  0.2064E-01
    -17.176  0.8378E-02  0.8378E-02  0.2151E-01  0.2151E-01
    -17.072  0.4666E-02  0.4666E-02  0.2200E-01  0.2200E-01
    -16.969  0.7186E-02  0.7186E-02  0.2274E-01  0.2274E-01
    -16.865  0.6794E-02  0.6794E-02  0.2344E-01  0.2344E-01
    -16.761  0.5573E-02  0.5573E-02  0.2402E-01  0.2402E-01
    -16.658  0.4616E-02  0.4616E-02  0.2450E-01  0.2450E-01
    -16.554  0.2798E-02  0.2798E-02  0.2479E-01  0.2479E-01
    -16.450  0.4065E-02  0.4065E-02  0.2521E-01  0.2521E-01
    -16.347  0.9213E-02  0.9213E-02  0.2617E-01  0.2617E-01
    -16.243  0.6473E-02  0.6472E-02  0.2684E-01  0.2684E-01
    -16.139  0.4791E-02  0.4791E-02  0.2734E-01  0.2734E-01
    -16.036  0.4292E-02  0.4292E-02  0.2778E-01  0.2778E-01
    -15.932  0.4240E-02  0.4240E-02  0.2822E-01  0.2822E-01
    -15.828  0.3665E-02  0.3665E-02  0.2860E-01  0.2860E-01
    -15.724  0.8813E-02  0.8813E-02  0.2951E-01  0.2951E-01
    -15.621  0.1332E-01  0.1332E-01  0.3089E-01  0.3089E-01
    -15.517  0.1398E-01  0.1398E-01  0.3234E-01  0.3234E-01
    -15.413  0.1621E-01  0.1621E-01  0.3402E-01  0.3402E-01
    -15.310  0.1429E-01  0.1429E-01  0.3551E-01  0.3551E-01
    -15.206  0.1204E-01  0.1204E-01  0.3675E-01  0.3675E-01
    -15.102  0.1375E-01  0.1375E-01  0.3818E-01  0.3818E-01
    -14.999  0.1842E-01  0.1842E-01  0.4009E-01  0.4009E-01
    -14.895  0.1540E-01  0.1540E-01  0.4169E-01  0.4169E-01
    -14.791  0.1350E-01  0.1350E-01  0.4309E-01  0.4309E-01
    -14.688  0.1021E-01  0.1021E-01  0.4414E-01  0.4414E-01
    -14.584  0.9980E-02  0.9980E-02  0.4518E-01  0.4518E-01
    -14.480  0.1525E-01  0.1525E-01  0.4676E-01  0.4676E-01
    -14.377  0.2055E-01  0.2055E-01  0.4889E-01  0.4889E-01
    -14.273  0.1503E-01  0.1503E-01  0.5045E-01  0.5045E-01
    -14.169  0.9538E-02  0.9538E-02  0.5144E-01  0.5144E-01
    -14.066  0.7677E-02  0.7677E-02  0.5223E-01  0.5223E-01
    -13.962  0.7936E-02  0.7936E-02  0.5306E-01  0.5306E-01
    -13.858  0.8002E-02  0.8002E-02  0.5389E-01  0.5389E-01
    -13.755  0.6042E-02  0.6042E-02  0.5451E-01  0.5451E-01
    -13.651  0.3523E-02  0.3523E-02  0.5488E-01  0.5488E-01
    -13.547  0.4658E-02  0.4658E-02  0.5536E-01  0.5536E-01
    -13.444  0.4414E-02  0.4414E-02  0.5582E-01  0.5582E-01
    -13.340  0.5989E-02  0.5989E-02  0.5644E-01  0.5644E-01
    -13.236  0.5893E-02  0.5893E-02  0.5705E-01  0.5705E-01
    -13.133  0.6291E-02  0.6291E-02  0.5770E-01  0.5770E-01
    -13.029  0.8017E-02  0.8017E-02  0.5853E-01  0.5853E-01
    -12.925  0.7267E-02  0.7267E-02  0.5929E-01  0.5929E-01
    -12.822  0.8561E-02  0.8561E-02  0.6017E-01  0.6017E-01
    -12.718  0.6051E-02  0.6050E-02  0.6080E-01  0.6080E-01
    -12.614  0.6608E-02  0.6608E-02  0.6149E-01  0.6149E-01
    -12.511  0.5489E-02  0.5489E-02  0.6206E-01  0.6206E-01
    -12.407  0.3819E-02  0.3819E-02  0.6245E-01  0.6245E-01
    -12.303  0.8526E-02  0.8526E-02  0.6334E-01  0.6334E-01
    -12.199  0.7157E-02  0.7157E-02  0.6408E-01  0.6408E-01
    -12.096  0.6593E-02  0.6593E-02  0.6476E-01  0.6476E-01
    -11.992  0.1156E-01  0.1156E-01  0.6596E-01  0.6596E-01
    -11.888  0.1619E-01  0.1619E-01  0.6764E-01  0.6764E-01
    -11.785  0.1539E-01  0.1539E-01  0.6923E-01  0.6923E-01
    -11.681  0.1454E-01  0.1454E-01  0.7074E-01  0.7074E-01
    -11.577  0.1571E-01  0.1571E-01  0.7237E-01  0.7237E-01
    -11.474  0.1599E-01  0.1599E-01  0.7403E-01  0.7403E-01
    -11.370  0.8676E-02  0.8676E-02  0.7493E-01  0.7493E-01
    -11.266  0.9008E-02  0.9008E-02  0.7586E-01  0.7586E-01
    -11.163  0.1138E-01  0.1138E-01  0.7704E-01  0.7704E-01
    -11.059  0.1224E-01  0.1224E-01  0.7831E-01  0.7831E-01
    -10.955  0.6749E-02  0.6749E-02  0.7901E-01  0.7901E-01
    -10.852  0.5450E-02  0.5450E-02  0.7957E-01  0.7957E-01
    -10.748  0.1417E-01  0.1417E-01  0.8104E-01  0.8104E-01
    -10.644  0.1823E-01  0.1823E-01  0.8293E-01  0.8293E-01
    -10.541  0.9679E-02  0.9679E-02  0.8394E-01  0.8394E-01
    -10.437  0.5895E-02  0.5895E-02  0.8455E-01  0.8455E-01
    -10.333  0.1056E-01  0.1056E-01  0.8564E-01  0.8564E-01
    -10.230  0.1910E-01  0.1910E-01  0.8762E-01  0.8762E-01
    -10.126  0.1674E-01  0.1674E-01  0.8936E-01  0.8936E-01
    -10.022  0.8806E-02  0.8806E-02  0.9027E-01  0.9027E-01
     -9.919  0.8803E-02  0.8803E-02  0.9118E-01  0.9118E-01
     -9.815  0.9140E-02  0.9140E-02  0.9213E-01  0.9213E-01
     -9.711  0.1194E-01  0.1194E-01  0.9337E-01  0.9337E-01
     -9.608  0.9407E-02  0.9407E-02  0.9434E-01  0.9434E-01
     -9.504  0.1076E-01  0.1076E-01  0.9546E-01  0.9546E-01
     -9.400  0.9500E-02  0.9500E-02  0.9645E-01  0.9645E-01
     -9.297  0.9590E-02  0.9590E-02  0.9744E-01  0.9744E-01
     -9.193  0.9569E-02  0.9569E-02  0.9843E-01  0.9843E-01
     -9.089  0.3289E-02  0.3288E-02  0.9877E-01  0.9877E-01
     -8.986  0.4532E-02  0.4532E-02  0.9924E-01  0.9924E-01
     -8.882  0.1286E-01  0.1286E-01  0.1006E+00  0.1006E+00
     -8.778  0.1874E-01  0.1874E-01  0.1025E+00  0.1025E+00
     -8.675  0.1664E-01  0.1664E-01  0.1042E+00  0.1042E+00
     -8.571  0.8732E-02  0.8732E-02  0.1051E+00  0.1051E+00
     -8.467  0.8549E-02  0.8549E-02  0.1060E+00  0.1060E+00
     -8.363  0.9859E-02  0.9859E-02  0.1071E+00  0.1071E+00
     -8.260  0.1758E-01  0.1758E-01  0.1089E+00  0.1089E+00
     -8.156  0.2403E-01  0.2403E-01  0.1114E+00  0.1114E+00
     -8.052  0.2298E-01  0.2298E-01  0.1138E+00  0.1138E+00
     -7.949  0.1624E-01  0.1624E-01  0.1154E+00  0.1154E+00
     -7.845  0.1347E-01  0.1347E-01  0.1168E+00  0.1168E+00
     -7.741  0.1401E-01  0.1401E-01  0.1183E+00  0.1183E+00
     -7.638  0.2485E-01  0.2485E-01  0.1209E+00  0.1209E+00
     -7.534  0.2746E-01  0.2746E-01  0.1237E+00  0.1237E+00
     -7.430  0.2131E-01  0.2131E-01  0.1259E+00  0.1259E+00
     -7.327  0.2126E-01  0.2126E-01  0.1281E+00  0.1281E+00
     -7.223  0.2392E-01  0.2392E-01  0.1306E+00  0.1306E+00
     -7.119  0.2365E-01  0.2365E-01  0.1331E+00  0.1331E+00
     -7.016  0.2684E-01  0.2684E-01  0.1358E+00  0.1358E+00
     -6.912  0.2295E-01  0.2295E-01  0.1382E+00  0.1382E+00
     -6.808  0.1916E-01  0.1916E-01  0.1402E+00  0.1402E+00
     -6.705  0.2642E-01  0.2642E-01  0.1429E+00  0.1429E+00
     -6.601  0.2483E-01  0.2483E-01  0.1455E+00  0.1455E+00
     -6.497  0.2226E-01  0.2226E-01  0.1478E+00  0.1478E+00
     -6.394  0.2462E-01  0.2462E-01  0.1504E+00  0.1504E+00
     -6.290  0.2386E-01  0.2386E-01  0.1528E+00  0.1528E+00
     -6.186  0.2337E-01  0.2337E-01  0.1553E+00  0.1553E+00
     -6.083  0.1837E-01  0.1837E-01  0.1572E+00  0.1572E+00
     -5.979  0.1732E-01  0.1732E-01  0.1590E+00  0.1590E+00
     -5.875  0.2081E-01  0.2081E-01  0.1611E+00  0.1611E+00
     -5.772  0.2581E-01  0.2581E-01  0.1638E+00  0.1638E+00
     -5.668  0.2045E-01  0.2045E-01  0.1659E+00  0.1659E+00
     -5.564  0.1997E-01  0.1997E-01  0.1680E+00  0.1680E+00
     -5.461  0.2246E-01  0.2246E-01  0.1703E+00  0.1703E+00
     -5.357  0.2711E-01  0.2711E-01  0.1731E+00  0.1731E+00
     -5.253  0.2724E-01  0.2724E-01  0.1760E+00  0.1760E+00
     -5.150  0.1641E-01  0.1641E-01  0.1777E+00  0.1777E+00
     -5.046  0.1096E-01  0.1096E-01  0.1788E+00  0.1788E+00
     -4.942  0.1704E-01  0.1704E-01  0.1806E+00  0.1806E+00
     -4.838  0.1934E-01  0.1934E-01  0.1826E+00  0.1826E+00
     -4.735  0.1769E-01  0.1769E-01  0.1844E+00  0.1844E+00
     -4.631  0.1566E-01  0.1566E-01  0.1860E+00  0.1860E+00
     -4.527  0.1650E-01  0.1650E-01  0.1877E+00  0.1877E+00
     -4.424  0.1883E-01  0.1883E-01  0.1897E+00  0.1897E+00
     -4.320  0.2076E-01  0.2076E-01  0.1918E+00  0.1918E+00
     -4.216  0.2522E-01  0.2522E-01  0.1945E+00  0.1945E+00
     -4.113  0.3946E-01  0.3946E-01  0.1985E+00  0.1985E+00
     -4.009  0.3752E-01  0.3752E-01  0.2024E+00  0.2024E+00
     -3.905  0.2740E-01  0.2740E-01  0.2053E+00  0.2053E+00
     -3.802  0.1819E-01  0.1819E-01  0.2072E+00  0.2072E+00
     -3.698  0.1395E-01  0.1395E-01  0.2086E+00  0.2086E+00
     -3.594  0.1504E-01  0.1504E-01  0.2102E+00  0.2102E+00
     -3.491  0.1700E-01  0.1700E-01  0.2119E+00  0.2119E+00
     -3.387  0.2200E-01  0.2200E-01  0.2142E+00  0.2142E+00
     -3.283  0.1664E-01  0.1664E-01  0.2159E+00  0.2159E+00
     -3.180  0.1421E-01  0.1421E-01  0.2174E+00  0.2174E+00
     -3.076  0.1590E-01  0.1590E-01  0.2191E+00  0.2191E+00
     -2.972  0.1921E-01  0.1921E-01  0.2211E+00  0.2211E+00
     -2.869  0.2622E-01  0.2621E-01  0.2238E+00  0.2238E+00
     -2.765  0.1624E-01  0.1624E-01  0.2255E+00  0.2255E+00
     -2.661  0.1313E-01  0.1313E-01  0.2268E+00  0.2268E+00
     -2.558  0.2037E-01  0.2037E-01  0.2289E+00  0.2289E+00
     -2.454  0.2201E-01  0.2201E-01  0.2312E+00  0.2312E+00
     -2.350  0.1880E-01  0.1880E-01  0.2332E+00  0.2332E+00
     -2.247  0.2114E-01  0.2114E-01  0.2354E+00  0.2354E+00
     -2.143  0.1887E-01  0.1887E-01  0.2373E+00  0.2373E+00
     -2.039  0.6903E-02  0.6903E-02  0.2380E+00  0.2380E+00
     -1.936  0.3143E-02  0.3143E-02  0.2383E+00  0.2383E+00
     -1.832  0.7682E-02  0.7682E-02  0.2391E+00  0.2391E+00
     -1.728  0.6384E-02  0.6384E-02  0.2398E+00  0.2398E+00
     -1.625  0.4412E-02  0.4412E-02  0.2403E+00  0.2403E+00
     -1.521  0.7287E-02  0.7287E-02  0.2410E+00  0.2410E+00
     -1.417  0.5934E-02  0.5934E-02  0.2416E+00  0.2416E+00
     -1.313  0.3180E-02  0.3180E-02  0.2420E+00  0.2420E+00
     -1.210  0.9986E-03  0.9987E-03  0.2421E+00  0.2421E+00
     -1.106  0.1169E-03  0.1169E-03  0.2421E+00  0.2421E+00
     -1.002  0.3933E-03  0.3933E-03  0.2421E+00  0.2421E+00
     -0.899  0.2367E-02  0.2367E-02  0.2424E+00  0.2424E+00
     -0.795  0.3905E-02  0.3905E-02  0.2428E+00  0.2428E+00
     -0.691  0.4557E-02  0.4557E-02  0.2432E+00  0.2432E+00
     -0.588  0.9601E-02  0.9601E-02  0.2442E+00  0.2442E+00
     -0.484  0.1067E-01  0.1067E-01  0.2453E+00  0.2453E+00
     -0.380  0.9500E-02  0.9500E-02  0.2463E+00  0.2463E+00
     -0.277  0.1234E-01  0.1234E-01  0.2476E+00  0.2476E+00
     -0.173  0.1167E-01  0.1167E-01  0.2488E+00  0.2488E+00
     -0.069  0.7268E-02  0.7268E-02  0.2496E+00  0.2496E+00
      0.034  0.3000E-02  0.3000E-02  0.2499E+00  0.2499E+00
      0.138  0.9797E-03  0.9797E-03  0.2500E+00  0.2500E+00
      0.242  0.9592E-03  0.9592E-03  0.2501E+00  0.2501E+00
      0.345  0.5049E-02  0.5049E-02  0.2506E+00  0.2506E+00
      0.449  0.9885E-02  0.9885E-02  0.2516E+00  0.2516E+00
      0.553  0.8400E-02  0.8400E-02  0.2525E+00  0.2525E+00
      0.656  0.3803E-02  0.3803E-02  0.2529E+00  0.2529E+00
      0.760  0.5547E-02  0.5547E-02  0.2535E+00  0.2535E+00
      0.864  0.1158E-01  0.1158E-01  0.2547E+00  0.2547E+00
      0.967  0.1304E-01  0.1304E-01  0.2560E+00  0.2560E+00
      1.071  0.1196E-01  0.1196E-01  0.2573E+00  0.2573E+00
      1.175  0.5941E-02  0.5941E-02  0.2579E+00  0.2579E+00
      1.278  0.4508E-02  0.4508E-02  0.2583E+00  0.2583E+00
      1.382  0.5476E-02  0.5476E-02  0.2589E+00  0.2589E+00
      1.486  0.5011E-02  0.5011E-02  0.2594E+00  0.2594E+00
      1.589  0.6024E-02  0.6024E-02  0.2601E+00  0.2601E+00
      1.693  0.1001E-01  0.1001E-01  0.2611E+00  0.2611E+00
      1.797  0.1042E-01  0.1042E-01  0.2622E+00  0.2622E+00
      1.900  0.4570E-02  0.4570E-02  0.2627E+00  0.2627E+00
      2.004  0.2304E-02  0.2304E-02  0.2629E+00  0.2629E+00
      2.108  0.6460E-02  0.6460E-02  0.2636E+00  0.2636E+00
      2.212  0.1518E-01  0.1518E-01  0.2651E+00  0.2651E+00
      2.315  0.1530E-01  0.1530E-01  0.2667E+00  0.2667E+00
      2.419  0.1155E-01  0.1155E-01  0.2679E+00  0.2679E+00
      2.523  0.1134E-01  0.1134E-01  0.2691E+00  0.2691E+00
      2.626  0.1205E-01  0.1205E-01  0.2703E+00  0.2703E+00
      2.730  0.1139E-01  0.1140E-01  0.2715E+00  0.2715E+00
      2.834  0.8380E-02  0.8384E-02  0.2724E+00  0.2724E+00
      2.937  0.7299E-02  0.7305E-02  0.2731E+00  0.2732E+00
      3.041  0.1221E-01  0.1221E-01  0.2744E+00  0.2744E+00
      3.145  0.1333E-01  0.1333E-01  0.2758E+00  0.2758E+00
      3.248  0.1352E-01  0.1353E-01  0.2772E+00  0.2772E+00
      3.352  0.1280E-01  0.1279E-01  0.2785E+00  0.2785E+00
      3.456  0.8258E-02  0.8259E-02  0.2794E+00  0.2794E+00
      3.559  0.1009E-01  0.1009E-01  0.2804E+00  0.2804E+00
      3.663  0.1250E-01  0.1250E-01  0.2817E+00  0.2817E+00
      3.767  0.1053E-01  0.1053E-01  0.2828E+00  0.2828E+00
      3.870  0.1126E-01  0.1126E-01  0.2840E+00  0.2840E+00
      3.974  0.1710E-01  0.1710E-01  0.2858E+00  0.2858E+00
      4.078  0.1703E-01  0.1702E-01  0.2875E+00  0.2875E+00
      4.181  0.1173E-01  0.1173E-01  0.2887E+00  0.2887E+00
      4.285  0.1554E-01  0.1555E-01  0.2903E+00  0.2903E+00
      4.389  0.1852E-01  0.1852E-01  0.2923E+00  0.2923E+00
      4.492  0.1364E-01  0.1364E-01  0.2937E+00  0.2937E+00
      4.596  0.1250E-01  0.1249E-01  0.2950E+00  0.2950E+00
      4.700  0.1272E-01  0.1273E-01  0.2963E+00  0.2963E+00
      4.803  0.1728E-01  0.1730E-01  0.2981E+00  0.2981E+00
      4.907  0.1834E-01  0.1834E-01  0.3000E+00  0.3000E+00
      5.011  0.1910E-01  0.1909E-01  0.3020E+00  0.3020E+00
      5.114  0.1765E-01  0.1766E-01  0.3038E+00  0.3038E+00
      5.218  0.1634E-01  0.1632E-01  0.3055E+00  0.3055E+00
      5.322  0.1414E-01  0.1414E-01  0.3070E+00  0.3070E+00
      5.425  0.1911E-01  0.1913E-01  0.3089E+00  0.3089E+00
      5.529  0.2009E-01  0.2008E-01  0.3110E+00  0.3110E+00
      5.633  0.1433E-01  0.1433E-01  0.3125E+00  0.3125E+00
      5.736  0.1405E-01  0.1405E-01  0.3140E+00  0.3140E+00
      5.840  0.1735E-01  0.1735E-01  0.3158E+00  0.3158E+00
      5.944  0.2104E-01  0.2103E-01  0.3179E+00  0.3179E+00
      6.048  0.2362E-01  0.2363E-01  0.3204E+00  0.3204E+00
      6.151  0.2943E-01  0.2944E-01  0.3234E+00  0.3235E+00
      6.255  0.2753E-01  0.2752E-01  0.3263E+00  0.3263E+00
      6.359  0.2455E-01  0.2454E-01  0.3288E+00  0.3288E+00
      6.462  0.2102E-01  0.2101E-01  0.3310E+00  0.3310E+00
      6.566  0.1559E-01  0.1559E-01  0.3326E+00  0.3326E+00
      6.670  0.2500E-01  0.2502E-01  0.3352E+00  0.3352E+00
      6.773  0.3453E-01  0.3454E-01  0.3388E+00  0.3388E+00
      6.877  0.2928E-01  0.2927E-01  0.3419E+00  0.3419E+00
      6.981  0.2896E-01  0.2896E-01  0.3449E+00  0.3449E+00
      7.084  0.3261E-01  0.3261E-01  0.3482E+00  0.3482E+00
      7.188  0.3353E-01  0.3354E-01  0.3517E+00  0.3517E+00
      7.292  0.2728E-01  0.2730E-01  0.3545E+00  0.3545E+00
      7.395  0.3475E-01  0.3473E-01  0.3581E+00  0.3581E+00
      7.499  0.3784E-01  0.3784E-01  0.3621E+00  0.3621E+00
      7.603  0.2708E-01  0.2709E-01  0.3649E+00  0.3649E+00
      7.706  0.2726E-01  0.2729E-01  0.3677E+00  0.3677E+00
      7.810  0.2698E-01  0.2697E-01  0.3705E+00  0.3705E+00
      7.914  0.1966E-01  0.1964E-01  0.3725E+00  0.3725E+00
      8.017  0.1223E-01  0.1221E-01  0.3738E+00  0.3738E+00
      8.121  0.6058E-02  0.6043E-02  0.3744E+00  0.3744E+00
      8.225  0.1743E-02  0.1737E-02  0.3746E+00  0.3746E+00
      8.328  0.1480E-02  0.1484E-02  0.3748E+00  0.3748E+00
      8.432  0.1731E-02  0.1730E-02  0.3749E+00  0.3749E+00
      8.536  0.5258E-03  0.5230E-03  0.3750E+00  0.3750E+00
      8.639  0.2557E-04  0.2531E-04  0.3750E+00  0.3750E+00
      8.743  0.1734E-06  0.1707E-06  0.3750E+00  0.3750E+00
      8.847  0.1522E-09  0.1490E-09  0.3750E+00  0.3750E+00
      8.950  0.1659E-13  0.1616E-13  0.3750E+00  0.3750E+00
      9.054  0.0000E+00  0.0000E+00  0.3750E+00  0.3750E+00
      9.158  0.0000E+00  0.0000E+00  0.3750E+00  0.3750E+00
      9.261  0.0000E+00  0.0000E+00  0.3750E+00  0.3750E+00
      9.365  0.0000E+00  0.0000E+00  0.3750E+00  0.3750E+00
      9.469  0.0000E+00  0.0000E+00  0.3750E+00  0.3750E+00
      9.573  0.0000E+00  0.0000E+00  0.3750E+00  0.3750E+00
      9.676  0.0000E+00  0.0000E+00  0.3750E+00  0.3750E+00
      9.780  0.0000E+00  0.0000E+00  0.3750E+00  0.3750E+00
