 ----------------------------------------------------
    OOO  PPPP  EEEEE N   N M   M PPPP
   O   O P   P E     NN  N MM MM P   P
   O   O PPPP  EEEEE N N N M M M PPPP   -- VERSION
   O   O P     E     N  NN M   M P
    OOO  P     EEEEE N   N M   M P
 ----------------------------------------------------
 running   48 mpi-ranks, with    1 threads/rank
 distrk:  each k-point on   48 cores,    1 groups
 distr:  one band on    1 cores,   48 groups
 vasp.6.3.2 27Jun22 (build Dec 22 2022 13:13:19) complex                        
  
 POSCAR found type information on POSCAR B C 
 POSCAR found :  2 types and      15 ions
 Reading from existing POTCAR
 -----------------------------------------------------------------------------
|                                                                             |
|           W    W    AA    RRRRR   N    N  II  N    N   GGGG   !!!           |
|           W    W   A  A   R    R  NN   N  II  NN   N  G    G  !!!           |
|           W    W  A    A  R    R  N N  N  II  N N  N  G       !!!           |
|           W WW W  AAAAAA  RRRRR   N  N N  II  N  N N  G  GGG   !            |
|           WW  WW  A    A  R   R   N   NN  II  N   NN  G    G                |
|           W    W  A    A  R    R  N    N  II  N    N   GGGG   !!!           |
|                                                                             |
|     You use a magnetic or noncollinear calculation, but did not specify     |
|     the initial magnetic moment with the MAGMOM tag. Note that a            |
|     default of 1 will be used for all atoms. This ferromagnetic setup       |
|     may break the symmetry of the crystal, in particular it may rule        |
|     out finding an antiferromagnetic solution. Thence, we recommend         |
|     setting the initial magnetic moment manually or verifying carefully     |
|     that this magnetic setup is desired.                                    |
|                                                                             |
 -----------------------------------------------------------------------------

 scaLAPACK will be used
 Reading from existing POTCAR
 LDA part: xc-table for Pade appr. of Perdew
 POSCAR found type information on POSCAR B C 
 POSCAR found :  2 types and      15 ions
 POSCAR, INCAR and KPOINTS ok, starting setup
 FFT: planning ... GRIDC
 FFT: planning ... GRID_SOFT
 FFT: planning ... GRID
 WAVECAR not read
 entering main loop
       N       E                     dE             d eps       ncg     rms          rms(c)
DAV:   1     0.202298485457E+03    0.20230E+03   -0.25626E+04 14208   0.858E+02
DAV:   2    -0.116238863133E+03   -0.31854E+03   -0.31717E+03 20208   0.162E+02
DAV:   3    -0.129272965358E+03   -0.13034E+02   -0.13019E+02 26832   0.430E+01
DAV:   4    -0.129295295153E+03   -0.22330E-01   -0.22328E-01 19920   0.175E+00
DAV:   5    -0.129295356571E+03   -0.61418E-04   -0.61418E-04 25488   0.904E-02    0.244E+01
DAV:   6    -0.919733789928E+02    0.37322E+02   -0.72589E+01 25584   0.255E+01    0.138E+01
DAV:   7    -0.100427271525E+03   -0.84539E+01   -0.98597E+00 21888   0.101E+01    0.808E+00
DAV:   8    -0.110421941511E+03   -0.99947E+01   -0.87997E+00 24336   0.896E+00    0.433E+00
DAV:   9    -0.117176992476E+03   -0.67551E+01   -0.39130E+00 18576   0.612E+00    0.277E+00
DAV:  10    -0.123489273691E+03   -0.63123E+01   -0.81141E+00 23712   0.706E+00    0.159E+00
DAV:  11    -0.125273186776E+03   -0.17839E+01   -0.28003E+00 25296   0.383E+00    0.991E-01
DAV:  12    -0.125436017790E+03   -0.16283E+00   -0.22878E-01 19680   0.138E+00    0.463E-01
DAV:  13    -0.125463181056E+03   -0.27163E-01   -0.23090E-02 17712   0.556E-01    0.187E-01
DAV:  14    -0.125485599301E+03   -0.22418E-01   -0.60472E-03 20640   0.284E-01    0.838E-02
DAV:  15    -0.125493035084E+03   -0.74358E-02   -0.31128E-03 19104   0.157E-01    0.438E-02
DAV:  16    -0.125494999870E+03   -0.19648E-02   -0.62710E-04 16416   0.808E-02    0.221E-02
DAV:  17    -0.125496247123E+03   -0.12473E-02   -0.17151E-04 14736   0.521E-02    0.170E-02
DAV:  18    -0.125496968076E+03   -0.72095E-03   -0.84419E-05 15936   0.383E-02    0.122E-02
DAV:  19    -0.125497393539E+03   -0.42546E-03   -0.40589E-05 19776   0.247E-02    0.718E-03
DAV:  20    -0.125497448135E+03   -0.54596E-04   -0.21437E-05 22032   0.177E-02    0.436E-03
DAV:  21    -0.125497469131E+03   -0.20996E-04   -0.59059E-06 20880   0.959E-03    0.218E-03
DAV:  22    -0.125497490050E+03   -0.20918E-04   -0.21696E-06 21840   0.552E-03    0.137E-03
DAV:  23    -0.125497504893E+03   -0.14844E-04   -0.16672E-06 21840   0.394E-03    0.718E-04
DAV:  24    -0.125497507895E+03   -0.30023E-05   -0.31376E-07 22704   0.208E-03    0.376E-04
DAV:  25    -0.125497508851E+03   -0.95599E-06   -0.11415E-07 22176   0.111E-03
   1 F= -.12708753E+03 E0= -.12708675E+03  d E =-.127088E+03  mag=    -0.0000
 curvature:   0.00 expect dE= 0.000E+00 dE for cont linesearch  0.000E+00
 trial: gam= 0.00000 g(F)=  0.305E-01 g(S)=  0.000E+00 ort = 0.000E+00 (trialstep = 0.100E+01)
 search vector abs. value=  0.305E-01
 bond charge predicted
       N       E                     dE             d eps       ncg     rms          rms(c)
DAV:   1    -0.125507658680E+03   -0.10151E-01   -0.33536E+00 14208   0.565E+00    0.497E-01
DAV:   2    -0.125498799309E+03    0.88594E-02   -0.67192E-02 26208   0.733E-01    0.219E-01
DAV:   3    -0.125497802905E+03    0.99640E-03   -0.55489E-03 20928   0.208E-01    0.858E-02
DAV:   4    -0.125497759321E+03    0.43584E-04   -0.64461E-04 26544   0.721E-02    0.227E-02
DAV:   5    -0.125497762579E+03   -0.32578E-05   -0.18717E-05 24480   0.137E-02    0.746E-03
DAV:   6    -0.125497762552E+03    0.26864E-07   -0.39696E-06 22320   0.584E-03
   2 F= -.12708719E+03 E0= -.12708641E+03  d E =0.335381E-03  mag=    -0.0000
 trial-energy change:    0.000335  1 .order    0.000272   -0.030471    0.031016
 step:   0.4940(harm=  0.4956)  dis= 0.00773  next Energy=  -127.095045 (dE=-0.752E-02)
 bond charge predicted
       N       E                     dE             d eps       ncg     rms          rms(c)
DAV:   1    -0.125507897393E+03   -0.10135E-01   -0.85875E-01 14208   0.285E+00    0.252E-01
DAV:   2    -0.125505574055E+03    0.23233E-02   -0.17135E-02 26352   0.369E-01    0.110E-01
DAV:   3    -0.125505327223E+03    0.24683E-03   -0.13929E-03 23568   0.105E-01    0.439E-02
DAV:   4    -0.125505316305E+03    0.10918E-04   -0.15795E-04 22320   0.357E-02    0.112E-02
DAV:   5    -0.125505317075E+03   -0.77065E-06   -0.52982E-06 23136   0.725E-03
   3 F= -.12709504E+03 E0= -.12709426E+03  d E =-.751312E-02  mag=    -0.0000
 curvature:  -0.25 expect dE=-0.191E-02 dE for cont linesearch -0.560E-07
 trial: gam= 0.24985 g(F)=  0.770E-02 g(S)=  0.000E+00 ort = 0.830E-04 (trialstep = 0.899E+00)
 search vector abs. value=  0.964E-02
 bond charge predicted
       N       E                     dE             d eps       ncg     rms          rms(c)
DAV:   1    -0.125511377341E+03   -0.60610E-02   -0.29682E-01 14208   0.193E+00    0.114E-01
DAV:   2    -0.125511427866E+03   -0.50525E-04   -0.19534E-03 27888   0.180E-01    0.664E-02
DAV:   3    -0.125511424605E+03    0.32609E-05   -0.19217E-04 22992   0.498E-02    0.172E-02
DAV:   4    -0.125511425517E+03   -0.91190E-06   -0.30303E-05 26352   0.201E-02    0.652E-03
DAV:   5    -0.125511425965E+03   -0.44790E-06   -0.11810E-06 22320   0.456E-03
   4 F= -.12710103E+03 E0= -.12710025E+03  d E =-.599546E-02  mag=    -0.0000
 trial-energy change:   -0.005995  1 .order   -0.006001   -0.006936   -0.005065
 step:   3.3322(harm=  3.3322)  dis= 0.02048  next Energy=  -127.107896 (dE=-0.129E-01)
 bond charge predicted
       N       E                     dE             d eps       ncg     rms          rms(c)
DAV:   1    -0.125518508598E+03   -0.70831E-02   -0.21872E+00 14208   0.523E+00    0.308E-01
DAV:   2    -0.125518977698E+03   -0.46910E-03   -0.14576E-02 26880   0.491E-01    0.179E-01
DAV:   3    -0.125518946446E+03    0.31252E-04   -0.14363E-03 21744   0.136E-01    0.461E-02
DAV:   4    -0.125518953688E+03   -0.72415E-05   -0.22342E-04 26976   0.545E-02    0.178E-02
DAV:   5    -0.125518957095E+03   -0.34070E-05   -0.82135E-06 23040   0.120E-02    0.770E-03
DAV:   6    -0.125518957249E+03   -0.15369E-06   -0.44703E-06 24576   0.749E-03
   5 F= -.12710824E+03 E0= -.12710745E+03  d E =-.131965E-01  mag=     0.0000
 curvature:  -2.08 expect dE=-0.792E-01 dE for cont linesearch -0.304E-04
 trial: gam= 4.95122 g(F)=  0.380E-01 g(S)=  0.000E+00 ort = 0.376E-03 (trialstep = 0.480E-01)
 search vector abs. value=  0.278E+00
 bond charge predicted
       N       E                     dE             d eps       ncg     rms          rms(c)
DAV:   1    -0.125520797872E+03   -0.18408E-02   -0.27306E-02 14496   0.615E-01    0.359E-02
DAV:   2    -0.125520801729E+03   -0.38572E-05   -0.22481E-04 27168   0.640E-02    0.203E-02
DAV:   3    -0.125520800181E+03    0.15484E-05   -0.22569E-05 21936   0.179E-02    0.605E-03
DAV:   4    -0.125520800636E+03   -0.45514E-06   -0.38062E-06 25200   0.724E-03
   6 F= -.12711005E+03 E0= -.12710927E+03  d E =-.181516E-02  mag=     0.0000
 ZBRENT: can't locate minimum, use default step
 trial-energy change:   -0.001815  1 .order   -0.001814   -0.001916   -0.001712
 step:   0.1921(harm=  0.4507)  dis= 0.00543  next Energy=  -127.117227 (dE=-0.899E-02)
 bond charge predicted
       N       E                     dE             d eps       ncg     rms          rms(c)
DAV:   1    -0.125525104144E+03   -0.43040E-02   -0.24604E-01 14304   0.185E+00    0.108E-01
DAV:   2    -0.125525134491E+03   -0.30347E-04   -0.19610E-03 26928   0.189E-01    0.606E-02
DAV:   3    -0.125525120111E+03    0.14381E-04   -0.19545E-04 19872   0.528E-02    0.179E-02
DAV:   4    -0.125525121022E+03   -0.91158E-06   -0.32873E-05 26544   0.209E-02    0.730E-03
DAV:   5    -0.125525121800E+03   -0.77749E-06   -0.11228E-06 21408   0.446E-03
   7 F= -.12711428E+03 E0= -.12711350E+03  d E =-.604404E-02  mag=     0.0000
 curvature:  -0.92 expect dE=-0.114E-01 dE for cont linesearch -0.176E-02
 ZBRENT: increasing intervall
 opt :   0.4803  next Energy=  -127.117294 (dE=-0.906E-02)
 bond charge predicted
       N       E                     dE             d eps       ncg     rms          rms(c)
DAV:   1    -0.125528357041E+03   -0.32360E-02   -0.98794E-01 14208   0.370E+00    0.215E-01
DAV:   2    -0.125528482456E+03   -0.12541E-03   -0.79952E-03 26784   0.382E-01    0.121E-01
DAV:   3    -0.125528422297E+03    0.60159E-04   -0.78886E-04 22224   0.106E-01    0.358E-02
DAV:   4    -0.125528425594E+03   -0.32973E-05   -0.12795E-04 25824   0.413E-02    0.145E-02
DAV:   5    -0.125528428006E+03   -0.24120E-05   -0.43055E-06 22560   0.881E-03    0.596E-03
DAV:   6    -0.125528427626E+03    0.37992E-06   -0.21899E-06 25200   0.570E-03
   8 F= -.12711737E+03 E0= -.12711660E+03  d E =-.913203E-02  mag=     0.0000
 curvature:  -1.58 expect dE=-0.229E-01 dE for cont linesearch -0.140E-04
 trial: gam= 0.57548 g(F)=  0.145E-01 g(S)=  0.000E+00 ort =-0.157E-02 (trialstep = 0.134E+00)
 search vector abs. value=  0.105E+00
 bond charge predicted
       N       E                     dE             d eps       ncg     rms          rms(c)
DAV:   1    -0.125530229578E+03   -0.18016E-02   -0.77362E-02 14208   0.921E-01    0.530E-02
DAV:   2    -0.125530246202E+03   -0.16624E-04   -0.42708E-04 23184   0.760E-02    0.317E-02
DAV:   3    -0.125530243947E+03    0.22551E-05   -0.50579E-05 21456   0.224E-02    0.513E-03
DAV:   4    -0.125530244115E+03   -0.16826E-06   -0.34283E-06 25200   0.725E-03
   9 F= -.12711908E+03 E0= -.12711830E+03  d E =-.170871E-02  mag=     0.0000
 ZBRENT: can't locate minimum, use default step
 trial-energy change:   -0.001709  1 .order   -0.001711   -0.001831   -0.001591
 step:   0.5379(harm=  1.0243)  dis= 0.00611  next Energy=  -127.124341 (dE=-0.697E-02)
 bond charge predicted
       N       E                     dE             d eps       ncg     rms          rms(c)
DAV:   1    -0.125534172544E+03   -0.39286E-02   -0.69706E-01 14208   0.276E+00    0.158E-01
DAV:   2    -0.125534338406E+03   -0.16586E-03   -0.37404E-03 26400   0.226E-01    0.945E-02
DAV:   3    -0.125534316599E+03    0.21806E-04   -0.44599E-04 20832   0.658E-02    0.145E-02
DAV:   4    -0.125534317289E+03   -0.68996E-06   -0.27514E-05 24192   0.207E-02    0.759E-03
DAV:   5    -0.125534315769E+03    0.15208E-05   -0.37173E-06 22080   0.744E-03    0.272E-03
DAV:   6    -0.125534315300E+03    0.46868E-06   -0.11893E-06 24720   0.406E-03
  10 F= -.12712283E+03 E0= -.12712204E+03  d E =-.546017E-02  mag=    -0.0000
 curvature:  -2.76 expect dE=-0.269E-01 dE for cont linesearch -0.126E-02
 ZBRENT: increasing intervall
 opt :   1.3448  next Energy=  -127.124429 (dE=-0.706E-02)
 bond charge predicted
       N       E                     dE             d eps       ncg     rms          rms(c)
DAV:   1    -0.125536363925E+03   -0.20482E-02   -0.27895E+00 14208   0.552E+00    0.311E-01
DAV:   2    -0.125537056009E+03   -0.69208E-03   -0.14372E-02 26784   0.446E-01    0.187E-01
DAV:   3    -0.125536972575E+03    0.83434E-04   -0.18148E-03 21984   0.132E-01    0.265E-02
DAV:   4    -0.125536972546E+03    0.29599E-07   -0.10334E-04 23088   0.405E-02    0.149E-02
DAV:   5    -0.125536967878E+03    0.46678E-05   -0.14114E-05 23520   0.145E-02    0.473E-03
DAV:   6    -0.125536966857E+03    0.10207E-05   -0.41808E-06 25440   0.748E-03    0.221E-03
DAV:   7    -0.125536968095E+03   -0.12375E-05   -0.13428E-06 22608   0.391E-03    0.170E-03
DAV:   8    -0.125536971552E+03   -0.34573E-05   -0.21538E-06 19296   0.448E-03    0.873E-04
DAV:   9    -0.125536975156E+03   -0.36043E-05   -0.42996E-07 20352   0.199E-03    0.450E-04
DAV:  10    -0.125536977945E+03   -0.27886E-05   -0.16462E-07 19440   0.108E-03    0.265E-04
DAV:  11    -0.125536979234E+03   -0.12885E-05   -0.41073E-08 22272   0.553E-04    0.177E-04
DAV:  12    -0.125536980361E+03   -0.11272E-05   -0.43721E-08 19536   0.418E-04    0.883E-05
DAV:  13    -0.125536980707E+03   -0.34631E-06   -0.92107E-09 22512   0.207E-04
  11 F= -.12712487E+03 E0= -.12712413E+03  d E =-.750305E-02  mag=     0.0000
 curvature:  -3.52 expect dE=-0.113E+00 dE for cont linesearch -0.849E-04
 trial: gam= 2.23603 g(F)=  0.321E-01 g(S)=  0.000E+00 ort =-0.159E-02 (trialstep = 0.719E-01)
 search vector abs. value=  0.549E+00
 bond charge predicted
       N       E                     dE             d eps       ncg     rms          rms(c)
DAV:   1    -0.125538885945E+03   -0.19056E-02   -0.12180E-01 14208   0.124E+00    0.661E-02
DAV:   2    -0.125538916401E+03   -0.30456E-04   -0.76034E-04 26448   0.111E-01    0.398E-02
DAV:   3    -0.125538911537E+03    0.48635E-05   -0.89136E-05 17376   0.329E-02    0.759E-03
DAV:   4    -0.125538911702E+03   -0.16508E-06   -0.94575E-06 22464   0.119E-02
  12 F= -.12712668E+03 E0= -.12712591E+03  d E =-.180626E-02  mag=     0.0000
 ZBRENT: can't locate minimum, use default step
 trial-energy change:   -0.001806  1 .order   -0.001808   -0.002055   -0.001561
 step:   0.2875(harm=  0.2992)  dis= 0.00675  next Energy=  -127.129147 (dE=-0.428E-02)
 bond charge predicted
       N       E                     dE             d eps       ncg     rms          rms(c)
DAV:   1    -0.125541563709E+03   -0.26522E-02   -0.10966E+00 14208   0.371E+00    0.198E-01
DAV:   2    -0.125541843477E+03   -0.27977E-03   -0.65668E-03 25536   0.327E-01    0.119E-01
DAV:   3    -0.125541792450E+03    0.51027E-04   -0.81170E-04 21792   0.989E-02    0.224E-02
DAV:   4    -0.125541792018E+03    0.43230E-06   -0.81986E-05 22416   0.354E-02    0.113E-02
DAV:   5    -0.125541791820E+03    0.19765E-06   -0.41886E-06 24336   0.872E-03
  13 F= -.12712918E+03 E0= -.12712840E+03  d E =-.430907E-02  mag=    -0.0000
 curvature:  -2.87 expect dE=-0.588E-02 dE for cont linesearch -0.155E-04
 ZBRENT: extrapolating
 opt :   0.3061  next Energy=  -127.129195 (dE=-0.433E-02)
 bond charge predicted
       N       E                     dE             d eps       ncg     rms          rms(c)
DAV:   1    -0.125541837820E+03   -0.45802E-04   -0.82373E-03 14496   0.322E-01    0.170E-02
DAV:   2    -0.125541840839E+03   -0.30189E-05   -0.55368E-05 27840   0.298E-02    0.104E-02
DAV:   3    -0.125541841361E+03   -0.52185E-06   -0.73053E-06 21552   0.941E-03
  14 F= -.12712920E+03 E0= -.12712841E+03  d E =-.432587E-02  mag=     0.0000
 curvature:  -2.96 expect dE=-0.630E-02 dE for cont linesearch -0.666E-08
 trial: gam= 0.04475 g(F)=  0.213E-02 g(S)=  0.000E+00 ort = 0.351E-04 (trialstep = 0.119E+00)
 search vector abs. value=  0.323E-02
 bond charge predicted
       N       E                     dE             d eps       ncg     rms          rms(c)
DAV:   1    -0.125542076904E+03   -0.23606E-03   -0.42028E-03 17184   0.271E-01    0.167E-02
DAV:   2    -0.125542072720E+03    0.41845E-05   -0.65576E-05 26400   0.329E-02    0.837E-03
DAV:   3    -0.125542072488E+03    0.23165E-06   -0.65425E-06 19872   0.100E-02
  15 F= -.12712941E+03 E0= -.12712863E+03  d E =-.210545E-03  mag=    -0.0000
 trial-energy change:   -0.000211  1 .order   -0.000208   -0.000253   -0.000164
 step:   0.3374(harm=  0.3374)  dis= 0.00119  next Energy=  -127.129555 (dE=-0.359E-03)
 bond charge predicted
       N       E                     dE             d eps       ncg     rms          rms(c)
DAV:   1    -0.125542287070E+03   -0.21435E-03   -0.14290E-02 17184   0.499E-01    0.312E-02
DAV:   2    -0.125542270811E+03    0.16259E-04   -0.21844E-04 26928   0.602E-02    0.156E-02
DAV:   3    -0.125542267560E+03    0.32515E-05   -0.22254E-05 21024   0.184E-02    0.548E-03
