Lattice                                 
           1
     4.201955    2.426000    0.000000
    -4.201955    2.426000    0.000000
     0.000000    0.000000   15.000000
   B    C 
     4    11
Direct configuration=     1
   0.00415361  0.00267210  0.12034134
   0.35695335  0.00285503  0.09748893
   0.00423858  0.35550699  0.09749256
   0.65142295  0.65006557  0.09747688
   0.32808646  0.32671938  0.10030508
   0.68027775  0.00278085  0.10027562
   0.00416530  0.67883808  0.10026559
   0.08333267  0.41666633  0.33646667
   0.24999967  0.24999933  0.33646667
   0.08333267  0.91666633  0.33646667
   0.24999967  0.74999933  0.33646667
   0.58333267  0.41666633  0.33646667
   0.74999967  0.24999933  0.33646667
   0.58333267  0.91666633  0.33646667
   0.74999967  0.74999933  0.33646667
Direct configuration=     2
   0.00414207  0.00266920  0.11908235
   0.35565335  0.00283082  0.09782546
   0.00413931  0.35441247  0.09788688
   0.65264189  0.65112465  0.09785762
   0.32466751  0.32306687  0.10030128
   0.68407557  0.00285644  0.10032657
   0.00417181  0.68230220  0.10027807
   0.08331714  0.41677854  0.33646353
   0.25017477  0.25026090  0.33656105
   0.08349716  0.91679713  0.33645241
   0.25029877  0.74995733  0.33643685
   0.58328588  0.41664591  0.33642195
   0.74993365  0.25000378  0.33646175
   0.58309031  0.91661505  0.33653731
   0.74953814  0.74977941  0.33648623
Direct configuration=     3
   0.00414791  0.00267067  0.11971936
   0.35631111  0.00284307  0.09765519
   0.00418954  0.35496626  0.09768737
   0.65202515  0.65058879  0.09766498
   0.32639738  0.32491491  0.10030320
   0.68215400  0.00281819  0.10030079
   0.00416852  0.68054947  0.10027176
   0.08332499  0.41672177  0.33646512
   0.25008617  0.25012855  0.33651330
   0.08341393  0.91673095  0.33645962
   0.25014743  0.74997858  0.33645193
   0.58330955  0.41665624  0.33644458
   0.74996705  0.25000153  0.33646424
   0.58321293  0.91664100  0.33650157
   0.74977166  0.74989068  0.33647633
Direct configuration=     4
   0.00414708  0.00269584  0.11862877
   0.35678901  0.00281026  0.09796608
   0.00415735  0.35541048  0.09805567
   0.65164840  0.65004060  0.09801889
   0.32655876  0.32490557  0.10026735
   0.68212839  0.00285476  0.10031633
   0.00418099  0.68043699  0.10025109
   0.08328725  0.41665792  0.33646870
   0.24988826  0.24998573  0.33658725
   0.08321676  0.91664326  0.33645918
   0.24983532  0.75006360  0.33642853
   0.58331535  0.41667990  0.33641704
   0.74996786  0.25002938  0.33645953
   0.58339925  0.91675095  0.33656235
   0.75010732  0.75013544  0.33649257
Direct configuration=     5
   0.00414486  0.00276400  0.11567610
   0.35808289  0.00272144  0.09880778
   0.00407019  0.35661315  0.09905281
   0.65062839  0.64855642  0.09897708
   0.32699566  0.32488028  0.10017028
   0.68205906  0.00295376  0.10035841
   0.00421476  0.68013245  0.10019514
   0.08318505  0.41648505  0.33647841
   0.24935243  0.24959904  0.33678748
   0.08268292  0.91640586  0.33645798
   0.24899028  0.75029376  0.33636516
   0.58333104  0.41674396  0.33634247
   0.74997004  0.25010478  0.33644678
   0.58390367  0.91704862  0.33672691
   0.75101608  0.75079809  0.33653653
Direct configuration=     6
   0.00414846  0.00276814  0.11535499
   0.35819957  0.00271127  0.09888494
   0.00407277  0.35671131  0.09914331
   0.65054155  0.64843019  0.09906419
   0.32707350  0.32492547  0.10017696
   0.68200305  0.00295071  0.10037775
   0.00422163  0.68006545  0.10020574
   0.08318360  0.41653913  0.33648066
   0.24941855  0.24966245  0.33680089
   0.08275354  0.91648171  0.33646101
   0.24911277  0.75027618  0.33636264
   0.58330350  0.41676191  0.33634048
   0.74995658  0.25010935  0.33644671
   0.58379116  0.91701053  0.33673872
   0.75084711  0.75069687  0.33654036
Direct configuration=     7
   0.00415923  0.00278057  0.11439163
   0.35854960  0.00268076  0.09911642
   0.00408051  0.35700576  0.09941481
   0.65028100  0.64805151  0.09932551
   0.32730702  0.32506103  0.10019703
   0.68183505  0.00294156  0.10043575
   0.00424221  0.67986446  0.10023753
   0.08317924  0.41670138  0.33648740
   0.24961692  0.24985268  0.33684111
   0.08296540  0.91670926  0.33647009
   0.24948022  0.75022342  0.33635507
   0.58322089  0.41681577  0.33633450
   0.74991619  0.25012305  0.33644649
   0.58345363  0.91689625  0.33677414
   0.75034021  0.75039320  0.33655184
Direct configuration=     8
   0.00418079  0.00280542  0.11246493
   0.35924966  0.00261974  0.09957939
   0.00409600  0.35759468  0.09995782
   0.64975992  0.64729415  0.09984816
   0.32777406  0.32533216  0.10023715
   0.68149904  0.00292327  0.10055175
   0.00428338  0.67946248  0.10030111
   0.08317053  0.41702586  0.33650089
   0.25001364  0.25023314  0.33692155
   0.08338911  0.91716435  0.33648826
   0.25021513  0.75011792  0.33633994
   0.58305568  0.41692349  0.33632255
   0.74983541  0.25015046  0.33644606
   0.58277858  0.91666769  0.33684497
   0.74932640  0.74978586  0.33657482
Direct configuration=     9
   0.00420151  0.00279273  0.11187256
   0.35927931  0.00259981  0.09967198
   0.00413676  0.35758628  0.10005968
   0.64976684  0.64727357  0.09994747
   0.32784871  0.32540413  0.10031255
   0.68142374  0.00287333  0.10063933
   0.00430814  0.67938971  0.10038053
   0.08316458  0.41700405  0.33650859
   0.25001080  0.25034986  0.33691603
   0.08336899  0.91709698  0.33650326
   0.25019021  0.75014664  0.33635250
   0.58305749  0.41686756  0.33634032
   0.74978104  0.25017119  0.33645192
   0.58280110  0.91669673  0.33684321
   0.74928812  0.74984810  0.33657939
Direct configuration=    10
   0.00426366  0.00275465  0.11009547
   0.35936825  0.00254002  0.09994977
   0.00425903  0.35756106  0.10036527
   0.64978762  0.64721183  0.10024539
   0.32807268  0.32562005  0.10053874
   0.68119782  0.00272352  0.10090209
   0.00438244  0.67917142  0.10061879
   0.08314674  0.41693860  0.33653172
   0.25000228  0.25070000  0.33689948
   0.08330861  0.91689489  0.33654828
   0.25011544  0.75023279  0.33639017
   0.58306292  0.41669977  0.33639363
   0.74961791  0.25023338  0.33646950
   0.58286866  0.91678386  0.33683793
   0.74917327  0.75003482  0.33659311
Direct configuration=    11
   0.00438796  0.00267850  0.10654129
   0.35954613  0.00242044  0.10050535
   0.00450359  0.35751064  0.10097646
   0.64982918  0.64708836  0.10084123
   0.32852062  0.32605188  0.10099113
   0.68074600  0.00242390  0.10142760
   0.00453104  0.67873485  0.10109531
   0.08311106  0.41680771  0.33657796
   0.24998524  0.25140028  0.33686637
   0.08318785  0.91649069  0.33663831
   0.24996591  0.75040510  0.33646550
   0.58307378  0.41636418  0.33650026
   0.74929165  0.25035776  0.33650465
   0.58300377  0.91695812  0.33682737
   0.74894357  0.75040826  0.33662055
Direct configuration=    12
   0.00441842  0.00265001  0.10582132
   0.35954843  0.00239717  0.10061622
   0.00455412  0.35748417  0.10108903
   0.64985470  0.64710043  0.10095340
   0.32855351  0.32608485  0.10109226
   0.68072565  0.00236523  0.10153589
   0.00456343  0.67868489  0.10119948
   0.08304420  0.41686489  0.33658657
   0.24989195  0.25117889  0.33685355
   0.08310254  0.91660642  0.33665655
   0.24986991  0.75038728  0.33648830
   0.58304121  0.41651444  0.33652567
   0.74935262  0.25033882  0.33651636
   0.58300522  0.91702994  0.33681709
   0.74910142  0.75041324  0.33662766
Direct configuration=    13
   0.00450979  0.00256455  0.10366143
   0.35955533  0.00232737  0.10094884
   0.00470571  0.35740473  0.10142674
   0.64993128  0.64713666  0.10128989
   0.32865218  0.32618376  0.10139564
   0.68066462  0.00218921  0.10186074
   0.00466060  0.67853500  0.10151199
   0.08284364  0.41703643  0.33661241
   0.24961206  0.25051471  0.33681508
   0.08284658  0.91695361  0.33671128
   0.24958194  0.75033379  0.33655668
   0.58294350  0.41696522  0.33660189
   0.74953553  0.25028201  0.33655150
   0.58300958  0.91724541  0.33678626
   0.74957499  0.75042820  0.33664898
Direct configuration=    14
   0.00451767  0.00255718  0.10347510
   0.35955593  0.00232135  0.10097753
   0.00471879  0.35739787  0.10145587
   0.64993789  0.64713979  0.10131892
   0.32866069  0.32619229  0.10142182
   0.68065936  0.00217403  0.10188876
   0.00466899  0.67852207  0.10153895
   0.08282633  0.41705123  0.33661464
   0.24958792  0.25045741  0.33681176
   0.08282450  0.91698356  0.33671600
   0.24955710  0.75032918  0.33656257
   0.58293507  0.41700411  0.33660846
   0.74955131  0.25027710  0.33655453
   0.58300996  0.91726399  0.33678360
   0.74961585  0.75042949  0.33665082
Direct configuration=    15
   0.00452517  0.00253711  0.10341943
   0.35954964  0.00232151  0.10100400
   0.00471123  0.35740078  0.10146654
   0.64993023  0.64715392  0.10133418
   0.32857843  0.32609513  0.10142452
   0.68077761  0.00219263  0.10187824
   0.00467032  0.67858183  0.10153901
   0.08286119  0.41705583  0.33661365
   0.24957330  0.25041061  0.33680940
   0.08288026  0.91705193  0.33671344
   0.24958917  0.75037386  0.33657270
   0.58291334  0.41703660  0.33661041
   0.74956068  0.25033698  0.33656244
   0.58293588  0.91715122  0.33677594
   0.74957086  0.75040070  0.33665541
