   8   8   0   4
  0.3930630E+02  0.4920000E-09  0.4920000E-09  0.1500000E-08  0.5000000E-15
  1.000000000000000E-004
  CAR 
 Graphene                                
     13.34106305    -23.46819585  301     -2.22258135      1.00000000
    -23.468  0.0000E+00  0.0000E+00
    -23.345  0.0000E+00  0.0000E+00
    -23.223  0.0000E+00  0.0000E+00
    -23.100  0.0000E+00  0.0000E+00
    -22.977  0.0000E+00  0.0000E+00
    -22.855  0.0000E+00  0.0000E+00
    -22.732  0.0000E+00  0.0000E+00
    -22.609  0.0000E+00  0.0000E+00
    -22.487  0.0000E+00  0.0000E+00
    -22.364  0.5027E-18  0.6168E-19
    -22.241  0.1767E-12  0.2168E-13
    -22.119  0.3550E-08  0.4356E-09
    -21.996  0.4678E-05  0.5744E-06
    -21.873  0.4755E-03  0.5892E-04
    -21.750  0.5082E-02  0.6824E-03
    -21.628  0.1117E-01  0.2053E-02
    -21.505  0.1227E-01  0.3558E-02
    -21.382  0.1192E-01  0.5021E-02
    -21.260  0.1295E-01  0.6610E-02
    -21.137  0.1179E-01  0.8057E-02
    -21.014  0.1166E-01  0.9487E-02
    -20.892  0.1487E-01  0.1131E-01
    -20.769  0.8786E-02  0.1239E-01
    -20.646  0.1421E-01  0.1413E-01
    -20.523  0.1458E-01  0.1592E-01
    -20.401  0.8264E-02  0.1694E-01
    -20.278  0.1299E-01  0.1853E-01
    -20.155  0.1657E-01  0.2056E-01
    -20.033  0.1059E-01  0.2186E-01
    -19.910  0.8129E-02  0.2286E-01
    -19.787  0.1573E-01  0.2479E-01
    -19.665  0.1687E-01  0.2686E-01
    -19.542  0.8452E-02  0.2790E-01
    -19.419  0.9842E-02  0.2911E-01
    -19.296  0.1347E-01  0.3076E-01
    -19.174  0.1822E-01  0.3299E-01
    -19.051  0.1268E-01  0.3455E-01
    -18.928  0.6197E-02  0.3531E-01
    -18.806  0.1177E-01  0.3675E-01
    -18.683  0.1810E-01  0.3897E-01
    -18.560  0.1511E-01  0.4083E-01
    -18.438  0.1197E-01  0.4230E-01
    -18.315  0.8571E-02  0.4335E-01
    -18.192  0.7710E-02  0.4430E-01
    -18.070  0.2260E-01  0.4707E-01
    -17.947  0.1483E-01  0.4889E-01
    -17.824  0.1124E-01  0.5027E-01
    -17.701  0.1037E-01  0.5154E-01
    -17.579  0.9242E-02  0.5267E-01
    -17.456  0.1382E-01  0.5437E-01
    -17.333  0.2354E-01  0.5726E-01
    -17.211  0.1270E-01  0.5882E-01
    -17.088  0.1033E-01  0.6008E-01
    -16.965  0.9811E-02  0.6129E-01
    -16.843  0.1276E-01  0.6285E-01
    -16.720  0.1960E-01  0.6526E-01
    -16.597  0.2375E-01  0.6817E-01
    -16.474  0.1726E-01  0.7029E-01
    -16.352  0.1326E-01  0.7192E-01
    -16.229  0.2908E-02  0.7227E-01
    -16.106  0.1010E-01  0.7351E-01
    -15.984  0.2339E-01  0.7638E-01
    -15.861  0.6638E-02  0.7720E-01
    -15.738  0.2541E-03  0.7723E-01
    -15.616  0.1874E-02  0.7746E-01
    -15.493  0.7607E-02  0.7839E-01
    -15.370  0.1551E-01  0.8030E-01
    -15.247  0.1502E-01  0.8214E-01
    -15.125  0.1002E-01  0.8337E-01
    -15.002  0.1312E-01  0.8498E-01
    -14.879  0.1062E-01  0.8628E-01
    -14.757  0.1817E-01  0.8851E-01
    -14.634  0.1652E-01  0.9054E-01
    -14.511  0.1539E-01  0.9243E-01
    -14.389  0.2134E-01  0.9504E-01
    -14.266  0.1345E-01  0.9670E-01
    -14.143  0.1514E-01  0.9855E-01
    -14.020  0.8178E-02  0.9956E-01
    -13.898  0.2113E-01  0.1021E+00
    -13.775  0.1464E-01  0.1039E+00
    -13.652  0.7098E-02  0.1048E+00
    -13.530  0.9669E-02  0.1060E+00
    -13.407  0.1733E-01  0.1081E+00
    -13.284  0.1432E-01  0.1099E+00
    -13.162  0.7301E-02  0.1108E+00
    -13.039  0.8812E-02  0.1119E+00
    -12.916  0.1228E-01  0.1134E+00
    -12.794  0.1490E-01  0.1152E+00
    -12.671  0.1441E-01  0.1170E+00
    -12.548  0.1269E-01  0.1185E+00
    -12.425  0.1075E-01  0.1198E+00
    -12.303  0.1573E-01  0.1218E+00
    -12.180  0.2075E-01  0.1243E+00
    -12.057  0.7918E-02  0.1253E+00
    -11.935  0.1115E-01  0.1267E+00
    -11.812  0.2104E-01  0.1292E+00
    -11.689  0.2147E-01  0.1319E+00
    -11.567  0.1217E-01  0.1334E+00
    -11.444  0.4867E-02  0.1340E+00
    -11.321  0.1175E-01  0.1354E+00
    -11.198  0.2824E-01  0.1389E+00
    -11.076  0.1974E-01  0.1413E+00
    -10.953  0.6976E-02  0.1422E+00
    -10.830  0.1584E-01  0.1441E+00
    -10.708  0.2194E-01  0.1468E+00
    -10.585  0.9621E-02  0.1480E+00
    -10.462  0.1614E-01  0.1499E+00
    -10.340  0.1788E-01  0.1521E+00
    -10.217  0.2284E-01  0.1549E+00
    -10.094  0.1847E-01  0.1572E+00
     -9.971  0.1615E-01  0.1592E+00
     -9.849  0.1320E-01  0.1608E+00
     -9.726  0.2948E-01  0.1644E+00
     -9.603  0.4305E-01  0.1697E+00
     -9.481  0.2557E-01  0.1728E+00
     -9.358  0.1767E-01  0.1750E+00
     -9.235  0.3727E-01  0.1796E+00
     -9.113  0.4350E-01  0.1849E+00
     -8.990  0.3018E-01  0.1886E+00
     -8.867  0.3155E-01  0.1925E+00
     -8.744  0.3547E-01  0.1969E+00
     -8.622  0.4369E-01  0.2022E+00
     -8.499  0.5533E-01  0.2090E+00
     -8.376  0.4049E-01  0.2140E+00
     -8.254  0.2335E-01  0.2168E+00
     -8.131  0.2638E-01  0.2201E+00
     -8.008  0.3979E-01  0.2250E+00
     -7.886  0.3210E-01  0.2289E+00
     -7.763  0.2289E-01  0.2317E+00
     -7.640  0.2944E-01  0.2353E+00
     -7.518  0.3265E-01  0.2393E+00
     -7.395  0.2192E-01  0.2420E+00
     -7.272  0.2248E-01  0.2448E+00
     -7.149  0.3059E-01  0.2485E+00
     -7.027  0.2199E-01  0.2512E+00
     -6.904  0.2377E-01  0.2541E+00
     -6.781  0.2977E-01  0.2578E+00
     -6.659  0.2833E-01  0.2613E+00
     -6.536  0.1187E-01  0.2627E+00
     -6.413  0.1624E-01  0.2647E+00
     -6.291  0.3515E-01  0.2690E+00
     -6.168  0.3184E-01  0.2729E+00
     -6.045  0.1433E-01  0.2747E+00
     -5.922  0.1657E-01  0.2767E+00
     -5.800  0.2089E-01  0.2793E+00
     -5.677  0.2572E-01  0.2824E+00
     -5.554  0.2617E-01  0.2857E+00
     -5.432  0.2487E-01  0.2887E+00
     -5.309  0.2027E-01  0.2912E+00
     -5.186  0.1176E-01  0.2926E+00
     -5.064  0.1036E-01  0.2939E+00
     -4.941  0.2024E-01  0.2964E+00
     -4.818  0.2566E-01  0.2995E+00
     -4.695  0.2072E-01  0.3021E+00
     -4.573  0.1711E-01  0.3042E+00
     -4.450  0.8296E-02  0.3052E+00
     -4.327  0.1661E-01  0.3072E+00
     -4.205  0.3127E-01  0.3111E+00
     -4.082  0.9895E-02  0.3123E+00
     -3.959  0.4252E-02  0.3128E+00
     -3.837  0.3144E-02  0.3132E+00
     -3.714  0.8206E-02  0.3142E+00
     -3.591  0.1182E-01  0.3156E+00
     -3.468  0.1096E-01  0.3170E+00
     -3.346  0.2440E-02  0.3173E+00
     -3.223  0.3867E-02  0.3178E+00
     -3.100  0.2261E-02  0.3180E+00
     -2.978  0.2028E-02  0.3183E+00
     -2.855  0.8223E-02  0.3193E+00
     -2.732  0.3300E-02  0.3197E+00
     -2.610  0.1091E-03  0.3197E+00
     -2.487  0.6533E-06  0.3197E+00
     -2.364  0.1018E-03  0.3197E+00
     -2.242  0.1684E-02  0.3199E+00
     -2.119  0.2420E-02  0.3202E+00
     -1.996  0.3190E-03  0.3203E+00
     -1.873  0.3143E-05  0.3203E+00
     -1.751  0.4615E-04  0.3203E+00
     -1.628  0.2205E-02  0.3206E+00
     -1.505  0.8314E-02  0.3216E+00
     -1.383  0.3306E-02  0.3220E+00
     -1.260  0.3474E-02  0.3224E+00
     -1.137  0.2846E-02  0.3228E+00
     -1.015  0.2429E-02  0.3231E+00
     -0.892  0.1708E-01  0.3251E+00
     -0.769  0.1674E-01  0.3272E+00
     -0.646  0.7401E-02  0.3281E+00
     -0.524  0.1871E-01  0.3304E+00
     -0.401  0.2446E-01  0.3334E+00
     -0.278  0.2184E-01  0.3361E+00
     -0.156  0.2476E-01  0.3391E+00
     -0.033  0.9085E-02  0.3402E+00
      0.090  0.1277E-01  0.3418E+00
      0.212  0.1109E-01  0.3432E+00
      0.335  0.9014E-02  0.3443E+00
      0.458  0.9923E-02  0.3455E+00
      0.581  0.2259E-01  0.3483E+00
      0.703  0.1208E-01  0.3497E+00
      0.826  0.2434E-02  0.3500E+00
      0.949  0.9645E-02  0.3512E+00
      1.071  0.1618E-01  0.3532E+00
      1.194  0.1653E-01  0.3552E+00
      1.317  0.1766E-01  0.3574E+00
      1.439  0.2040E-01  0.3599E+00
      1.562  0.2474E-01  0.3629E+00
      1.685  0.1563E-01  0.3649E+00
      1.807  0.1326E-01  0.3665E+00
      1.930  0.1484E-01  0.3683E+00
      2.053  0.2384E-01  0.3712E+00
      2.176  0.3391E-01  0.3754E+00
      2.298  0.2995E-01  0.3791E+00
      2.421  0.2238E-01  0.3818E+00
      2.544  0.2504E-01  0.3849E+00
      2.666  0.4274E-01  0.3901E+00
      2.789  0.3346E-01  0.3942E+00
      2.912  0.2247E-01  0.3970E+00
      3.034  0.3402E-01  0.4012E+00
      3.157  0.4188E-01  0.4063E+00
      3.280  0.4259E-01  0.4115E+00
      3.403  0.2951E-01  0.4152E+00
      3.525  0.2796E-01  0.4186E+00
      3.648  0.2878E-01  0.4221E+00
      3.771  0.3962E-01  0.4270E+00
      3.893  0.2966E-01  0.4306E+00
      4.016  0.3624E-01  0.4351E+00
      4.139  0.4179E-01  0.4402E+00
      4.261  0.3677E-01  0.4447E+00
      4.384  0.2028E-01  0.4472E+00
      4.507  0.3063E-01  0.4509E+00
      4.630  0.5263E-01  0.4574E+00
      4.752  0.4900E-01  0.4634E+00
      4.875  0.3831E-01  0.4681E+00
      4.998  0.3267E-01  0.4721E+00
      5.120  0.4446E-01  0.4776E+00
      5.243  0.6185E-01  0.4852E+00
      5.366  0.7201E-01  0.4940E+00
      5.488  0.8169E-01  0.5040E+00
      5.611  0.7042E-01  0.5127E+00
      5.734  0.6086E-01  0.5201E+00
      5.857  0.5400E-01  0.5268E+00
      5.979  0.7406E-01  0.5359E+00
      6.102  0.1094E+00  0.5493E+00
      6.225  0.1130E+00  0.5631E+00
      6.347  0.8211E-01  0.5732E+00
      6.470  0.7920E-01  0.5829E+00
      6.593  0.6935E-01  0.5915E+00
      6.715  0.7060E-01  0.6001E+00
      6.838  0.7783E-01  0.6097E+00
      6.961  0.7597E-01  0.6190E+00
      7.083  0.8360E-01  0.6292E+00
      7.206  0.8495E-01  0.6397E+00
      7.329  0.7001E-01  0.6483E+00
      7.452  0.3497E-01  0.6525E+00
      7.574  0.4605E-01  0.6582E+00
      7.697  0.7102E-01  0.6669E+00
      7.820  0.7886E-01  0.6766E+00
      7.942  0.6997E-01  0.6852E+00
      8.065  0.9014E-01  0.6962E+00
      8.188  0.7096E-01  0.7049E+00
      8.310  0.4494E-01  0.7105E+00
      8.433  0.9095E-01  0.7216E+00
      8.556  0.6858E-01  0.7300E+00
      8.679  0.8605E-01  0.7406E+00
      8.801  0.8959E-01  0.7516E+00
      8.924  0.7844E-01  0.7612E+00
      9.047  0.7772E-01  0.7707E+00
      9.169  0.8221E-01  0.7808E+00
      9.292  0.8469E-01  0.7912E+00
      9.415  0.9601E-01  0.8030E+00
      9.537  0.6142E-01  0.8105E+00
      9.660  0.5734E-01  0.8176E+00
      9.783  0.6875E-01  0.8260E+00
      9.906  0.6930E-01  0.8345E+00
     10.028  0.8496E-01  0.8449E+00
     10.151  0.1051E+00  0.8578E+00
     10.274  0.9074E-01  0.8690E+00
     10.396  0.8535E-01  0.8794E+00
     10.519  0.9126E-01  0.8906E+00
     10.642  0.7993E-01  0.9004E+00
     10.764  0.8201E-01  0.9105E+00
     10.887  0.1137E+00  0.9244E+00
     11.010  0.7510E-01  0.9337E+00
     11.133  0.5909E-01  0.9409E+00
     11.255  0.5881E-01  0.9481E+00
     11.378  0.4660E-01  0.9538E+00
     11.501  0.2073E-01  0.9564E+00
     11.623  0.1530E-01  0.9583E+00
     11.746  0.1211E-01  0.9597E+00
     11.869  0.2027E-02  0.9600E+00
     11.991  0.3180E-04  0.9600E+00
     12.114  0.3275E-07  0.9600E+00
     12.237  0.1903E-11  0.9600E+00
     12.359  0.6032E-17  0.9600E+00
     12.482  0.0000E+00  0.9600E+00
     12.605  0.0000E+00  0.9600E+00
     12.728  0.0000E+00  0.9600E+00
     12.850  0.0000E+00  0.9600E+00
     12.973  0.0000E+00  0.9600E+00
     13.096  0.0000E+00  0.9600E+00
     13.218  0.0000E+00  0.9600E+00
     13.341  0.0000E+00  0.9600E+00
