    8    8  100    1
  0.3930630E+02  0.4920000E-09  0.4920000E-09  0.1500000E-08  0.5000000E-15
  1.000000000000000E-004
  CAR 
 Graphene                                
     32     19     48
 
  0.0000000E+00  0.0000000E+00  0.0000000E+00  0.6944444E-02
      1        -21.795048   1.000000
      2        -16.520034   1.000000
      3        -16.519988   1.000000
      4        -16.519988   1.000000
      5        -15.496730   1.000000
      6        -15.496730   1.000000
      7        -15.496652   1.000000
      8         -9.887707   1.000000
      9         -8.649699   1.000000
     10         -8.649656   1.000000
     11         -8.649656   1.000000
     12         -5.248684   1.000000
     13         -5.248566   1.000000
     14         -4.596952   1.000000
     15         -4.596911   1.000000
     16         -4.596911   1.000000
     17         -0.540213   0.000000
     18         -0.540213   0.000000
     19         -0.540147   0.000000
     20          1.011903   0.000000
     21          1.915020   0.000000
     22          2.469232   0.000000
     23          4.331266   0.000000
     24          5.116468   0.000000
     25          5.224730   0.000000
     26          5.224762   0.000000
     27          5.224762   0.000000
     28          6.150393   0.000000
     29          6.150526   0.000000
     30          8.248420   0.000000
     31          8.909706   0.000000
     32          8.909711   0.000000
     33          8.909711   0.000000
     34          9.060747   0.000000
     35          9.060747   0.000000
     36          9.060756   0.000000
     37          9.295091   0.000000
     38          9.353412   0.000000
     39          9.799959   0.000000
     40          9.799959   0.000000
     41          9.799959   0.000000
     42         10.030737   0.000000
     43         10.030739   0.000000
     44         10.030739   0.000000
     45         10.655509   0.000000
     46         10.655518   0.000000
     47         10.655519   0.000000
     48         10.680074   0.000000
 
  0.8333333E-01  0.2713126E-18  0.0000000E+00  0.4166667E-01
      1        -21.753824   1.000000
      2        -17.032231   1.000000
      3        -16.662781   1.000000
      4        -16.662750   1.000000
      5        -15.285955   1.000000
      6        -15.285892   1.000000
      7        -14.923283   1.000000
      8         -9.838459   1.000000
      9         -8.777337   1.000000
     10         -8.777295   1.000000
     11         -8.608644   1.000000
     12         -5.418219   1.000000
     13         -5.338204   1.000000
     14         -4.850781   1.000000
     15         -4.626943   1.000000
     16         -4.626905   1.000000
     17         -0.465676   0.000000
     18         -0.465613   0.000000
     19         -0.222104   0.000000
     20          1.067874   0.000000
     21          1.971480   0.000000
     22          2.526230   0.000000
     23          4.387355   0.000000
     24          5.171135   0.000000
     25          5.245059   0.000000
     26          5.416802   0.000000
     27          5.416834   0.000000
     28          6.175880   0.000000
     29          6.331161   0.000000
     30          7.740613   0.000000
     31          8.302842   0.000000
     32          8.387369   0.000000
     33          8.387370   0.000000
     34          8.676759   0.000000
     35          9.149859   0.000000
     36          9.302067   0.000000
     37          9.302067   0.000000
     38          9.363770   0.000000
     39          9.410154   0.000000
     40          9.675341   0.000000
     41          9.675344   0.000000
     42         10.046772   0.000000
     43         10.046773   0.000000
     44         10.307847   0.000000
     45         10.514217   0.000000
     46         10.566438   0.000000
     47         10.566442   0.000000
     48         10.890733   0.000000
 
  0.1666667E+00 -0.4304886E-17  0.0000000E+00  0.4166667E-01
      1        -21.630242   1.000000
      2        -17.794935   1.000000
      3        -16.922397   1.000000
      4        -16.922381   1.000000
      5        -14.824636   1.000000
      6        -14.824588   1.000000
      7        -13.978320   1.000000
      8         -9.690863   1.000000
      9         -9.136183   1.000000
     10         -9.136142   1.000000
     11         -8.486445   1.000000
     12         -5.901596   1.000000
     13         -5.589481   1.000000
     14         -5.446626   1.000000
     15         -4.704596   1.000000
     16         -4.704564   1.000000
     17         -0.261260   0.000000
     18         -0.261205   0.000000
     19          0.564801   0.000000
     20          1.235821   0.000000
     21          2.140835   0.000000
     22          2.697245   0.000000
     23          4.555581   0.000000
     24          5.302962   0.000000
     25          5.334873   0.000000
     26          5.967323   0.000000
     27          5.967354   0.000000
     28          6.225050   0.000000
     29          6.596141   0.000000
     30          6.851854   0.000000
     31          7.529313   0.000000
     32          7.899680   0.000000
     33          7.899680   0.000000
     34          8.172155   0.000000
     35          8.465484   0.000000
     36          8.726661   0.000000
     37          8.784367   0.000000
     38          8.784367   0.000000
     39          9.532250   0.000000
     40          9.532250   0.000000
     41          9.579686   0.000000
     42          9.863807   0.000000
     43         10.435719   0.000000
     44         10.435723   0.000000
     45         10.700505   0.000000
     46         10.743864   0.000000
     47         10.839639   0.000000
     48         10.839645   0.000000
 
  0.2500000E+00  0.1029671E-16  0.0000000E+00  0.4166667E-01
      1        -21.424641   1.000000
      2        -18.527636   1.000000
      3        -17.161286   1.000000
      4        -17.161277   1.000000
      5        -14.258865   1.000000
      6        -14.258824   1.000000
      7        -12.946659   1.000000
      8         -9.666098   1.000000
      9         -9.666059   1.000000
     10         -9.445919   1.000000
     11         -8.285587   1.000000
     12         -6.636003   1.000000
     13         -6.159563   1.000000
     14         -5.956502   1.000000
     15         -4.803074   1.000000
     16         -4.803049   1.000000
     17          0.020591   0.000000
     18          0.020635   0.000000
     19          1.515755   0.000000
     20          1.586743   0.000000
     21          2.422797   0.000000
     22          2.982301   0.000000
     23          4.835457   0.000000
     24          5.339694   0.000000
     25          5.604416   0.000000
     26          5.610940   0.000000
     27          6.246903   0.000000
     28          6.479098   0.000000
     29          6.805588   0.000000
     30          6.805619   0.000000
     31          7.092570   0.000000
     32          7.524081   0.000000
     33          7.524083   0.000000
     34          7.664010   0.000000
     35          8.058996   0.000000
     36          8.353387   0.000000
     37          8.353387   0.000000
     38          8.738752   0.000000
     39          8.838668   0.000000
     40          9.135157   0.000000
     41          9.135157   0.000000
     42          9.653310   0.000000
     43          9.860054   0.000000
     44         10.463699   0.000000
     45         10.463703   0.000000
     46         11.146960   0.000000
     47         11.187536   0.000000
     48         11.187540   0.000000
 
  0.3333333E+00 -0.3762261E-17  0.0000000E+00  0.4166667E-01
      1        -21.137590   1.000000
      2        -19.198395   1.000000
      3        -17.342091   1.000000
      4        -17.342086   1.000000
      5        -13.647192   1.000000
      6        -13.647156   1.000000
      7        -11.868024   1.000000
      8        -10.287967   1.000000
      9        -10.287931   1.000000
     10         -9.105377   1.000000
     11         -8.010869   1.000000
     12         -7.547277   1.000000
     13         -6.876367   1.000000
     14         -6.387795   1.000000
     15         -4.893957   1.000000
     16         -4.893940   1.000000
     17          0.309704   0.000000
     18          0.309735   0.000000
     19          1.907533   0.000000
     20          2.714201   0.000000
     21          2.816720   0.000000
     22          3.381348   0.000000
     23          4.576300   0.000000
     24          5.225428   0.000000
     25          5.535779   0.000000
     26          5.558299   0.000000
     27          5.942733   0.000000
     28          6.131027   0.000000
     29          6.244941   0.000000
     30          7.200395   0.000000
     31          7.219901   0.000000
     32          7.219902   0.000000
     33          7.892109   0.000000
     34          7.892142   0.000000
     35          7.906905   0.000000
     36          8.020516   0.000000
     37          8.020516   0.000000
     38          8.708547   0.000000
     39          8.710629   0.000000
     40          8.852799   0.000000
     41          8.852799   0.000000
     42          9.117059   0.000000
     43         10.091693   0.000000
     44         10.091697   0.000000
     45         10.249310   0.000000
     46         11.320246   0.000000
     47         11.320250   0.000000
     48         11.615018   0.000000
 
  0.4166667E+00 -0.7885966E-17  0.0000000E+00  0.4166667E-01
      1        -20.769938   1.000000
      2        -19.798216   1.000000
      3        -17.453321   1.000000
      4        -17.453319   1.000000
      5        -13.065141   1.000000
      6        -13.065114   1.000000
      7        -10.891867   1.000000
      8        -10.891840   1.000000
      9        -10.763414   1.000000
     10         -8.672045   1.000000
     11         -8.570301   1.000000
     12         -7.669666   1.000000
     13         -7.547719   1.000000
     14         -6.837898   1.000000
     15         -4.956485   1.000000
     16         -4.956477   1.000000
     17          0.528811   0.000000
     18          0.528827   0.000000
     19          2.410814   0.000000
     20          3.320758   0.000000
     21          3.748421   0.000000
     22          3.857660   0.000000
     23          3.894184   0.000000
     24          4.723351   0.000000
     25          5.253225   0.000000
     26          5.707622   0.000000
     27          5.730104   0.000000
     28          6.012746   0.000000
     29          6.215981   0.000000
     30          6.562698   0.000000
     31          7.063544   0.000000
     32          7.063544   0.000000
     33          7.078604   0.000000
     34          7.803239   0.000000
     35          7.803239   0.000000
     36          7.877209   0.000000
     37          8.667824   0.000000
     38          8.667824   0.000000
     39          9.075972   0.000000
     40          9.076004   0.000000
     41          9.600252   0.000000
     42          9.834453   0.000000
     43          9.834455   0.000000
     44          9.931516   0.000000
     45         10.746568   0.000000
     46         10.861281   0.000000
     47         11.121842   0.000000
     48         11.121845   0.000000
 
  0.5000000E+00  0.2059342E-16  0.0000000E+00  0.2083333E-01
      1        -20.322924   1.000000
      2        -20.322924   1.000000
      3        -17.490767   1.000000
      4        -17.490767   1.000000
      5        -12.762368   1.000000
      6        -12.762368   1.000000
      7        -11.204561   1.000000
      8        -11.204561   1.000000
      9         -9.654937   1.000000
     10         -9.654937   1.000000
     11         -8.150494   1.000000
     12         -8.150494   1.000000
     13         -7.273163   1.000000
     14         -7.273163   1.000000
     15         -4.978569   1.000000
     16         -4.978569   1.000000
     17          0.610986   0.000000
     18          0.610986   0.000000
     19          3.024898   0.000000
     20          3.024898   0.000000
     21          3.923156   0.000000
     22          3.923156   0.000000
     23          4.520098   0.000000
     24          4.520098   0.000000
     25          5.083946   0.000000
     26          5.083946   0.000000
     27          5.880977   0.000000
     28          5.880977   0.000000
     29          6.361656   0.000000
     30          6.361656   0.000000
     31          7.009329   0.000000
     32          7.009329   0.000000
     33          7.156978   0.000000
     34          7.156978   0.000000
     35          7.726472   0.000000
     36          7.726472   0.000000
     37          8.617288   0.000000
     38          8.617288   0.000000
     39          9.742214   0.000000
     40          9.742214   0.000000
     41         10.065956   0.000000
     42         10.065956   0.000000
     43         10.184039   0.000000
     44         10.184039   0.000000
     45         10.511383   0.000000
     46         10.511383   0.000000
     47         11.157876   0.000000
     48         11.157876   0.000000
 
  0.8333333E-01  0.8333333E-01  0.0000000E+00  0.4166667E-01
      1        -21.671426   1.000000
      2        -17.384657   1.000000
      3        -17.384657   1.000000
      4        -16.414210   1.000000
      5        -15.392055   1.000000
      6        -14.442910   1.000000
      7        -14.442910   1.000000
      8         -9.740036   1.000000
      9         -9.177935   1.000000
     10         -8.695153   1.000000
     11         -8.695153   1.000000
     12         -5.735608   1.000000
     13         -5.518137   1.000000
     14         -5.086877   1.000000
     15         -5.086877   1.000000
     16         -4.446576   1.000000
     17         -0.579747   0.000000
     18          0.120712   0.000000
     19          0.120712   0.000000
     20          1.179840   0.000000
     21          2.084382   0.000000
     22          2.640240   0.000000
     23          4.499507   0.000000
     24          5.280501   0.000000
     25          5.456657   0.000000
     26          5.456657   0.000000
     27          5.947166   0.000000
     28          6.238754   0.000000
     29          6.652892   0.000000
     30          7.195994   0.000000
     31          7.195994   0.000000
     32          8.123691   0.000000
     33          8.123691   0.000000
     34          8.411584   0.000000
     35          8.796573   0.000000
     36          8.796573   0.000000
     37          8.865290   0.000000
     38          9.054741   0.000000
     39          9.215396   0.000000
     40          9.523356   0.000000
     41          9.774286   0.000000
     42         10.200695   0.000000
     43         10.419440   0.000000
     44         10.419440   0.000000
     45         10.667633   0.000000
     46         10.820339   0.000000
     47         10.847510   0.000000
     48         11.004139   0.000000
 
  0.1666667E+00  0.8333333E-01  0.0000000E+00  0.8333333E-01
      1        -21.506834   1.000000
      2        -18.139224   1.000000
      3        -17.681217   1.000000
      4        -16.448234   1.000000
      5        -15.084159   1.000000
      6        -13.889729   1.000000
      7        -13.449045   1.000000
      8         -9.752148   1.000000
      9         -9.543750   1.000000
     10         -9.011680   1.000000
     11         -8.532475   1.000000
     12         -6.323357   1.000000
     13         -5.848824   1.000000
     14         -5.762856   1.000000
     15         -5.306125   1.000000
     16         -4.329241   1.000000
     17         -0.560842   0.000000
     18          0.517807   0.000000
     19          1.043621   0.000000
     20          1.403816   0.000000
     21          2.310059   0.000000
     22          2.868297   0.000000
     23          4.723611   0.000000
     24          5.498732   0.000000
     25          5.522477   0.000000
     26          6.019955   0.000000
     27          6.113062   0.000000
     28          6.326977   0.000000
     29          6.764627   0.000000
     30          6.771450   0.000000
     31          7.026955   0.000000
     32          7.250263   0.000000
     33          7.660776   0.000000
     34          7.663592   0.000000
     35          8.322182   0.000000
     36          8.342127   0.000000
     37          8.629099   0.000000
     38          8.695445   0.000000
     39          9.370799   0.000000
     40          9.385720   0.000000
     41          9.748591   0.000000
     42          9.954354   0.000000
     43          9.959755   0.000000
     44         10.205083   0.000000
     45         10.382125   0.000000
     46         10.605227   0.000000
     47         10.860145   0.000000
     48         11.000095   0.000000
 
  0.2500000E+00  0.8333333E-01  0.0000000E+00  0.8333333E-01
      1        -21.260510   1.000000
      2        -18.842076   1.000000
      3        -17.909214   1.000000
      4        -16.594935   1.000000
      5        -14.544588   1.000000
      6        -13.290981   1.000000
      7        -12.394988   1.000000
      8        -10.427186   1.000000
      9         -9.494441   1.000000
     10         -9.250957   1.000000
     11         -8.292623   1.000000
     12         -7.124832   1.000000
     13         -6.486674   1.000000
     14         -6.269702   1.000000
     15         -5.486919   1.000000
     16         -4.272500   1.000000
     17         -0.443974   0.000000
     18          0.913417   0.000000
     19          1.739749   0.000000
     20          2.123512   0.000000
     21          2.648081   0.000000
     22          3.210401   0.000000
     23          5.058874   0.000000
     24          5.067677   0.000000
     25          5.687074   0.000000
     26          5.819205   0.000000
     27          6.030721   0.000000
     28          6.365840   0.000000
     29          6.394828   0.000000
     30          6.639307   0.000000
     31          6.922097   0.000000
     32          7.303751   0.000000
     33          7.564484   0.000000
     34          7.799800   0.000000
     35          8.002436   0.000000
     36          8.096521   0.000000
     37          8.379587   0.000000
     38          8.395087   0.000000
     39          8.943503   0.000000
     40          8.953529   0.000000
     41          9.209939   0.000000
     42          9.585328   0.000000
     43         10.036141   0.000000
     44         10.083841   0.000000
     45         10.529116   0.000000
     46         10.559216   0.000000
     47         10.777351   0.000000
     48         11.523748   0.000000
 
  0.3333333E+00  0.8333333E-01  0.0000000E+00  0.8333333E-01
      1        -20.933158   1.000000
      2        -19.477618   1.000000
      3        -18.063255   1.000000
      4        -16.719470   1.000000
      5        -13.942774   1.000000
      6        -12.688719   1.000000
      7        -11.306571   1.000000
      8        -11.119356   1.000000
      9        -10.051888   1.000000
     10         -8.863876   1.000000
     11         -8.075135   1.000000
     12         -7.981439   1.000000
     13         -7.184478   1.000000
     14         -6.727851   1.000000
     15         -5.614449   1.000000
     16         -4.255092   1.000000
     17         -0.297799   0.000000
     18          1.241939   0.000000
     19          2.187399   0.000000
     20          3.097448   0.000000
     21          3.264848   0.000000
     22          3.666452   0.000000
     23          4.193023   0.000000
     24          5.145171   0.000000
     25          5.501660   0.000000
     26          5.681909   0.000000
     27          5.863284   0.000000
     28          6.147801   0.000000
     29          6.189059   0.000000
     30          6.425419   0.000000
     31          6.642235   0.000000
     32          7.051995   0.000000
     33          7.516444   0.000000
     34          7.752627   0.000000
     35          8.000813   0.000000
     36          8.134289   0.000000
     37          8.322011   0.000000
     38          8.592186   0.000000
     39          8.984667   0.000000
     40          9.143649   0.000000
     41          9.314908   0.000000
     42          9.383491   0.000000
     43          9.812204   0.000000
     44         10.294837   0.000000
     45         10.307603   0.000000
     46         10.527866   0.000000
     47         11.253462   0.000000
     48         11.338896   0.000000
 
  0.4166667E+00  0.8333333E-01  0.0000000E+00  0.8333333E-01
      1        -20.525826   1.000000
      2        -20.039942   1.000000
      3        -18.140809   1.000000
      4        -16.786336   1.000000
      5        -13.441522   1.000000
      6        -12.209847   1.000000
      7        -11.668939   1.000000
      8        -10.518570   1.000000
      9        -10.205387   1.000000
     10         -9.116982   1.000000
     11         -8.386099   1.000000
     12         -7.823114   1.000000
     13         -7.607259   1.000000
     14         -7.182967   1.000000
     15         -5.680210   1.000000
     16         -4.253361   1.000000
     17         -0.198715   0.000000
     18          1.431254   0.000000
     19          2.746273   0.000000
     20          3.415503   0.000000
     21          3.654303   0.000000
     22          4.216066   0.000000
     23          4.236136   0.000000
     24          4.568727   0.000000
     25          4.918227   0.000000
     26          5.566717   0.000000
     27          5.983006   0.000000
     28          6.080282   0.000000
     29          6.091654   0.000000
     30          6.121900   0.000000
     31          6.743070   0.000000
     32          6.888160   0.000000
     33          6.920304   0.000000
     34          7.545429   0.000000
     35          7.653443   0.000000
     36          8.029898   0.000000
     37          8.392401   0.000000
     38          9.124374   0.000000
     39          9.170230   0.000000
     40          9.684060   0.000000
     41          9.915405   0.000000
     42         10.131695   0.000000
     43         10.158270   0.000000
     44         10.201318   0.000000
     45         10.332304   0.000000
     46         10.543213   0.000000
     47         10.629961   0.000000
     48         11.081189   0.000000
 
  0.1666667E+00  0.1666667E+00  0.0000000E+00  0.4166667E-01
      1        -21.301526   1.000000
      2        -18.411127   1.000000
      3        -18.411127   1.000000
      4        -16.097032   1.000000
      5        -15.093798   1.000000
      6        -12.872231   1.000000
      7        -12.872231   1.000000
      8        -10.473263   1.000000
      9         -9.299576   1.000000
     10         -8.806363   1.000000
     11         -8.806363   1.000000
     12         -6.939881   1.000000
     13         -6.272344   1.000000
     14         -6.021121   1.000000
     15         -6.021121   1.000000
     16         -3.996268   1.000000
     17         -0.765349   0.000000
     18          1.518847   0.000000
     19          1.518847   0.000000
     20          1.683858   0.000000
     21          2.591841   0.000000
     22          3.153444   0.000000
     23          5.003276   0.000000
     24          5.673124   0.000000
     25          5.673124   0.000000
     26          5.772395   0.000000
     27          6.163140   0.000000
     28          6.163140   0.000000
     29          6.537174   0.000000
     30          6.624857   0.000000
     31          6.624857   0.000000
     32          7.264095   0.000000
     33          7.264095   0.000000
     34          7.692259   0.000000
     35          7.743720   0.000000
     36          7.786570   0.000000
     37          8.897883   0.000000
     38          8.968044   0.000000
     39          8.968044   0.000000
     40          9.414823   0.000000
     41          9.475642   0.000000
     42          9.671522   0.000000
     43          9.817585   0.000000
     44          9.817585   0.000000
     45         10.028987   0.000000
     46         10.710473   0.000000
     47         11.310130   0.000000
     48         11.347422   0.000000
 
  0.2500000E+00  0.1666667E+00  0.0000000E+00  0.8333333E-01
      1        -21.014900   1.000000
      2        -19.079820   1.000000
      3        -18.607202   1.000000
      4        -16.022314   1.000000
      5        -14.720232   1.000000
      6        -12.275281   1.000000
      7        -11.813999   1.000000
      8        -11.227650   1.000000
      9         -9.237655   1.000000
     10         -8.960112   1.000000
     11         -8.523415   1.000000
     12         -7.729063   1.000000
     13         -6.772438   1.000000
     14         -6.737283   1.000000
     15         -6.211487   1.000000
     16         -3.740897   1.000000
     17         -0.876703   0.000000
     18          1.937973   0.000000
     19          2.075806   0.000000
     20          2.615752   0.000000
     21          2.985603   0.000000
     22          3.552660   0.000000
     23          4.749486   0.000000
     24          5.393448   0.000000
     25          5.416030   0.000000
     26          5.685831   0.000000
     27          6.148736   0.000000
     28          6.212969   0.000000
     29          6.327929   0.000000
     30          6.357473   0.000000
     31          6.700464   0.000000
     32          6.879347   0.000000
     33          6.927415   0.000000
     34          7.071837   0.000000
     35          8.050975   0.000000
     36          8.407100   0.000000
     37          8.666670   0.000000
     38          8.877412   0.000000
     39          8.905248   0.000000
     40          9.009911   0.000000
     41          9.272295   0.000000
     42          9.308075   0.000000
     43          9.541033   0.000000
     44         10.418931   0.000000
     45         10.463292   0.000000
     46         10.884389   0.000000
     47         11.049004   0.000000
     48         11.667915   0.000000
 
  0.3333333E+00  0.1666667E+00  0.0000000E+00  0.8333333E-01
      1        -20.647873   1.000000
      2        -19.678116   1.000000
      3        -18.725518   1.000000
      4        -16.059732   1.000000
      5        -14.192872   1.000000
      6        -11.914665   1.000000
      7        -11.725918   1.000000
      8        -10.739382   1.000000
      9         -9.710430   1.000000
     10         -8.657029   1.000000
     11         -8.528198   1.000000
     12         -8.168402   1.000000
     13         -7.407163   1.000000
     14         -7.277238   1.000000
     15         -6.327976   1.000000
     16         -3.585578   1.000000
     17         -0.918289   0.000000
     18          2.234626   0.000000
     19          2.579280   0.000000
     20          3.489738   0.000000
     21          3.734162   0.000000
     22          3.917875   0.000000
     23          4.065795   0.000000
     24          4.859488   0.000000
     25          5.252586   0.000000
     26          5.431317   0.000000
     27          5.844242   0.000000
     28          5.977750   0.000000
     29          6.142888   0.000000
     30          6.424334   0.000000
     31          6.533964   0.000000
     32          6.800142   0.000000
     33          6.826471   0.000000
     34          7.229582   0.000000
     35          8.046961   0.000000
     36          8.079827   0.000000
     37          8.477422   0.000000
     38          8.672030   0.000000
     39          9.115070   0.000000
     40          9.288938   0.000000
     41          9.380926   0.000000
     42          9.748372   0.000000
     43         10.064869   0.000000
     44         10.805326   0.000000
     45         10.858410   0.000000
     46         10.867786   0.000000
     47         10.917536   0.000000
     48         10.971353   0.000000
 
  0.4166667E+00  0.1666667E+00  0.0000000E+00  0.4166667E-01
      1        -20.201680   1.000000
      2        -20.201679   1.000000
      3        -18.765061   1.000000
      4        -16.080561   1.000000
      5        -13.895751   1.000000
      6        -12.258864   1.000000
      7        -11.450307   1.000000
      8         -9.964369   1.000000
      9         -9.675426   1.000000
     10         -9.675402   1.000000
     11         -8.008167   1.000000
     12         -8.008164   1.000000
     13         -7.749117   1.000000
     14         -7.749091   1.000000
     15         -6.367219   1.000000
     16         -3.534376   1.000000
     17         -0.926199   0.000000
     18          2.342822   0.000000
     19          3.193663   0.000000
     20          3.193663   0.000000
     21          4.092236   0.000000
     22          4.092236   0.000000
     23          4.692487   0.000000
     24          4.692488   0.000000
     25          4.883499   0.000000
     26          4.883513   0.000000
     27          5.197686   0.000000
     28          6.079389   0.000000
     29          6.512416   0.000000
     30          6.512417   0.000000
     31          6.546177   0.000000
     32          6.546203   0.000000
     33          6.744309   0.000000
     34          7.335719   0.000000
     35          7.335721   0.000000
     36          8.412335   0.000000
     37          8.546558   0.000000
     38          8.851451   0.000000
     39          9.064411   0.000000
     40          9.377020   0.000000
     41          9.998389   0.000000
     42         10.319483   0.000000
     43         10.319485   0.000000
     44         10.330366   0.000000
     45         10.330371   0.000000
     46         10.759656   0.000000
     47         10.778351   0.000000
     48         10.853017   0.000000
 
  0.2500000E+00  0.2500000E+00  0.0000000E+00  0.4166667E-01
      1        -20.688595   1.000000
      2        -19.239154   1.000000
      3        -19.239154   1.000000
      4        -15.569621   1.000000
      5        -14.698770   1.000000
      6        -11.990157   1.000000
      7        -11.245064   1.000000
      8        -11.245064   1.000000