 ----------------------------------------------------
    OOO  PPPP  EEEEE N   N M   M PPPP
   O   O P   P E     NN  N MM MM P   P
   O   O PPPP  EEEEE N N N M M M PPPP   -- VERSION
   O   O P     E     N  NN M   M P
    OOO  P     EEEEE N   N M   M P
 ----------------------------------------------------
 running   48 mpi-ranks, with    1 threads/rank
 distrk:  each k-point on   48 cores,    1 groups
 distr:  one band on    1 cores,   48 groups
 vasp.6.3.2 27Jun22 (build Dec 22 2022 13:13:19) complex                        
  
 POSCAR found type information on POSCAR C 
 POSCAR found :  1 types and       8 ions
 Reading from existing POTCAR
 scaLAPACK will be used
 Reading from existing POTCAR
 LDA part: xc-table for Pade appr. of Perdew
 POSCAR found type information on POSCAR C 
 POSCAR found :  1 types and       8 ions
 POSCAR, INCAR and KPOINTS ok, starting setup
 FFT: planning ... GRIDC
 FFT: planning ... GRID_SOFT
 FFT: planning ... GRID
 WAVECAR not read
 entering main loop
       N       E                     dE             d eps       ncg     rms          rms(c)
DAV:   1     0.109478172623E+03    0.10948E+03   -0.13981E+04  1824   0.454E+02
DAV:   2    -0.719017788632E+02   -0.18138E+03   -0.17948E+03  2064   0.960E+01
DAV:   3    -0.790079062681E+02   -0.71061E+01   -0.71046E+01  3552   0.248E+01
DAV:   4    -0.790115351591E+02   -0.36289E-02   -0.36289E-02  1872   0.642E-01
DAV:   5    -0.790115502301E+02   -0.15071E-04   -0.15071E-04  3456   0.462E-02    0.128E+01
DAV:   6    -0.752844314819E+02    0.37271E+01   -0.36255E+00  2736   0.455E+00    0.758E+00
DAV:   7    -0.738455928853E+02    0.14388E+01   -0.47569E+00  2928   0.509E+00    0.193E+00
DAV:   8    -0.738147626455E+02    0.30830E-01   -0.33204E-02  2880   0.601E-01    0.195E-01
DAV:   9    -0.738061926992E+02    0.85699E-02   -0.58612E-03  3168   0.143E-01    0.149E-01
DAV:  10    -0.738000314919E+02    0.61612E-02   -0.90310E-03  2400   0.159E-01    0.703E-02
DAV:  11    -0.738009350759E+02   -0.90358E-03   -0.89445E-04  2256   0.597E-02    0.845E-02
DAV:  12    -0.738018686793E+02   -0.93360E-03   -0.11420E-04  2928   0.238E-02    0.209E-02
DAV:  13    -0.738047858632E+02   -0.29172E-02   -0.79523E-04  2640   0.372E-02    0.823E-03
DAV:  14    -0.738050825654E+02   -0.29670E-03   -0.58323E-06  3120   0.427E-03    0.423E-03
DAV:  15    -0.738054120724E+02   -0.32951E-03   -0.27828E-05  2160   0.647E-03    0.134E-03
DAV:  16    -0.738054443700E+02   -0.32298E-04   -0.88801E-07  2208   0.171E-03    0.172E-04
DAV:  17    -0.738054453875E+02   -0.10175E-05   -0.18594E-08  2544   0.226E-04    0.107E-04
DAV:  18    -0.738054461900E+02   -0.80246E-06   -0.17554E-08  1968   0.221E-04
   1 F= -.74515996E+02 E0= -.74515213E+02  d E =-.745160E+02
 curvature:   0.00 expect dE= 0.000E+00 dE for cont linesearch  0.000E+00
 trial: gam= 0.00000 g(F)=  0.437E-39 g(S)=  0.000E+00 ort = 0.000E+00 (trialstep = 0.100E+01)
 search vector abs. value=  0.100E-09
 reached required accuracy - stopping structural energy minimisation
