   8   8   0   4
  0.4338553E+02  0.5169000E-09  0.5169000E-09  0.1500000E-08  0.5000000E-15
  1.000000000000000E-004
  CAR 
 Lattice                                 
      6.47174110    -21.13987543  301     -3.47720290      1.00000000
    -21.140  0.0000E+00  0.0000E+00
    -21.048  0.0000E+00  0.0000E+00
    -20.956  0.0000E+00  0.0000E+00
    -20.864  0.0000E+00  0.0000E+00
    -20.772  0.0000E+00  0.0000E+00
    -20.680  0.0000E+00  0.0000E+00
    -20.588  0.0000E+00  0.0000E+00
    -20.496  0.0000E+00  0.0000E+00
    -20.404  0.1815E-15  0.1670E-16
    -20.312  0.1473E-11  0.1356E-12
    -20.219  0.2437E-08  0.2244E-09
    -20.127  0.8504E-06  0.7850E-07
    -20.035  0.6563E-04  0.6119E-05
    -19.943  0.1217E-02  0.1182E-03
    -19.851  0.6428E-02  0.7098E-03
    -19.759  0.1297E-01  0.1904E-02
    -19.667  0.1593E-01  0.3370E-02
    -19.575  0.1748E-01  0.4979E-02
    -19.483  0.2046E-01  0.6862E-02
    -19.391  0.2621E-01  0.9274E-02
    -19.299  0.3394E-01  0.1240E-01
    -19.207  0.2607E-01  0.1480E-01
    -19.115  0.8152E-02  0.1555E-01
    -19.023  0.8168E-03  0.1562E-01
    -18.931  0.2235E-04  0.1562E-01
    -18.839  0.1456E-06  0.1562E-01
    -18.747  0.2025E-09  0.1562E-01
    -18.655  0.5624E-13  0.1562E-01
    -18.563  0.2804E-17  0.1562E-01
    -18.471  0.0000E+00  0.1562E-01
    -18.379  0.0000E+00  0.1562E-01
    -18.287  0.0000E+00  0.1562E-01
    -18.195  0.0000E+00  0.1562E-01
    -18.103  0.2590E-14  0.1563E-01
    -18.011  0.1751E-10  0.1563E-01
    -17.919  0.2277E-07  0.1563E-01
    -17.826  0.5824E-05  0.1563E-01
    -17.734  0.3055E-03  0.1565E-01
    -17.642  0.3643E-02  0.1599E-01
    -17.550  0.1308E-01  0.1719E-01
    -17.458  0.2276E-01  0.1929E-01
    -17.366  0.2507E-01  0.2160E-01
    -17.274  0.2049E-01  0.2348E-01
    -17.182  0.1469E-01  0.2483E-01
    -17.090  0.1592E-01  0.2630E-01
    -16.998  0.1481E-01  0.2766E-01
    -16.906  0.1307E-01  0.2887E-01
    -16.814  0.1669E-01  0.3040E-01
    -16.722  0.2144E-01  0.3238E-01
    -16.630  0.1593E-01  0.3384E-01
    -16.538  0.2205E-01  0.3587E-01
    -16.446  0.2960E-01  0.3860E-01
    -16.354  0.2632E-01  0.4102E-01
    -16.262  0.2017E-01  0.4287E-01
    -16.170  0.1549E-01  0.4430E-01
    -16.078  0.1486E-01  0.4567E-01
    -15.986  0.9248E-02  0.4652E-01
    -15.894  0.3362E-02  0.4683E-01
    -15.802  0.4767E-03  0.4687E-01
    -15.710  0.1862E-04  0.4687E-01
    -15.618  0.1729E-06  0.4687E-01
    -15.526  0.3456E-09  0.4687E-01
    -15.433  0.1390E-12  0.4687E-01
    -15.341  0.1075E-16  0.4687E-01
    -15.249  0.0000E+00  0.4687E-01
    -15.157  0.0000E+00  0.4687E-01
    -15.065  0.0000E+00  0.4687E-01
    -14.973  0.0000E+00  0.4687E-01
    -14.881  0.0000E+00  0.4687E-01
    -14.789  0.0000E+00  0.4687E-01
    -14.697  0.8985E-15  0.4688E-01
    -14.605  0.6556E-11  0.4688E-01
    -14.513  0.9177E-08  0.4688E-01
    -14.421  0.2528E-05  0.4688E-01
    -14.329  0.1440E-03  0.4689E-01
    -14.237  0.1874E-02  0.4706E-01
    -14.145  0.6856E-02  0.4769E-01
    -14.053  0.1255E-01  0.4885E-01
    -13.961  0.2086E-01  0.5077E-01
    -13.869  0.2216E-01  0.5281E-01
    -13.777  0.2047E-01  0.5469E-01
    -13.685  0.2150E-01  0.5667E-01
    -13.593  0.2674E-01  0.5913E-01
    -13.501  0.2261E-01  0.6121E-01
    -13.409  0.9507E-02  0.6209E-01
    -13.317  0.6171E-02  0.6265E-01
    -13.225  0.8996E-02  0.6348E-01
    -13.133  0.1422E-01  0.6479E-01
    -13.040  0.1552E-01  0.6622E-01
    -12.948  0.8869E-02  0.6704E-01
    -12.856  0.3481E-02  0.6736E-01
    -12.764  0.7725E-02  0.6807E-01
    -12.672  0.2190E-01  0.7008E-01
    -12.580  0.2247E-01  0.7215E-01
    -12.488  0.8265E-02  0.7291E-01
    -12.396  0.8235E-02  0.7367E-01
    -12.304  0.1531E-01  0.7508E-01
    -12.212  0.1578E-01  0.7653E-01
    -12.120  0.1160E-01  0.7760E-01
    -12.028  0.9711E-02  0.7849E-01
    -11.936  0.1239E-01  0.7963E-01
    -11.844  0.8383E-02  0.8040E-01
    -11.752  0.1798E-02  0.8057E-01
    -11.660  0.4879E-03  0.8061E-01
    -11.568  0.3759E-02  0.8096E-01
    -11.476  0.8429E-02  0.8174E-01
    -11.384  0.6318E-02  0.8232E-01
    -11.292  0.4867E-02  0.8277E-01
    -11.200  0.2599E-02  0.8300E-01
    -11.108  0.2376E-02  0.8322E-01
    -11.016  0.4350E-02  0.8362E-01
    -10.924  0.5896E-02  0.8417E-01
    -10.832  0.1512E-01  0.8556E-01
    -10.739  0.1632E-01  0.8706E-01
    -10.647  0.1242E-01  0.8820E-01
    -10.555  0.1487E-01  0.8957E-01
    -10.463  0.1441E-01  0.9090E-01
    -10.371  0.7325E-02  0.9157E-01
    -10.279  0.9537E-02  0.9245E-01
    -10.187  0.2235E-01  0.9451E-01
    -10.095  0.2052E-01  0.9640E-01
    -10.003  0.1119E-01  0.9743E-01
     -9.911  0.1720E-01  0.9901E-01
     -9.819  0.2335E-01  0.1012E+00
     -9.727  0.1253E-01  0.1023E+00
     -9.635  0.7162E-02  0.1030E+00
     -9.543  0.1401E-01  0.1043E+00
     -9.451  0.2171E-01  0.1063E+00
     -9.359  0.2647E-01  0.1087E+00
     -9.267  0.1701E-01  0.1103E+00
     -9.175  0.9278E-02  0.1111E+00
     -9.083  0.1357E-01  0.1124E+00
     -8.991  0.1985E-01  0.1142E+00
     -8.899  0.1843E-01  0.1159E+00
     -8.807  0.1895E-01  0.1176E+00
     -8.715  0.2177E-01  0.1196E+00
     -8.623  0.2163E-01  0.1216E+00
     -8.531  0.2377E-01  0.1238E+00
     -8.439  0.2123E-01  0.1258E+00
     -8.346  0.1933E-01  0.1275E+00
     -8.254  0.1757E-01  0.1292E+00
     -8.162  0.1189E-01  0.1303E+00
     -8.070  0.2160E-01  0.1322E+00
     -7.978  0.2322E-01  0.1344E+00
     -7.886  0.2001E-01  0.1362E+00
     -7.794  0.3418E-01  0.1394E+00
     -7.702  0.3985E-01  0.1430E+00
     -7.610  0.3368E-01  0.1461E+00
     -7.518  0.2918E-01  0.1488E+00
     -7.426  0.2001E-01  0.1507E+00
     -7.334  0.1521E-01  0.1521E+00
     -7.242  0.1274E-01  0.1532E+00
     -7.150  0.1206E-01  0.1543E+00
     -7.058  0.1924E-01  0.1561E+00
     -6.966  0.1762E-01  0.1577E+00
     -6.874  0.1000E-01  0.1587E+00
     -6.782  0.8985E-02  0.1595E+00
     -6.690  0.1574E-01  0.1609E+00
     -6.598  0.2290E-01  0.1630E+00
     -6.506  0.3077E-01  0.1659E+00
     -6.414  0.5310E-01  0.1708E+00
     -6.322  0.6568E-01  0.1768E+00
     -6.230  0.4622E-01  0.1811E+00
     -6.138  0.3177E-01  0.1840E+00
     -6.046  0.3002E-01  0.1867E+00
     -5.953  0.2705E-01  0.1892E+00
     -5.861  0.1802E-01  0.1909E+00
     -5.769  0.1430E-01  0.1922E+00
     -5.677  0.1413E-01  0.1935E+00
     -5.585  0.2014E-01  0.1954E+00
     -5.493  0.2204E-01  0.1974E+00
     -5.401  0.2619E-01  0.1998E+00
     -5.309  0.2589E-01  0.2022E+00
     -5.217  0.1933E-01  0.2040E+00
     -5.125  0.2204E-01  0.2060E+00
     -5.033  0.3000E-01  0.2088E+00
     -4.941  0.3667E-01  0.2121E+00
     -4.849  0.3437E-01  0.2153E+00
     -4.757  0.3643E-01  0.2186E+00
     -4.665  0.4091E-01  0.2224E+00
     -4.573  0.2981E-01  0.2252E+00
     -4.481  0.1963E-01  0.2270E+00
     -4.389  0.1755E-01  0.2286E+00
     -4.297  0.1600E-01  0.2301E+00
     -4.205  0.9271E-02  0.2309E+00
     -4.113  0.6127E-02  0.2315E+00
     -4.021  0.9397E-02  0.2323E+00
     -3.929  0.9645E-02  0.2332E+00
     -3.837  0.7621E-02  0.2339E+00
     -3.745  0.3927E-02  0.2343E+00
     -3.653  0.9237E-03  0.2344E+00
     -3.560  0.7426E-04  0.2344E+00
     -3.468  0.1550E-05  0.2344E+00
     -3.376  0.4801E-05  0.2344E+00
     -3.284  0.2144E-03  0.2344E+00
     -3.192  0.2169E-02  0.2346E+00
     -3.100  0.6080E-02  0.2352E+00
     -3.008  0.6989E-02  0.2358E+00
     -2.916  0.1098E-01  0.2368E+00
     -2.824  0.2175E-01  0.2388E+00
     -2.732  0.1871E-01  0.2405E+00
     -2.640  0.1465E-01  0.2419E+00
     -2.548  0.1501E-01  0.2433E+00
     -2.456  0.1589E-01  0.2447E+00
     -2.364  0.1780E-01  0.2464E+00
     -2.272  0.1174E-01  0.2474E+00
     -2.180  0.6203E-02  0.2480E+00
     -2.088  0.3913E-02  0.2484E+00
     -1.996  0.4471E-02  0.2488E+00
     -1.904  0.3938E-02  0.2491E+00
     -1.812  0.2211E-02  0.2494E+00
     -1.720  0.3971E-02  0.2497E+00
     -1.628  0.2648E-02  0.2500E+00
     -1.536  0.4038E-03  0.2500E+00
     -1.444  0.1325E-04  0.2500E+00
     -1.352  0.9142E-07  0.2500E+00
     -1.260  0.9547E-06  0.2500E+00
     -1.167  0.7096E-04  0.2500E+00
     -1.075  0.1101E-02  0.2501E+00
     -0.983  0.3769E-02  0.2505E+00
     -0.891  0.3160E-02  0.2507E+00
     -0.799  0.2520E-02  0.2510E+00
     -0.707  0.4101E-02  0.2514E+00
     -0.615  0.1918E-02  0.2515E+00
     -0.523  0.6300E-03  0.2516E+00
     -0.431  0.5222E-02  0.2521E+00
     -0.339  0.1590E-01  0.2535E+00
     -0.247  0.1635E-01  0.2550E+00
     -0.155  0.1461E-01  0.2564E+00
     -0.063  0.1669E-01  0.2579E+00
      0.029  0.1681E-01  0.2595E+00
      0.121  0.1827E-01  0.2611E+00
      0.213  0.1792E-01  0.2628E+00
      0.305  0.1593E-01  0.2643E+00
      0.397  0.7500E-02  0.2650E+00
      0.489  0.4516E-02  0.2654E+00
      0.581  0.1079E-01  0.2664E+00
      0.673  0.1449E-01  0.2677E+00
      0.765  0.1145E-01  0.2687E+00
      0.857  0.8967E-02  0.2696E+00
      0.949  0.1205E-01  0.2707E+00
      1.041  0.1323E-01  0.2719E+00
      1.133  0.1243E-01  0.2730E+00
      1.226  0.1809E-01  0.2747E+00
      1.318  0.2203E-01  0.2767E+00
      1.410  0.1357E-01  0.2780E+00
      1.502  0.8979E-02  0.2788E+00
      1.594  0.1962E-01  0.2806E+00
      1.686  0.2824E-01  0.2832E+00
      1.778  0.1633E-01  0.2847E+00
      1.870  0.1228E-01  0.2859E+00
      1.962  0.2284E-01  0.2880E+00
      2.054  0.3238E-01  0.2909E+00
      2.146  0.2923E-01  0.2936E+00
      2.238  0.1686E-01  0.2952E+00
      2.330  0.1982E-01  0.2970E+00
      2.422  0.2944E-01  0.2997E+00
      2.514  0.3868E-01  0.3033E+00
      2.606  0.3223E-01  0.3062E+00
      2.698  0.2828E-01  0.3088E+00
      2.790  0.3123E-01  0.3117E+00
      2.882  0.2086E-01  0.3136E+00
      2.974  0.2832E-01  0.3162E+00
      3.066  0.4397E-01  0.3203E+00
      3.158  0.3335E-01  0.3234E+00
      3.250  0.2349E-01  0.3255E+00
      3.342  0.1690E-01  0.3271E+00
      3.434  0.3003E-01  0.3298E+00
      3.527  0.4288E-01  0.3338E+00
      3.619  0.3016E-01  0.3366E+00
      3.711  0.1951E-01  0.3384E+00
      3.803  0.2828E-01  0.3410E+00
      3.895  0.3644E-01  0.3443E+00
      3.987  0.3904E-01  0.3479E+00
      4.079  0.3266E-01  0.3509E+00
      4.171  0.2154E-01  0.3529E+00
      4.263  0.1978E-01  0.3547E+00
      4.355  0.2272E-01  0.3568E+00
      4.447  0.2784E-01  0.3594E+00
      4.539  0.2548E-01  0.3617E+00
      4.631  0.2399E-01  0.3639E+00
      4.723  0.2651E-01  0.3664E+00
      4.815  0.1800E-01  0.3680E+00
      4.907  0.1712E-01  0.3696E+00
      4.999  0.1949E-01  0.3714E+00
      5.091  0.1580E-01  0.3728E+00
      5.183  0.1101E-01  0.3739E+00
      5.275  0.8988E-02  0.3747E+00
      5.367  0.3188E-02  0.3750E+00
      5.459  0.2745E-03  0.3750E+00
      5.551  0.5033E-05  0.3750E+00
      5.643  0.1859E-07  0.3750E+00
      5.735  0.1339E-10  0.3750E+00
      5.827  0.1846E-14  0.3750E+00
      5.920  0.0000E+00  0.3750E+00
      6.012  0.0000E+00  0.3750E+00
      6.104  0.0000E+00  0.3750E+00
      6.196  0.0000E+00  0.3750E+00
      6.288  0.0000E+00  0.3750E+00
      6.380  0.0000E+00  0.3750E+00
      6.472  0.0000E+00  0.3750E+00
