Lattice                                 
           1
     4.476485    2.584500    0.000000
    -4.476485    2.584500    0.000000
     0.000000    0.000000   15.000000
   B    C 
     2     6
Direct configuration=     1
   0.33835568  0.66919338  0.25000000
   0.67168550  0.33578412  0.25000000
   0.16393418  0.32096121  0.25000000
   0.32344383  0.16194918  0.25000000
   0.16445142  0.84350783  0.25000000
   0.84555675  0.16147694  0.25000000
   0.68650730  0.84304996  0.25000000
   0.84606136  0.68407339  0.25000000
Direct configuration=     2
   0.33826096  0.66913789  0.25000000
   0.67167031  0.33589161  0.25000000
   0.16281289  0.31804732  0.25000000
   0.32052190  0.16044998  0.25000000
   0.16295810  0.84489387  0.25000000
   0.84701622  0.16013808  0.25000000
   0.68957326  0.84455778  0.25000000
   0.84718236  0.68687947  0.25000000
Direct configuration=     3
   0.33832471  0.66917524  0.25000000
   0.67168053  0.33581926  0.25000000
   0.16356756  0.32000848  0.25000000
   0.32248846  0.16145900  0.25000000
   0.16396316  0.84396101  0.25000000
   0.84603394  0.16103918  0.25000000
   0.68750976  0.84354296  0.25000000
   0.84642788  0.68499087  0.25000000
Direct configuration=     4
   0.33835318  0.66917133  0.25000000
   0.67163666  0.33583228  0.25000000
   0.16358154  0.31999564  0.25000000
   0.32253655  0.16135814  0.25000000
   0.16380794  0.84385635  0.25000000
   0.84619443  0.16114496  0.25000000
   0.68746324  0.84363755  0.25000000
   0.84642247  0.68499975  0.25000000
Direct configuration=     5
   0.33834025  0.66917310  0.25000000
   0.67165658  0.33582637  0.25000000
   0.16357519  0.32000147  0.25000000
   0.32251472  0.16140393  0.25000000
   0.16387841  0.84390387  0.25000000
   0.84612157  0.16109694  0.25000000
   0.68748436  0.84359461  0.25000000
   0.84642493  0.68499572  0.25000000
Direct configuration=     6
   0.33833470  0.66916866  0.25000000
   0.67165636  0.33583401  0.25000000
   0.16365924  0.32000069  0.25000000
   0.32250807  0.16133239  0.25000000
   0.16382046  0.84383228  0.25000000
   0.84618109  0.16116845  0.25000000
   0.68749184  0.84366380  0.25000000
   0.84634424  0.68499571  0.25000000
Direct configuration=     7
   0.33832855  0.66916373  0.25000000
   0.67165611  0.33584247  0.25000000
   0.16375236  0.31999982  0.25000000
   0.32250071  0.16125314  0.25000000
   0.16375626  0.84375297  0.25000000
   0.84624704  0.16124769  0.25000000
   0.68750013  0.84374047  0.25000000
   0.84625483  0.68499571  0.25000000
Direct configuration=     8
   0.33833449  0.66916510  0.25000000
   0.67166610  0.33583184  0.25000000
   0.16374551  0.31999871  0.25000000
   0.32249914  0.16124931  0.25000000
   0.16375284  0.84374883  0.25000000
   0.84624559  0.16125094  0.25000000
   0.68750037  0.84375112  0.25000000
   0.84625197  0.68500016  0.25000000
