<?xml version="1.0" encoding="ISO-8859-1"?>
<modeling>
 <generator>
  <i name="program" type="string">vasp </i>
  <i name="version" type="string">6.3.2  </i>
  <i name="subversion" type="string">27Jun22 (build Dec 22 2022 13:13:19) complex                          parallel </i>
  <i name="platform" type="string">LinuxIFC </i>
  <i name="date" type="string">2023 08 21 </i>
  <i name="time" type="string">19:59:40 </i>
 </generator>
 <incar>
  <i type="string" name="SYSTEM">Lattice</i>
  <i type="int" name="ISTART">     0</i>
  <i type="string" name="PREC">Accurate</i>
  <i type="string" name="ALGO">Normal</i>
  <i type="int" name="ISPIN">     2</i>
  <i type="int" name="ICHARG">     2</i>
  <i type="int" name="NELM">    64</i>
  <i type="int" name="IBRION">     2</i>
  <i name="EDIFF">      0.00000100</i>
  <i name="EDIFFG">     -0.00100000</i>
  <i type="int" name="NSW">   128</i>
  <i type="int" name="ISIF">     2</i>
  <i name="ENCUT">    450.00000000</i>
  <i name="POTIM">      0.50000000</i>
  <i type="int" name="ISMEAR">     0</i>
  <i name="SIGMA">      0.10000000</i>
  <i type="logical" name="LWAVE"> F  </i>
  <i type="logical" name="LCHARG"> F  </i>
  <i type="string" name="GGA">PE</i>
  <i type="int" name="IVDW">    12</i>
 </incar>
 <primitive_cell>
  <structure name="primitive_cell" >
   <crystal>
    <varray name="basis" >
     <v>       4.17424245       2.41000000       0.00000000 </v>
     <v>      -4.17424245       2.41000000       0.00000000 </v>
     <v>       0.00000000       0.00000000      15.00000000 </v>
    </varray>
    <i name="volume">    301.79772886 </i>
    <varray name="rec_basis" >
     <v>       0.11978221       0.20746888       0.00000000 </v>
     <v>      -0.11978221       0.20746888       0.00000000 </v>
     <v>       0.00000000       0.00000000       0.06666667 </v>
    </varray>
   </crystal>
   <varray name="positions" >
    <v>       0.00415361       0.00267210       0.12034134 </v>
    <v>       0.35695335       0.00285503       0.09748893 </v>
    <v>       0.00423858       0.35550699       0.09749256 </v>
    <v>       0.65142295       0.65006557       0.09747688 </v>
    <v>       0.32808646       0.32671938       0.10030508 </v>
    <v>       0.68027775       0.00278085       0.10027562 </v>
    <v>       0.00416530       0.67883808       0.10026559 </v>
    <v>       0.16666600       0.33333300       0.33720000 </v>
    <v>       0.33333300       0.16666600       0.33720000 </v>
    <v>       0.16666600       0.83333300       0.33720000 </v>
    <v>       0.33333300       0.66666600       0.33720000 </v>
    <v>       0.66666600       0.33333300       0.33720000 </v>
    <v>       0.83333300       0.16666600       0.33720000 </v>
    <v>       0.66666600       0.83333300       0.33720000 </v>
    <v>       0.83333300       0.66666600       0.33720000 </v>
   </varray>
  </structure>
  <varray name="primitive_index" >
   <v type="int" >        1 </v>
   <v type="int" >        2 </v>
   <v type="int" >        3 </v>
   <v type="int" >        4 </v>
   <v type="int" >        5 </v>
   <v type="int" >        6 </v>
   <v type="int" >        7 </v>
   <v type="int" >        8 </v>
   <v type="int" >        9 </v>
   <v type="int" >       10 </v>
   <v type="int" >       11 </v>
   <v type="int" >       12 </v>
   <v type="int" >       13 </v>
   <v type="int" >       14 </v>
   <v type="int" >       15 </v>
  </varray>
 </primitive_cell>
 <kpoints>
  <generation param="Gamma">
   <v type="int" name="divisions">      12       12        1 </v>
   <v name="usershift">      0.00000000       0.00000000       0.00000000 </v>
   <v name="genvec1">      0.08333333      -0.00000000       0.00000000 </v>
   <v name="genvec2">     -0.00000000       0.08333333       0.00000000 </v>
   <v name="genvec3">      0.00000000       0.00000000       1.00000000 </v>
   <v name="shift">      0.00000000       0.00000000       0.00000000 </v>
  </generation>
  <varray name="kpointlist" >
   <v>       0.00000000       0.00000000       0.00000000 </v>
   <v>       0.08333333      -0.00000000       0.00000000 </v>
   <v>      -0.00000000       0.08333333       0.00000000 </v>
   <v>      -0.08333333       0.08333333       0.00000000 </v>
   <v>       0.16666667      -0.00000000       0.00000000 </v>
   <v>      -0.00000000       0.16666667       0.00000000 </v>
   <v>      -0.16666667       0.16666667       0.00000000 </v>
   <v>       0.25000000       0.00000000       0.00000000 </v>
   <v>      -0.00000000       0.25000000       0.00000000 </v>
   <v>      -0.25000000       0.25000000       0.00000000 </v>
   <v>       0.33333333      -0.00000000       0.00000000 </v>
   <v>      -0.00000000       0.33333333       0.00000000 </v>
   <v>      -0.33333333       0.33333333       0.00000000 </v>
   <v>       0.41666667       0.00000000       0.00000000 </v>
   <v>       0.00000000       0.41666667       0.00000000 </v>
   <v>      -0.41666667       0.41666667       0.00000000 </v>
   <v>       0.50000000       0.00000000       0.00000000 </v>
   <v>      -0.00000000       0.50000000       0.00000000 </v>
   <v>       0.50000000       0.50000000       0.00000000 </v>
   <v>       0.08333333       0.08333333       0.00000000 </v>
   <v>      -0.08333333       0.16666667       0.00000000 </v>
   <v>      -0.16666667       0.08333333       0.00000000 </v>
   <v>       0.16666667       0.08333333       0.00000000 </v>
   <v>      -0.08333333       0.25000000       0.00000000 </v>
   <v>      -0.25000000       0.16666667       0.00000000 </v>
   <v>      -0.16666667       0.25000000       0.00000000 </v>
   <v>       0.08333333       0.16666667       0.00000000 </v>
   <v>       0.25000000      -0.08333333       0.00000000 </v>
   <v>       0.25000000       0.08333333       0.00000000 </v>
   <v>      -0.08333333       0.33333333       0.00000000 </v>
   <v>      -0.33333333       0.25000000       0.00000000 </v>
   <v>      -0.25000000       0.33333333       0.00000000 </v>
   <v>       0.08333333       0.25000000       0.00000000 </v>
   <v>       0.33333333      -0.08333333       0.00000000 </v>
   <v>       0.33333333       0.08333333       0.00000000 </v>
   <v>      -0.08333333       0.41666667       0.00000000 </v>
   <v>      -0.41666667       0.33333333       0.00000000 </v>
   <v>      -0.33333333       0.41666667       0.00000000 </v>
   <v>       0.08333333       0.33333333       0.00000000 </v>
   <v>       0.41666667      -0.08333333       0.00000000 </v>
   <v>       0.41666667       0.08333333       0.00000000 </v>
   <v>      -0.08333333       0.50000000       0.00000000 </v>
   <v>       0.50000000       0.41666667       0.00000000 </v>
   <v>      -0.41666667       0.50000000       0.00000000 </v>
   <v>       0.08333333       0.41666667       0.00000000 </v>
   <v>       0.50000000      -0.08333333       0.00000000 </v>
   <v>       0.16666667       0.16666667       0.00000000 </v>
   <v>      -0.16666667       0.33333333       0.00000000 </v>
   <v>      -0.33333333       0.16666667       0.00000000 </v>
   <v>       0.25000000       0.16666667       0.00000000 </v>
   <v>      -0.16666667       0.41666667       0.00000000 </v>
   <v>      -0.41666667       0.25000000       0.00000000 </v>
   <v>      -0.25000000       0.41666667       0.00000000 </v>
   <v>       0.16666667       0.25000000       0.00000000 </v>
   <v>       0.41666667      -0.16666667       0.00000000 </v>
   <v>       0.33333333       0.16666667       0.00000000 </v>
   <v>      -0.16666667       0.50000000       0.00000000 </v>
   <v>       0.50000000       0.33333333       0.00000000 </v>
   <v>      -0.33333333       0.50000000       0.00000000 </v>
   <v>       0.16666667       0.33333333       0.00000000 </v>
   <v>       0.50000000      -0.16666667       0.00000000 </v>
   <v>       0.41666667       0.16666667       0.00000000 </v>
   <v>      -0.16666667      -0.41666667       0.00000000 </v>
   <v>       0.41666667       0.41666667       0.00000000 </v>
   <v>       0.25000000       0.25000000       0.00000000 </v>
   <v>      -0.25000000       0.50000000       0.00000000 </v>
   <v>       0.50000000       0.25000000       0.00000000 </v>
   <v>       0.33333333       0.25000000       0.00000000 </v>
   <v>      -0.25000000      -0.41666667       0.00000000 </v>
   <v>       0.41666667       0.33333333       0.00000000 </v>
   <v>      -0.33333333      -0.41666667       0.00000000 </v>
   <v>       0.25000000       0.33333333       0.00000000 </v>
   <v>      -0.41666667      -0.25000000       0.00000000 </v>
   <v>       0.33333333       0.33333333       0.00000000 </v>
  </varray>
  <varray name="weights" >
   <v>       0.00694444 </v>
   <v>       0.01388889 </v>
   <v>       0.01388889 </v>
   <v>       0.01388889 </v>
   <v>       0.01388889 </v>
   <v>       0.01388889 </v>
   <v>       0.01388889 </v>
   <v>       0.01388889 </v>
   <v>       0.01388889 </v>
   <v>       0.01388889 </v>
   <v>       0.01388889 </v>
   <v>       0.01388889 </v>
   <v>       0.01388889 </v>
   <v>       0.01388889 </v>
   <v>       0.01388889 </v>
   <v>       0.01388889 </v>
   <v>       0.00694444 </v>
   <v>       0.00694444 </v>
   <v>       0.00694444 </v>
   <v>       0.01388889 </v>
   <v>       0.01388889 </v>
   <v>       0.01388889 </v>
   <v>       0.01388889 </v>
   <v>       0.01388889 </v>
   <v>       0.01388889 </v>
   <v>       0.01388889 </v>
   <v>       0.01388889 </v>
   <v>       0.01388889 </v>
   <v>       0.01388889 </v>
   <v>       0.01388889 </v>
   <v>       0.01388889 </v>
   <v>       0.01388889 </v>
   <v>       0.01388889 </v>
   <v>       0.01388889 </v>
   <v>       0.01388889 </v>
   <v>       0.01388889 </v>
   <v>       0.01388889 </v>
   <v>       0.01388889 </v>
   <v>       0.01388889 </v>
   <v>       0.01388889 </v>
   <v>       0.01388889 </v>
   <v>       0.01388889 </v>
   <v>       0.01388889 </v>
   <v>       0.01388889 </v>
   <v>       0.01388889 </v>
   <v>       0.01388889 </v>
   <v>       0.01388889 </v>
   <v>       0.01388889 </v>
   <v>       0.01388889 </v>
   <v>       0.01388889 </v>
   <v>       0.01388889 </v>
   <v>       0.01388889 </v>
   <v>       0.01388889 </v>
   <v>       0.01388889 </v>
   <v>       0.01388889 </v>
   <v>       0.01388889 </v>
   <v>       0.01388889 </v>
   <v>       0.01388889 </v>
   <v>       0.01388889 </v>
   <v>       0.01388889 </v>
   <v>       0.01388889 </v>
   <v>       0.01388889 </v>
   <v>       0.01388889 </v>
   <v>       0.01388889 </v>
   <v>       0.01388889 </v>
   <v>       0.01388889 </v>
   <v>       0.01388889 </v>
   <v>       0.01388889 </v>
   <v>       0.01388889 </v>
   <v>       0.01388889 </v>
   <v>       0.01388889 </v>
   <v>       0.01388889 </v>
   <v>       0.01388889 </v>
   <v>       0.01388889 </v>
  </varray>
 </kpoints>
 <parameters>
  <separator name="general" >
   <i type="string" name="SYSTEM">Lattice</i>
   <i type="logical" name="LCOMPAT"> F  </i>
  </separator>
  <separator name="electronic" >
   <i type="string" name="PREC">accura</i>
   <i name="ENMAX">    450.00000000</i>
   <i name="ENAUG">    644.87300000</i>
   <i name="EDIFF">      0.00000100</i>
   <i type="int" name="IALGO">    38</i>
   <i type="int" name="IWAVPR">    11</i>
   <i type="int" name="NBANDS">    48</i>
   <i type="int" name="NBANDSLOW">    -1</i>
   <i type="int" name="NBANDSHIGH">    -1</i>
   <i name="NELECT">     56.00000000</i>
   <i type="int" name="TURBO">     0</i>
   <i type="int" name="IRESTART">     0</i>
   <i type="int" name="NREBOOT">     0</i>
   <i type="int" name="NMIN">     0</i>
   <i name="EREF">      0.00000000</i>
   <separator name="electronic smearing" >
    <i type="int" name="ISMEAR">     0</i>
    <i name="SIGMA">      0.10000000</i>
    <i name="KSPACING">      0.50000000</i>
    <i type="logical" name="KGAMMA"> T  </i>
    <i type="logical" name="KBLOWUP"> T  </i>
   </separator>
   <separator name="electronic projectors" >
    <i type="logical" name="LREAL"> F  </i>
    <v name="ROPT">      0.00000000      0.00000000</v>
    <i type="int" name="LMAXPAW">  -100</i>
    <i type="int" name="LMAXMIX">     2</i>
    <i type="logical" name="NLSPLINE"> F  </i>
   </separator>
   <separator name="electronic startup" >
    <i type="int" name="ISTART">     0</i>
    <i type="int" name="ICHARG">     2</i>
    <i type="int" name="INIWAV">     1</i>
   </separator>
   <separator name="electronic spin" >
    <i type="int" name="ISPIN">     2</i>
    <i type="logical" name="LNONCOLLINEAR"> F  </i>
    <v name="MAGMOM">      1.00000000      1.00000000      1.00000000      1.00000000      1.00000000      1.00000000      1.00000000      1.00000000      1.00000000      1.00000000      1.00000000      1.00000000      1.00000000      1.00000000      1.00000000</v>
    <i name="NUPDOWN">     -1.00000000</i>
    <i type="logical" name="LSORBIT"> F  </i>
    <v name="SAXIS">      0.00000000      0.00000000      1.00000000</v>
    <i type="logical" name="LSPIRAL"> F  </i>
    <v name="QSPIRAL">      0.00000000      0.00000000      0.00000000</v>
    <i type="logical" name="LZEROZ"> F  </i>
   </separator>
   <separator name="electronic exchange-correlation" >
    <i type="logical" name="LASPH"> F  </i>
    <i type="logical" name="LMETAGGA"> F  </i>
   </separator>
   <separator name="electronic convergence" >
    <i type="int" name="NELM">    64</i>
    <i type="int" name="NELMDL">    -5</i>
    <i type="int" name="NELMIN">     2</i>
    <i name="ENINI">    450.00000000</i>
    <separator name="electronic convergence detail" >
     <i type="logical" name="LDIAG"> T  </i>
     <i type="logical" name="LSUBROT"> F  </i>
     <i name="WEIMIN">      0.00100000</i>
     <i name="EBREAK">      0.00000001</i>
     <i name="DEPER">      0.30000000</i>
     <i type="int" name="NRMM">     4</i>
     <i name="TIME">      0.40000000</i>
    </separator>
   </separator>
   <separator name="electronic mixer" >
    <i name="AMIX">      0.40000000</i>
    <i name="BMIX">      1.00000000</i>
    <i name="AMIN">      0.10000000</i>
    <i name="AMIX_MAG">      1.60000000</i>
    <i name="BMIX_MAG">      1.00000000</i>
    <separator name="electronic mixer details" >
     <i type="int" name="IMIX">     4</i>
     <i type="logical" name="MIXFIRST"> F  </i>
     <i type="int" name="MAXMIX">   -45</i>
     <i name="WC">    100.00000000</i>
     <i type="int" name="INIMIX">     1</i>
     <i type="int" name="MIXPRE">     1</i>
     <i type="int" name="MREMOVE">     5</i>
    </separator>
   </separator>
   <separator name="electronic dipolcorrection" >
    <i type="logical" name="LDIPOL"> F  </i>
    <i type="logical" name="LMONO"> F  </i>
    <i type="int" name="IDIPOL">     0</i>
    <i name="EPSILON">      1.00000000</i>
    <v name="DIPOL">   -100.00000000   -100.00000000   -100.00000000</v>
    <i name="EFIELD">      0.00000000</i>
   </separator>
  </separator>
  <separator name="grids" >
   <i type="int" name="NGX">    36</i>
   <i type="int" name="NGY">    36</i>
   <i type="int" name="NGZ">   108</i>
   <i type="int" name="NGXF">    72</i>
   <i type="int" name="NGYF">    72</i>
   <i type="int" name="NGZF">   216</i>
   <i type="logical" name="ADDGRID"> F  </i>
  </separator>
  <separator name="ionic" >
   <i type="int" name="NSW">   128</i>
   <i type="int" name="IBRION">     2</i>
   <i type="int" name="MDALGO">     0</i>
   <i type="int" name="ISIF">     2</i>
   <i name="PSTRESS">      0.00000000</i>
   <i name="EDIFFG">     -0.00100000</i>
   <i type="int" name="NFREE">     1</i>
   <i name="POTIM">      0.50000000</i>
   <i name="SMASS">     -3.00000000</i>
   <i name="SCALEE">      1.00000000</i>
  </separator>
  <separator name="ionic md" >
   <i name="TEBEG">      0.00010000</i>
   <i name="TEEND">      0.00010000</i>
   <i type="int" name="NBLOCK">     1</i>
   <i type="int" name="KBLOCK">   128</i>
   <i type="int" name="NPACO">   256</i>
   <i name="APACO">     10.00000000</i>
  </separator>
  <separator name="symmetry" >
   <i type="int" name="ISYM">     2</i>
   <i name="SYMPREC">      0.00001000</i>
  </separator>
  <separator name="dos" >
   <i type="int" name="LORBIT">     0</i>
   <v name="RWIGS">     -1.00000000     -1.00000000</v>
   <i type="int" name="NEDOS">   301</i>
   <i name="EMIN">     10.00000000</i>
   <i name="EMAX">    -10.00000000</i>
   <i name="EFERMI">      0.00000000</i>
  </separator>
  <separator name="writing" >
   <i type="int" name="NWRITE">     2</i>
   <i type="logical" name="LWAVE"> F  </i>
   <i type="logical" name="LDOWNSAMPLE"> F  </i>
   <i type="logical" name="LCHARG"> F  </i>
   <i type="logical" name="LPARD"> F  </i>
   <i type="logical" name="LVTOT"> F  </i>
   <i type="logical" name="LVHAR"> F  </i>
   <i type="logical" name="LELF"> F  </i>
   <i type="logical" name="LOPTICS"> F  </i>
   <v name="STM">      0.00000000      0.00000000      0.00000000      0.00000000      0.00000000      0.00000000      0.00000000</v>
  </separator>
  <separator name="performance" >
   <i type="int" name="NPAR">    48</i>
   <i type="int" name="NSIM">     4</i>
   <i type="int" name="NBLK">    -1</i>
   <i type="logical" name="LPLANE"> T  </i>
   <i type="logical" name="LSCALAPACK"> T  </i>
   <i type="logical" name="LSCAAWARE"> F  </i>
   <i type="logical" name="LSCALU"> F  </i>
   <i type="logical" name="LASYNC"> F  </i>
   <i type="logical" name="LORBITALREAL"> F  </i>
  </separator>
  <separator name="miscellaneous" >
   <i type="int" name="IDIOT">     3</i>
   <i type="int" name="PHON_NSTRUCT">    -1</i>
   <i type="logical" name="LMUSIC"> F  </i>
   <v name="POMASS">     10.81100000     12.01100000</v>
   <v name="DARWINR">      0.00000000      0.00000000</v>
   <v name="DARWINV">      1.00000000      1.00000000</v>
   <i type="logical" name="LCORR"> T  </i>
  </separator>
  <i type="logical" name="GGA_COMPAT"> T  </i>
  <i type="logical" name="LBERRY"> F  </i>
  <i type="int" name="ICORELEVEL">     0</i>
  <i type="logical" name="LDAU"> F  </i>
  <i type="int" name="I_CONSTRAINED_M">     0</i>
  <separator name="electronic exchange-correlation" >
   <i type="string" name="GGA">PE</i>
   <i type="int" name="VOSKOWN">     0</i>
   <i type="logical" name="LHFCALC"> F  </i>
   <i type="string" name="PRECFOCK"></i>
   <i type="logical" name="LSYMGRAD"> F  </i>
   <i type="logical" name="LHFONE"> F  </i>
   <i type="logical" name="LRHFCALC"> F  </i>
   <i type="logical" name="LTHOMAS"> F  </i>
   <i type="logical" name="LMODELHF"> F  </i>
   <i type="logical" name="LFOCKACE"> F  </i>
   <i name="ENCUT4O">     -1.00000000</i>
   <i type="int" name="EXXOEP">     0</i>
   <i type="int" name="FOURORBIT">     0</i>
   <i name="AEXX">      0.00000000</i>
   <i name="HFALPHA">      0.00000000</i>
   <i name="MCALPHA">      0.00000000</i>
   <i name="ALDAX">      1.00000000</i>
   <i name="AGGAX">      1.00000000</i>
   <i name="ALDAC">      1.00000000</i>
   <i name="AGGAC">      1.00000000</i>
   <i type="int" name="NKREDX">     1</i>
   <i type="int" name="NKREDY">     1</i>
   <i type="int" name="NKREDZ">     1</i>
   <i type="logical" name="SHIFTRED"> F  </i>
   <i type="logical" name="ODDONLY"> F  </i>
   <i type="logical" name="EVENONLY"> F  </i>
   <i type="int" name="LMAXFOCK">     0</i>
   <i type="int" name="NMAXFOCKAE">     0</i>
   <i type="logical" name="LFOCKAEDFT"> F  </i>
   <i name="HFSCREEN">      0.00000000</i>
   <i name="HFSCREENC">      0.00000000</i>
   <i type="int" name="NBANDSGWLOW">     0</i>
  </separator>
  <separator name="vdW DFT" >
   <i type="logical" name="LUSE_VDW"> F  </i>
   <i name="Zab_VDW">     -0.84910000</i>
   <i name="PARAM1">      0.12340000</i>
   <i name="PARAM2">      1.00000000</i>
   <i name="PARAM3">      0.00000000</i>
  </separator>
  <separator name="model GW" >
   <i type="int" name="MODEL_GW">     0</i>
   <i name="MODEL_EPS0">     12.07190915</i>
   <i name="MODEL_ALPHA">      1.00000000</i>
  </separator>
  <separator name="linear response parameters" >
   <i type="logical" name="LEPSILON"> F  </i>
   <i type="logical" name="LRPA"> F  </i>
   <i type="logical" name="LNABLA"> F  </i>
   <i type="logical" name="LVEL"> F  </i>
   <i name="CSHIFT">      0.10000000</i>
   <i name="OMEGAMAX">     -1.00000000</i>
   <i name="DEG_THRESHOLD">      0.00200000</i>
   <i name="RTIME">     -0.10000000</i>
   <i name="WPLASMAI">      0.00000000</i>
   <v name="DFIELD">      0.00000000      0.00000000      0.00000000</v>
   <v name="WPLASMA">      0.00000000      0.00000000      0.00000000      0.00000000      0.00000000      0.00000000      0.00000000      0.00000000      0.00000000</v>
  </separator>
  <separator name="orbital magnetization" >
   <i type="logical" name="NUCIND"> F  </i>
   <v name="MAGPOS">      0.00000000      0.00000000      0.00000000</v>
   <i type="logical" name="LNICSALL"> T  </i>
   <i type="logical" name="ORBITALMAG"> F  </i>
   <i type="logical" name="LMAGBLOCH"> F  </i>
   <i type="logical" name="LCHIMAG"> F  </i>
   <i type="logical" name="LGAUGE"> T  </i>
   <i type="int" name="MAGATOM">     0</i>
   <v name="MAGDIPOL">      0.00000000      0.00000000      0.00000000</v>
   <v name="AVECCONST">      0.00000000      0.00000000      0.00000000</v>
  </separator>
  <separator name="response functions" >
   <i type="logical" name="LFINITE_TEMPERATURE"> F  </i>
   <i type="logical" name="LADDER"> F  </i>
   <i type="logical" name="LRPAFORCE"> F  </i>
   <i type="logical" name="LFXC"> F  </i>
   <i type="logical" name="LHARTREE"> T  </i>
   <i type="int" name="IBSE">     0</i>
   <v type="int" name="KPOINT">    -1     0     0     0</v>
   <i type="logical" name="LTCTC"> F  </i>
   <i type="logical" name="LTCTE"> F  </i>
   <i type="logical" name="LTETE"> F  </i>
   <i type="logical" name="LTRIPLET"> F  </i>
   <i type="logical" name="LFXCEPS"> F  </i>
   <i type="logical" name="LFXHEG"> F  </i>
   <i type="int" name="NATURALO">     2</i>
   <i type="logical" name="LHOLEGF"> F  </i>
   <i type="logical" name="L2ORDER"> F  </i>
   <i type="logical" name="LDMP1"> F  </i>
   <i type="logical" name="LMP2LT"> F  </i>
   <i type="logical" name="LSMP2LT"> F  </i>
   <i type="logical" name="LGWLF"> F  </i>
   <i name="ENCUTGW">     -2.00000000</i>
   <i name="ENCUTGWSOFT">     -2.00000000</i>
   <i name="ENCUTLF">     -1.00000000</i>
   <i type="logical" name="LESF_SPLINES"> F  </i>
   <i type="int" name="LMAXMP2">    -1</i>
   <i name="SCISSOR">      0.00000000</i>
   <i type="int" name="NOMEGA">     0</i>
   <i type="int" name="NOMEGAR">     0</i>
   <i type="int" name="NBANDSGW">    -1</i>
   <i type="int" name="NBANDSO">    -1</i>
   <i type="int" name="NBANDSV">    -1</i>
   <i type="int" name="NELMGW">     1</i>
   <i type="int" name="NELMHF">     1</i>
   <i type="int" name="DIM">     3</i>
   <i type="int" name="IESPILON">     4</i>
   <i type="int" name="ANTIRES">     0</i>
   <i name="OMEGAMAX">    -30.00000000</i>
   <i name="OMEGAMIN">    -30.00000000</i>
   <i name="OMEGATL">   -200.00000000</i>
   <i type="int" name="OMEGAGRID">     0</i>
   <i name="CSHIFT">     -0.10000000</i>
   <i type="logical" name="LSELFENERGY"> F  </i>
   <i type="logical" name="LSPECTRAL"> F  </i>
   <i type="logical" name="LSPECTRALGW"> F  </i>
   <i type="logical" name="LSINGLES"> F  </i>
   <i type="logical" name="LFERMIGW"> F  </i>
   <i type="logical" name="ODDONLYGW"> F  </i>
   <i type="logical" name="EVENONLYGW"> F  </i>
   <i type="int" name="NKREDLFX">     1</i>
   <i type="int" name="NKREDLFY">     1</i>
   <i type="int" name="NKREDLFZ">     1</i>
   <i type="int" name="MAXMEM">  2800</i>
   <i type="int" name="TELESCOPE">     0</i>
   <i type="int" name="NTAUPAR">    -1</i>
   <i type="int" name="NOMEGAPAR">    -1</i>
   <i name="DAMP_NEWTON">      0.80000001</i>
   <i name="LAMBDA">      1.00000000</i>
  </separator>
  <separator name="External order field" >
   <i name="OFIELD_KAPPA">      0.00000000</i>
   <v name="OFIELD_K">      0.00000000      0.00000000      0.00000000</v>
   <i name="OFIELD_Q6_NEAR">      0.00000000</i>
   <i name="OFIELD_Q6_FAR">      0.00000000</i>
   <i name="OFIELD_A">      0.00000000</i>
  </separator>
  <separator name="optional k-points parameters" >
   <i type="int" name="KPOINTS_OPT_MODE">     1</i>
   <i type="logical" name="LKPOINTS_OPT"> F  </i>
  </separator>
  <separator name="solvation model" >
   <i type="logical" name="LSOL"> F  </i>
  </separator>
 </parameters>
 <atominfo>
  <atoms>      15 </atoms>
  <types>       2 </types>
  <array name="atoms" >
   <dimension dim="1">ion</dimension>
   <field type="string">element</field>
   <field type="int">atomtype</field>
   <set>
    <rc><c>B </c><c>   1</c></rc>
    <rc><c>B </c><c>   1</c></rc>
    <rc><c>B </c><c>   1</c></rc>
    <rc><c>B </c><c>   1</c></rc>
    <rc><c>C </c><c>   2</c></rc>
    <rc><c>C </c><c>   2</c></rc>
    <rc><c>C </c><c>   2</c></rc>
    <rc><c>C </c><c>   2</c></rc>
    <rc><c>C </c><c>   2</c></rc>
    <rc><c>C </c><c>   2</c></rc>
    <rc><c>C </c><c>   2</c></rc>
    <rc><c>C </c><c>   2</c></rc>
    <rc><c>C </c><c>   2</c></rc>
    <rc><c>C </c><c>   2</c></rc>
    <rc><c>C </c><c>   2</c></rc>
   </set>
  </array>
  <array name="atomtypes" >
   <dimension dim="1">type</dimension>
   <field type="int">atomspertype</field>
   <field type="string">element</field>
   <field>mass</field>
   <field>valence</field>
   <field type="string">pseudopotential</field>
   <set>
    <rc><c>   4</c><c>B </c><c>     10.81100000</c><c>      3.00000000</c><c>  PAW_PBE B 06Sep2000                   </c></rc>
    <rc><c>  11</c><c>C </c><c>     12.01100000</c><c>      4.00000000</c><c>  PAW_PBE C 08Apr2002                   </c></rc>
   </set>
  </array>
 </atominfo>
 <structure name="initialpos" >
  <crystal>
   <varray name="basis" >
    <v>       4.17424245       2.41000000       0.00000000 </v>
    <v>      -4.17424245       2.41000000       0.00000000 </v>
    <v>       0.00000000       0.00000000      15.00000000 </v>
   </varray>
   <i name="volume">    301.79772886 </i>
   <varray name="rec_basis" >
    <v>       0.11978221       0.20746888       0.00000000 </v>
    <v>      -0.11978221       0.20746888       0.00000000 </v>
    <v>       0.00000000       0.00000000       0.06666667 </v>
   </varray>
  </crystal>
  <varray name="positions" >
   <v>       0.00415361       0.00267210       0.12034134 </v>
   <v>       0.35695335       0.00285503       0.09748893 </v>
   <v>       0.00423858       0.35550699       0.09749256 </v>
   <v>       0.65142295       0.65006557       0.09747688 </v>
   <v>       0.32808646       0.32671938       0.10030508 </v>
   <v>       0.68027775       0.00278085       0.10027562 </v>
   <v>       0.00416530       0.67883808       0.10026559 </v>
   <v>       0.16666600       0.33333300       0.33720000 </v>
   <v>       0.33333300       0.16666600       0.33720000 </v>
   <v>       0.16666600       0.83333300       0.33720000 </v>
   <v>       0.33333300       0.66666600       0.33720000 </v>
   <v>       0.66666600       0.33333300       0.33720000 </v>
   <v>       0.83333300       0.16666600       0.33720000 </v>
   <v>       0.66666600       0.83333300       0.33720000 </v>
   <v>       0.83333300       0.66666600       0.33720000 </v>
  </varray>
 </structure>
 <calculation>
  <scstep>
   <time name="dav">    5.47    5.52</time>
   <time name="total">    5.51    5.57</time>
   <energy>
    <i name="alphaZ">     58.93780217 </i>
    <i name="ewald">   4757.40467727 </i>
    <i name="hartreedc">  -6309.65978327 </i>
    <i name="XCdc">    175.59311811 </i>
    <i name="pawpsdc">   1365.87943566 </i>
    <i name="pawaedc">  -1368.52100941 </i>
    <i name="eentropy">     -0.01772624 </i>
    <i name="bandstr">   -380.17237946 </i>
    <i name="atom">   1903.26342058 </i>
    <i name="e_fr_energy">    202.70755541 </i>
    <i name="e_wo_entrp">    202.72528166 </i>
    <i name="e_0_energy">    202.71641853 </i>
   </energy>
  </scstep>
  <scstep>
   <time name="dav">    7.94    8.00</time>
   <time name="total">    7.94    8.01</time>
   <energy>
    <i name="e_fr_energy">   -116.98225752 </i>
    <i name="e_wo_entrp">   -116.98033046 </i>
    <i name="e_0_energy">   -116.98129399 </i>
   </energy>
  </scstep>
  <scstep>
   <time name="dav">   11.13   11.22</time>
   <time name="total">   11.13   11.22</time>
   <energy>
    <i name="e_fr_energy">   -129.78833251 </i>
    <i name="e_wo_entrp">   -129.78526593 </i>
    <i name="e_0_energy">   -129.78679922 </i>
   </energy>
  </scstep>
  <scstep>
   <time name="dav">    8.43    8.53</time>
   <time name="total">    8.43    8.53</time>
   <energy>
    <i name="e_fr_energy">   -129.81151466 </i>
    <i name="e_wo_entrp">   -129.80847521 </i>
    <i name="e_0_energy">   -129.80999494 </i>
   </energy>
  </scstep>
  <scstep>
   <time name="dav">   10.44   10.55</time>
   <time name="total">   10.70   10.82</time>
   <energy>
    <i name="e_fr_energy">   -129.81157005 </i>
    <i name="e_wo_entrp">   -129.80853058 </i>
    <i name="e_0_energy">   -129.81005032 </i>
   </energy>
  </scstep>
  <scstep>
   <time name="dav">   10.50   10.60</time>
   <time name="total">   10.79   10.91</time>
   <energy>
    <i name="e_fr_energy">    -92.16455495 </i>
    <i name="e_wo_entrp">    -92.15824206 </i>
    <i name="e_0_energy">    -92.16139851 </i>
   </energy>
  </scstep>
  <scstep>
   <time name="dav">    9.25    9.33</time>
   <time name="total">    9.54    9.63</time>
   <energy>
    <i name="e_fr_energy">   -100.62155178 </i>
    <i name="e_wo_entrp">   -100.61587982 </i>
    <i name="e_0_energy">   -100.61871580 </i>
   </energy>
  </scstep>
  <scstep>
   <time name="dav">   10.33   10.43</time>
   <time name="total">   10.62   10.73</time>
   <energy>
    <i name="e_fr_energy">   -110.49921484 </i>
    <i name="e_wo_entrp">   -110.49917500 </i>
    <i name="e_0_energy">   -110.49919492 </i>
   </energy>
  </scstep>
  <scstep>
   <time name="dav">    8.21    8.30</time>
   <time name="total">    8.50    8.59</time>
   <energy>
    <i name="e_fr_energy">   -117.21501399 </i>
    <i name="e_wo_entrp">   -117.21500966 </i>
    <i name="e_0_energy">   -117.21501182 </i>
   </energy>
  </scstep>
  <scstep>
   <time name="dav">    9.69    9.83</time>
   <time name="total">    9.99   10.13</time>
   <energy>
    <i name="e_fr_energy">   -123.42685515 </i>
    <i name="e_wo_entrp">   -123.42626643 </i>
    <i name="e_0_energy">   -123.42656079 </i>
   </energy>
  </scstep>
  <scstep>
   <time name="dav">    9.65    9.73</time>
   <time name="total">    9.94   10.04</time>
   <energy>
    <i name="e_fr_energy">   -125.27350223 </i>
    <i name="e_wo_entrp">   -125.27232254 </i>
    <i name="e_0_energy">   -125.27291238 </i>
   </energy>
  </scstep>
  <scstep>
   <time name="dav">    8.19    8.25</time>
   <time name="total">    8.48    8.55</time>
   <energy>
    <i name="e_fr_energy">   -125.40524525 </i>
    <i name="e_wo_entrp">   -125.40377119 </i>
    <i name="e_0_energy">   -125.40450822 </i>
   </energy>
  </scstep>
  <scstep>
   <time name="dav">    6.90    6.95</time>
   <time name="total">    7.19    7.25</time>
   <energy>
    <i name="e_fr_energy">   -125.43271274 </i>
    <i name="e_wo_entrp">   -125.43115240 </i>
    <i name="e_0_energy">   -125.43193257 </i>
   </energy>
  </scstep>
  <scstep>
   <time name="dav">    8.21    8.26</time>
   <time name="total">    8.50    8.56</time>
   <energy>
    <i name="e_fr_energy">   -125.45623361 </i>
    <i name="e_wo_entrp">   -125.45466729 </i>
    <i name="e_0_energy">   -125.45545045 </i>
   </energy>
  </scstep>
  <scstep>
   <time name="dav">    7.16    7.20</time>
   <time name="total">    7.44    7.50</time>
   <energy>
    <i name="e_fr_energy">   -125.46431809 </i>
    <i name="e_wo_entrp">   -125.46275093 </i>
    <i name="e_0_energy">   -125.46353451 </i>
   </energy>
  </scstep>
  <scstep>
   <time name="dav">    6.84    6.88</time>
   <time name="total">    7.13    7.19</time>
   <energy>
    <i name="e_fr_energy">   -125.46640956 </i>
    <i name="e_wo_entrp">   -125.46484237 </i>
    <i name="e_0_energy">   -125.46562597 </i>
   </energy>
  </scstep>
  <scstep>
   <time name="dav">    5.93    5.98</time>
   <time name="total">    6.22    6.27</time>
   <energy>
    <i name="e_fr_energy">   -125.46771595 </i>
    <i name="e_wo_entrp">   -125.46614877 </i>
    <i name="e_0_energy">   -125.46693236 </i>
   </energy>
  </scstep>
  <scstep>
   <time name="dav">    5.78    5.82</time>
   <time name="total">    6.07    6.12</time>
   <energy>
    <i name="e_fr_energy">   -125.46842185 </i>
    <i name="e_wo_entrp">   -125.46685469 </i>
    <i name="e_0_energy">   -125.46763827 </i>
   </energy>
  </scstep>
  <scstep>
   <time name="dav">    8.02    8.07</time>
   <time name="total">    8.31    8.39</time>
   <energy>
    <i name="e_fr_energy">   -125.46889182 </i>
    <i name="e_wo_entrp">   -125.46732464 </i>
    <i name="e_0_energy">   -125.46810823 </i>
   </energy>
  </scstep>
  <scstep>
   <time name="dav">    8.63    8.68</time>
   <time name="total">    8.91    8.98</time>
   <energy>
    <i name="e_fr_energy">   -125.46893367 </i>
    <i name="e_wo_entrp">   -125.46736648 </i>
    <i name="e_0_energy">   -125.46815008 </i>
   </energy>
  </scstep>
  <scstep>
   <time name="dav">    8.02    8.06</time>
   <time name="total">    8.31    8.37</time>
   <energy>
    <i name="e_fr_energy">   -125.46896035 </i>
    <i name="e_wo_entrp">   -125.46739315 </i>
    <i name="e_0_energy">   -125.46817675 </i>
   </energy>
  </scstep>
  <scstep>
   <time name="dav">    9.02    9.07</time>
   <time name="total">    9.30    9.37</time>
   <energy>
    <i name="e_fr_energy">   -125.46898219 </i>
    <i name="e_wo_entrp">   -125.46741499 </i>
    <i name="e_0_energy">   -125.46819859 </i>
   </energy>
  </scstep>
  <scstep>
   <time name="dav">    8.21    8.26</time>
   <time name="total">    8.49    8.56</time>
   <energy>
    <i name="e_fr_energy">   -125.46899945 </i>
    <i name="e_wo_entrp">   -125.46743226 </i>
    <i name="e_0_energy">   -125.46821586 </i>
   </energy>
  </scstep>
  <scstep>
   <time name="dav">    9.21    9.26</time>
   <time name="total">    9.50    9.56</time>
   <energy>
    <i name="e_fr_energy">   -125.46900301 </i>
    <i name="e_wo_entrp">   -125.46743581 </i>
    <i name="e_0_energy">   -125.46821941 </i>
   </energy>
  </scstep>
  <scstep>
   <time name="dav">    9.45    9.51</time>
   <time name="total">    9.74    9.81</time>
   <energy>
    <i name="e_fr_energy">   -125.46900402 </i>
    <i name="e_wo_entrp">   -125.46743682 </i>
    <i name="e_0_energy">   -125.46822042 </i>
   </energy>
  </scstep>
  <scstep>
   <time name="dav">    8.09    8.14</time>
   <time name="total">    8.13    8.19</time>
   <energy>
    <i name="alphaZ">     58.93780217 </i>
    <i name="ewald">   4757.40467727 </i>
    <i name="hartreedc">  -6517.00081447 </i>
    <i name="XCdc">    181.13864152 </i>
    <i name="pawpsdc">   5886.49294912 </i>
    <i name="pawaedc">  -5890.96356813 </i>
    <i name="eentropy">     -0.00156719 </i>
    <i name="bandstr">   -504.74054539 </i>
    <i name="atom">   1903.26342058 </i>
    <i name="e_fr_energy">   -125.46900453 </i>
    <i name="e_wo_entrp">   -125.46743733 </i>
    <i name="e_0_energy">   -125.46822093 </i>
   </energy>
  </scstep>
  <structure>
   <crystal>
    <varray name="basis" >
     <v>       4.17424245       2.41000000       0.00000000 </v>
     <v>      -4.17424245       2.41000000       0.00000000 </v>
     <v>       0.00000000       0.00000000      15.00000000 </v>
    </varray>
    <i name="volume">    301.79772886 </i>
    <varray name="rec_basis" >
     <v>       0.11978221       0.20746888       0.00000000 </v>
     <v>      -0.11978221       0.20746888       0.00000000 </v>
     <v>       0.00000000       0.00000000       0.06666667 </v>
    </varray>
   </crystal>
   <varray name="positions" >
    <v>       0.00415361       0.00267210       0.12034134 </v>
    <v>       0.35695335       0.00285503       0.09748893 </v>
    <v>       0.00423858       0.35550699       0.09749256 </v>
    <v>       0.65142295       0.65006557       0.09747688 </v>
    <v>       0.32808646       0.32671938       0.10030508 </v>
    <v>       0.68027775       0.00278085       0.10027562 </v>
    <v>       0.00416530       0.67883808       0.10026559 </v>
    <v>       0.16666600       0.33333300       0.33720000 </v>
    <v>       0.33333300       0.16666600       0.33720000 </v>
    <v>       0.16666600       0.83333300       0.33720000 </v>
    <v>       0.33333300       0.66666600       0.33720000 </v>
    <v>       0.66666600       0.33333300       0.33720000 </v>
    <v>       0.83333300       0.16666600       0.33720000 </v>
    <v>       0.66666600       0.83333300       0.33720000 </v>
    <v>       0.83333300       0.66666600       0.33720000 </v>
   </varray>
  </structure>
  <varray name="forces" >
   <v>      -0.00440092       0.00581874      -0.36846445 </v>
   <v>      -0.07202189      -0.04703189       0.09717082 </v>
   <v>       0.07155456      -0.04593157       0.09695904 </v>
   <v>       0.00287787       0.08399549       0.09947782 </v>
   <v>       0.00326032      -0.28726860       0.00374020 </v>
   <v>       0.24708005       0.14483395       0.00686536 </v>
   <v>      -0.24789949       0.14696212       0.00793635 </v>
   <v>      -0.01388125       0.00125012       0.01812214 </v>
   <v>       0.01368271       0.00141569       0.01843878 </v>
   <v>       0.00848898       0.01034409       0.01897285 </v>
   <v>      -0.00037892       0.00040085      -0.02719830 </v>
   <v>       0.00060889       0.00018077      -0.02720322 </v>
   <v>      -0.00850162       0.01009158       0.01894393 </v>
   <v>       0.00518074      -0.01242979       0.01826461 </v>
   <v>      -0.00565004      -0.01263157       0.01797405 </v>
  </varray>
  <varray name="stress" >
   <v>      20.71814564       0.00928523      -0.01624038 </v>
   <v>       0.00928525      20.72154455      -0.01486976 </v>
   <v>      -0.01624039      -0.01486973      -1.73322975 </v>
  </varray>
  <energy>
   <i name="e_fr_energy">   -127.05962326 </i>
   <i name="e_wo_entrp">   -127.05805606 </i>
   <i name="e_0_energy">   -127.05883966 </i>
  </energy>
  <time name="totalsc">  229.49  231.53</time>
 </calculation>
 <calculation>
  <scstep>
   <time name="dav">    5.46    5.50</time>
   <time name="total">    5.76    5.81</time>
   <energy>
    <i name="alphaZ">     58.93780217 </i>
    <i name="ewald">   4759.83724587 </i>
    <i name="hartreedc">  -6518.25045213 </i>
    <i name="XCdc">    181.20685042 </i>
    <i name="pawpsdc">   5886.50044142 </i>
    <i name="pawaedc">  -5890.97106251 </i>
    <i name="eentropy">     -0.00156719 </i>
    <i name="bandstr">   -505.99920816 </i>
    <i name="atom">   1903.26342058 </i>
    <i name="e_fr_energy">   -125.47652953 </i>
    <i name="e_wo_entrp">   -125.47496234 </i>
    <i name="e_0_energy">   -125.47574593 </i>
   </energy>
  </scstep>
  <scstep>
   <time name="dav">   10.47   10.54</time>
   <time name="total">   10.76   10.84</time>
   <energy>
    <i name="e_fr_energy">   -125.47064183 </i>
    <i name="e_wo_entrp">   -125.46907463 </i>
    <i name="e_0_energy">   -125.46985823 </i>
   </energy>
  </scstep>
  <scstep>
   <time name="dav">    8.37    8.42</time>
   <time name="total">    8.66    8.72</time>
   <energy>
    <i name="e_fr_energy">   -125.46999406 </i>
    <i name="e_wo_entrp">   -125.46842686 </i>
    <i name="e_0_energy">   -125.46921046 </i>
   </energy>
  </scstep>
  <scstep>
   <time name="dav">   11.13   11.19</time>
   <time name="total">   11.42   11.50</time>
   <energy>
    <i name="e_fr_energy">   -125.46997042 </i>
    <i name="e_wo_entrp">   -125.46840323 </i>
    <i name="e_0_energy">   -125.46918682 </i>
   </energy>
  </scstep>
  <scstep>
   <time name="dav">    9.81    9.87</time>
   <time name="total">   10.10   10.17</time>
   <energy>
    <i name="e_fr_energy">   -125.46997306 </i>
    <i name="e_wo_entrp">   -125.46840587 </i>
    <i name="e_0_energy">   -125.46918947 </i>
   </energy>
  </scstep>
  <scstep>
   <time name="dav">    9.37    9.43</time>
   <time name="total">    9.41    9.47</time>
   <energy>
    <i name="alphaZ">     58.93780217 </i>
    <i name="ewald">   4759.83724587 </i>
    <i name="hartreedc">  -6518.84667309 </i>
    <i name="XCdc">    181.22022315 </i>
    <i name="pawpsdc">   5909.33905273 </i>
    <i name="pawaedc">  -5913.81699622 </i>
    <i name="eentropy">     -0.00156719 </i>
    <i name="bandstr">   -505.40248133 </i>
    <i name="atom">   1903.26342058 </i>
    <i name="e_fr_energy">   -125.46997334 </i>
    <i name="e_wo_entrp">   -125.46840615 </i>
    <i name="e_0_energy">   -125.46918974 </i>
   </energy>
  </scstep>
  <structure>
   <crystal>
    <varray name="basis" >
     <v>       4.17424245       2.41000000       0.00000000 </v>
     <v>      -4.17424245       2.41000000       0.00000000 </v>
     <v>       0.00000000       0.00000000      15.00000000 </v>
    </varray>
    <i name="volume">    301.79772886 </i>
    <varray name="rec_basis" >
     <v>       0.11978221       0.20746888       0.00000000 </v>
     <v>      -0.11978221       0.20746888       0.00000000 </v>
     <v>       0.00000000       0.00000000       0.06666667 </v>
    </varray>
   </crystal>
   <varray name="positions" >
    <v>       0.00418642       0.00275577       0.11915629 </v>
    <v>       0.35606643       0.00280048       0.09780145 </v>
    <v>       0.00419234       0.35463378       0.09780440 </v>
    <v>       0.65228028       0.65088964       0.09779682 </v>
    <v>       0.32523007       0.32382531       0.10031711 </v>
    <v>       0.68315515       0.00280269       0.10029770 </v>
    <v>       0.00420371       0.68174151       0.10029111 </v>
    <v>       0.16659830       0.33342573       0.33725828 </v>
    <v>       0.33342624       0.16660110       0.33725930 </v>
    <v>       0.16681859       0.83338748       0.33726102 </v>
    <v>       0.33333482       0.66667220       0.33711253 </v>
    <v>       0.66667133       0.33333129       0.33711251 </v>
    <v>       0.83338488       0.16681613       0.33726093 </v>
    <v>       0.66657153       0.83317865       0.33725874 </v>
    <v>       0.83317392       0.66657222       0.33725781 </v>
   </varray>
  </structure>
  <varray name="forces" >
   <v>      -0.00120410      -0.00106762      -0.17442860 </v>
   <v>       0.22309258       0.12751634       0.05735863 </v>
   <v>      -0.22423566       0.12955799       0.05717695 </v>
   <v>       0.00125317      -0.25131271       0.05900975 </v>
   <v>       0.00024619       0.50356036      -0.01980859 </v>
   <v>      -0.43409221      -0.25349049      -0.01753993 </v>
   <v>       0.43537185      -0.25350865      -0.01711439 </v>
   <v>       0.05564217      -0.00405144       0.00959592 </v>
   <v>      -0.05551037      -0.00458741       0.00968673 </v>
   <v>      -0.03307526      -0.04417153       0.00980028 </v>
   <v>       0.00137524      -0.00211550      -0.00128567 </v>
   <v>      -0.00263578      -0.00132325      -0.00128213 </v>
   <v>       0.03262943      -0.04321498       0.00976625 </v>
   <v>      -0.02320804       0.04875556       0.00956111 </v>
   <v>       0.02435079       0.04945333       0.00950368 </v>
  </varray>
  <varray name="stress" >
   <v>      22.95565906       0.00127813      -0.01077482 </v>
   <v>       0.00127816      22.93917566      -0.02649910 </v>
   <v>      -0.01077480      -0.02649910      -1.40379297 </v>
  </varray>
  <energy>
   <i name="e_fr_energy">   -127.06002537 </i>
   <i name="e_wo_entrp">   -127.05845817 </i>
   <i name="e_0_energy">   -127.05924177 </i>
  </energy>
  <time name="totalsc">   60.76   61.24</time>
 </calculation>
 <calculation>
  <scstep>
   <time name="dav">    5.49    5.52</time>
   <time name="total">    5.78    5.83</time>
   <energy>
    <i name="alphaZ">     58.93780217 </i>
    <i name="ewald">   4758.62291294 </i>
    <i name="hartreedc">  -6518.21717673 </i>
    <i name="XCdc">    181.18602833 </i>
    <i name="pawpsdc">   5909.35022745 </i>
    <i name="pawaedc">  -5913.82814660 </i>
    <i name="eentropy">     -0.00156719 </i>
    <i name="bandstr">   -504.78977185 </i>
    <i name="atom">   1903.26342058 </i>
    <i name="e_fr_energy">   -125.47627091 </i>
    <i name="e_wo_entrp">   -125.47470372 </i>
    <i name="e_0_energy">   -125.47548732 </i>
   </energy>
  </scstep>
  <scstep>
   <time name="dav">   10.17   10.23</time>
   <time name="total">   10.46   10.53</time>
   <energy>
    <i name="e_fr_energy">   -125.47483223 </i>
    <i name="e_wo_entrp">   -125.47326504 </i>
    <i name="e_0_energy">   -125.47404863 </i>
   </energy>
  </scstep>
  <scstep>
   <time name="dav">    8.81    8.85</time>
   <time name="total">    9.09    9.16</time>
   <energy>
    <i name="e_fr_energy">   -125.47468096 </i>
    <i name="e_wo_entrp">   -125.47311377 </i>
    <i name="e_0_energy">   -125.47389737 </i>
   </energy>
  </scstep>
  <scstep>
   <time name="dav">    9.73    9.79</time>
   <time name="total">   10.02   10.09</time>
   <energy>
    <i name="e_fr_energy">   -125.47467595 </i>
    <i name="e_wo_entrp">   -125.47310876 </i>
    <i name="e_0_energy">   -125.47389235 </i>
   </energy>
  </scstep>
  <scstep>
   <time name="dav">    7.95    8.00</time>
   <time name="total">    7.99    8.03</time>
   <energy>
    <i name="alphaZ">     58.93780217 </i>
    <i name="ewald">   4758.62291294 </i>
    <i name="hartreedc">  -6517.94202757 </i>
    <i name="XCdc">    181.17953892 </i>
    <i name="pawpsdc">   5897.78461203 </i>
    <i name="pawaedc">  -5902.25875718 </i>
    <i name="eentropy">     -0.00156719 </i>
    <i name="bandstr">   -505.06061122 </i>
    <i name="atom">   1903.26342058 </i>
    <i name="e_fr_energy">   -125.47467654 </i>
    <i name="e_wo_entrp">   -125.47310934 </i>
    <i name="e_0_energy">   -125.47389294 </i>
   </energy>
  </scstep>
  <structure>
   <crystal>
    <varray name="basis" >
     <v>       4.17424245       2.41000000       0.00000000 </v>
     <v>      -4.17424245       2.41000000       0.00000000 </v>
     <v>       0.00000000       0.00000000      15.00000000 </v>
    </varray>
    <i name="volume">    301.79772886 </i>
    <varray name="rec_basis" >
     <v>       0.11978221       0.20746888       0.00000000 </v>
     <v>      -0.11978221       0.20746888       0.00000000 </v>
     <v>       0.00000000       0.00000000       0.06666667 </v>
    </varray>
   </crystal>
   <varray name="positions" >
    <v>       0.00417034       0.00271477       0.11973695 </v>
    <v>       0.35650101       0.00282721       0.09764832 </v>
    <v>       0.00421500       0.35506164       0.09765160 </v>
    <v>       0.65186020       0.65048586       0.09764005 </v>
    <v>       0.32662967       0.32524336       0.10031121 </v>
    <v>       0.68174526       0.00279199       0.10028688 </v>
    <v>       0.00418489       0.68031887       0.10027860 </v>
    <v>       0.16663147       0.33338029       0.33722973 </v>
    <v>       0.33338055       0.16663290       0.33723024 </v>
    <v>       0.16674382       0.83336078       0.33723112 </v>
    <v>       0.33333393       0.66666916       0.33715539 </v>
    <v>       0.66666872       0.33333213       0.33715538 </v>
    <v>       0.83335946       0.16674257       0.33723107 </v>
    <v>       0.66661782       0.83325428       0.33722996 </v>
    <v>       0.83325187       0.66661817       0.33722948 </v>
   </varray>
  </structure>
  <varray name="forces" >
   <v>      -0.00287014       0.00247886      -0.26844897 </v>
   <v>       0.08047049       0.04305966       0.07673902 </v>
   <v>      -0.08132317       0.04463771       0.07654307 </v>
   <v>       0.00206494      -0.08932358       0.07871587 </v>
   <v>       0.00177331       0.11421732      -0.00842761 </v>
   <v>      -0.09888640      -0.05737405      -0.00576540 </v>
   <v>       0.09921592      -0.05637824      -0.00505174 </v>
   <v>       0.02147779      -0.00152582       0.01377203 </v>
   <v>      -0.02150800      -0.00171833       0.01397444 </v>
   <v>      -0.01271664      -0.01733681       0.01429416 </v>
   <v>       0.00051058      -0.00088046      -0.01403974 </v>
   <v>      -0.00104119      -0.00058613      -0.01404035 </v>
   <v>       0.01248050      -0.01697195       0.01426205 </v>
   <v>      -0.00918628       0.01872131       0.01382243 </v>
   <v>       0.00953827       0.01898053       0.01365076 </v>
  </varray>
  <varray name="stress" >
   <v>      21.77602790       0.00495437      -0.01356008 </v>
   <v>       0.00495441      21.76734736      -0.02046722 </v>
   <v>      -0.01356004      -0.02046723      -1.54792232 </v>
  </varray>
  <energy>
   <i name="e_fr_energy">   -127.06500448 </i>
   <i name="e_wo_entrp">   -127.06343729 </i>
   <i name="e_0_energy">   -127.06422088 </i>
  </energy>
  <time name="totalsc">   48.06   48.41</time>
 </calculation>
 <calculation>
  <scstep>
   <time name="dav">    5.48    5.52</time>
   <time name="total">    5.78    5.83</time>
   <energy>
    <i name="alphaZ">     58.93780217 </i>
    <i name="ewald">   4758.15021219 </i>
    <i name="hartreedc">  -6517.20837236 </i>
    <i name="XCdc">    181.19795427 </i>
    <i name="pawpsdc">   5897.75428333 </i>
    <i name="pawaedc">  -5902.22843199 </i>
    <i name="eentropy">     -0.00156719 </i>
    <i name="bandstr">   -505.34623135 </i>
    <i name="atom">   1903.26342058 </i>
    <i name="e_fr_energy">   -125.48093035 </i>
    <i name="e_wo_entrp">   -125.47936316 </i>
    <i name="e_0_energy">   -125.48014676 </i>
   </energy>
  </scstep>
  <scstep>
   <time name="dav">   11.60   11.67</time>
   <time name="total">   11.89   11.97</time>
   <energy>
    <i name="e_fr_energy">   -125.48099046 </i>
    <i name="e_wo_entrp">   -125.47942327 </i>
    <i name="e_0_energy">   -125.48020686 </i>
   </energy>
  </scstep>
  <scstep>
   <time name="dav">    8.08    8.12</time>
   <time name="total">    8.37    8.44</time>
   <energy>
    <i name="e_fr_energy">   -125.48098499 </i>
    <i name="e_wo_entrp">   -125.47941779 </i>
    <i name="e_0_energy">   -125.48020139 </i>
   </energy>
  </scstep>
  <scstep>
   <time name="dav">   11.06   11.13</time>
   <time name="total">   11.35   11.43</time>
   <energy>
    <i name="e_fr_energy">   -125.48098625 </i>
    <i name="e_wo_entrp">   -125.47941906 </i>
    <i name="e_0_energy">   -125.48020266 </i>
   </energy>
  </scstep>
  <scstep>
   <time name="dav">    8.36    8.41</time>
   <time name="total">    8.40    8.45</time>
   <energy>
    <i name="alphaZ">     58.93780217 </i>
    <i name="ewald">   4758.15021219 </i>
    <i name="hartreedc">  -6517.20065398 </i>
    <i name="XCdc">    181.19728334 </i>
    <i name="pawpsdc">   5903.28805123 </i>
    <i name="pawaedc">  -5907.76411086 </i>
    <i name="eentropy">     -0.00156719 </i>
    <i name="bandstr">   -505.35142402 </i>
    <i name="atom">   1903.26342058 </i>
    <i name="e_fr_energy">   -125.48098654 </i>
    <i name="e_wo_entrp">   -125.47941935 </i>
    <i name="e_0_energy">   -125.48020295 </i>
   </energy>
  </scstep>
  <structure>
   <crystal>
    <varray name="basis" >
     <v>       4.17424245       2.41000000       0.00000000 </v>
     <v>      -4.17424245       2.41000000       0.00000000 </v>
     <v>       0.00000000       0.00000000      15.00000000 </v>
    </varray>
    <i name="volume">    301.79772886 </i>
    <varray name="rec_basis" >
     <v>       0.11978221       0.20746888       0.00000000 </v>
     <v>      -0.11978221       0.20746888       0.00000000 </v>
     <v>       0.00000000       0.00000000       0.06666667 </v>
    </varray>
   </crystal>
   <varray name="positions" >
    <v>       0.00418842       0.00277930       0.11857312 </v>
    <v>       0.35702100       0.00277879       0.09797249 </v>
    <v>       0.00417908       0.35560479       0.09797498 </v>
    <v>       0.65134312       0.64993644       0.09797236 </v>
    <v>       0.32674194       0.32532491       0.10029067 </v>
    <v>       0.68164681       0.00279654       0.10027733 </v>
    <v>       0.00420553       0.68023615       0.10027224 </v>
    <v>       0.16670765       0.33328470       0.33728862 </v>
    <v>       0.33328323       0.16670841       0.33729005 </v>
    <v>       0.16657060       0.83328825       0.33729242 </v>
    <v>       0.33332923       0.66666057       0.33708623 </v>
    <v>       0.66665973       0.33333171       0.33708622 </v>
    <v>       0.83328814       0.16657308       0.33729224 </v>
    <v>       0.66670826       0.83342103       0.33728915 </v>
    <v>       0.83342125       0.66670934       0.33728787 </v>
   </varray>
  </structure>
  <varray name="forces" >
   <v>       0.00030720      -0.00080122      -0.24238943 </v>
   <v>       0.04394365       0.02574627       0.04419429 </v>
   <v>      -0.04385719       0.02689851       0.04411826 </v>
   <v>       0.00047230      -0.04882458       0.04503410 </v>
   <v>      -0.00066324       0.10752828       0.01795248 </v>
   <v>      -0.09099216      -0.05471953       0.01961536 </v>
   <v>       0.09119357      -0.05459298       0.01993703 </v>
   <v>      -0.05235976      -0.00126297       0.00568071 </v>
   <v>       0.05222465      -0.00101303       0.00568498 </v>
   <v>       0.02726570       0.04485115       0.00564597 </v>
   <v>      -0.00175034       0.00111569       0.00883231 </v>
   <v>       0.00234900       0.00051634       0.00883677 </v>
   <v>      -0.02717643       0.04402748       0.00562121 </v>
   <v>       0.02672473      -0.04449782       0.00560734 </v>
   <v>      -0.02768168      -0.04497158       0.00562862 </v>
  </varray>
  <varray name="stress" >
   <v>      22.22276371       0.00079776      -0.00797681 </v>
   <v>       0.00079779      22.22989645      -0.02530833 </v>
   <v>      -0.00797681      -0.02530831      -1.56177789 </v>
  </varray>
  <energy>
   <i name="e_fr_energy">   -127.07105619 </i>
   <i name="e_wo_entrp">   -127.06948900 </i>
   <i name="e_0_energy">   -127.07027259 </i>
  </energy>
  <time name="totalsc">   50.44   50.80</time>
 </calculation>
 <calculation>
  <scstep>
   <time name="dav">    5.48    5.51</time>
   <time name="total">    5.77    5.82</time>
   <energy>
    <i name="alphaZ">     58.93780217 </i>
    <i name="ewald">   4756.20583600 </i>
    <i name="hartreedc">  -6514.59635081 </i>
    <i name="XCdc">    181.24386043 </i>
    <i name="pawpsdc">   5903.33313386 </i>
    <i name="pawaedc">  -5907.80921524 </i>
    <i name="eentropy">     -0.00156713 </i>
    <i name="bandstr">   -506.06654338 </i>
    <i name="atom">   1903.26342058 </i>
    <i name="e_fr_energy">   -125.48962351 </i>
    <i name="e_wo_entrp">   -125.48805638 </i>
    <i name="e_0_energy">   -125.48883995 </i>
   </energy>
  </scstep>
  <scstep>
   <time name="dav">   10.98   11.05</time>
   <time name="total">   11.27   11.35</time>
   <energy>
    <i name="e_fr_energy">   -125.49031106 </i>
    <i name="e_wo_entrp">   -125.48874392 </i>
    <i name="e_0_energy">   -125.48952749 </i>
   </energy>
  </scstep>
  <scstep>
   <time name="dav">    8.22    8.27</time>
   <time name="total">    8.51    8.57</time>
   <energy>
    <i name="e_fr_energy">   -125.49024438 </i>
    <i name="e_wo_entrp">   -125.48867724 </i>
    <i name="e_0_energy">   -125.48946081 </i>
   </energy>
  </scstep>
  <scstep>
   <time name="dav">   11.23   11.30</time>
   <time name="total">   11.52   11.60</time>
   <energy>
    <i name="e_fr_energy">   -125.49025651 </i>
    <i name="e_wo_entrp">   -125.48868937 </i>
    <i name="e_0_energy">   -125.48947294 </i>
   </energy>
  </scstep>
  <scstep>
   <time name="dav">    8.59    8.64</time>
   <time name="total">    8.88    8.95</time>
   <energy>
    <i name="e_fr_energy">   -125.49025932 </i>
    <i name="e_wo_entrp">   -125.48869218 </i>
    <i name="e_0_energy">   -125.48947575 </i>
   </energy>
  </scstep>
  <scstep>
   <time name="dav">    9.98   10.04</time>
   <time name="total">   10.01   10.07</time>
   <energy>
    <i name="alphaZ">     58.93780217 </i>
    <i name="ewald">   4756.20583600 </i>
    <i name="hartreedc">  -6514.56474637 </i>
    <i name="XCdc">    181.24168018 </i>
    <i name="pawpsdc">   5917.44421022 </i>
    <i name="pawaedc">  -5921.92532634 </i>
    <i name="eentropy">     -0.00156714 </i>
    <i name="bandstr">   -506.09156867 </i>
    <i name="atom">   1903.26342058 </i>
    <i name="e_fr_energy">   -125.49025937 </i>
    <i name="e_wo_entrp">   -125.48869223 </i>
    <i name="e_0_energy">   -125.48947580 </i>
   </energy>
  </scstep>
  <structure>
   <crystal>
    <varray name="basis" >
     <v>       4.17424245       2.41000000       0.00000000 </v>
     <v>      -4.17424245       2.41000000       0.00000000 </v>
     <v>       0.00000000       0.00000000      15.00000000 </v>
    </varray>
    <i name="volume">    301.79772886 </i>
    <varray name="rec_basis" >
     <v>       0.11978221       0.20746888       0.00000000 </v>
     <v>      -0.11978221       0.20746888       0.00000000 </v>
     <v>       0.00000000       0.00000000       0.06666667 </v>
    </varray>
   </crystal>
   <varray name="positions" >
    <v>       0.00424266       0.00297288       0.11508164 </v>
    <v>       0.35858099       0.00263353       0.09894499 </v>
    <v>       0.00407133       0.35723421       0.09894511 </v>
    <v>       0.64979188       0.64828820       0.09896930 </v>
    <v>       0.32707876       0.32556954       0.10022905 </v>
    <v>       0.68135147       0.00281020       0.10024868 </v>
    <v>       0.00426746       0.67998800       0.10025316 </v>
    <v>       0.16693617       0.33299791       0.33746529 </v>
    <v>       0.33299125       0.16693493       0.33746948 </v>
    <v>       0.16605094       0.83307066       0.33747630 </v>
    <v>       0.33331515       0.66663478       0.33687878 </v>
    <v>       0.66663277       0.33333045       0.33687874 </v>
    <v>       0.83307420       0.16606460       0.33747576 </v>
    <v>       0.66697957       0.83392127       0.33746670 </v>
    <v>       0.83392941       0.66698285       0.33746302 </v>
   </varray>
  </structure>
  <varray name="forces" >
   <v>       0.01036670      -0.01149988      -0.19293535 </v>
   <v>      -0.08426207      -0.03756362      -0.04440672 </v>
   <v>       0.08634428      -0.03753837      -0.04407992 </v>
   <v>      -0.00408376       0.09404544      -0.04687402 </v>
   <v>      -0.00733117       0.07089094       0.09713010 </v>
   <v>      -0.05195720      -0.03761797       0.09593926 </v>
   <v>       0.05127372      -0.03967988       0.09523723 </v>
   <v>      -0.27607838       0.00117143      -0.01847696 </v>
   <v>       0.27560317       0.00275681      -0.01905312 </v>
   <v>       0.14962318       0.23242106      -0.02019686 </v>
   <v>      -0.00849564       0.00707374       0.07758217 </v>
   <v>       0.01245415       0.00379558       0.07760339 </v>
   <v>      -0.14850218       0.22793974      -0.02021341 </v>
   <v>       0.13399451      -0.23670576      -0.01893027 </v>
   <v>      -0.13894931      -0.23948925      -0.01832552 </v>
  </varray>
  <varray name="stress" >
   <v>      23.47276645      -0.00860388       0.00531503 </v>
   <v>      -0.00860388      23.51371798      -0.03509664 </v>
   <v>       0.00531502      -0.03509666      -1.63677071 </v>
  </varray>
  <energy>
   <i name="e_fr_energy">   -127.07955426 </i>
   <i name="e_wo_entrp">   -127.07798712 </i>
   <i name="e_0_energy">   -127.07877069 </i>
  </energy>
  <time name="totalsc">   60.64   61.73</time>
 </calculation>
 <calculation>
  <scstep>
   <time name="dav">    5.61    5.65</time>
   <time name="total">    5.90    5.95</time>
   <energy>
    <i name="alphaZ">     58.93780217 </i>
    <i name="ewald">   4755.97064020 </i>
    <i name="hartreedc">  -6514.25270570 </i>
    <i name="XCdc">    181.24653948 </i>
    <i name="pawpsdc">   5917.44436135 </i>
    <i name="pawaedc">  -5921.92547768 </i>
    <i name="eentropy">     -0.00156718 </i>
    <i name="bandstr">   -506.17571306 </i>
    <i name="atom">   1903.26342058 </i>
    <i name="e_fr_energy">   -125.49269984 </i>
    <i name="e_wo_entrp">   -125.49113267 </i>
    <i name="e_0_energy">   -125.49191626 </i>
   </energy>
  </scstep>
  <scstep>
   <time name="dav">   10.64   10.70</time>
   <time name="total">   10.93   11.00</time>
   <energy>
    <i name="e_fr_energy">   -125.49269853 </i>
    <i name="e_wo_entrp">   -125.49113136 </i>
    <i name="e_0_energy">   -125.49191494 </i>
   </energy>
  </scstep>
  <scstep>
   <time name="dav">    7.65    7.70</time>
   <time name="total">    7.94    8.00</time>
   <energy>
    <i name="e_fr_energy">   -125.49268712 </i>
    <i name="e_wo_entrp">   -125.49111994 </i>
    <i name="e_0_energy">   -125.49190353 </i>
   </energy>
  </scstep>
  <scstep>
   <time name="dav">   10.73   10.79</time>
   <time name="total">   10.77   10.83</time>
   <energy>
    <i name="alphaZ">     58.93780217 </i>
    <i name="ewald">   4755.97064020 </i>
    <i name="hartreedc">  -6514.25355788 </i>
    <i name="XCdc">    181.24602648 </i>
    <i name="pawpsdc">   5918.67930843 </i>
    <i name="pawaedc">  -5923.16093187 </i>
    <i name="eentropy">     -0.00156718 </i>
    <i name="bandstr">   -506.17382878 </i>
    <i name="atom">   1903.26342058 </i>
    <i name="e_fr_energy">   -125.49268785 </i>
    <i name="e_wo_entrp">   -125.49112067 </i>
    <i name="e_0_energy">   -125.49190426 </i>
   </energy>
  </scstep>
  <structure>
   <crystal>
    <varray name="basis" >
     <v>       4.17424245       2.41000000       0.00000000 </v>
     <v>      -4.17424245       2.41000000       0.00000000 </v>
     <v>       0.00000000       0.00000000      15.00000000 </v>
    </varray>
    <i name="volume">    301.79772886 </i>
    <varray name="rec_basis" >
     <v>       0.11978221       0.20746888       0.00000000 </v>
     <v>      -0.11978221       0.20746888       0.00000000 </v>
     <v>       0.00000000       0.00000000       0.06666667 </v>
    </varray>
   </crystal>
   <varray name="positions" >
    <v>       0.00424425       0.00298048       0.11461520 </v>
    <v>       0.35868998       0.00262605       0.09904739 </v>
    <v>       0.00406935       0.35735038       0.09904732 </v>
    <v>       0.64968870       0.64817768       0.09907389 </v>
    <v>       0.32717671       0.32566398       0.10024901 </v>
    <v>       0.68125758       0.00280516       0.10027220 </v>
    <v>       0.00426597       0.67989824       0.10027761 </v>
    <v>       0.16682509       0.33310416       0.33748097 </v>
    <v>       0.33309803       0.16682523       0.33748533 </v>
    <v>       0.16626777       0.83317240       0.33749235 </v>
    <v>       0.33331538       0.66664219       0.33687603 </v>
    <v>       0.66663917       0.33332734       0.33687600 </v>
    <v>       0.83317303       0.16627828       0.33749176 </v>
    <v>       0.66687256       0.83370628       0.33748236 </v>
    <v>       0.83371042       0.66687616       0.33747857 </v>
   </varray>
  </structure>
  <varray name="forces" >
   <v>       0.01062192      -0.01125663      -0.18446761 </v>
   <v>      -0.09035669      -0.04044787      -0.04841188 </v>
   <v>       0.09266663      -0.04092919      -0.04803317 </v>
   <v>      -0.00453527       0.10001682      -0.05117056 </v>
   <v>      -0.00754250       0.05607039       0.09914073 </v>
   <v>      -0.03993672      -0.03001931       0.09758890 </v>
   <v>       0.03943040      -0.03241543       0.09679602 </v>
   <v>      -0.18027811       0.00500975      -0.01976987 </v>
   <v>       0.17982362       0.00625745      -0.02037997 </v>
   <v>       0.10100803       0.14849996      -0.02155493 </v>
   <v>      -0.00527032       0.00504350       0.08081502 </v>
   <v>       0.00811986       0.00272592       0.08083583 </v>
   <v>      -0.10024800       0.14554657      -0.02156685 </v>
   <v>       0.08286988      -0.15611607      -0.02022775 </v>
   <v>      -0.08637272      -0.15798587      -0.01959391 </v>
  </varray>
  <varray name="stress" >
   <v>      23.60181456      -0.00999203       0.00529570 </v>
   <v>      -0.00999202      23.61953691      -0.03381811 </v>
   <v>       0.00529571      -0.03381812      -1.64135501 </v>
  </varray>
  <energy>
   <i name="e_fr_energy">   -127.08187222 </i>
   <i name="e_wo_entrp">   -127.08030504 </i>
   <i name="e_0_energy">   -127.08108863 </i>
  </energy>
  <time name="totalsc">   40.19   40.47</time>
 </calculation>
 <calculation>
  <scstep>
   <time name="dav">    5.48    5.51</time>
   <time name="total">    5.77    5.82</time>
   <energy>
    <i name="alphaZ">     58.93780217 </i>
    <i name="ewald">   4755.19883305 </i>
    <i name="hartreedc">  -6513.27383950 </i>
    <i name="XCdc">    181.25976113 </i>
    <i name="pawpsdc">   5918.84953012 </i>
    <i name="pawaedc">  -5923.33118160 </i>
    <i name="eentropy">     -0.00156716 </i>
    <i name="bandstr">   -506.39914144 </i>
    <i name="atom">   1903.26342058 </i>
    <i name="e_fr_energy">   -125.49638266 </i>
    <i name="e_wo_entrp">   -125.49481550 </i>
    <i name="e_0_energy">   -125.49559908 </i>
   </energy>
  </scstep>
  <scstep>
   <time name="dav">   10.66   10.73</time>
   <time name="total">   10.96   11.04</time>
   <energy>
    <i name="e_fr_energy">   -125.49636892 </i>
    <i name="e_wo_entrp">   -125.49480175 </i>
    <i name="e_0_energy">   -125.49558534 </i>
   </energy>
  </scstep>
  <scstep>
   <time name="dav">    7.66    7.72</time>
   <time name="total">    7.96    8.02</time>
   <energy>
    <i name="e_fr_energy">   -125.49626866 </i>
    <i name="e_wo_entrp">   -125.49470149 </i>
    <i name="e_0_energy">   -125.49548508 </i>
   </energy>
  </scstep>
  <scstep>
   <time name="dav">   10.85   10.92</time>
   <time name="total">   11.14   11.22</time>
   <energy>
    <i name="e_fr_energy">   -125.49627437 </i>
    <i name="e_wo_entrp">   -125.49470720 </i>
    <i name="e_0_energy">   -125.49549079 </i>
   </energy>
  </scstep>
  <scstep>
   <time name="dav">    7.61    7.66</time>
   <time name="total">    7.65    7.70</time>
   <energy>
    <i name="alphaZ">     58.93780217 </i>
    <i name="ewald">   4755.19883305 </i>
    <i name="hartreedc">  -6513.31838490 </i>
    <i name="XCdc">    181.25873717 </i>
    <i name="pawpsdc">   5923.11106354 </i>
    <i name="pawaedc">  -5927.59433167 </i>
    <i name="eentropy">     -0.00156717 </i>
    <i name="bandstr">   -506.35184798 </i>
    <i name="atom">   1903.26342058 </i>
    <i name="e_fr_energy">   -125.49627522 </i>
    <i name="e_wo_entrp">   -125.49470805 </i>
    <i name="e_0_energy">   -125.49549163 </i>
   </energy>
  </scstep>
  <structure>
   <crystal>
    <varray name="basis" >
     <v>       4.17424245       2.41000000       0.00000000 </v>
     <v>      -4.17424245       2.41000000       0.00000000 </v>
     <v>       0.00000000       0.00000000      15.00000000 </v>
    </varray>
    <i name="volume">    301.79772886 </i>
    <varray name="rec_basis" >
     <v>       0.11978221       0.20746888       0.00000000 </v>
     <v>      -0.11978221       0.20746888       0.00000000 </v>
     <v>       0.00000000       0.00000000       0.06666667 </v>
    </varray>
   </crystal>
   <varray name="positions" >
    <v>       0.00424903       0.00300329       0.11321588 </v>
    <v>       0.35901698       0.00260361       0.09935458 </v>
    <v>       0.00406341       0.35769890       0.09935395 </v>
    <v>       0.64937913       0.64784609       0.09938767 </v>
    <v>       0.32747055       0.32594732       0.10030889 </v>
    <v>       0.68097593       0.00279005       0.10034275 </v>
    <v>       0.00426153       0.67962894       0.10035097 </v>
    <v>       0.16649184       0.33342290       0.33752802 </v>
    <v>       0.33341837       0.16649614       0.33753287 </v>
    <v>       0.16691827       0.83347761       0.33754051 </v>
    <v>       0.33331606       0.66666441       0.33686779 </v>
    <v>       0.66665838       0.33331800       0.33686777 </v>
    <v>       0.83346950       0.16691931       0.33753978 </v>
    <v>       0.66655154       0.83306130       0.33752935 </v>
    <v>       0.83305348       0.66655612       0.33752521 </v>
   </varray>
  </structure>
  <varray name="forces" >
   <v>       0.01137176      -0.01052629      -0.16272035 </v>
   <v>      -0.11155881      -0.05072817      -0.05979475 </v>
   <v>       0.11451452      -0.05277824      -0.05927654 </v>
   <v>      -0.00588219       0.12119276      -0.06339187 </v>
   <v>      -0.00809738       0.00897160       0.10579960 </v>
   <v>      -0.00149138      -0.00588148       0.10324978 </v>
   <v>       0.00147200      -0.00928178       0.10221315 </v>
   <v>       0.10179168       0.01732622      -0.02374458 </v>
   <v>      -0.10219780       0.01756331      -0.02445633 </v>
   <v>      -0.04160593      -0.09905243      -0.02571732 </v>
   <v>       0.00447604      -0.00107054       0.09060044 </v>
   <v>      -0.00495072      -0.00050932       0.09061961 </v>
   <v>       0.04137987      -0.09755285      -0.02570749 </v>
   <v>      -0.06867773       0.08080667      -0.02419436 </v>
   <v>       0.06945606       0.08152055      -0.02347899 </v>
  </varray>
  <varray name="stress" >
   <v>      24.01318484      -0.01360613       0.00517668 </v>
   <v>      -0.01360611      23.95841118      -0.02998038 </v>
   <v>       0.00517670      -0.02998038      -1.68394272 </v>
  </varray>
  <energy>
   <i name="e_fr_energy">   -127.08511192 </i>
   <i name="e_wo_entrp">   -127.08354475 </i>
   <i name="e_0_energy">   -127.08432834 </i>
  </energy>
  <time name="totalsc">   48.12   48.47</time>
 </calculation>
 <calculation>
  <scstep>
   <time name="dav">    5.46    5.50</time>
   <time name="total">    5.76    5.81</time>
   <energy>
    <i name="alphaZ">     58.93780217 </i>
    <i name="ewald">   4755.17912241 </i>
    <i name="hartreedc">  -6513.22007890 </i>
    <i name="XCdc">    181.26374704 </i>
    <i name="pawpsdc">   5923.39806321 </i>
    <i name="pawaedc">  -5927.88133647 </i>
    <i name="eentropy">     -0.00156719 </i>
    <i name="bandstr">   -506.43696666 </i>
    <i name="atom">   1903.26342058 </i>
    <i name="e_fr_energy">   -125.49779381 </i>
    <i name="e_wo_entrp">   -125.49622662 </i>
    <i name="e_0_energy">   -125.49701022 </i>
   </energy>
  </scstep>
  <scstep>
   <time name="dav">    9.59    9.65</time>
   <time name="total">    9.88    9.95</time>
   <energy>
    <i name="e_fr_energy">   -125.49780190 </i>
    <i name="e_wo_entrp">   -125.49623472 </i>
    <i name="e_0_energy">   -125.49701831 </i>
   </energy>
  </scstep>
  <scstep>
   <time name="dav">    7.93    7.99</time>
   <time name="total">    8.23    8.30</time>
   <energy>
    <i name="e_fr_energy">   -125.49780048 </i>
    <i name="e_wo_entrp">   -125.49623329 </i>
    <i name="e_0_energy">   -125.49701688 </i>
   </energy>
  </scstep>
  <scstep>
   <time name="dav">   10.09   10.16</time>
   <time name="total">   10.13   10.20</time>
   <energy>
    <i name="alphaZ">     58.93780217 </i>
    <i name="ewald">   4755.17912241 </i>
    <i name="hartreedc">  -6513.27524336 </i>
    <i name="XCdc">    181.26318443 </i>
    <i name="pawpsdc">   5925.11952495 </i>
    <i name="pawaedc">  -5929.60336155 </i>
    <i name="eentropy">     -0.00156718 </i>
    <i name="bandstr">   -506.38068302 </i>
    <i name="atom">   1903.26342058 </i>
    <i name="e_fr_energy">   -125.49780059 </i>
    <i name="e_wo_entrp">   -125.49623340 </i>
    <i name="e_0_energy">   -125.49701700 </i>
   </energy>
  </scstep>
  <structure>
   <crystal>
    <varray name="basis" >
     <v>       4.17424245       2.41000000       0.00000000 </v>
     <v>      -4.17424245       2.41000000       0.00000000 </v>
     <v>       0.00000000       0.00000000      15.00000000 </v>
    </varray>
    <i name="volume">    301.79772886 </i>
    <varray name="rec_basis" >
     <v>       0.11978221       0.20746888       0.00000000 </v>
     <v>      -0.11978221       0.20746888       0.00000000 </v>
     <v>       0.00000000       0.00000000       0.06666667 </v>
    </varray>
   </crystal>
   <varray name="positions" >
    <v>       0.00424461       0.00298472       0.11281822 </v>
    <v>       0.35893209       0.00261750       0.09939903 </v>
    <v>       0.00408065       0.35761376       0.09939850 </v>
    <v>       0.64947178       0.64794311       0.09943203 </v>
    <v>       0.32754472       0.32603211       0.10037025 </v>
    <v>       0.68090117       0.00277953       0.10040545 </v>
    <v>       0.00424873       0.67955232       0.10041384 </v>
    <v>       0.16652077       0.33343899       0.33752829 </v>
    <v>       0.33343483       0.16652669       0.33753293 </v>
    <v>       0.16689735       0.83344367       0.33754015 </v>
    <v>       0.33331834       0.66666447       0.33690653 </v>
    <v>       0.66665813       0.33331912       0.33690652 </v>
    <v>       0.83343544       0.16689847       0.33753938 </v>
    <v>       0.66653452       0.83307985       0.33752939 </v>
    <v>       0.83307087       0.66653969       0.33752549 </v>
   </varray>
  </structure>
  <varray name="forces" >
   <v>       0.01001176      -0.00858356      -0.14765232 </v>
   <v>      -0.08965982      -0.03888347      -0.05230677 </v>
   <v>       0.09263183      -0.04165163      -0.05179427 </v>
   <v>      -0.00587308       0.09548684      -0.05587294 </v>
   <v>      -0.00722115       0.00692261       0.09364702 </v>
   <v>      -0.00225753      -0.00434463       0.09091595 </v>
   <v>       0.00270626      -0.00798170       0.08986914 </v>
   <v>       0.09478362       0.00496178      -0.02174195 </v>
   <v>      -0.09495365       0.00471191      -0.02240260 </v>
   <v>      -0.04705493      -0.08421332      -0.02357015 </v>
   <v>       0.00320351      -0.00192166       0.08402628 </v>
   <v>      -0.00422187      -0.00097133       0.08404200 </v>
   <v>       0.04668935      -0.08275450      -0.02355586 </v>
   <v>      -0.05185704       0.07922670      -0.02213156 </v>
   <v>       0.05307273       0.07999595      -0.02147197 </v>
  </varray>
  <varray name="stress" >
   <v>      24.12017694      -0.01216574       0.00356590 </v>
   <v>      -0.01216575      24.07996702      -0.02721419 </v>
   <v>       0.00356587      -0.02721422      -1.66477242 </v>
  </varray>
  <energy>
   <i name="e_fr_energy">   -127.08650602 </i>
   <i name="e_wo_entrp">   -127.08493884 </i>
   <i name="e_0_energy">   -127.08572243 </i>
  </energy>
  <time name="totalsc">   38.73   39.02</time>
 </calculation>
 <calculation>
  <scstep>
   <time name="dav">    5.48    5.51</time>
   <time name="total">    5.77    5.82</time>
   <energy>
    <i name="alphaZ">     58.93780217 </i>
    <i name="ewald">   4755.05737749 </i>
    <i name="hartreedc">  -6512.92588852 </i>
    <i name="XCdc">    181.27747571 </i>
    <i name="pawpsdc">   5925.14706526 </i>
    <i name="pawaedc">  -5929.63090417 </i>
    <i name="eentropy">     -0.00156718 </i>
    <i name="bandstr">   -506.62615665 </i>
    <i name="atom">   1903.26342058 </i>
    <i name="e_fr_energy">   -125.50137532 </i>
    <i name="e_wo_entrp">   -125.49980813 </i>
    <i name="e_0_energy">   -125.50059172 </i>
   </energy>
  </scstep>
  <scstep>
   <time name="dav">   10.88   10.95</time>
   <time name="total">   11.17   11.25</time>
   <energy>
    <i name="e_fr_energy">   -125.50144397 </i>
    <i name="e_wo_entrp">   -125.49987678 </i>
    <i name="e_0_energy">   -125.50066038 </i>
   </energy>
  </scstep>
  <scstep>
   <time name="dav">    8.43    8.48</time>
   <time name="total">    8.72    8.79</time>
   <energy>
    <i name="e_fr_energy">   -125.50143134 </i>
    <i name="e_wo_entrp">   -125.49986415 </i>
    <i name="e_0_energy">   -125.50064775 </i>
   </energy>
  </scstep>
  <scstep>
   <time name="dav">   10.00   10.06</time>
   <time name="total">   10.29   10.36</time>
   <energy>
    <i name="e_fr_energy">   -125.50143218 </i>
    <i name="e_wo_entrp">   -125.49986500 </i>
    <i name="e_0_energy">   -125.50064859 </i>
   </energy>
  </scstep>
  <scstep>
   <time name="dav">    8.99    9.04</time>
   <time name="total">    9.02    9.08</time>
   <energy>
    <i name="alphaZ">     58.93780217 </i>
    <i name="ewald">   4755.05737749 </i>
    <i name="hartreedc">  -6513.10804231 </i>
    <i name="XCdc">    181.27580721 </i>
    <i name="pawpsdc">   5930.05468055 </i>
    <i name="pawaedc">  -5934.54012631 </i>
    <i name="eentropy">     -0.00156719 </i>
    <i name="bandstr">   -506.44078355 </i>
    <i name="atom">   1903.26342058 </i>
    <i name="e_fr_energy">   -125.50143136 </i>
    <i name="e_wo_entrp">   -125.49986417 </i>
    <i name="e_0_energy">   -125.50064776 </i>
   </energy>
  </scstep>
  <structure>
   <crystal>
    <varray name="basis" >
     <v>       4.17424245       2.41000000       0.00000000 </v>
     <v>      -4.17424245       2.41000000       0.00000000 </v>
     <v>       0.00000000       0.00000000      15.00000000 </v>
    </varray>
    <i name="volume">    301.79772886 </i>
    <varray name="rec_basis" >
     <v>       0.11978221       0.20746888       0.00000000 </v>
     <v>      -0.11978221       0.20746888       0.00000000 </v>
     <v>       0.00000000       0.00000000       0.06666667 </v>
    </varray>
   </crystal>
   <varray name="positions" >
    <v>       0.00423134       0.00292900       0.11162524 </v>
    <v>       0.35867742       0.00265918       0.09953236 </v>
    <v>       0.00413238       0.35735833       0.09953214 </v>
    <v>       0.64974973       0.64823418       0.09956511 </v>
    <v>       0.32776724       0.32628649       0.10055433 </v>
    <v>       0.68067689       0.00274798       0.10059352 </v>
    <v>       0.00421032       0.67932244       0.10060248 </v>
    <v>       0.16660756       0.33348725       0.33752908 </v>
    <v>       0.33348421       0.16661835       0.33753310 </v>
    <v>       0.16683460       0.83334183       0.33753905 </v>
    <v>       0.33332516       0.66666463       0.33702274 </v>
    <v>       0.66665740       0.33332246       0.33702277 </v>
    <v>       0.83333325       0.16683596       0.33753820 </v>
    <v>       0.66648346       0.83313549       0.33752953 </v>
    <v>       0.83312305       0.66649043       0.33752635 </v>
   </varray>
  </structure>
  <varray name="forces" >
   <v>       0.00592152      -0.00275930      -0.10721073 </v>
   <v>      -0.02632638      -0.00473626      -0.02932218 </v>
   <v>       0.02951966      -0.00965526      -0.02882805 </v>
   <v>      -0.00586285       0.02122146      -0.03278943 </v>
   <v>      -0.00474777      -0.00245349       0.05832509 </v>
   <v>      -0.00155826       0.00179803       0.05508138 </v>
   <v>       0.00337687      -0.00249230       0.05404123 </v>
   <v>       0.07697625      -0.03001105      -0.01581197 </v>
   <v>      -0.07643442      -0.03170233      -0.01632264 </v>
   <v>      -0.06328973      -0.04363863      -0.01722097 </v>
   <v>      -0.00054378      -0.00447707       0.06443611 </v>
   <v>      -0.00208975      -0.00236702       0.06443826 </v>
   <v>       0.06252551      -0.04229281      -0.01720225 </v>
   <v>      -0.00493479       0.07631647      -0.01605852 </v>
   <v>       0.00746793       0.07724955      -0.01555532 </v>
  </varray>
  <varray name="stress" >
   <v>      24.42717652      -0.00797475      -0.00073180 </v>
   <v>      -0.00797473      24.42523192      -0.01987475 </v>
   <v>      -0.00073182      -0.01987473      -1.64153194 </v>
  </varray>
  <energy>
   <i name="e_fr_energy">   -127.08974485 </i>
   <i name="e_wo_entrp">   -127.08817766 </i>
   <i name="e_0_energy">   -127.08896126 </i>
  </energy>
[...]
       <r>     2.7795     1.6607    30.8415 </r>
       <r>     2.8866     0.9277    30.9408 </r>
       <r>     2.9936     0.8629    31.0331 </r>
       <r>     3.1006     1.0268    31.1430 </r>
       <r>     3.2076     1.5297    31.3067 </r>
       <r>     3.3146     1.3698    31.4533 </r>
       <r>     3.4216     1.2767    31.5899 </r>
       <r>     3.5286     1.0650    31.7039 </r>
       <r>     3.6357     1.5538    31.8702 </r>
       <r>     3.7427     2.7738    32.1670 </r>
       <r>     3.8497     2.9857    32.4865 </r>
       <r>     3.9567     2.5797    32.7626 </r>
       <r>     4.0637     2.5357    33.0339 </r>
       <r>     4.1707     3.0016    33.3551 </r>
       <r>     4.2777     3.3189    33.7103 </r>
       <r>     4.3847     3.3891    34.0730 </r>
       <r>     4.4918     3.0386    34.3981 </r>
       <r>     4.5988     3.3871    34.7606 </r>
       <r>     4.7058     2.8671    35.0674 </r>
       <r>     4.8128     2.8271    35.3700 </r>
       <r>     4.9198     3.5007    35.7446 </r>
       <r>     5.0268     3.3811    36.1064 </r>
       <r>     5.1338     3.0316    36.4308 </r>
       <r>     5.2408     3.2199    36.7754 </r>
       <r>     5.3479     2.5639    37.0498 </r>
       <r>     5.4549     2.3698    37.3034 </r>
       <r>     5.5619     2.8035    37.6034 </r>
       <r>     5.6689     4.1557    38.0481 </r>
       <r>     5.7759     3.3656    38.4082 </r>
       <r>     5.8829     2.5783    38.6842 </r>
       <r>     5.9899     2.2703    38.9271 </r>
       <r>     6.0969     2.7184    39.2180 </r>
       <r>     6.2040     2.4205    39.4770 </r>
       <r>     6.3110     2.0307    39.6943 </r>
       <r>     6.4180     2.4798    39.9597 </r>
       <r>     6.5250     3.0683    40.2881 </r>
       <r>     6.6320     3.4311    40.6552 </r>
       <r>     6.7390     3.0301    40.9795 </r>
       <r>     6.8460     3.8403    41.3905 </r>
       <r>     6.9530     4.1733    41.8370 </r>
       <r>     7.0601     3.5800    42.2202 </r>
       <r>     7.1671     3.3350    42.5771 </r>
       <r>     7.2741     2.7381    42.8701 </r>
       <r>     7.3811     2.0649    43.0910 </r>
       <r>     7.4881     2.6997    43.3799 </r>
       <r>     7.5951     3.1909    43.7214 </r>
       <r>     7.7021     2.6215    44.0019 </r>
       <r>     7.8091     2.8081    44.3024 </r>
       <r>     7.9162     3.4120    44.6676 </r>
       <r>     8.0232     3.6402    45.0571 </r>
       <r>     8.1302     4.8758    45.5789 </r>
       <r>     8.2372     3.9493    46.0015 </r>
       <r>     8.3442     3.4613    46.3719 </r>
       <r>     8.4512     3.9119    46.7906 </r>
       <r>     8.5582     3.8994    47.2078 </r>
       <r>     8.6652     3.3819    47.5697 </r>
       <r>     8.7723     2.2909    47.8149 </r>
       <r>     8.8793     1.1240    47.9352 </r>
       <r>     8.9863     0.5030    47.9890 </r>
       <r>     9.0933     0.0993    47.9996 </r>
       <r>     9.2003     0.0034    48.0000 </r>
       <r>     9.3073     0.0000    48.0000 </r>
       <r>     9.4143     0.0000    48.0000 </r>
       <r>     9.5214     0.0000    48.0000 </r>
       <r>     9.6284     0.0000    48.0000 </r>
       <r>     9.7354     0.0000    48.0000 </r>
       <r>     9.8424     0.0000    48.0000 </r>
       <r>     9.9494     0.0000    48.0000 </r>
       <r>    10.0564     0.0000    48.0000 </r>
       <r>    10.1634     0.0000    48.0000 </r>
       <r>    10.2704     0.0000    48.0000 </r>
       <r>    10.3775     0.0000    48.0000 </r>
      </set>
      <set comment="spin 2">
       <r>   -21.7264     0.0000     0.0000 </r>
       <r>   -21.6193     0.0000     0.0000 </r>
       <r>   -21.5123     0.0000     0.0000 </r>
       <r>   -21.4053     0.0000     0.0000 </r>
       <r>   -21.2983     0.0000     0.0000 </r>
       <r>   -21.1913     0.0000     0.0000 </r>
       <r>   -21.0843     0.0000     0.0000 </r>
       <r>   -20.9773     0.0000     0.0000 </r>
       <r>   -20.8703     0.0000     0.0000 </r>
       <r>   -20.7632     0.0000     0.0000 </r>
       <r>   -20.6562     0.0000     0.0000 </r>
       <r>   -20.5492     0.0000     0.0000 </r>
       <r>   -20.4422     0.0008     0.0001 </r>
       <r>   -20.3352     0.0340     0.0037 </r>
       <r>   -20.2282     0.2499     0.0305 </r>
       <r>   -20.1212     0.5265     0.0868 </r>
       <r>   -20.0142     0.5718     0.1480 </r>
       <r>   -19.9071     0.6276     0.2152 </r>
       <r>   -19.8001     0.5244     0.2713 </r>
       <r>   -19.6931     0.6805     0.3441 </r>
       <r>   -19.5861     0.5435     0.4023 </r>
       <r>   -19.4791     0.5245     0.4584 </r>
       <r>   -19.3721     0.7647     0.5402 </r>
       <r>   -19.2651     0.5028     0.5940 </r>
       <r>   -19.1581     0.4677     0.6441 </r>
       <r>   -19.0510     0.7690     0.7264 </r>
       <r>   -18.9440     0.6801     0.7991 </r>
       <r>   -18.8370     0.3957     0.8415 </r>
       <r>   -18.7300     0.5005     0.8951 </r>
       <r>   -18.6230     0.8830     0.9895 </r>
       <r>   -18.5160     0.6109     1.0549 </r>
       <r>   -18.4090     0.4910     1.1075 </r>
       <r>   -18.3020     0.3629     1.1463 </r>
       <r>   -18.1949     0.7715     1.2289 </r>
       <r>   -18.0879     0.8870     1.3238 </r>
       <r>   -17.9809     0.4995     1.3772 </r>
       <r>   -17.8739     0.3865     1.4186 </r>
       <r>   -17.7669     0.5096     1.4731 </r>
       <r>   -17.6599     0.7220     1.5504 </r>
       <r>   -17.5529     0.9145     1.6483 </r>
       <r>   -17.4459     0.9050     1.7451 </r>
       <r>   -17.3388     1.0963     1.8624 </r>
       <r>   -17.2318     1.2755     1.9989 </r>
       <r>   -17.1248     1.8374     2.1955 </r>
       <r>   -17.0178     2.1145     2.4218 </r>
       <r>   -16.9108     2.4439     2.6834 </r>
       <r>   -16.8038     2.6835     2.9705 </r>
       <r>   -16.6968     1.5787     3.1395 </r>
       <r>   -16.5898     0.3782     3.1799 </r>
       <r>   -16.4827     0.6788     3.2526 </r>
       <r>   -16.3757     1.1432     3.3749 </r>
       <r>   -16.2687     0.6443     3.4439 </r>
       <r>   -16.1617     0.5446     3.5021 </r>
       <r>   -16.0547     0.4732     3.5528 </r>
       <r>   -15.9477     0.5223     3.6087 </r>
       <r>   -15.8407     0.3960     3.6510 </r>
       <r>   -15.7336     0.8290     3.7398 </r>
       <r>   -15.6266     1.1415     3.8619 </r>
       <r>   -15.5196     0.6301     3.9293 </r>
       <r>   -15.4126     0.4769     3.9804 </r>
       <r>   -15.3056     0.4265     4.0260 </r>
       <r>   -15.1986     0.5068     4.0802 </r>
       <r>   -15.0916     0.7780     4.1635 </r>
       <r>   -14.9846     1.5235     4.3265 </r>
       <r>   -14.8775     2.3502     4.5780 </r>
       <r>   -14.7705     2.5297     4.8488 </r>
       <r>   -14.6635     1.9741     5.0600 </r>
       <r>   -14.5565     1.5273     5.2235 </r>
       <r>   -14.4495     1.0875     5.3398 </r>
       <r>   -14.3425     1.3984     5.4895 </r>
       <r>   -14.2355     2.0190     5.7055 </r>
       <r>   -14.1285     1.9575     5.9150 </r>
       <r>   -14.0214     1.3944     6.0642 </r>
       <r>   -13.9144     1.7244     6.2488 </r>
       <r>   -13.8074     2.3735     6.5028 </r>
       <r>   -13.7004     2.2348     6.7419 </r>
       <r>   -13.5934     2.1750     6.9747 </r>
       <r>   -13.4864     1.4306     7.1277 </r>
       <r>   -13.3794     0.8018     7.2136 </r>
       <r>   -13.2724     0.4549     7.2622 </r>
       <r>   -13.1653     0.4069     7.3058 </r>
       <r>   -13.0583     0.7216     7.3830 </r>
       <r>   -12.9513     0.9433     7.4839 </r>
       <r>   -12.8443     0.6684     7.5555 </r>
       <r>   -12.7373     0.7139     7.6318 </r>
       <r>   -12.6303     0.8761     7.7256 </r>
       <r>   -12.5233     0.7942     7.8106 </r>
       <r>   -12.4163     0.7129     7.8869 </r>
       <r>   -12.3092     0.5383     7.9445 </r>
       <r>   -12.2022     0.5370     8.0019 </r>
       <r>   -12.0952     1.0436     8.1136 </r>
       <r>   -11.9882     0.6891     8.1874 </r>
       <r>   -11.8812     0.3819     8.2282 </r>
       <r>   -11.7742     0.4599     8.2774 </r>
       <r>   -11.6672     0.5028     8.3313 </r>
       <r>   -11.5602     0.8703     8.4244 </r>
       <r>   -11.4531     0.7526     8.5049 </r>
       <r>   -11.3461     0.2989     8.5369 </r>
       <r>   -11.2391     0.3827     8.5779 </r>
       <r>   -11.1321     0.7235     8.6553 </r>
       <r>   -11.0251     0.7473     8.7353 </r>
       <r>   -10.9181     0.8528     8.8265 </r>
       <r>   -10.8111     0.9536     8.9286 </r>
       <r>   -10.7041     0.5375     8.9861 </r>
       <r>   -10.5970     0.9499     9.0877 </r>
       <r>   -10.4900     1.7017     9.2698 </r>
       <r>   -10.3830     1.8597     9.4689 </r>
       <r>   -10.2760     2.0727     9.6907 </r>
       <r>   -10.1690     2.1476     9.9205 </r>
       <r>   -10.0620     2.0585    10.1408 </r>
       <r>    -9.9550     1.8911    10.3431 </r>
       <r>    -9.8480     1.3724    10.4900 </r>
       <r>    -9.7409     1.4532    10.6455 </r>
       <r>    -9.6339     1.6751    10.8248 </r>
       <r>    -9.5269     1.2386    10.9573 </r>
       <r>    -9.4199     1.9384    11.1647 </r>
       <r>    -9.3129     2.6928    11.4529 </r>
       <r>    -9.2059     1.8680    11.6528 </r>
       <r>    -9.0989     1.1669    11.7777 </r>
       <r>    -8.9918     0.7802    11.8612 </r>
       <r>    -8.8848     1.8115    12.0550 </r>
       <r>    -8.7778     2.9498    12.3707 </r>
       <r>    -8.6708     1.7928    12.5625 </r>
       <r>    -8.5638     1.0803    12.6781 </r>
       <r>    -8.4568     1.4600    12.8344 </r>
       <r>    -8.3498     2.2728    13.0776 </r>
       <r>    -8.2428     2.3676    13.3310 </r>
       <r>    -8.1357     1.7847    13.5219 </r>
       <r>    -8.0287     2.0553    13.7419 </r>
       <r>    -7.9217     2.8364    14.0454 </r>
       <r>    -7.8147     3.0105    14.3676 </r>
       <r>    -7.7077     2.6867    14.6551 </r>
       <r>    -7.6007     1.6767    14.8345 </r>
       <r>    -7.4937     0.8606    14.9266 </r>
       <r>    -7.3867     1.7963    15.1188 </r>
       <r>    -7.2796     2.3898    15.3746 </r>
       <r>    -7.1726     1.6812    15.5545 </r>
       <r>    -7.0656     1.5968    15.7254 </r>
       <r>    -6.9586     1.9652    15.9357 </r>
       <r>    -6.8516     2.2664    16.1782 </r>
       <r>    -6.7446     2.2637    16.4205 </r>
       <r>    -6.6376     2.7776    16.7177 </r>
       <r>    -6.5306     2.9310    17.0313 </r>
       <r>    -6.4235     2.8005    17.3310 </r>
       <r>    -6.3165     2.2110    17.5676 </r>
       <r>    -6.2095     2.2355    17.8069 </r>
       <r>    -6.1025     2.8496    18.1118 </r>
       <r>    -5.9955     3.5681    18.4936 </r>
       <r>    -5.8885     3.9421    18.9155 </r>
       <r>    -5.7815     3.0804    19.2451 </r>
       <r>    -5.6745     2.5272    19.5156 </r>
       <r>    -5.5674     2.9519    19.8315 </r>
       <r>    -5.4604     3.9569    20.2549 </r>
       <r>    -5.3534     4.0670    20.6901 </r>
       <r>    -5.2464     2.8502    20.9951 </r>
       <r>    -5.1394     2.1520    21.2254 </r>
       <r>    -5.0324     1.4387    21.3794 </r>
       <r>    -4.9254     1.0578    21.4926 </r>
       <r>    -4.8184     1.6096    21.6648 </r>
       <r>    -4.7113     1.7561    21.8528 </r>
       <r>    -4.6043     1.1762    21.9786 </r>
       <r>    -4.4973     1.0946    22.0958 </r>
       <r>    -4.3903     1.5598    22.2627 </r>
       <r>    -4.2833     2.8093    22.5633 </r>
       <r>    -4.1763     3.1028    22.8954 </r>
       <r>    -4.0693     2.3777    23.1498 </r>
       <r>    -3.9623     2.3782    23.4043 </r>
       <r>    -3.8552     3.1475    23.7411 </r>
       <r>    -3.7482     2.6319    24.0228 </r>
       <r>    -3.6412     2.4928    24.2895 </r>
       <r>    -3.5342     2.4199    24.5485 </r>
       <r>    -3.4272     2.1848    24.7823 </r>
       <r>    -3.3202     1.4830    24.9410 </r>
       <r>    -3.2132     1.7162    25.1246 </r>
       <r>    -3.1061     2.3835    25.3797 </r>
       <r>    -2.9991     2.1978    25.6149 </r>
       <r>    -2.8921     1.6338    25.7897 </r>
       <r>    -2.7851     1.5925    25.9602 </r>
       <r>    -2.6781     1.1273    26.0808 </r>
       <r>    -2.5711     1.2207    26.2114 </r>
       <r>    -2.4641     1.9162    26.4165 </r>
       <r>    -2.3571     2.3188    26.6646 </r>
       <r>    -2.2500     0.8034    26.7506 </r>
       <r>    -2.1430     0.6882    26.8242 </r>
       <r>    -2.0360     1.2073    26.9534 </r>
       <r>    -1.9290     1.1521    27.0767 </r>
       <r>    -1.8220     1.2729    27.2129 </r>
       <r>    -1.7150     1.3721    27.3598 </r>
       <r>    -1.6080     1.2999    27.4989 </r>
       <r>    -1.5010     1.2088    27.6282 </r>
       <r>    -1.3939     0.4918    27.6809 </r>
       <r>    -1.2869     0.4601    27.7301 </r>
       <r>    -1.1799     0.6278    27.7973 </r>
       <r>    -1.0729     0.3822    27.8382 </r>
       <r>    -0.9659     0.5289    27.8948 </r>
       <r>    -0.8589     0.6239    27.9616 </r>
       <r>    -0.7519     0.2096    27.9840 </r>
       <r>    -0.6449     0.0194    27.9861 </r>
       <r>    -0.5378     0.0004    27.9861 </r>
       <r>    -0.4308     0.0002    27.9861 </r>
       <r>    -0.3238     0.0133    27.9876 </r>
       <r>    -0.2168     0.1047    27.9988 </r>
       <r>    -0.1098     0.1204    28.0117 </r>
       <r>    -0.0028     0.0204    28.0138 </r>
       <r>     0.1042     0.0005    28.0139 </r>
       <r>     0.2112     0.0000    28.0139 </r>
       <r>     0.3183     0.0068    28.0146 </r>
       <r>     0.4253     0.1448    28.0301 </r>
       <r>     0.5323     0.4274    28.0759 </r>
       <r>     0.6393     0.2236    28.0998 </r>
       <r>     0.7463     0.4087    28.1435 </r>
       <r>     0.8533     0.8970    28.2395 </r>
       <r>     0.9603     1.3083    28.3795 </r>
       <r>     1.0673     2.6392    28.6619 </r>
       <r>     1.1744     2.6024    28.9404 </r>
       <r>     1.2814     0.9286    29.0398 </r>
       <r>     1.3884     0.1500    29.0559 </r>
       <r>     1.4954     0.3269    29.0908 </r>
       <r>     1.6024     1.3682    29.2373 </r>
       <r>     1.7094     2.5777    29.5131 </r>
       <r>     1.8164     2.0266    29.7300 </r>
       <r>     1.9234     1.3440    29.8738 </r>
       <r>     2.0305     1.1516    29.9970 </r>
       <r>     2.1375     1.2933    30.1354 </r>
       <r>     2.2445     1.0110    30.2436 </r>
       <r>     2.3515     1.0176    30.3525 </r>
       <r>     2.4585     0.9834    30.4577 </r>
       <r>     2.5655     0.5977    30.5217 </r>
       <r>     2.6725     1.3277    30.6638 </r>
       <r>     2.7795     1.6607    30.8415 </r>
       <r>     2.8866     0.9277    30.9408 </r>
       <r>     2.9936     0.8629    31.0331 </r>
       <r>     3.1006     1.0268    31.1430 </r>
       <r>     3.2076     1.5297    31.3067 </r>
       <r>     3.3146     1.3698    31.4533 </r>
       <r>     3.4216     1.2767    31.5899 </r>
       <r>     3.5286     1.0650    31.7039 </r>
       <r>     3.6357     1.5538    31.8702 </r>
       <r>     3.7427     2.7738    32.1670 </r>
       <r>     3.8497     2.9857    32.4865 </r>
       <r>     3.9567     2.5797    32.7626 </r>
       <r>     4.0637     2.5357    33.0339 </r>
       <r>     4.1707     3.0016    33.3551 </r>
       <r>     4.2777     3.3189    33.7103 </r>
       <r>     4.3847     3.3890    34.0730 </r>
       <r>     4.4918     3.0386    34.3981 </r>
       <r>     4.5988     3.3872    34.7606 </r>
       <r>     4.7058     2.8671    35.0674 </r>
       <r>     4.8128     2.8272    35.3700 </r>
       <r>     4.9198     3.5007    35.7446 </r>
       <r>     5.0268     3.3811    36.1064 </r>
       <r>     5.1338     3.0316    36.4308 </r>
       <r>     5.2408     3.2199    36.7754 </r>
       <r>     5.3479     2.5640    37.0498 </r>
       <r>     5.4549     2.3698    37.3034 </r>
       <r>     5.5619     2.8036    37.6034 </r>
       <r>     5.6689     4.1558    38.0481 </r>
       <r>     5.7759     3.3656    38.4083 </r>
       <r>     5.8829     2.5783    38.6842 </r>
       <r>     5.9899     2.2702    38.9271 </r>
       <r>     6.0969     2.7184    39.2180 </r>
       <r>     6.2040     2.4205    39.4770 </r>
       <r>     6.3110     2.0307    39.6944 </r>
       <r>     6.4180     2.4798    39.9597 </r>
       <r>     6.5250     3.0682    40.2881 </r>
       <r>     6.6320     3.4312    40.6552 </r>
       <r>     6.7390     3.0302    40.9795 </r>
       <r>     6.8460     3.8404    41.3905 </r>
       <r>     6.9530     4.1733    41.8371 </r>
       <r>     7.0601     3.5800    42.2202 </r>
       <r>     7.1671     3.3350    42.5771 </r>
       <r>     7.2741     2.7380    42.8701 </r>
       <r>     7.3811     2.0649    43.0911 </r>
       <r>     7.4881     2.7000    43.3800 </r>
       <r>     7.5951     3.1908    43.7214 </r>
       <r>     7.7021     2.6214    44.0020 </r>
       <r>     7.8091     2.8083    44.3025 </r>
       <r>     7.9162     3.4121    44.6676 </r>
       <r>     8.0232     3.6402    45.0572 </r>
       <r>     8.1302     4.8757    45.5790 </r>
       <r>     8.2372     3.9490    46.0015 </r>
       <r>     8.3442     3.4613    46.3720 </r>
       <r>     8.4512     3.9120    46.7906 </r>
       <r>     8.5582     3.8994    47.2079 </r>
       <r>     8.6652     3.3817    47.5698 </r>
       <r>     8.7723     2.2908    47.8149 </r>
       <r>     8.8793     1.1240    47.9352 </r>
       <r>     8.9863     0.5030    47.9890 </r>
       <r>     9.0933     0.0993    47.9996 </r>
       <r>     9.2003     0.0034    48.0000 </r>
       <r>     9.3073     0.0000    48.0000 </r>
       <r>     9.4143     0.0000    48.0000 </r>
       <r>     9.5214     0.0000    48.0000 </r>
       <r>     9.6284     0.0000    48.0000 </r>
       <r>     9.7354     0.0000    48.0000 </r>
       <r>     9.8424     0.0000    48.0000 </r>
       <r>     9.9494     0.0000    48.0000 </r>
       <r>    10.0564     0.0000    48.0000 </r>
       <r>    10.1634     0.0000    48.0000 </r>
       <r>    10.2704     0.0000    48.0000 </r>
       <r>    10.3775     0.0000    48.0000 </r>
      </set>
     </set>
    </array>
   </total>
  </dos>
 </calculation>
 <structure name="finalpos" >
  <crystal>
   <varray name="basis" >
    <v>       4.17424245       2.41000000       0.00000000 </v>
    <v>      -4.17424245       2.41000000       0.00000000 </v>
    <v>       0.00000000       0.00000000      15.00000000 </v>
   </varray>
   <i name="volume">    301.79772886 </i>
   <varray name="rec_basis" >
    <v>       0.11978221       0.20746888       0.00000000 </v>
    <v>      -0.11978221       0.20746888       0.00000000 </v>
    <v>       0.00000000       0.00000000       0.06666667 </v>
   </varray>
  </crystal>
  <varray name="positions" >
   <v>       0.00438810       0.00291261       0.09907215 </v>
   <v>       0.35952561       0.00291676       0.10145223 </v>
   <v>       0.00439528       0.35805001       0.10145430 </v>
   <v>       0.64925828       0.64777966       0.10145872 </v>
   <v>       0.32829345       0.32681414       0.10110725 </v>
   <v>       0.68049711       0.00291867       0.10110884 </v>
   <v>       0.00439796       0.67901878       0.10110992 </v>
   <v>       0.16646271       0.33320878       0.33808632 </v>
   <v>       0.33314844       0.16652404       0.33808816 </v>
   <v>       0.16650035       0.83322992       0.33809067 </v>
   <v>       0.33315212       0.66654633       0.33797793 </v>
   <v>       0.66648556       0.33321141       0.33797794 </v>
   <v>       0.83316895       0.16656035       0.33809001 </v>
   <v>       0.66648655       0.83319514       0.33808637 </v>
   <v>       0.83313354       0.66654739       0.33808520 </v>
  </varray>
 </structure>
</modeling>
