<?xml version="1.0" encoding="ISO-8859-1"?>
<modeling>
 <generator>
  <i name="program" type="string">vasp </i>
  <i name="version" type="string">6.3.2  </i>
  <i name="subversion" type="string">27Jun22 (build Dec 22 2022 13:13:19) complex                          parallel </i>
  <i name="platform" type="string">LinuxIFC </i>
  <i name="date" type="string">2023 08 24 </i>
  <i name="time" type="string">18:23:57 </i>
 </generator>
 <incar>
  <i type="string" name="SYSTEM">Lattice</i>
  <i type="int" name="ISTART">     0</i>
  <i type="string" name="PREC">Accurate</i>
  <i type="string" name="ALGO">Normal</i>
  <i type="int" name="ISPIN">     2</i>
  <i type="int" name="ICHARG">     2</i>
  <i type="int" name="NELM">    64</i>
  <i type="int" name="IBRION">     2</i>
  <i name="EDIFF">      0.00000100</i>
  <i name="EDIFFG">     -0.00100000</i>
  <i type="int" name="NSW">   128</i>
  <i type="int" name="ISIF">     2</i>
  <i name="ENCUT">    450.00000000</i>
  <i name="POTIM">      0.50000000</i>
  <i type="int" name="ISMEAR">     0</i>
  <i name="SIGMA">      0.10000000</i>
  <i type="logical" name="LWAVE"> F  </i>
  <i type="logical" name="LCHARG"> F  </i>
  <i type="string" name="GGA">PE</i>
  <i type="int" name="IVDW">    12</i>
 </incar>
 <primitive_cell>
  <structure name="primitive_cell" >
   <crystal>
    <varray name="basis" >
     <v>       4.16991232       2.40750000       0.00000000 </v>
     <v>      -4.16991232       2.40750000       0.00000000 </v>
     <v>       0.00000000       0.00000000      15.00000000 </v>
    </varray>
    <i name="volume">    301.17191726 </i>
    <varray name="rec_basis" >
     <v>       0.11990660       0.20768432       0.00000000 </v>
     <v>      -0.11990660       0.20768432       0.00000000 </v>
     <v>       0.00000000       0.00000000       0.06666667 </v>
    </varray>
   </crystal>
   <varray name="positions" >
    <v>       0.00415361       0.00267210       0.12034134 </v>
    <v>       0.35695335       0.00285503       0.09748893 </v>
    <v>       0.00423858       0.35550699       0.09749256 </v>
    <v>       0.65142295       0.65006557       0.09747688 </v>
    <v>       0.32808646       0.32671938       0.10030508 </v>
    <v>       0.68027775       0.00278085       0.10027562 </v>
    <v>       0.00416530       0.67883808       0.10026559 </v>
    <v>       0.99999933       0.49999967       0.33373333 </v>
    <v>       0.16666633       0.33333267       0.33373333 </v>
    <v>       0.99999933       0.99999967       0.33373333 </v>
    <v>       0.16666633       0.83333267       0.33373333 </v>
    <v>       0.49999933       0.49999967       0.33373333 </v>
    <v>       0.66666633       0.33333267       0.33373333 </v>
    <v>       0.49999933       0.99999967       0.33373333 </v>
    <v>       0.66666633       0.83333267       0.33373333 </v>
   </varray>
  </structure>
  <varray name="primitive_index" >
   <v type="int" >        1 </v>
   <v type="int" >        2 </v>
   <v type="int" >        3 </v>
   <v type="int" >        4 </v>
   <v type="int" >        5 </v>
   <v type="int" >        6 </v>
   <v type="int" >        7 </v>
   <v type="int" >        8 </v>
   <v type="int" >        9 </v>
   <v type="int" >       10 </v>
   <v type="int" >       11 </v>
   <v type="int" >       12 </v>
   <v type="int" >       13 </v>
   <v type="int" >       14 </v>
   <v type="int" >       15 </v>
  </varray>
 </primitive_cell>
 <kpoints>
  <generation param="Gamma">
   <v type="int" name="divisions">      12       12        1 </v>
   <v name="usershift">      0.00000000       0.00000000       0.00000000 </v>
   <v name="genvec1">      0.08333333      -0.00000000       0.00000000 </v>
   <v name="genvec2">     -0.00000000       0.08333333       0.00000000 </v>
   <v name="genvec3">      0.00000000       0.00000000       1.00000000 </v>
   <v name="shift">      0.00000000       0.00000000       0.00000000 </v>
  </generation>
  <varray name="kpointlist" >
   <v>       0.00000000       0.00000000       0.00000000 </v>
   <v>       0.08333333      -0.00000000       0.00000000 </v>
   <v>       0.00000000       0.08333333       0.00000000 </v>
   <v>      -0.08333333       0.08333333       0.00000000 </v>
   <v>       0.16666667      -0.00000000       0.00000000 </v>
   <v>       0.00000000       0.16666667       0.00000000 </v>
   <v>      -0.16666667       0.16666667       0.00000000 </v>
   <v>       0.25000000      -0.00000000       0.00000000 </v>
   <v>      -0.00000000       0.25000000       0.00000000 </v>
   <v>      -0.25000000       0.25000000       0.00000000 </v>
   <v>       0.33333333      -0.00000000       0.00000000 </v>
   <v>      -0.00000000       0.33333333       0.00000000 </v>
   <v>      -0.33333333       0.33333333       0.00000000 </v>
   <v>       0.41666667      -0.00000000       0.00000000 </v>
   <v>      -0.00000000       0.41666667       0.00000000 </v>
   <v>      -0.41666667       0.41666667       0.00000000 </v>
   <v>       0.50000000      -0.00000000       0.00000000 </v>
   <v>      -0.00000000       0.50000000       0.00000000 </v>
   <v>       0.50000000       0.50000000       0.00000000 </v>
   <v>       0.08333333       0.08333333       0.00000000 </v>
   <v>      -0.08333333       0.16666667       0.00000000 </v>
   <v>      -0.16666667       0.08333333       0.00000000 </v>
   <v>       0.16666667       0.08333333       0.00000000 </v>
   <v>      -0.08333333       0.25000000       0.00000000 </v>
   <v>      -0.25000000       0.16666667       0.00000000 </v>
   <v>      -0.16666667       0.25000000       0.00000000 </v>
   <v>       0.08333333       0.16666667       0.00000000 </v>
   <v>       0.25000000      -0.08333333       0.00000000 </v>
   <v>       0.25000000       0.08333333       0.00000000 </v>
   <v>      -0.08333333       0.33333333       0.00000000 </v>
   <v>      -0.33333333       0.25000000       0.00000000 </v>
   <v>      -0.25000000       0.33333333       0.00000000 </v>
   <v>       0.08333333       0.25000000       0.00000000 </v>
   <v>       0.33333333      -0.08333333       0.00000000 </v>
   <v>       0.33333333       0.08333333       0.00000000 </v>
   <v>      -0.08333333       0.41666667       0.00000000 </v>
   <v>      -0.41666667       0.33333333       0.00000000 </v>
   <v>      -0.33333333       0.41666667       0.00000000 </v>
   <v>       0.08333333       0.33333333       0.00000000 </v>
   <v>       0.41666667      -0.08333333       0.00000000 </v>
   <v>       0.41666667       0.08333333       0.00000000 </v>
   <v>      -0.08333333       0.50000000       0.00000000 </v>
   <v>       0.50000000       0.41666667       0.00000000 </v>
   <v>      -0.41666667       0.50000000       0.00000000 </v>
   <v>       0.08333333       0.41666667       0.00000000 </v>
   <v>       0.50000000      -0.08333333       0.00000000 </v>
   <v>       0.16666667       0.16666667       0.00000000 </v>
   <v>      -0.16666667       0.33333333       0.00000000 </v>
   <v>      -0.33333333       0.16666667       0.00000000 </v>
   <v>       0.25000000       0.16666667       0.00000000 </v>
   <v>      -0.16666667       0.41666667       0.00000000 </v>
   <v>      -0.41666667       0.25000000       0.00000000 </v>
   <v>      -0.25000000       0.41666667       0.00000000 </v>
   <v>       0.16666667       0.25000000       0.00000000 </v>
   <v>       0.41666667      -0.16666667       0.00000000 </v>
   <v>       0.33333333       0.16666667       0.00000000 </v>
   <v>      -0.16666667       0.50000000       0.00000000 </v>
   <v>       0.50000000       0.33333333       0.00000000 </v>
   <v>      -0.33333333       0.50000000       0.00000000 </v>
   <v>       0.16666667       0.33333333       0.00000000 </v>
   <v>       0.50000000      -0.16666667       0.00000000 </v>
   <v>       0.41666667       0.16666667       0.00000000 </v>
   <v>      -0.16666667      -0.41666667       0.00000000 </v>
   <v>       0.41666667       0.41666667       0.00000000 </v>
   <v>       0.25000000       0.25000000       0.00000000 </v>
   <v>      -0.25000000       0.50000000       0.00000000 </v>
   <v>       0.50000000       0.25000000       0.00000000 </v>
   <v>       0.33333333       0.25000000       0.00000000 </v>
   <v>      -0.25000000      -0.41666667       0.00000000 </v>
   <v>       0.41666667       0.33333333       0.00000000 </v>
   <v>      -0.33333333      -0.41666667       0.00000000 </v>
   <v>       0.25000000       0.33333333       0.00000000 </v>
   <v>      -0.41666667      -0.25000000       0.00000000 </v>
   <v>       0.33333333       0.33333333       0.00000000 </v>
  </varray>
  <varray name="weights" >
   <v>       0.00694444 </v>
   <v>       0.01388889 </v>
   <v>       0.01388889 </v>
   <v>       0.01388889 </v>
   <v>       0.01388889 </v>
   <v>       0.01388889 </v>
   <v>       0.01388889 </v>
   <v>       0.01388889 </v>
   <v>       0.01388889 </v>
   <v>       0.01388889 </v>
   <v>       0.01388889 </v>
   <v>       0.01388889 </v>
   <v>       0.01388889 </v>
   <v>       0.01388889 </v>
   <v>       0.01388889 </v>
   <v>       0.01388889 </v>
   <v>       0.00694444 </v>
   <v>       0.00694444 </v>
   <v>       0.00694444 </v>
   <v>       0.01388889 </v>
   <v>       0.01388889 </v>
   <v>       0.01388889 </v>
   <v>       0.01388889 </v>
   <v>       0.01388889 </v>
   <v>       0.01388889 </v>
   <v>       0.01388889 </v>
   <v>       0.01388889 </v>
   <v>       0.01388889 </v>
   <v>       0.01388889 </v>
   <v>       0.01388889 </v>
   <v>       0.01388889 </v>
   <v>       0.01388889 </v>
   <v>       0.01388889 </v>
   <v>       0.01388889 </v>
   <v>       0.01388889 </v>
   <v>       0.01388889 </v>
   <v>       0.01388889 </v>
   <v>       0.01388889 </v>
   <v>       0.01388889 </v>
   <v>       0.01388889 </v>
   <v>       0.01388889 </v>
   <v>       0.01388889 </v>
   <v>       0.01388889 </v>
   <v>       0.01388889 </v>
   <v>       0.01388889 </v>
   <v>       0.01388889 </v>
   <v>       0.01388889 </v>
   <v>       0.01388889 </v>
   <v>       0.01388889 </v>
   <v>       0.01388889 </v>
   <v>       0.01388889 </v>
   <v>       0.01388889 </v>
   <v>       0.01388889 </v>
   <v>       0.01388889 </v>
   <v>       0.01388889 </v>
   <v>       0.01388889 </v>
   <v>       0.01388889 </v>
   <v>       0.01388889 </v>
   <v>       0.01388889 </v>
   <v>       0.01388889 </v>
   <v>       0.01388889 </v>
   <v>       0.01388889 </v>
   <v>       0.01388889 </v>
   <v>       0.01388889 </v>
   <v>       0.01388889 </v>
   <v>       0.01388889 </v>
   <v>       0.01388889 </v>
   <v>       0.01388889 </v>
   <v>       0.01388889 </v>
   <v>       0.01388889 </v>
   <v>       0.01388889 </v>
   <v>       0.01388889 </v>
   <v>       0.01388889 </v>
   <v>       0.01388889 </v>
  </varray>
 </kpoints>
 <parameters>
  <separator name="general" >
   <i type="string" name="SYSTEM">Lattice</i>
   <i type="logical" name="LCOMPAT"> F  </i>
  </separator>
  <separator name="electronic" >
   <i type="string" name="PREC">accura</i>
   <i name="ENMAX">    450.00000000</i>
   <i name="ENAUG">    644.87300000</i>
   <i name="EDIFF">      0.00000100</i>
   <i type="int" name="IALGO">    38</i>
   <i type="int" name="IWAVPR">    11</i>
   <i type="int" name="NBANDS">    48</i>
   <i type="int" name="NBANDSLOW">    -1</i>
   <i type="int" name="NBANDSHIGH">    -1</i>
   <i name="NELECT">     56.00000000</i>
   <i type="int" name="TURBO">     0</i>
   <i type="int" name="IRESTART">     0</i>
   <i type="int" name="NREBOOT">     0</i>
   <i type="int" name="NMIN">     0</i>
   <i name="EREF">      0.00000000</i>
   <separator name="electronic smearing" >
    <i type="int" name="ISMEAR">     0</i>
    <i name="SIGMA">      0.10000000</i>
    <i name="KSPACING">      0.50000000</i>
    <i type="logical" name="KGAMMA"> T  </i>
    <i type="logical" name="KBLOWUP"> T  </i>
   </separator>
   <separator name="electronic projectors" >
    <i type="logical" name="LREAL"> F  </i>
    <v name="ROPT">      0.00000000      0.00000000</v>
    <i type="int" name="LMAXPAW">  -100</i>
    <i type="int" name="LMAXMIX">     2</i>
    <i type="logical" name="NLSPLINE"> F  </i>
   </separator>
   <separator name="electronic startup" >
    <i type="int" name="ISTART">     0</i>
    <i type="int" name="ICHARG">     2</i>
    <i type="int" name="INIWAV">     1</i>
   </separator>
   <separator name="electronic spin" >
    <i type="int" name="ISPIN">     2</i>
    <i type="logical" name="LNONCOLLINEAR"> F  </i>
    <v name="MAGMOM">      1.00000000      1.00000000      1.00000000      1.00000000      1.00000000      1.00000000      1.00000000      1.00000000      1.00000000      1.00000000      1.00000000      1.00000000      1.00000000      1.00000000      1.00000000</v>
    <i name="NUPDOWN">     -1.00000000</i>
    <i type="logical" name="LSORBIT"> F  </i>
    <v name="SAXIS">      0.00000000      0.00000000      1.00000000</v>
    <i type="logical" name="LSPIRAL"> F  </i>
    <v name="QSPIRAL">      0.00000000      0.00000000      0.00000000</v>
    <i type="logical" name="LZEROZ"> F  </i>
   </separator>
   <separator name="electronic exchange-correlation" >
    <i type="logical" name="LASPH"> F  </i>
    <i type="logical" name="LMETAGGA"> F  </i>
   </separator>
   <separator name="electronic convergence" >
    <i type="int" name="NELM">    64</i>
    <i type="int" name="NELMDL">    -5</i>
    <i type="int" name="NELMIN">     2</i>
    <i name="ENINI">    450.00000000</i>
    <separator name="electronic convergence detail" >
     <i type="logical" name="LDIAG"> T  </i>
     <i type="logical" name="LSUBROT"> F  </i>
     <i name="WEIMIN">      0.00100000</i>
     <i name="EBREAK">      0.00000001</i>
     <i name="DEPER">      0.30000000</i>
     <i type="int" name="NRMM">     4</i>
     <i name="TIME">      0.40000000</i>
    </separator>
   </separator>
   <separator name="electronic mixer" >
    <i name="AMIX">      0.40000000</i>
    <i name="BMIX">      1.00000000</i>
    <i name="AMIN">      0.10000000</i>
    <i name="AMIX_MAG">      1.60000000</i>
    <i name="BMIX_MAG">      1.00000000</i>
    <separator name="electronic mixer details" >
     <i type="int" name="IMIX">     4</i>
     <i type="logical" name="MIXFIRST"> F  </i>
     <i type="int" name="MAXMIX">   -45</i>
     <i name="WC">    100.00000000</i>
     <i type="int" name="INIMIX">     1</i>
     <i type="int" name="MIXPRE">     1</i>
     <i type="int" name="MREMOVE">     5</i>
    </separator>
   </separator>
   <separator name="electronic dipolcorrection" >
    <i type="logical" name="LDIPOL"> F  </i>
    <i type="logical" name="LMONO"> F  </i>
    <i type="int" name="IDIPOL">     0</i>
    <i name="EPSILON">      1.00000000</i>
    <v name="DIPOL">   -100.00000000   -100.00000000   -100.00000000</v>
    <i name="EFIELD">      0.00000000</i>
   </separator>
  </separator>
  <separator name="grids" >
   <i type="int" name="NGX">    36</i>
   <i type="int" name="NGY">    36</i>
   <i type="int" name="NGZ">   108</i>
   <i type="int" name="NGXF">    72</i>
   <i type="int" name="NGYF">    72</i>
   <i type="int" name="NGZF">   216</i>
   <i type="logical" name="ADDGRID"> F  </i>
  </separator>
  <separator name="ionic" >
   <i type="int" name="NSW">   128</i>
   <i type="int" name="IBRION">     2</i>
   <i type="int" name="MDALGO">     0</i>
   <i type="int" name="ISIF">     2</i>
   <i name="PSTRESS">      0.00000000</i>
   <i name="EDIFFG">     -0.00100000</i>
   <i type="int" name="NFREE">     1</i>
   <i name="POTIM">      0.50000000</i>
   <i name="SMASS">     -3.00000000</i>
   <i name="SCALEE">      1.00000000</i>
  </separator>
  <separator name="ionic md" >
   <i name="TEBEG">      0.00010000</i>
   <i name="TEEND">      0.00010000</i>
   <i type="int" name="NBLOCK">     1</i>
   <i type="int" name="KBLOCK">   128</i>
   <i type="int" name="NPACO">   256</i>
   <i name="APACO">     10.00000000</i>
  </separator>
  <separator name="symmetry" >
   <i type="int" name="ISYM">     2</i>
   <i name="SYMPREC">      0.00001000</i>
  </separator>
  <separator name="dos" >
   <i type="int" name="LORBIT">     0</i>
   <v name="RWIGS">     -1.00000000     -1.00000000</v>
   <i type="int" name="NEDOS">   301</i>
   <i name="EMIN">     10.00000000</i>
   <i name="EMAX">    -10.00000000</i>
   <i name="EFERMI">      0.00000000</i>
  </separator>
  <separator name="writing" >
   <i type="int" name="NWRITE">     2</i>
   <i type="logical" name="LWAVE"> F  </i>
   <i type="logical" name="LDOWNSAMPLE"> F  </i>
   <i type="logical" name="LCHARG"> F  </i>
   <i type="logical" name="LPARD"> F  </i>
   <i type="logical" name="LVTOT"> F  </i>
   <i type="logical" name="LVHAR"> F  </i>
   <i type="logical" name="LELF"> F  </i>
   <i type="logical" name="LOPTICS"> F  </i>
   <v name="STM">      0.00000000      0.00000000      0.00000000      0.00000000      0.00000000      0.00000000      0.00000000</v>
  </separator>
  <separator name="performance" >
   <i type="int" name="NPAR">    48</i>
   <i type="int" name="NSIM">     4</i>
   <i type="int" name="NBLK">    -1</i>
   <i type="logical" name="LPLANE"> T  </i>
   <i type="logical" name="LSCALAPACK"> T  </i>
   <i type="logical" name="LSCAAWARE"> F  </i>
   <i type="logical" name="LSCALU"> F  </i>
   <i type="logical" name="LASYNC"> F  </i>
   <i type="logical" name="LORBITALREAL"> F  </i>
  </separator>
  <separator name="miscellaneous" >
   <i type="int" name="IDIOT">     3</i>
   <i type="int" name="PHON_NSTRUCT">    -1</i>
   <i type="logical" name="LMUSIC"> F  </i>
   <v name="POMASS">     10.81100000     12.01100000</v>
   <v name="DARWINR">      0.00000000      0.00000000</v>
   <v name="DARWINV">      1.00000000      1.00000000</v>
   <i type="logical" name="LCORR"> T  </i>
  </separator>
  <i type="logical" name="GGA_COMPAT"> T  </i>
  <i type="logical" name="LBERRY"> F  </i>
  <i type="int" name="ICORELEVEL">     0</i>
  <i type="logical" name="LDAU"> F  </i>
  <i type="int" name="I_CONSTRAINED_M">     0</i>
  <separator name="electronic exchange-correlation" >
   <i type="string" name="GGA">PE</i>
   <i type="int" name="VOSKOWN">     0</i>
   <i type="logical" name="LHFCALC"> F  </i>
   <i type="string" name="PRECFOCK"></i>
   <i type="logical" name="LSYMGRAD"> F  </i>
   <i type="logical" name="LHFONE"> F  </i>
   <i type="logical" name="LRHFCALC"> F  </i>
   <i type="logical" name="LTHOMAS"> F  </i>
   <i type="logical" name="LMODELHF"> F  </i>
   <i type="logical" name="LFOCKACE"> F  </i>
   <i name="ENCUT4O">     -1.00000000</i>
   <i type="int" name="EXXOEP">     0</i>
   <i type="int" name="FOURORBIT">     0</i>
   <i name="AEXX">      0.00000000</i>
   <i name="HFALPHA">      0.00000000</i>
   <i name="MCALPHA">      0.00000000</i>
   <i name="ALDAX">      1.00000000</i>
   <i name="AGGAX">      1.00000000</i>
   <i name="ALDAC">      1.00000000</i>
   <i name="AGGAC">      1.00000000</i>
   <i type="int" name="NKREDX">     1</i>
   <i type="int" name="NKREDY">     1</i>
   <i type="int" name="NKREDZ">     1</i>
   <i type="logical" name="SHIFTRED"> F  </i>
   <i type="logical" name="ODDONLY"> F  </i>
   <i type="logical" name="EVENONLY"> F  </i>
   <i type="int" name="LMAXFOCK">     0</i>
   <i type="int" name="NMAXFOCKAE">     0</i>
   <i type="logical" name="LFOCKAEDFT"> F  </i>
   <i name="HFSCREEN">      0.00000000</i>
   <i name="HFSCREENC">      0.00000000</i>
   <i type="int" name="NBANDSGWLOW">     0</i>
  </separator>
  <separator name="vdW DFT" >
   <i type="logical" name="LUSE_VDW"> F  </i>
   <i name="Zab_VDW">     -0.84910000</i>
   <i name="PARAM1">      0.12340000</i>
   <i name="PARAM2">      1.00000000</i>
   <i name="PARAM3">      0.00000000</i>
  </separator>
  <separator name="model GW" >
   <i type="int" name="MODEL_GW">     0</i>
   <i name="MODEL_EPS0">     12.04687669</i>
   <i name="MODEL_ALPHA">      1.00000000</i>
  </separator>
  <separator name="linear response parameters" >
   <i type="logical" name="LEPSILON"> F  </i>
   <i type="logical" name="LRPA"> F  </i>
   <i type="logical" name="LNABLA"> F  </i>
   <i type="logical" name="LVEL"> F  </i>
   <i name="CSHIFT">      0.10000000</i>
   <i name="OMEGAMAX">     -1.00000000</i>
   <i name="DEG_THRESHOLD">      0.00200000</i>
   <i name="RTIME">     -0.10000000</i>
   <i name="WPLASMAI">      0.00000000</i>
   <v name="DFIELD">      0.00000000      0.00000000      0.00000000</v>
   <v name="WPLASMA">      0.00000000      0.00000000      0.00000000      0.00000000      0.00000000      0.00000000      0.00000000      0.00000000      0.00000000</v>
  </separator>
  <separator name="orbital magnetization" >
   <i type="logical" name="NUCIND"> F  </i>
   <v name="MAGPOS">      0.00000000      0.00000000      0.00000000</v>
   <i type="logical" name="LNICSALL"> T  </i>
   <i type="logical" name="ORBITALMAG"> F  </i>
   <i type="logical" name="LMAGBLOCH"> F  </i>
   <i type="logical" name="LCHIMAG"> F  </i>
   <i type="logical" name="LGAUGE"> T  </i>
   <i type="int" name="MAGATOM">     0</i>
   <v name="MAGDIPOL">      0.00000000      0.00000000      0.00000000</v>
   <v name="AVECCONST">      0.00000000      0.00000000      0.00000000</v>
  </separator>
  <separator name="response functions" >
   <i type="logical" name="LFINITE_TEMPERATURE"> F  </i>
   <i type="logical" name="LADDER"> F  </i>
   <i type="logical" name="LRPAFORCE"> F  </i>
   <i type="logical" name="LFXC"> F  </i>
   <i type="logical" name="LHARTREE"> T  </i>
   <i type="int" name="IBSE">     0</i>
   <v type="int" name="KPOINT">    -1     0     0     0</v>
   <i type="logical" name="LTCTC"> F  </i>
   <i type="logical" name="LTCTE"> F  </i>
   <i type="logical" name="LTETE"> F  </i>
   <i type="logical" name="LTRIPLET"> F  </i>
   <i type="logical" name="LFXCEPS"> F  </i>
   <i type="logical" name="LFXHEG"> F  </i>
   <i type="int" name="NATURALO">     2</i>
   <i type="logical" name="LHOLEGF"> F  </i>
   <i type="logical" name="L2ORDER"> F  </i>
   <i type="logical" name="LDMP1"> F  </i>
   <i type="logical" name="LMP2LT"> F  </i>
   <i type="logical" name="LSMP2LT"> F  </i>
   <i type="logical" name="LGWLF"> F  </i>
   <i name="ENCUTGW">     -2.00000000</i>
   <i name="ENCUTGWSOFT">     -2.00000000</i>
   <i name="ENCUTLF">     -1.00000000</i>
   <i type="logical" name="LESF_SPLINES"> F  </i>
   <i type="int" name="LMAXMP2">    -1</i>
   <i name="SCISSOR">      0.00000000</i>
   <i type="int" name="NOMEGA">     0</i>
   <i type="int" name="NOMEGAR">     0</i>
   <i type="int" name="NBANDSGW">    -1</i>
   <i type="int" name="NBANDSO">    -1</i>
   <i type="int" name="NBANDSV">    -1</i>
   <i type="int" name="NELMGW">     1</i>
   <i type="int" name="NELMHF">     1</i>
   <i type="int" name="DIM">     3</i>
   <i type="int" name="IESPILON">     4</i>
   <i type="int" name="ANTIRES">     0</i>
   <i name="OMEGAMAX">    -30.00000000</i>
   <i name="OMEGAMIN">    -30.00000000</i>
   <i name="OMEGATL">   -200.00000000</i>
   <i type="int" name="OMEGAGRID">     0</i>
   <i name="CSHIFT">     -0.10000000</i>
   <i type="logical" name="LSELFENERGY"> F  </i>
   <i type="logical" name="LSPECTRAL"> F  </i>
   <i type="logical" name="LSPECTRALGW"> F  </i>
   <i type="logical" name="LSINGLES"> F  </i>
   <i type="logical" name="LFERMIGW"> F  </i>
   <i type="logical" name="ODDONLYGW"> F  </i>
   <i type="logical" name="EVENONLYGW"> F  </i>
   <i type="int" name="NKREDLFX">     1</i>
   <i type="int" name="NKREDLFY">     1</i>
   <i type="int" name="NKREDLFZ">     1</i>
   <i type="int" name="MAXMEM">  2800</i>
   <i type="int" name="TELESCOPE">     0</i>
   <i type="int" name="NTAUPAR">    -1</i>
   <i type="int" name="NOMEGAPAR">    -1</i>
   <i name="DAMP_NEWTON">      0.80000001</i>
   <i name="LAMBDA">      1.00000000</i>
  </separator>
  <separator name="External order field" >
   <i name="OFIELD_KAPPA">      0.00000000</i>
   <v name="OFIELD_K">      0.00000000      0.00000000      0.00000000</v>
   <i name="OFIELD_Q6_NEAR">      0.00000000</i>
   <i name="OFIELD_Q6_FAR">      0.00000000</i>
   <i name="OFIELD_A">      0.00000000</i>
  </separator>
  <separator name="optional k-points parameters" >
   <i type="int" name="KPOINTS_OPT_MODE">     1</i>
   <i type="logical" name="LKPOINTS_OPT"> F  </i>
  </separator>
  <separator name="solvation model" >
   <i type="logical" name="LSOL"> F  </i>
  </separator>
 </parameters>
 <atominfo>
  <atoms>      15 </atoms>
  <types>       2 </types>
  <array name="atoms" >
   <dimension dim="1">ion</dimension>
   <field type="string">element</field>
   <field type="int">atomtype</field>
   <set>
    <rc><c>B </c><c>   1</c></rc>
    <rc><c>B </c><c>   1</c></rc>
    <rc><c>B </c><c>   1</c></rc>
    <rc><c>B </c><c>   1</c></rc>
    <rc><c>C </c><c>   2</c></rc>
    <rc><c>C </c><c>   2</c></rc>
    <rc><c>C </c><c>   2</c></rc>
    <rc><c>C </c><c>   2</c></rc>
    <rc><c>C </c><c>   2</c></rc>
    <rc><c>C </c><c>   2</c></rc>
    <rc><c>C </c><c>   2</c></rc>
    <rc><c>C </c><c>   2</c></rc>
    <rc><c>C </c><c>   2</c></rc>
    <rc><c>C </c><c>   2</c></rc>
    <rc><c>C </c><c>   2</c></rc>
   </set>
  </array>
  <array name="atomtypes" >
   <dimension dim="1">type</dimension>
   <field type="int">atomspertype</field>
   <field type="string">element</field>
   <field>mass</field>
   <field>valence</field>
   <field type="string">pseudopotential</field>
   <set>
    <rc><c>   4</c><c>B </c><c>     10.81100000</c><c>      3.00000000</c><c>  PAW_PBE B 06Sep2000                   </c></rc>
    <rc><c>  11</c><c>C </c><c>     12.01100000</c><c>      4.00000000</c><c>  PAW_PBE C 08Apr2002                   </c></rc>
   </set>
  </array>
 </atominfo>
 <structure name="initialpos" >
  <crystal>
   <varray name="basis" >
    <v>       4.16991232       2.40750000       0.00000000 </v>
    <v>      -4.16991232       2.40750000       0.00000000 </v>
    <v>       0.00000000       0.00000000      15.00000000 </v>
   </varray>
   <i name="volume">    301.17191726 </i>
   <varray name="rec_basis" >
    <v>       0.11990660       0.20768432       0.00000000 </v>
    <v>      -0.11990660       0.20768432       0.00000000 </v>
    <v>       0.00000000       0.00000000       0.06666667 </v>
   </varray>
  </crystal>
  <varray name="positions" >
   <v>       0.00415361       0.00267210       0.12034134 </v>
   <v>       0.35695335       0.00285503       0.09748893 </v>
   <v>       0.00423858       0.35550699       0.09749256 </v>
   <v>       0.65142295       0.65006557       0.09747688 </v>
   <v>       0.32808646       0.32671938       0.10030508 </v>
   <v>       0.68027775       0.00278085       0.10027562 </v>
   <v>       0.00416530       0.67883808       0.10026559 </v>
   <v>       0.99999933       0.49999967       0.33373333 </v>
   <v>       0.16666633       0.33333267       0.33373333 </v>
   <v>       0.99999933       0.99999967       0.33373333 </v>
   <v>       0.16666633       0.83333267       0.33373333 </v>
   <v>       0.49999933       0.49999967       0.33373333 </v>
   <v>       0.66666633       0.33333267       0.33373333 </v>
   <v>       0.49999933       0.99999967       0.33373333 </v>
   <v>       0.66666633       0.83333267       0.33373333 </v>
  </varray>
 </structure>
 <calculation>
  <scstep>
   <time name="dav">    5.46    5.52</time>
   <time name="total">    5.51    5.57</time>
   <energy>
    <i name="alphaZ">     59.06027030 </i>
    <i name="ewald">   4866.82391130 </i>
    <i name="hartreedc">  -6418.11384116 </i>
    <i name="XCdc">    175.73950363 </i>
    <i name="pawpsdc">   1365.87943566 </i>
    <i name="pawaedc">  -1368.52100941 </i>
    <i name="eentropy">     -0.01510378 </i>
    <i name="bandstr">   -379.70338284 </i>
    <i name="atom">   1903.26342058 </i>
    <i name="e_fr_energy">    204.41320429 </i>
    <i name="e_wo_entrp">    204.42830807 </i>
    <i name="e_0_energy">    204.42075618 </i>
   </energy>
  </scstep>
  <scstep>
   <time name="dav">    7.97    8.05</time>
   <time name="total">    7.97    8.05</time>
   <energy>
    <i name="e_fr_energy">   -117.31961313 </i>
    <i name="e_wo_entrp">   -117.31857534 </i>
    <i name="e_0_energy">   -117.31909424 </i>
   </energy>
  </scstep>
  <scstep>
   <time name="dav">   11.32   11.41</time>
   <time name="total">   11.32   11.41</time>
   <energy>
    <i name="e_fr_energy">   -129.82877316 </i>
    <i name="e_wo_entrp">   -129.82566305 </i>
    <i name="e_0_energy">   -129.82721810 </i>
   </energy>
  </scstep>
  <scstep>
   <time name="dav">    8.46    8.55</time>
   <time name="total">    8.46    8.55</time>
   <energy>
    <i name="e_fr_energy">   -129.84996778 </i>
    <i name="e_wo_entrp">   -129.84686114 </i>
    <i name="e_0_energy">   -129.84841446 </i>
   </energy>
  </scstep>
  <scstep>
   <time name="dav">   10.58   10.66</time>
   <time name="total">   10.86   10.95</time>
   <energy>
    <i name="e_fr_energy">   -129.85001662 </i>
    <i name="e_wo_entrp">   -129.84690990 </i>
    <i name="e_0_energy">   -129.84846326 </i>
   </energy>
  </scstep>
  <scstep>
   <time name="dav">   10.65   10.73</time>
   <time name="total">   10.94   11.04</time>
   <energy>
    <i name="e_fr_energy">    -92.27027433 </i>
    <i name="e_wo_entrp">    -92.26458547 </i>
    <i name="e_0_energy">    -92.26742990 </i>
   </energy>
  </scstep>
  <scstep>
   <time name="dav">    8.95    9.02</time>
   <time name="total">    9.25    9.33</time>
   <energy>
    <i name="e_fr_energy">   -100.76405489 </i>
    <i name="e_wo_entrp">   -100.75870947 </i>
    <i name="e_0_energy">   -100.76138218 </i>
   </energy>
  </scstep>
  <scstep>
   <time name="dav">   10.60   10.69</time>
   <time name="total">   10.90   10.99</time>
   <energy>
    <i name="e_fr_energy">   -110.44370364 </i>
    <i name="e_wo_entrp">   -110.44368931 </i>
    <i name="e_0_energy">   -110.44369648 </i>
   </energy>
  </scstep>
  <scstep>
   <time name="dav">    8.01    8.09</time>
   <time name="total">    8.31    8.39</time>
   <energy>
    <i name="e_fr_energy">   -117.32876893 </i>
    <i name="e_wo_entrp">   -117.32876441 </i>
    <i name="e_0_energy">   -117.32876667 </i>
   </energy>
  </scstep>
  <scstep>
   <time name="dav">   10.14   10.21</time>
   <time name="total">   10.44   10.51</time>
   <energy>
    <i name="e_fr_energy">   -123.58234474 </i>
    <i name="e_wo_entrp">   -123.58169066 </i>
    <i name="e_0_energy">   -123.58201770 </i>
   </energy>
  </scstep>
  <scstep>
   <time name="dav">   10.25   10.31</time>
   <time name="total">   10.54   10.61</time>
   <energy>
    <i name="e_fr_energy">   -125.23662985 </i>
    <i name="e_wo_entrp">   -125.23546450 </i>
    <i name="e_0_energy">   -125.23604717 </i>
   </energy>
  </scstep>
  <scstep>
   <time name="dav">    7.66    7.71</time>
   <time name="total">    7.95    8.01</time>
   <energy>
    <i name="e_fr_energy">   -125.40085841 </i>
    <i name="e_wo_entrp">   -125.39938035 </i>
    <i name="e_0_energy">   -125.40011938 </i>
   </energy>
  </scstep>
  <scstep>
   <time name="dav">    6.90    6.95</time>
   <time name="total">    7.19    7.24</time>
   <energy>
    <i name="e_fr_energy">   -125.43513644 </i>
    <i name="e_wo_entrp">   -125.43360176 </i>
    <i name="e_0_energy">   -125.43436910 </i>
   </energy>
  </scstep>
  <scstep>
   <time name="dav">    8.61    8.67</time>
   <time name="total">    8.90    8.97</time>
   <energy>
    <i name="e_fr_energy">   -125.45799689 </i>
    <i name="e_wo_entrp">   -125.45645725 </i>
    <i name="e_0_energy">   -125.45722707 </i>
   </energy>
  </scstep>
  <scstep>
   <time name="dav">    6.93    6.97</time>
   <time name="total">    7.22    7.27</time>
   <energy>
    <i name="e_fr_energy">   -125.46486838 </i>
    <i name="e_wo_entrp">   -125.46332815 </i>
    <i name="e_0_energy">   -125.46409827 </i>
   </energy>
  </scstep>
  <scstep>
   <time name="dav">    6.90    6.95</time>
   <time name="total">    7.20    7.25</time>
   <energy>
    <i name="e_fr_energy">   -125.46689203 </i>
    <i name="e_wo_entrp">   -125.46535184 </i>
    <i name="e_0_energy">   -125.46612194 </i>
   </energy>
  </scstep>
  <scstep>
   <time name="dav">    6.44    6.49</time>
   <time name="total">    6.73    6.79</time>
   <energy>
    <i name="e_fr_energy">   -125.46818138 </i>
    <i name="e_wo_entrp">   -125.46664123 </i>
    <i name="e_0_energy">   -125.46741131 </i>
   </energy>
  </scstep>
  <scstep>
   <time name="dav">    6.62    6.66</time>
   <time name="total">    6.91    6.96</time>
   <energy>
    <i name="e_fr_energy">   -125.46895882 </i>
    <i name="e_wo_entrp">   -125.46741867 </i>
    <i name="e_0_energy">   -125.46818875 </i>
   </energy>
  </scstep>
  <scstep>
   <time name="dav">    7.97    8.02</time>
   <time name="total">    8.26    8.32</time>
   <energy>
    <i name="e_fr_energy">   -125.46940107 </i>
    <i name="e_wo_entrp">   -125.46786094 </i>
    <i name="e_0_energy">   -125.46863101 </i>
   </energy>
  </scstep>
  <scstep>
   <time name="dav">    9.18    9.25</time>
   <time name="total">    9.47    9.55</time>
   <energy>
    <i name="e_fr_energy">   -125.46943268 </i>
    <i name="e_wo_entrp">   -125.46789254 </i>
    <i name="e_0_energy">   -125.46866261 </i>
   </energy>
  </scstep>
  <scstep>
   <time name="dav">    8.42    8.47</time>
   <time name="total">    8.71    8.77</time>
   <energy>
    <i name="e_fr_energy">   -125.46946311 </i>
    <i name="e_wo_entrp">   -125.46792295 </i>
    <i name="e_0_energy">   -125.46869303 </i>
   </energy>
  </scstep>
  <scstep>
   <time name="dav">    9.33    9.39</time>
   <time name="total">    9.62    9.69</time>
   <energy>
    <i name="e_fr_energy">   -125.46948704 </i>
    <i name="e_wo_entrp">   -125.46794687 </i>
    <i name="e_0_energy">   -125.46871696 </i>
   </energy>
  </scstep>
  <scstep>
   <time name="dav">    8.43    8.49</time>
   <time name="total">    8.72    8.79</time>
   <energy>
    <i name="e_fr_energy">   -125.46949927 </i>
    <i name="e_wo_entrp">   -125.46795910 </i>
    <i name="e_0_energy">   -125.46872919 </i>
   </energy>
  </scstep>
  <scstep>
   <time name="dav">    9.52    9.58</time>
   <time name="total">    9.82    9.89</time>
   <energy>
    <i name="e_fr_energy">   -125.46950181 </i>
    <i name="e_wo_entrp">   -125.46796163 </i>
    <i name="e_0_energy">   -125.46873172 </i>
   </energy>
  </scstep>
  <scstep>
   <time name="dav">    8.39    8.45</time>
   <time name="total">    8.68    8.75</time>
   <energy>
    <i name="e_fr_energy">   -125.46950285 </i>
    <i name="e_wo_entrp">   -125.46796267 </i>
    <i name="e_0_energy">   -125.46873276 </i>
   </energy>
  </scstep>
  <scstep>
   <time name="dav">    8.93    8.99</time>
   <time name="total">    8.96    9.02</time>
   <energy>
    <i name="alphaZ">     59.06027030 </i>
    <i name="ewald">   4866.82391130 </i>
    <i name="hartreedc">  -6626.08236801 </i>
    <i name="XCdc">    181.28135771 </i>
    <i name="pawpsdc">   5914.94629635 </i>
    <i name="pawaedc">  -5919.42789133 </i>
    <i name="eentropy">     -0.00154018 </i>
    <i name="bandstr">   -505.33296008 </i>
    <i name="atom">   1903.26342058 </i>
    <i name="e_fr_energy">   -125.46950335 </i>
    <i name="e_wo_entrp">   -125.46796317 </i>
    <i name="e_0_energy">   -125.46873326 </i>
   </energy>
  </scstep>
  <structure>
   <crystal>
    <varray name="basis" >
     <v>       4.16991232       2.40750000       0.00000000 </v>
     <v>      -4.16991232       2.40750000       0.00000000 </v>
     <v>       0.00000000       0.00000000      15.00000000 </v>
    </varray>
    <i name="volume">    301.17191726 </i>
    <varray name="rec_basis" >
     <v>       0.11990660       0.20768432       0.00000000 </v>
     <v>      -0.11990660       0.20768432       0.00000000 </v>
     <v>       0.00000000       0.00000000       0.06666667 </v>
    </varray>
   </crystal>
   <varray name="positions" >
    <v>       0.00415361       0.00267210       0.12034134 </v>
    <v>       0.35695335       0.00285503       0.09748893 </v>
    <v>       0.00423858       0.35550699       0.09749256 </v>
    <v>       0.65142295       0.65006557       0.09747688 </v>
    <v>       0.32808646       0.32671938       0.10030508 </v>
    <v>       0.68027775       0.00278085       0.10027562 </v>
    <v>       0.00416530       0.67883808       0.10026559 </v>
    <v>       0.99999933       0.49999967       0.33373333 </v>
    <v>       0.16666633       0.33333267       0.33373333 </v>
    <v>       0.99999933       0.99999967       0.33373333 </v>
    <v>       0.16666633       0.83333267       0.33373333 </v>
    <v>       0.49999933       0.49999967       0.33373333 </v>
    <v>       0.66666633       0.33333267       0.33373333 </v>
    <v>       0.49999933       0.99999967       0.33373333 </v>
    <v>       0.66666633       0.83333267       0.33373333 </v>
   </varray>
  </structure>
  <varray name="forces" >
   <v>      -0.00498503       0.00576942      -0.28077680 </v>
   <v>      -0.09206073      -0.03623419       0.08885955 </v>
   <v>       0.07222988      -0.06943908       0.08841766 </v>
   <v>       0.02226965       0.09757259       0.08989775 </v>
   <v>       0.02938700      -0.29226618      -0.00433880 </v>
   <v>       0.23674923       0.16857825      -0.00203890 </v>
   <v>      -0.26390111       0.12523956      -0.00126788 </v>
   <v>       0.01270298       0.00544143       0.00235365 </v>
   <v>      -0.03494617       0.04161979       0.02007482 </v>
   <v>       0.00050622      -0.00033600      -0.03224917 </v>
   <v>       0.05297585       0.00899202       0.02096300 </v>
   <v>      -0.01071640       0.00970817       0.00324386 </v>
   <v>      -0.00046922       0.00024489      -0.01534552 </v>
   <v>      -0.00132657      -0.01361248       0.00221597 </v>
   <v>      -0.01841559      -0.05127817       0.01999081 </v>
  </varray>
  <varray name="stress" >
   <v>      26.32428478       0.01605520      -0.00282830 </v>
   <v>       0.01605521      26.34193741       0.02546444 </v>
   <v>      -0.00282830       0.02546447      -2.26759640 </v>
  </varray>
  <energy>
   <i name="e_fr_energy">   -127.07648710 </i>
   <i name="e_wo_entrp">   -127.07494693 </i>
   <i name="e_0_energy">   -127.07571702 </i>
  </energy>
  <time name="totalsc">  233.50  235.39</time>
 </calculation>
 <calculation>
  <scstep>
   <time name="dav">    5.46    5.49</time>
   <time name="total">    5.75    5.79</time>
   <energy>
    <i name="alphaZ">     59.06027030 </i>
    <i name="ewald">   4869.69963358 </i>
    <i name="hartreedc">  -6627.82312855 </i>
    <i name="XCdc">    181.34572880 </i>
    <i name="pawpsdc">   5914.95311887 </i>
    <i name="pawaedc">  -5919.43471667 </i>
    <i name="eentropy">     -0.00154344 </i>
    <i name="bandstr">   -506.53673761 </i>
    <i name="atom">   1903.26342058 </i>
    <i name="e_fr_energy">   -125.47395416 </i>
    <i name="e_wo_entrp">   -125.47241071 </i>
    <i name="e_0_energy">   -125.47318243 </i>
   </energy>
  </scstep>
  <scstep>
   <time name="dav">   10.69   10.76</time>
   <time name="total">   10.98   11.06</time>
   <energy>
    <i name="e_fr_energy">   -125.46788619 </i>
    <i name="e_wo_entrp">   -125.46634258 </i>
    <i name="e_0_energy">   -125.46711438 </i>
   </energy>
  </scstep>
  <scstep>
   <time name="dav">    9.10    9.15</time>
   <time name="total">    9.39    9.46</time>
   <energy>
    <i name="e_fr_energy">   -125.46716352 </i>
    <i name="e_wo_entrp">   -125.46561975 </i>
    <i name="e_0_energy">   -125.46639164 </i>
   </energy>
  </scstep>
  <scstep>
   <time name="dav">   10.48   10.53</time>
   <time name="total">   10.76   10.83</time>
   <energy>
    <i name="e_fr_energy">   -125.46713200 </i>
    <i name="e_wo_entrp">   -125.46558844 </i>
    <i name="e_0_energy">   -125.46636022 </i>
   </energy>
  </scstep>
  <scstep>
   <time name="dav">    9.73    9.80</time>
   <time name="total">   10.02   10.10</time>
   <energy>
    <i name="e_fr_energy">   -125.46713409 </i>
    <i name="e_wo_entrp">   -125.46559059 </i>
    <i name="e_0_energy">   -125.46636234 </i>
   </energy>
  </scstep>
  <scstep>
   <time name="dav">    9.15    9.21</time>
   <time name="total">    9.18    9.25</time>
   <energy>
    <i name="alphaZ">     59.06027030 </i>
    <i name="ewald">   4869.69963358 </i>
    <i name="hartreedc">  -6628.42568358 </i>
    <i name="XCdc">    181.35932667 </i>
    <i name="pawpsdc">   5936.91482226 </i>
    <i name="pawaedc">  -5941.40337517 </i>
    <i name="eentropy">     -0.00154351 </i>
    <i name="bandstr">   -505.93400538 </i>
    <i name="atom">   1903.26342058 </i>
    <i name="e_fr_energy">   -125.46713425 </i>
    <i name="e_wo_entrp">   -125.46559074 </i>
    <i name="e_0_energy">   -125.46636250 </i>
   </energy>
  </scstep>
  <structure>
   <crystal>
    <varray name="basis" >
     <v>       4.16991232       2.40750000       0.00000000 </v>
     <v>      -4.16991232       2.40750000       0.00000000 </v>
     <v>       0.00000000       0.00000000      15.00000000 </v>
    </varray>
    <i name="volume">    301.17191726 </i>
    <varray name="rec_basis" >
     <v>       0.11990660       0.20768432       0.00000000 </v>
     <v>      -0.11990660       0.20768432       0.00000000 </v>
     <v>       0.00000000       0.00000000       0.06666667 </v>
    </varray>
   </crystal>
   <varray name="positions" >
    <v>       0.00418258       0.00275874       0.11943831 </v>
    <v>       0.35605778       0.00302453       0.09777472 </v>
    <v>       0.00396067       0.35439344       0.09777693 </v>
    <v>       0.65252938       0.65091435       0.09776601 </v>
    <v>       0.32532817       0.32362110       0.10029112 </v>
    <v>       0.68333628       0.00310038       0.10026906 </v>
    <v>       0.00389354       0.68161945       0.10026151 </v>
    <v>       0.00012733       0.49998070       0.33374090 </v>
    <v>       0.16688118       0.33395182       0.33379790 </v>
    <v>       0.99999890       0.99999337       0.33362961 </v>
    <v>       0.16706287       0.83311632       0.33380075 </v>
    <v>       0.50003461       0.50015893       0.33374377 </v>
    <v>       0.66666607       0.33333783       0.33368398 </v>
    <v>       0.49985527       0.99987095       0.33374046 </v>
    <v>       0.66604604       0.83292543       0.33379763 </v>
   </varray>
  </structure>
  <varray name="forces" >
   <v>      -0.00071894      -0.00118718      -0.09917166 </v>
   <v>       0.22482851       0.12538577       0.04717402 </v>
   <v>      -0.22476609       0.13151637       0.04677589 </v>
   <v>      -0.00073752      -0.25517265       0.04793287 </v>
   <v>      -0.00652893       0.51198910      -0.02237701 </v>
   <v>      -0.43612437      -0.26271849      -0.02053471 </v>
   <v>       0.44371822      -0.25072855      -0.02027087 </v>
   <v>      -0.05818093      -0.02663601       0.00967155 </v>
   <v>       0.13082296      -0.14792914      -0.00115201 </v>
   <v>      -0.00201394       0.00147073       0.00456785 </v>
   <v>      -0.19141866      -0.03589244      -0.00094303 </v>
   <v>       0.05080904      -0.04190891       0.00986787 </v>
   <v>       0.00215490      -0.00039101      -0.00989757 </v>
   <v>       0.00455904       0.06339264       0.00959001 </v>
   <v>       0.06359671       0.18880978      -0.00123320 </v>
  </varray>
  <varray name="stress" >
   <v>      28.51877128       0.00060953       0.00421181 </v>
   <v>       0.00060956      28.51799992       0.01474069 </v>
   <v>       0.00421177       0.01474069      -1.96016527 </v>
  </varray>
  <energy>
   <i name="e_fr_energy">   -127.07369537 </i>
   <i name="e_wo_entrp">   -127.07215186 </i>
   <i name="e_0_energy">   -127.07292361 </i>
  </energy>
  <time name="totalsc">   60.74   61.19</time>
 </calculation>
 <calculation>
  <scstep>
   <time name="dav">    5.46    5.50</time>
   <time name="total">    5.75    5.80</time>
   <energy>
    <i name="alphaZ">     59.06027030 </i>
    <i name="ewald">   4868.05268281 </i>
    <i name="hartreedc">  -6627.42099481 </i>
    <i name="XCdc">    181.32205166 </i>
    <i name="pawpsdc">   5936.86352029 </i>
    <i name="pawaedc">  -5941.35205362 </i>
    <i name="eentropy">     -0.00154179 </i>
    <i name="bandstr">   -505.26344460 </i>
    <i name="atom">   1903.26342058 </i>
    <i name="e_fr_energy">   -125.47608919 </i>
    <i name="e_wo_entrp">   -125.47454740 </i>
    <i name="e_0_energy">   -125.47531830 </i>
   </energy>
  </scstep>
  <scstep>
   <time name="dav">   10.68   10.74</time>
   <time name="total">   10.96   11.04</time>
   <energy>
    <i name="e_fr_energy">   -125.47412901 </i>
    <i name="e_wo_entrp">   -125.47258738 </i>
    <i name="e_0_energy">   -125.47335820 </i>
   </energy>
  </scstep>
  <scstep>
   <time name="dav">    9.29    9.35</time>
   <time name="total">    9.58    9.65</time>
   <energy>
    <i name="e_fr_energy">   -125.47390627 </i>
    <i name="e_wo_entrp">   -125.47236475 </i>
    <i name="e_0_energy">   -125.47313551 </i>
   </energy>
  </scstep>
  <scstep>
   <time name="dav">    9.21    9.28</time>
   <time name="total">    9.50    9.57</time>
   <energy>
    <i name="e_fr_energy">   -125.47389695 </i>
    <i name="e_wo_entrp">   -125.47235528 </i>
    <i name="e_0_energy">   -125.47312611 </i>
   </energy>
  </scstep>
  <scstep>
   <time name="dav">    9.78    9.83</time>
   <time name="total">    9.81    9.87</time>
   <energy>
    <i name="alphaZ">     59.06027030 </i>
    <i name="ewald">   4868.05268281 </i>
    <i name="hartreedc">  -6627.10152665 </i>
    <i name="XCdc">    181.31455831 </i>
    <i name="pawpsdc">   5924.00819749 </i>
    <i name="pawaedc">  -5928.49261131 </i>
    <i name="eentropy">     -0.00154168 </i>
    <i name="bandstr">   -505.57734746 </i>
    <i name="atom">   1903.26342058 </i>
    <i name="e_fr_energy">   -125.47389761 </i>
    <i name="e_wo_entrp">   -125.47235593 </i>
    <i name="e_0_energy">   -125.47312677 </i>
   </energy>
  </scstep>
  <structure>
   <crystal>
    <varray name="basis" >
     <v>       4.16991232       2.40750000       0.00000000 </v>
     <v>      -4.16991232       2.40750000       0.00000000 </v>
     <v>       0.00000000       0.00000000      15.00000000 </v>
    </varray>
    <i name="volume">    301.17191726 </i>
    <varray name="rec_basis" >
     <v>       0.11990660       0.20768432       0.00000000 </v>
     <v>      -0.11990660       0.20768432       0.00000000 </v>
     <v>       0.00000000       0.00000000       0.06666667 </v>
    </varray>
   </crystal>
   <varray name="positions" >
    <v>       0.00416627       0.00270999       0.11994646 </v>
    <v>       0.35656174       0.00292915       0.09761390 </v>
    <v>       0.00411705       0.35502006       0.09761691 </v>
    <v>       0.65190677       0.65043672       0.09760331 </v>
    <v>       0.32688032       0.32536456       0.10029898 </v>
    <v>       0.68161518       0.00292057       0.10027275 </v>
    <v>       0.00404647       0.68005431       0.10026380 </v>
    <v>       0.00005531       0.49999137       0.33373664 </v>
    <v>       0.16676028       0.33360341       0.33376157 </v>
    <v>       0.99999914       0.99999691       0.33368798 </v>
    <v>       0.16683973       0.83323806       0.33376281 </v>
    <v>       0.50001476       0.50006931       0.33373790 </v>
    <v>       0.66666622       0.33333493       0.33371175 </v>
    <v>       0.49993634       0.99994338       0.33373645 </v>
    <v>       0.66639509       0.83315459       0.33376145 </v>
   </varray>
  </structure>
  <varray name="forces" >
   <v>      -0.00323307       0.00292442      -0.20082383 </v>
   <v>       0.04820398       0.03595724       0.07064362 </v>
   <v>      -0.05989258       0.01903165       0.07022304 </v>
   <v>       0.01273797      -0.05900269       0.07156789 </v>
   <v>       0.01432639       0.05797720      -0.01240565 </v>
   <v>      -0.05664074      -0.01873935      -0.01033870 </v>
   <v>       0.04418395      -0.03899074      -0.00981880 </v>
   <v>      -0.01795110      -0.00845855       0.00557504 </v>
   <v>       0.03724856      -0.04128580       0.01085025 </v>
   <v>      -0.00060061       0.00045476      -0.01626442 </v>
   <v>      -0.05375914      -0.01038606       0.01144078 </v>
   <v>       0.01590582      -0.01261301       0.00616175 </v>
   <v>       0.00067478      -0.00003087      -0.01303881 </v>
   <v>       0.00118699       0.01970600       0.00546137 </v>
   <v>       0.01760879       0.05345581       0.01076645 </v>
  </varray>
  <varray name="stress" >
   <v>      27.19453701       0.00918828       0.00012342 </v>
   <v>       0.00918825      27.20165285       0.02114195 </v>
   <v>       0.00012342       0.02114196      -2.12082716 </v>
  </varray>
  <energy>
   <i name="e_fr_energy">   -127.08069889 </i>
   <i name="e_wo_entrp">   -127.07915721 </i>
   <i name="e_0_energy">   -127.07992805 </i>
  </energy>
  <time name="totalsc">   50.27   50.64</time>
 </calculation>
 <calculation>
  <scstep>
   <time name="dav">    5.44    5.48</time>
   <time name="total">    5.73    5.78</time>
   <energy>
    <i name="alphaZ">     59.06027030 </i>
    <i name="ewald">   4868.25681469 </i>
    <i name="hartreedc">  -6627.09635965 </i>
    <i name="XCdc">    181.32894900 </i>
    <i name="pawpsdc">   5924.02911691 </i>
    <i name="pawaedc">  -5928.51353815 </i>
    <i name="eentropy">     -0.00154394 </i>
    <i name="bandstr">   -505.80395094 </i>
    <i name="atom">   1903.26342058 </i>
    <i name="e_fr_energy">   -125.47682121 </i>
    <i name="e_wo_entrp">   -125.47527727 </i>
    <i name="e_0_energy">   -125.47604924 </i>
   </energy>
  </scstep>
  <scstep>
   <time name="dav">   11.53   11.60</time>
   <time name="total">   11.81   11.90</time>
   <energy>
    <i name="e_fr_energy">   -125.47681179 </i>
    <i name="e_wo_entrp">   -125.47526832 </i>
    <i name="e_0_energy">   -125.47604005 </i>
   </energy>
  </scstep>
  <scstep>
   <time name="dav">    8.91    8.96</time>
   <time name="total">    9.19    9.26</time>
   <energy>
    <i name="e_fr_energy">   -125.47679853 </i>
    <i name="e_wo_entrp">   -125.47525534 </i>
    <i name="e_0_energy">   -125.47602693 </i>
   </energy>
  </scstep>
  <scstep>
   <time name="dav">   10.14   10.20</time>
   <time name="total">   10.43   10.50</time>
   <energy>
    <i name="e_fr_energy">   -125.47679886 </i>
    <i name="e_wo_entrp">   -125.47525559 </i>
    <i name="e_0_energy">   -125.47602722 </i>
   </energy>
  </scstep>
  <scstep>
   <time name="dav">    9.11    9.16</time>
   <time name="total">    9.14    9.20</time>
   <energy>
    <i name="alphaZ">     59.06027030 </i>
    <i name="ewald">   4868.25681469 </i>
    <i name="hartreedc">  -6627.10236193 </i>
    <i name="XCdc">    181.32936309 </i>
    <i name="pawpsdc">   5928.30844848 </i>
    <i name="pawaedc">  -5932.79436730 </i>
    <i name="eentropy">     -0.00154326 </i>
    <i name="bandstr">   -505.79684412 </i>
    <i name="atom">   1903.26342058 </i>
    <i name="e_fr_energy">   -125.47679949 </i>
    <i name="e_wo_entrp">   -125.47525622 </i>
    <i name="e_0_energy">   -125.47602785 </i>
   </energy>
  </scstep>
  <structure>
   <crystal>
    <varray name="basis" >
     <v>       4.16991232       2.40750000       0.00000000 </v>
     <v>      -4.16991232       2.40750000       0.00000000 </v>
     <v>       0.00000000       0.00000000      15.00000000 </v>
    </varray>
    <i name="volume">    301.17191726 </i>
    <varray name="rec_basis" >
     <v>       0.11990660       0.20768432       0.00000000 </v>
     <v>      -0.11990660       0.20768432       0.00000000 </v>
     <v>       0.00000000       0.00000000       0.06666667 </v>
    </varray>
   </crystal>
   <varray name="positions" >
    <v>       0.00418135       0.00276956       0.11919641 </v>
    <v>       0.35695351       0.00303460       0.09787151 </v>
    <v>       0.00392439       0.35527866       0.09787304 </v>
    <v>       0.65166422       0.65001294       0.09786420 </v>
    <v>       0.32692916       0.32519973       0.10026083 </v>
    <v>       0.68175680       0.00310730       0.10024196 </v>
    <v>       0.00387337       0.68002553       0.10023498 </v>
    <v>      -0.00008699       0.50000460       0.33375404 </v>
    <v>       0.16662648       0.33316635       0.33380518 </v>
    <v>       0.00000002       0.00000281       0.33362124 </v>
    <v>       0.16654907       0.83337932       0.33380867 </v>
    <v>       0.49999117       0.49990669       0.33375753 </v>
    <v>       0.66666936       0.33333220       0.33366487 </v>
    <v>       0.50008944       0.00008730       0.33375343 </v>
    <v>       0.66683931       0.83345974       0.33380477 </v>
   </varray>
  </structure>
  <varray name="forces" >
   <v>      -0.00013495      -0.00030489      -0.18561346 </v>
   <v>       0.03813553       0.01762367       0.03964664 </v>
   <v>      -0.03536634       0.02458934       0.03942167 </v>
   <v>      -0.00250948      -0.04123456       0.04009193 </v>
   <v>      -0.00790917       0.08286655       0.01390341 </v>
   <v>      -0.06609168      -0.04894050       0.01536328 </v>
   <v>       0.07354684      -0.03541632       0.01559838 </v>
   <v>       0.05152527       0.02637184       0.00673402 </v>
   <v>      -0.08720136       0.08442075      -0.00053932 </v>
   <v>       0.00213044      -0.00013941       0.00655707 </v>
   <v>       0.11472160       0.02988466      -0.00048200 </v>
   <v>      -0.04617691       0.03496445       0.00677831 </v>
   <v>      -0.00185441       0.00012578      -0.00353696 </v>
   <v>      -0.00159565      -0.05606625       0.00666490 </v>
   <v>      -0.03121972      -0.11874512      -0.00058787 </v>
  </varray>
  <varray name="stress" >
   <v>      27.55271551       0.01273873       0.00504881 </v>
   <v>       0.01273870      27.57952768       0.01448991 </v>
   <v>       0.00504883       0.01448989      -2.07507852 </v>
  </varray>
  <energy>
   <i name="e_fr_energy">   -127.08352454 </i>
   <i name="e_wo_entrp">   -127.08198128 </i>
   <i name="e_0_energy">   -127.08275291 </i>
  </energy>
  <time name="totalsc">   50.96   51.33</time>
 </calculation>
 <calculation>
  <scstep>
   <time name="dav">    5.46    5.50</time>
   <time name="total">    5.76    5.81</time>
   <energy>
    <i name="alphaZ">     59.06027030 </i>
    <i name="ewald">   4868.41690790 </i>
    <i name="hartreedc">  -6627.06786241 </i>
    <i name="XCdc">    181.34208647 </i>
    <i name="pawpsdc">   5928.43118901 </i>
    <i name="pawaedc">  -5932.91711809 </i>
    <i name="eentropy">     -0.00154520 </i>
    <i name="bandstr">   -506.00512719 </i>
    <i name="atom">   1903.26342058 </i>
    <i name="e_fr_energy">   -125.47777863 </i>
    <i name="e_wo_entrp">   -125.47623343 </i>
    <i name="e_0_energy">   -125.47700603 </i>
   </energy>
  </scstep>
  <scstep>
   <time name="dav">    9.53    9.59</time>
   <time name="total">    9.82    9.90</time>
   <energy>
    <i name="e_fr_energy">   -125.47777549 </i>
    <i name="e_wo_entrp">   -125.47623072 </i>
    <i name="e_0_energy">   -125.47700311 </i>
   </energy>
  </scstep>
  <scstep>
   <time name="dav">    8.67    8.73</time>
   <time name="total">    8.96    9.03</time>
   <energy>
    <i name="e_fr_energy">   -125.47776539 </i>
    <i name="e_wo_entrp">   -125.47622091 </i>
    <i name="e_0_energy">   -125.47699315 </i>
   </energy>
  </scstep>
  <scstep>
   <time name="dav">   10.06   10.13</time>
   <time name="total">   10.35   10.43</time>
   <energy>
    <i name="e_fr_energy">   -125.47776535 </i>
    <i name="e_wo_entrp">   -125.47622075 </i>
    <i name="e_0_energy">   -125.47699305 </i>
   </energy>
  </scstep>
  <scstep>
   <time name="dav">    8.99    9.04</time>
   <time name="total">    9.02    9.08</time>
   <energy>
    <i name="alphaZ">     59.06027030 </i>
    <i name="ewald">   4868.41690790 </i>
    <i name="hartreedc">  -6627.06526463 </i>
    <i name="XCdc">    181.34245895 </i>
    <i name="pawpsdc">   5932.27915077 </i>
    <i name="pawaedc">  -5936.76645031 </i>
    <i name="eentropy">     -0.00154458 </i>
    <i name="bandstr">   -506.00671491 </i>
    <i name="atom">   1903.26342058 </i>
    <i name="e_fr_energy">   -125.47776593 </i>
    <i name="e_wo_entrp">   -125.47622135 </i>
    <i name="e_0_energy">   -125.47699364 </i>
   </energy>
  </scstep>
  <structure>
   <crystal>
    <varray name="basis" >
     <v>       4.16991232       2.40750000       0.00000000 </v>
     <v>      -4.16991232       2.40750000       0.00000000 </v>
     <v>       0.00000000       0.00000000      15.00000000 </v>
    </varray>
    <i name="volume">    301.17191726 </i>
    <varray name="rec_basis" >
     <v>       0.11990660       0.20768432       0.00000000 </v>
     <v>      -0.11990660       0.20768432       0.00000000 </v>
     <v>       0.00000000       0.00000000       0.06666667 </v>
    </varray>
   </crystal>
   <varray name="positions" >
    <v>       0.00419552       0.00282550       0.11849199 </v>
    <v>       0.35732146       0.00313364       0.09811344 </v>
    <v>       0.00374344       0.35552152       0.09811358 </v>
    <v>       0.65143644       0.64961493       0.09810923 </v>
    <v>       0.32697503       0.32504492       0.10022501 </v>
    <v>       0.68188981       0.00328267       0.10021304 </v>
    <v>       0.00371081       0.67999851       0.10020791 </v>
    <v>      -0.00022063       0.50001703       0.33377037 </v>
    <v>       0.16650082       0.33275589       0.33384614 </v>
    <v>       0.00000084       0.00000834       0.33355857 </v>
    <v>       0.16627609       0.83351198       0.33385174 </v>
    <v>       0.49996902       0.49975397       0.33377596 </v>
    <v>       0.66667231       0.33332964       0.33362084 </v>
    <v>       0.50023322       0.00022246       0.33376938 </v>
    <v>       0.66725651       0.83374633       0.33384546 </v>
   </varray>
  </structure>
  <varray name="forces" >
   <v>       0.00282963      -0.00343513      -0.17348193 </v>
   <v>       0.02683686      -0.00002525       0.01127198 </v>
   <v>      -0.01125064       0.02835238       0.01123649 </v>
   <v>      -0.01619613      -0.02281547       0.01125698 </v>
   <v>      -0.02781864       0.10470001       0.03858661 </v>
   <v>      -0.07396359      -0.07571848       0.03949662 </v>
   <v>       0.09923578      -0.03185838       0.03947550 </v>
   <v>       0.11593686       0.05917441       0.00789798 </v>
   <v>      -0.20359064       0.20329971      -0.01108457 </v>
   <v>       0.00474047      -0.00070187       0.02745968 </v>
   <v>       0.27337920       0.06693804      -0.01153108 </v>
   <v>      -0.10412666       0.07884129       0.00742621 </v>
   <v>      -0.00424388       0.00027551       0.00522014 </v>
   <v>      -0.00374320      -0.12659717       0.00786856 </v>
   <v>      -0.07802542      -0.28042961      -0.01109916 </v>
  </varray>
  <varray name="stress" >
   <v>      27.89997853       0.01607585       0.00944265 </v>
   <v>       0.01607587      27.94368218       0.00873038 </v>
   <v>       0.00944267       0.00873035      -2.02206108 </v>
  </varray>
  <energy>
   <i name="e_fr_energy">   -127.08440441 </i>
   <i name="e_wo_entrp">   -127.08285983 </i>
   <i name="e_0_energy">   -127.08363212 </i>
  </energy>
  <time name="totalsc">   48.58   48.94</time>
 </calculation>
 <calculation>
  <scstep>
   <time name="dav">    5.62    5.66</time>
   <time name="total">    5.91    5.95</time>
   <energy>
    <i name="alphaZ">     59.06027030 </i>
    <i name="ewald">   4868.43602946 </i>
    <i name="hartreedc">  -6627.03834637 </i>
    <i name="XCdc">    181.34521574 </i>
    <i name="pawpsdc">   5932.41022690 </i>
    <i name="pawaedc">  -5936.89753717 </i>
    <i name="eentropy">     -0.00154483 </i>
    <i name="bandstr">   -506.05639603 </i>
    <i name="atom">   1903.26342058 </i>
    <i name="e_fr_energy">   -125.47866143 </i>
    <i name="e_wo_entrp">   -125.47711660 </i>
    <i name="e_0_energy">   -125.47788901 </i>
   </energy>
  </scstep>
  <scstep>
   <time name="dav">    9.49    9.55</time>
   <time name="total">    9.78    9.85</time>
   <energy>
    <i name="e_fr_energy">   -125.47866333 </i>
    <i name="e_wo_entrp">   -125.47711854 </i>
    <i name="e_0_energy">   -125.47789094 </i>
   </energy>
  </scstep>
  <scstep>
   <time name="dav">    7.67    7.72</time>
   <time name="total">    7.71    7.76</time>
   <energy>
    <i name="alphaZ">     59.06027030 </i>
    <i name="ewald">   4868.43602946 </i>
    <i name="hartreedc">  -6627.03087655 </i>
    <i name="XCdc">    181.34514840 </i>
    <i name="pawpsdc">   5933.28595242 </i>
    <i name="pawaedc">  -5937.77355570 </i>
    <i name="eentropy">     -0.00154479 </i>
    <i name="bandstr">   -506.06350713 </i>
    <i name="atom">   1903.26342058 </i>
    <i name="e_fr_energy">   -125.47866301 </i>
    <i name="e_wo_entrp">   -125.47711822 </i>
    <i name="e_0_energy">   -125.47789062 </i>
   </energy>
  </scstep>
  <structure>
   <crystal>
    <varray name="basis" >
     <v>       4.16991232       2.40750000       0.00000000 </v>
     <v>      -4.16991232       2.40750000       0.00000000 </v>
     <v>       0.00000000       0.00000000      15.00000000 </v>
    </varray>
    <i name="volume">    301.17191726 </i>
    <varray name="rec_basis" >
     <v>       0.11990660       0.20768432       0.00000000 </v>
     <v>      -0.11990660       0.20768432       0.00000000 </v>
     <v>       0.00000000       0.00000000       0.06666667 </v>
    </varray>
   </crystal>
   <varray name="positions" >
    <v>       0.00419819       0.00283711       0.11828484 </v>
    <v>       0.35742271       0.00315085       0.09817667 </v>
    <v>       0.00370868       0.35560092       0.09817645 </v>
    <v>       0.65136223       0.64950707       0.09817324 </v>
    <v>       0.32703190       0.32506726       0.10022224 </v>
    <v>       0.68186313       0.00331032       0.10021217 </v>
    <v>       0.00368254       0.67994616       0.10020751 </v>
    <v>      -0.00019019       0.50001622       0.33377581 </v>
    <v>       0.16651269       0.33281544       0.33385472 </v>
    <v>       0.00000208       0.00000799       0.33354716 </v>
    <v>       0.16632151       0.83349926       0.33386078 </v>
    <v>       0.49997295       0.49978612       0.33378186 </v>
    <v>       0.66667194       0.33333038       0.33361052 </v>
    <v>       0.50020401       0.00019326       0.33377472 </v>
    <v>       0.66719629       0.83369895       0.33385396 </v>
   </varray>
  </structure>
  <varray name="forces" >
   <v>       0.00335992      -0.00391335      -0.17127985 </v>
   <v>       0.02021394      -0.00562928       0.00521631 </v>
   <v>      -0.00226233       0.02633454       0.00523401 </v>
   <v>      -0.01873439      -0.01450220       0.00508021 </v>
   <v>      -0.03112558       0.09733354       0.04399876 </v>
   <v>      -0.06599324      -0.07453277       0.04473349 </v>
   <v>       0.09422532      -0.02587393       0.04464668 </v>
   <v>       0.10136919       0.05150433       0.00754917 </v>
   <v>      -0.18263924       0.18593380      -0.01281330 </v>
   <v>       0.00399772      -0.00083850       0.03157558 </v>
   <v>       0.24850547       0.05871627      -0.01336729 </v>
   <v>      -0.09113666       0.06921217       0.00696293 </v>
   <v>      -0.00362443       0.00038543       0.00774824 </v>
   <v>      -0.00354672      -0.11086422       0.00753471 </v>
   <v>      -0.07260898      -0.25326582      -0.01281965 </v>
  </varray>
  <varray name="stress" >
   <v>      27.96736478       0.01289680       0.01011576 </v>
   <v>       0.01289678      28.00282992       0.00798264 </v>
   <v>       0.01011571       0.00798264      -2.01334135 </v>
  </varray>
  <energy>
   <i name="e_fr_energy">   -127.08528336 </i>
   <i name="e_wo_entrp">   -127.08373857 </i>
   <i name="e_0_energy">   -127.08451097 </i>
  </energy>
  <time name="totalsc">   28.07   28.27</time>
 </calculation>
 <calculation>
  <scstep>
   <time name="dav">    5.45    5.49</time>
   <time name="total">    5.74    5.79</time>
   <energy>
    <i name="alphaZ">     59.06027030 </i>
    <i name="ewald">   4868.47719042 </i>
    <i name="hartreedc">  -6626.95092428 </i>
    <i name="XCdc">    181.35328941 </i>
    <i name="pawpsdc">   5933.33314028 </i>
    <i name="pawaedc">  -5937.82075072 </i>
    <i name="eentropy">     -0.00154558 </i>
    <i name="bandstr">   -506.19500835 </i>
    <i name="atom">   1903.26342058 </i>
    <i name="e_fr_energy">   -125.48091795 </i>
    <i name="e_wo_entrp">   -125.47937237 </i>
    <i name="e_0_energy">   -125.48014516 </i>
   </energy>
  </scstep>
  <scstep>
   <time name="dav">    9.68    9.74</time>
   <time name="total">    9.97   10.04</time>
   <energy>
    <i name="e_fr_energy">   -125.48093303 </i>
    <i name="e_wo_entrp">   -125.47938761 </i>
    <i name="e_0_energy">   -125.48016032 </i>
   </energy>
  </scstep>
  <scstep>
   <time name="dav">    7.86    7.91</time>
   <time name="total">    8.14    8.20</time>
   <energy>
    <i name="e_fr_energy">   -125.48092848 </i>
    <i name="e_wo_entrp">   -125.47938303 </i>
    <i name="e_0_energy">   -125.48015576 </i>
   </energy>
  </scstep>
  <scstep>
   <time name="dav">   11.15   11.22</time>
   <time name="total">   11.44   11.52</time>
   <energy>
    <i name="e_fr_energy">   -125.48092846 </i>
    <i name="e_wo_entrp">   -125.47938308 </i>
    <i name="e_0_energy">   -125.48015577 </i>
   </energy>
  </scstep>
  <scstep>
   <time name="dav">    7.99    8.04</time>
   <time name="total">    8.03    8.08</time>
   <energy>
    <i name="alphaZ">     59.06027030 </i>
    <i name="ewald">   4868.47719042 </i>
    <i name="hartreedc">  -6626.93487068 </i>
    <i name="XCdc">    181.35284257 </i>
    <i name="pawpsdc">   5935.90767184 </i>
    <i name="pawaedc">  -5940.39618721 </i>
    <i name="eentropy">     -0.00154535 </i>
    <i name="bandstr">   -506.20972118 </i>
    <i name="atom">   1903.26342058 </i>
    <i name="e_fr_energy">   -125.48092872 </i>
    <i name="e_wo_entrp">   -125.47938337 </i>
    <i name="e_0_energy">   -125.48015605 </i>
   </energy>
  </scstep>
  <structure>
   <crystal>
    <varray name="basis" >
     <v>       4.16991232       2.40750000       0.00000000 </v>
     <v>      -4.16991232       2.40750000       0.00000000 </v>
     <v>       0.00000000       0.00000000      15.00000000 </v>
    </varray>
    <i name="volume">    301.17191726 </i>
    <varray name="rec_basis" >
     <v>       0.11990660       0.20768432       0.00000000 </v>
     <v>      -0.11990660       0.20768432       0.00000000 </v>
     <v>       0.00000000       0.00000000       0.06666667 </v>
    </varray>
   </crystal>
   <varray name="positions" >
    <v>       0.00420621       0.00287194       0.11766338 </v>
    <v>       0.35772647       0.00320249       0.09836637 </v>
    <v>       0.00360439       0.35583914       0.09836508 </v>
    <v>       0.65113959       0.64918350       0.09836529 </v>
    <v>       0.32720250       0.32513427       0.10021394 </v>
    <v>       0.68178311       0.00339327       0.10020956 </v>
    <v>       0.00359773       0.67978912       0.10020630 </v>
    <v>      -0.00009888       0.50001380       0.33379213 </v>
    <v>       0.16654830       0.33299410       0.33388045 </v>
    <v>       0.00000582       0.00000694       0.33351295 </v>
    <v>       0.16645777       0.83346111       0.33388790 </v>
    <v>       0.49998475       0.49988258       0.33379954 </v>
    <v>       0.66667086       0.33333260       0.33357957 </v>
    <v>       0.50011637       0.00010568       0.33379073 </v>
    <v>       0.66701566       0.83355681       0.33387948 </v>
   </varray>
  </structure>
  <varray name="forces" >
   <v>       0.00510563      -0.00546620      -0.16452318 </v>
   <v>       0.00041019      -0.02245350      -0.01289660 </v>
   <v>       0.02450033       0.02031771      -0.01270367 </v>
   <v>      -0.02632336       0.01048369      -0.01338902 </v>
   <v>      -0.04100015       0.07532574       0.06039497 </v>
   <v>      -0.04219390      -0.07113619       0.06063581 </v>
   <v>       0.07918293      -0.00784589       0.06039425 </v>
   <v>       0.06034974       0.03119544       0.00649906 </v>
   <v>      -0.12298120       0.13745722      -0.01811319 </v>
   <v>       0.00187828      -0.00128182       0.04343611 </v>
   <v>       0.17854981       0.03492735      -0.01897653 </v>
   <v>      -0.05582010       0.04147318       0.00558338 </v>
   <v>      -0.00181500       0.00076865       0.01523142 </v>
   <v>      -0.00197241      -0.06735192       0.00650822 </v>
   <v>      -0.05787079      -0.17641345      -0.01808104 </v>
  </varray>
  <varray name="stress" >
   <v>      28.18000594       0.00402157       0.01252807 </v>
   <v>       0.00402160      28.19607444       0.00534156 </v>
   <v>       0.01252806       0.00534156      -1.98666854 </v>
  </varray>
  <energy>
   <i name="e_fr_energy">   -127.08749282 </i>
   <i name="e_wo_entrp">   -127.08594746 </i>
   <i name="e_0_energy">   -127.08672014 </i>
  </energy>
  <time name="totalsc">   47.99   48.35</time>
 </calculation>
 <calculation>
  <scstep>
   <time name="dav">    5.45    5.49</time>
   <time name="total">    5.74    5.79</time>
   <energy>
    <i name="alphaZ">     59.06027030 </i>
    <i name="ewald">   4868.48616853 </i>
    <i name="hartreedc">  -6626.72330570 </i>
    <i name="XCdc">    181.36812121 </i>
    <i name="pawpsdc">   5935.90003817 </i>
    <i name="pawaedc">  -5940.38855678 </i>
    <i name="eentropy">     -0.00154687 </i>
    <i name="bandstr">   -506.44815852 </i>
    <i name="atom">   1903.26342058 </i>
    <i name="e_fr_energy">   -125.48354907 </i>
    <i name="e_wo_entrp">   -125.48200220 </i>
    <i name="e_0_energy">   -125.48277563 </i>
   </energy>
  </scstep>
  <scstep>
   <time name="dav">   10.11   10.18</time>
   <time name="total">   10.40   10.48</time>
   <energy>
    <i name="e_fr_energy">   -125.48360476 </i>
    <i name="e_wo_entrp">   -125.48205822 </i>
    <i name="e_0_energy">   -125.48283149 </i>
   </energy>
  </scstep>
  <scstep>
   <time name="dav">    8.53    8.58</time>
   <time name="total">    8.82    8.88</time>
   <energy>
    <i name="e_fr_energy">   -125.48358296 </i>
    <i name="e_wo_entrp">   -125.48203635 </i>
    <i name="e_0_energy">   -125.48280966 </i>
   </energy>
  </scstep>
  <scstep>
   <time name="dav">   10.60   10.67</time>
   <time name="total">   10.89   10.97</time>
   <energy>
    <i name="e_fr_energy">   -125.48358283 </i>
    <i name="e_wo_entrp">   -125.48203634 </i>
    <i name="e_0_energy">   -125.48280958 </i>
   </energy>
  </scstep>
  <scstep>
   <time name="dav">    9.64    9.69</time>
   <time name="total">    9.67    9.73</time>
   <energy>
    <i name="alphaZ">     59.06027030 </i>
    <i name="ewald">   4868.48616853 </i>
    <i name="hartreedc">  -6626.70309228 </i>
    <i name="XCdc">    181.36747687 </i>
    <i name="pawpsdc">   5940.66127054 </i>
    <i name="pawaedc">  -5945.15149840 </i>
    <i name="eentropy">     -0.00154645 </i>
    <i name="bandstr">   -506.46605325 </i>
    <i name="atom">   1903.26342058 </i>
    <i name="e_fr_energy">   -125.48358357 </i>
    <i name="e_wo_entrp">   -125.48203712 </i>
    <i name="e_0_energy">   -125.48281034 </i>
   </energy>
  </scstep>
  <structure>
   <crystal>
    <varray name="basis" >
     <v>       4.16991232       2.40750000       0.00000000 </v>
     <v>      -4.16991232       2.40750000       0.00000000 </v>
     <v>       0.00000000       0.00000000      15.00000000 </v>
    </varray>
    <i name="volume">    301.17191726 </i>
    <varray name="rec_basis" >
     <v>       0.11990660       0.20768432       0.00000000 </v>
     <v>      -0.11990660       0.20768432       0.00000000 </v>
     <v>       0.00000000       0.00000000       0.06666667 </v>
    </varray>
   </crystal>
   <varray name="positions" >
    <v>       0.00422226       0.00294159       0.11642047 </v>
    <v>       0.35833400       0.00330576       0.09874577 </v>
    <v>       0.00339583       0.35631556       0.09874233 </v>
    <v>       0.65069433       0.64853635       0.09874938 </v>
    <v>       0.32754369       0.32526828       0.10019732 </v>
    <v>       0.68162307       0.00355918       0.10020435 </v>
    <v>       0.00342810       0.67947504       0.10020388 </v>
    <v>       0.00008374       0.50000895       0.33382476 </v>
    <v>       0.16661953       0.33335143       0.33393192 </v>
    <v>       0.00001330       0.00000484       0.33344451 </v>
    <v>       0.16673030       0.83338480       0.33394214 </v>
    <v>       0.50000835       0.50007548       0.33383490 </v>
    <v>       0.66666869       0.33333705       0.33351767 </v>
    <v>       0.49994108      -0.00006950       0.33382274 </v>
    <v>       0.66665439       0.83327252       0.33393051 </v>
   </varray>
  </structure>
  <varray name="forces" >
   <v>       0.00861936      -0.00862560      -0.15539544 </v>
   <v>      -0.04231179      -0.05769198      -0.04760003 </v>
   <v>       0.08077880       0.00627371      -0.04706903 </v>
   <v>      -0.04121499       0.06380823      -0.04879425 </v>
   <v>      -0.06060180       0.02870127       0.09303306 </v>
   <v>       0.00781987      -0.06284423       0.09227415 </v>
   <v>       0.04659238       0.02965633       0.09173025 </v>
   <v>      -0.02329608      -0.01085681       0.00436070 </v>
   <v>      -0.00204393       0.03913672      -0.02878674 </v>
   <v>      -0.00234312      -0.00213342       0.06751954 </v>
   <v>       0.03665308      -0.01327733      -0.03026778 </v>
   <v>       0.01689418      -0.01477073       0.00278678 </v>
   <v>       0.00179943       0.00149918       0.03046504 </v>
   <v>       0.00072168       0.02174349       0.00442985 </v>
   <v>      -0.02806707      -0.02061884      -0.02868609 </v>
  </varray>
  <varray name="stress" >
   <v>      28.60054769      -0.01346096       0.01668275 </v>
   <v>      -0.01346095      28.57542452       0.00092683 </v>
   <v>       0.01668280       0.00092684      -1.96613128 </v>
  </varray>
  <energy>
   <i name="e_fr_energy">   -127.09002646 </i>
   <i name="e_wo_entrp">   -127.08848002 </i>
   <i name="e_0_energy">   -127.08925324 </i>
  </energy>
  <time name="totalsc">   50.21   50.59</time>
 </calculation>
 <calculation>
  <scstep>
   <time name="dav">    5.44    5.48</time>
   <time name="total">    5.73    5.78</time>
   <energy>
    <i name="alphaZ">     59.06027030 </i>
    <i name="ewald">   4868.20760375 </i>
    <i name="hartreedc">  -6626.05282205 </i>
    <i name="XCdc">    181.39308172 </i>
    <i name="pawpsdc">   5940.63468921 </i>
    <i name="pawaedc">  -5945.12491914 </i>
    <i name="eentropy">     -0.00154900 </i>
    <i name="bandstr">   -506.86124719 </i>
    <i name="atom">   1903.26342058 </i>
    <i name="e_fr_energy">   -125.48147183 </i>
    <i name="e_wo_entrp">   -125.47992283 </i>
    <i name="e_0_energy">   -125.48069733 </i>
   </energy>
  </scstep>
  <scstep>
   <time name="dav">   11.29   11.36</time>
   <time name="total">   11.58   11.66</time>
   <energy>
    <i name="e_fr_energy">   -125.48171780 </i>
    <i name="e_wo_entrp">   -125.48016947 </i>
    <i name="e_0_energy">   -125.48094363 </i>
   </energy>
  </scstep>
  <scstep>
   <time name="dav">    8.68    8.74</time>
   <time name="total">    8.97    9.04</time>
   <energy>
    <i name="e_fr_energy">   -125.48162341 </i>
    <i name="e_wo_entrp">   -125.48007492 </i>
    <i name="e_0_energy">   -125.48084916 </i>
   </energy>
  </scstep>
  <scstep>
   <time name="dav">   10.89   10.95</time>
   <time name="total">   11.17   11.26</time>
   <energy>
    <i name="e_fr_energy">   -125.48162563 </i>
    <i name="e_wo_entrp">   -125.48007730 </i>
    <i name="e_0_energy">   -125.48085146 </i>
   </energy>
  </scstep>
  <scstep>
   <time name="dav">    9.82    9.88</time>
   <time name="total">   10.11   10.18</time>
   <energy>
    <i name="e_fr_energy">   -125.48162866 </i>
    <i name="e_wo_entrp">   -125.48008043 </i>
    <i name="e_0_energy">   -125.48085455 </i>
   </energy>
  </scstep>
  <scstep>
   <time name="dav">    9.47    9.52</time>
   <time name="total">    9.50    9.56</time>
   <energy>
    <i name="alphaZ">     59.06027030 </i>
    <i name="ewald">   4868.20760375 </i>
    <i name="hartreedc">  -6626.00980273 </i>
    <i name="XCdc">    181.39208000 </i>
    <i name="pawpsdc">   5948.69295739 </i>
    <i name="pawaedc">  -5953.18624178 </i>
    <i name="eentropy">     -0.00154823 </i>
    <i name="bandstr">   -506.90036786 </i>
    <i name="atom">   1903.26342058 </i>
    <i name="e_fr_energy">   -125.48162857 </i>
    <i name="e_wo_entrp">   -125.48008034 </i>
    <i name="e_0_energy">   -125.48085446 </i>
   </energy>
  </scstep>
  <structure>
   <crystal>
    <varray name="basis" >
     <v>       4.16991232       2.40750000       0.00000000 </v>
     <v>      -4.16991232       2.40750000       0.00000000 </v>
     <v>       0.00000000       0.00000000      15.00000000 </v>
    </varray>
    <i name="volume">    301.17191726 </i>
    <varray name="rec_basis" >
     <v>       0.11990660       0.20768432       0.00000000 </v>
     <v>      -0.11990660       0.20768432       0.00000000 </v>
     <v>       0.00000000       0.00000000       0.06666667 </v>
    </varray>
   </crystal>
   <varray name="positions" >
    <v>       0.00425435       0.00308090       0.11393464 </v>
    <v>       0.35954904       0.00351230       0.09950457 </v>
    <v>       0.00297869       0.35726841       0.09949683 </v>
    <v>       0.64980380       0.64724204       0.09951757 </v>
    <v>       0.32822608       0.32553631       0.10016409 </v>
    <v>       0.68130299       0.00389099       0.10019392 </v>
    <v>       0.00308886       0.67884688       0.10019904 </v>
    <v>       0.00044899       0.49999926       0.33389003 </v>
    <v>       0.16676198       0.33406608       0.33403485 </v>
    <v>       0.00002827       0.00000064       0.33330764 </v>
    <v>       0.16727537       0.83323219       0.33405061 </v>
    <v>       0.50005554       0.50046129       0.33390563 </v>
    <v>       0.66666435       0.33334594       0.33339387 </v>
    <v>       0.49959052      -0.00041986       0.33388678 </v>
    <v>       0.66593184       0.83270395       0.33403258 </v>
   </varray>
  </structure>
  <varray name="forces" >
   <v>       0.01578028      -0.01520450      -0.14947022 </v>
   <v>      -0.13974874      -0.13301226      -0.11212627 </v>
   <v>       0.20255020      -0.03026773      -0.11091209 </v>
   <v>      -0.06869329       0.18289223      -0.11467038 </v>
   <v>      -0.09693226      -0.07444863       0.15763211 </v>
   <v>       0.11574978      -0.03892976       0.15493734 </v>
   <v>      -0.02900385       0.10831960       0.15386039 </v>
   <v>      -0.19271917      -0.09506428      -0.00001392 </v>
   <v>       0.24118886      -0.15592155      -0.05038521 </v>
   <v>      -0.01056350      -0.00376620       0.11579704 </v>
   <v>      -0.24653178      -0.11139171      -0.05306604 </v>
   <v>       0.16361753      -0.12908475      -0.00286397 </v>
   <v>       0.00893466       0.00293803       0.06126431 </v>
   <v>       0.00695059       0.20164373       0.00017838 </v>
   <v>       0.02942071       0.29129778      -0.05016147 </v>
  </varray>
  <varray name="stress" >
   <v>      29.42155012      -0.04735919       0.02287740 </v>
   <v>      -0.04735916      29.30900698      -0.00496186 </v>
   <v>       0.02287741      -0.00496181      -1.95316504 </v>
  </varray>
  <energy>
   <i name="e_fr_energy">   -127.08779519 </i>
   <i name="e_wo_entrp">   -127.08624695 </i>
   <i name="e_0_energy">   -127.08702107 </i>
  </energy>
[...]
       <r>     2.8150     1.0361    30.8668 </r>
       <r>     2.9225     0.7425    30.9466 </r>
       <r>     3.0299     1.1818    31.0737 </r>
       <r>     3.1374     1.5120    31.2362 </r>
       <r>     3.2449     1.1382    31.3586 </r>
       <r>     3.3524     1.3467    31.5033 </r>
       <r>     3.4599     1.2421    31.6368 </r>
       <r>     3.5674     1.0878    31.7538 </r>
       <r>     3.6749     1.7987    31.9471 </r>
       <r>     3.7824     2.4503    32.2105 </r>
       <r>     3.8899     2.8060    32.5121 </r>
       <r>     3.9974     2.3552    32.7652 </r>
       <r>     4.1048     2.6973    33.0552 </r>
       <r>     4.2123     2.9598    33.3733 </r>
       <r>     4.3198     2.9528    33.6907 </r>
       <r>     4.4273     3.4605    34.0627 </r>
       <r>     4.5348     3.3107    34.4186 </r>
       <r>     4.6423     3.2665    34.7697 </r>
       <r>     4.7498     3.0422    35.0967 </r>
       <r>     4.8573     3.1150    35.4315 </r>
       <r>     4.9648     2.9997    35.7540 </r>
       <r>     5.0723     3.1984    36.0978 </r>
       <r>     5.1797     3.2681    36.4490 </r>
       <r>     5.2872     3.1770    36.7905 </r>
       <r>     5.3947     2.8104    37.0926 </r>
       <r>     5.5022     2.5435    37.3660 </r>
       <r>     5.6097     2.9954    37.6880 </r>
       <r>     5.7172     4.0477    38.1231 </r>
       <r>     5.8247     3.0191    38.4476 </r>
       <r>     5.9322     2.3790    38.7033 </r>
       <r>     6.0397     2.1692    38.9365 </r>
       <r>     6.1472     2.5833    39.2142 </r>
       <r>     6.2546     2.6608    39.5002 </r>
       <r>     6.3621     2.3230    39.7499 </r>
       <r>     6.4696     2.3596    40.0035 </r>
       <r>     6.5771     3.1892    40.3463 </r>
       <r>     6.6846     3.3059    40.7017 </r>
       <r>     6.7921     3.0967    41.0346 </r>
       <r>     6.8996     3.7326    41.4358 </r>
       <r>     7.0071     4.0116    41.8670 </r>
       <r>     7.1146     3.5837    42.2522 </r>
       <r>     7.2220     3.1219    42.5878 </r>
       <r>     7.3295     2.9051    42.9000 </r>
       <r>     7.4370     1.9966    43.1146 </r>
       <r>     7.5445     2.8364    43.4195 </r>
       <r>     7.6520     3.0774    43.7503 </r>
       <r>     7.7595     2.4414    44.0127 </r>
       <r>     7.8670     3.2947    44.3669 </r>
       <r>     7.9745     3.7179    44.7665 </r>
       <r>     8.0820     4.2800    45.2266 </r>
       <r>     8.1895     4.5249    45.7130 </r>
       <r>     8.2969     3.7152    46.1123 </r>
       <r>     8.4044     3.6188    46.5013 </r>
       <r>     8.5119     4.1700    46.9495 </r>
       <r>     8.6194     4.1221    47.3926 </r>
       <r>     8.7269     2.9034    47.7047 </r>
       <r>     8.8344     1.5814    47.8747 </r>
       <r>     8.9419     0.6296    47.9423 </r>
       <r>     9.0494     0.4312    47.9887 </r>
       <r>     9.1569     0.1018    47.9996 </r>
       <r>     9.2644     0.0035    48.0000 </r>
       <r>     9.3718     0.0000    48.0000 </r>
       <r>     9.4793     0.0000    48.0000 </r>
       <r>     9.5868     0.0000    48.0000 </r>
       <r>     9.6943     0.0000    48.0000 </r>
       <r>     9.8018     0.0000    48.0000 </r>
       <r>     9.9093     0.0000    48.0000 </r>
       <r>    10.0168     0.0000    48.0000 </r>
       <r>    10.1243     0.0000    48.0000 </r>
       <r>    10.2318     0.0000    48.0000 </r>
       <r>    10.3393     0.0000    48.0000 </r>
       <r>    10.4467     0.0000    48.0000 </r>
      </set>
      <set comment="spin 2">
       <r>   -21.8002     0.0000     0.0000 </r>
       <r>   -21.6927     0.0000     0.0000 </r>
       <r>   -21.5852     0.0000     0.0000 </r>
       <r>   -21.4777     0.0000     0.0000 </r>
       <r>   -21.3702     0.0000     0.0000 </r>
       <r>   -21.2627     0.0000     0.0000 </r>
       <r>   -21.1552     0.0000     0.0000 </r>
       <r>   -21.0477     0.0000     0.0000 </r>
       <r>   -20.9403     0.0000     0.0000 </r>
       <r>   -20.8328     0.0000     0.0000 </r>
       <r>   -20.7253     0.0000     0.0000 </r>
       <r>   -20.6178     0.0000     0.0000 </r>
       <r>   -20.5103     0.0008     0.0001 </r>
       <r>   -20.4028     0.0336     0.0037 </r>
       <r>   -20.2953     0.2492     0.0305 </r>
       <r>   -20.1878     0.5261     0.0870 </r>
       <r>   -20.0803     0.5708     0.1484 </r>
       <r>   -19.9729     0.6266     0.2157 </r>
       <r>   -19.8654     0.5229     0.2720 </r>
       <r>   -19.7579     0.6813     0.3452 </r>
       <r>   -19.6504     0.5385     0.4031 </r>
       <r>   -19.5429     0.5278     0.4598 </r>
       <r>   -19.4354     0.7642     0.5419 </r>
       <r>   -19.3279     0.4936     0.5950 </r>
       <r>   -19.2204     0.4744     0.6460 </r>
       <r>   -19.1129     0.7714     0.7289 </r>
       <r>   -19.0054     0.6720     0.8011 </r>
       <r>   -18.8980     0.3858     0.8426 </r>
       <r>   -18.7905     0.5177     0.8983 </r>
       <r>   -18.6830     0.8822     0.9931 </r>
       <r>   -18.5755     0.5962     1.0572 </r>
       <r>   -18.4680     0.4878     1.1096 </r>
       <r>   -18.3605     0.3633     1.1487 </r>
       <r>   -18.2530     0.7973     1.2344 </r>
       <r>   -18.1455     0.8694     1.3278 </r>
       <r>   -18.0380     0.4784     1.3792 </r>
       <r>   -17.9305     0.3955     1.4217 </r>
       <r>   -17.8231     0.5110     1.4767 </r>
       <r>   -17.7156     0.7442     1.5567 </r>
       <r>   -17.6081     0.8799     1.6512 </r>
       <r>   -17.5006     0.6798     1.7243 </r>
       <r>   -17.3931     0.7300     1.8028 </r>
       <r>   -17.2856     1.1640     1.9279 </r>
       <r>   -17.1781     1.7815     2.1194 </r>
       <r>   -17.0706     1.9470     2.3287 </r>
       <r>   -16.9631     2.0379     2.5477 </r>
       <r>   -16.8556     2.4858     2.8149 </r>
       <r>   -16.7482     2.4371     3.0769 </r>
       <r>   -16.6407     0.9264     3.1765 </r>
       <r>   -16.5332     0.8088     3.2634 </r>
       <r>   -16.4257     1.1175     3.3835 </r>
       <r>   -16.3182     0.6124     3.4493 </r>
       <r>   -16.2107     0.5385     3.5072 </r>
       <r>   -16.1032     0.4738     3.5582 </r>
       <r>   -15.9957     0.5141     3.6134 </r>
       <r>   -15.8882     0.4046     3.6569 </r>
       <r>   -15.7808     0.8908     3.7527 </r>
       <r>   -15.6733     1.1165     3.8727 </r>
       <r>   -15.5658     0.5735     3.9343 </r>
       <r>   -15.4583     0.4823     3.9862 </r>
       <r>   -15.3508     0.4153     4.0308 </r>
       <r>   -15.2433     0.5271     4.0875 </r>
       <r>   -15.1358     0.7190     4.1647 </r>
       <r>   -15.0283     1.0980     4.2828 </r>
       <r>   -14.9208     1.8824     4.4851 </r>
       <r>   -14.8133     2.2748     4.7296 </r>
       <r>   -14.7059     2.2754     4.9742 </r>
       <r>   -14.5984     1.7556     5.1629 </r>
       <r>   -14.4909     0.9884     5.2692 </r>
       <r>   -14.3834     1.4644     5.4266 </r>
       <r>   -14.2759     2.1070     5.6531 </r>
       <r>   -14.1684     1.5429     5.8189 </r>
       <r>   -14.0609     1.3997     5.9694 </r>
       <r>   -13.9534     1.3828     6.1180 </r>
       <r>   -13.8459     2.1898     6.3534 </r>
       <r>   -13.7384     2.6681     6.6402 </r>
       <r>   -13.6310     2.4414     6.9026 </r>
       <r>   -13.5235     1.8564     7.1021 </r>
       <r>   -13.4160     1.1177     7.2223 </r>
       <r>   -13.3085     0.4330     7.2688 </r>
       <r>   -13.2010     0.4613     7.3184 </r>
       <r>   -13.0935     0.7790     7.4021 </r>
       <r>   -12.9860     0.9222     7.5013 </r>
       <r>   -12.8785     0.6294     7.5689 </r>
       <r>   -12.7710     0.7548     7.6501 </r>
       <r>   -12.6636     0.8647     7.7430 </r>
       <r>   -12.5561     0.7771     7.8265 </r>
       <r>   -12.4486     0.6916     7.9009 </r>
       <r>   -12.3411     0.4883     7.9534 </r>
       <r>   -12.2336     0.6458     8.0228 </r>
       <r>   -12.1261     1.0449     8.1351 </r>
       <r>   -12.0186     0.5619     8.1955 </r>
       <r>   -11.9111     0.4098     8.2395 </r>
       <r>   -11.8036     0.4411     8.2869 </r>
       <r>   -11.6961     0.5815     8.3494 </r>
       <r>   -11.5887     0.8908     8.4452 </r>
       <r>   -11.4812     0.6622     8.5164 </r>
       <r>   -11.3737     0.2458     8.5428 </r>
       <r>   -11.2662     0.4865     8.5951 </r>
       <r>   -11.1587     0.7425     8.6749 </r>
       <r>   -11.0512     0.7766     8.7584 </r>
       <r>   -10.9437     0.9116     8.8564 </r>
       <r>   -10.8362     0.8122     8.9437 </r>
       <r>   -10.7287     0.3659     8.9830 </r>
       <r>   -10.6212     0.8365     9.0729 </r>
       <r>   -10.5138     1.3907     9.2224 </r>
       <r>   -10.4063     1.9167     9.4285 </r>
       <r>   -10.2988     2.1039     9.6546 </r>
       <r>   -10.1913     1.8178     9.8500 </r>
       <r>   -10.0838     2.0597    10.0714 </r>
       <r>    -9.9763     2.4845    10.3384 </r>
       <r>    -9.8688     1.4029    10.4892 </r>
       <r>    -9.7613     0.7847    10.5736 </r>
       <r>    -9.6538     1.5967    10.7452 </r>
       <r>    -9.5463     2.0481    10.9654 </r>
       <r>    -9.4389     2.0540    11.1861 </r>
       <r>    -9.3314     1.9192    11.3924 </r>
       <r>    -9.2239     1.9114    11.5979 </r>
       <r>    -9.1164     1.4605    11.7549 </r>
       <r>    -9.0089     0.8285    11.8439 </r>
       <r>    -8.9014     1.6308    12.0192 </r>
       <r>    -8.7939     2.7336    12.3131 </r>
       <r>    -8.6864     2.3408    12.5647 </r>
       <r>    -8.5789     1.1061    12.6836 </r>
       <r>    -8.4715     1.0779    12.7994 </r>
       <r>    -8.3640     2.3963    13.0570 </r>
       <r>    -8.2565     2.9815    13.3775 </r>
       <r>    -8.1490     1.4857    13.5372 </r>
       <r>    -8.0415     1.6724    13.7169 </r>
       <r>    -7.9340     2.9743    14.0366 </r>
       <r>    -7.8265     3.0754    14.3672 </r>
       <r>    -7.7190     2.9784    14.6874 </r>
       <r>    -7.6115     1.5931    14.8586 </r>
       <r>    -7.5040     1.0824    14.9750 </r>
       <r>    -7.3966     2.2868    15.2208 </r>
       <r>    -7.2891     2.1763    15.4547 </r>
       <r>    -7.1816     1.5101    15.6170 </r>
       <r>    -7.0741     1.6358    15.7929 </r>
       <r>    -6.9666     2.1456    16.0235 </r>
       <r>    -6.8591     2.1687    16.2566 </r>
       <r>    -6.7516     2.2059    16.4937 </r>
       <r>    -6.6441     2.8955    16.8049 </r>
       <r>    -6.5366     2.6519    17.0900 </r>
       <r>    -6.4291     2.4720    17.3557 </r>
       <r>    -6.3217     2.1771    17.5897 </r>
       <r>    -6.2142     2.0294    17.8079 </r>
       <r>    -6.1067     3.0756    18.1385 </r>
       <r>    -5.9992     3.2028    18.4827 </r>
       <r>    -5.8917     3.7046    18.8809 </r>
       <r>    -5.7842     3.5479    19.2623 </r>
       <r>    -5.6767     2.2329    19.5023 </r>
       <r>    -5.5692     2.4062    19.7610 </r>
       <r>    -5.4617     3.8512    20.1749 </r>
       <r>    -5.3542     4.1644    20.6226 </r>
       <r>    -5.2468     3.6012    21.0097 </r>
       <r>    -5.1393     2.4312    21.2710 </r>
       <r>    -5.0318     1.3566    21.4168 </r>
       <r>    -4.9243     0.9603    21.5200 </r>
       <r>    -4.8168     1.7743    21.7108 </r>
       <r>    -4.7093     1.7852    21.9026 </r>
       <r>    -4.6018     1.2386    22.0358 </r>
       <r>    -4.4943     1.0314    22.1466 </r>
       <r>    -4.3868     1.4235    22.2997 </r>
       <r>    -4.2794     2.7266    22.5927 </r>
       <r>    -4.1719     2.3539    22.8458 </r>
       <r>    -4.0644     2.4792    23.1122 </r>
       <r>    -3.9569     2.9296    23.4271 </r>
       <r>    -3.8494     3.2929    23.7811 </r>
       <r>    -3.7419     2.4980    24.0496 </r>
       <r>    -3.6344     2.1939    24.2854 </r>
       <r>    -3.5269     2.4616    24.5500 </r>
       <r>    -3.4194     2.1124    24.7771 </r>
       <r>    -3.3119     1.8234    24.9731 </r>
       <r>    -3.2045     1.7794    25.1644 </r>
       <r>    -3.0970     2.2385    25.4050 </r>
       <r>    -2.9895     2.2850    25.6506 </r>
       <r>    -2.8820     1.5635    25.8186 </r>
       <r>    -2.7745     1.5751    25.9880 </r>
       <r>    -2.6670     0.9575    26.0909 </r>
       <r>    -2.5595     1.2599    26.2263 </r>
       <r>    -2.4520     2.4696    26.4918 </r>
       <r>    -2.3445     1.8595    26.6916 </r>
       <r>    -2.2370     0.5123    26.7467 </r>
       <r>    -2.1296     0.5798    26.8090 </r>
       <r>    -2.0221     1.3194    26.9508 </r>
       <r>    -1.9146     1.2821    27.0887 </r>
       <r>    -1.8071     1.3904    27.2381 </r>
       <r>    -1.6996     1.4521    27.3942 </r>
       <r>    -1.5921     1.2284    27.5262 </r>
       <r>    -1.4846     0.9243    27.6256 </r>
       <r>    -1.3771     0.5867    27.6887 </r>
       <r>    -1.2696     0.4871    27.7410 </r>
       <r>    -1.1621     0.5263    27.7976 </r>
       <r>    -1.0547     0.4616    27.8472 </r>
       <r>    -0.9472     0.7364    27.9264 </r>
       <r>    -0.8397     0.4435    27.9740 </r>
       <r>    -0.7322     0.0994    27.9847 </r>
       <r>    -0.6247     0.0128    27.9861 </r>
       <r>    -0.5172     0.0004    27.9861 </r>
       <r>    -0.4097     0.0044    27.9866 </r>
       <r>    -0.3022     0.0659    27.9937 </r>
       <r>    -0.1947     0.1409    28.0088 </r>
       <r>    -0.0873     0.0452    28.0137 </r>
       <r>     0.0202     0.0020    28.0139 </r>
       <r>     0.1277     0.0000    28.0139 </r>
       <r>     0.2352     0.0016    28.0141 </r>
       <r>     0.3427     0.0677    28.0213 </r>
       <r>     0.4502     0.3725    28.0614 </r>
       <r>     0.5577     0.3022    28.0939 </r>
       <r>     0.6652     0.1183    28.1066 </r>
       <r>     0.7727     0.3884    28.1483 </r>
       <r>     0.8802     0.6541    28.2186 </r>
       <r>     0.9876     0.9429    28.3200 </r>
       <r>     1.0951     2.7794    28.6188 </r>
       <r>     1.2026     3.1336    28.9556 </r>
       <r>     1.3101     0.8976    29.0521 </r>
       <r>     1.4176     0.4443    29.0998 </r>
       <r>     1.5251     0.8898    29.1955 </r>
       <r>     1.6326     1.4652    29.3530 </r>
       <r>     1.7401     2.2487    29.5947 </r>
       <r>     1.8476     2.2120    29.8324 </r>
       <r>     1.9551     1.0332    29.9435 </r>
       <r>     2.0625     0.7839    30.0278 </r>
       <r>     2.1700     1.2702    30.1643 </r>
       <r>     2.2775     0.9760    30.2692 </r>
       <r>     2.3850     0.9329    30.3695 </r>
       <r>     2.4925     1.1549    30.4936 </r>
       <r>     2.6000     1.0466    30.6061 </r>
       <r>     2.7075     1.3894    30.7555 </r>
       <r>     2.8150     1.0361    30.8668 </r>
       <r>     2.9225     0.7425    30.9466 </r>
       <r>     3.0299     1.1818    31.0737 </r>
       <r>     3.1374     1.5120    31.2362 </r>
       <r>     3.2449     1.1382    31.3585 </r>
       <r>     3.3524     1.3467    31.5033 </r>
       <r>     3.4599     1.2421    31.6368 </r>
       <r>     3.5674     1.0878    31.7538 </r>
       <r>     3.6749     1.7987    31.9471 </r>
       <r>     3.7824     2.4502    32.2105 </r>
       <r>     3.8899     2.8060    32.5121 </r>
       <r>     3.9974     2.3552    32.7652 </r>
       <r>     4.1048     2.6973    33.0552 </r>
       <r>     4.2123     2.9598    33.3733 </r>
       <r>     4.3198     2.9528    33.6907 </r>
       <r>     4.4273     3.4606    34.0627 </r>
       <r>     4.5348     3.3107    34.4186 </r>
       <r>     4.6423     3.2665    34.7697 </r>
       <r>     4.7498     3.0422    35.0967 </r>
       <r>     4.8573     3.1149    35.4315 </r>
       <r>     4.9648     2.9997    35.7540 </r>
       <r>     5.0723     3.1984    36.0977 </r>
       <r>     5.1797     3.2682    36.4490 </r>
       <r>     5.2872     3.1770    36.7905 </r>
       <r>     5.3947     2.8104    37.0926 </r>
       <r>     5.5022     2.5436    37.3660 </r>
       <r>     5.6097     2.9954    37.6880 </r>
       <r>     5.7172     4.0476    38.1231 </r>
       <r>     5.8247     3.0191    38.4476 </r>
       <r>     5.9322     2.3791    38.7033 </r>
       <r>     6.0397     2.1693    38.9365 </r>
       <r>     6.1472     2.5834    39.2142 </r>
       <r>     6.2546     2.6608    39.5002 </r>
       <r>     6.3621     2.3229    39.7499 </r>
       <r>     6.4696     2.3596    40.0035 </r>
       <r>     6.5771     3.1892    40.3463 </r>
       <r>     6.6846     3.3059    40.7017 </r>
       <r>     6.7921     3.0965    41.0345 </r>
       <r>     6.8996     3.7325    41.4357 </r>
       <r>     7.0071     4.0116    41.8669 </r>
       <r>     7.1146     3.5838    42.2522 </r>
       <r>     7.2220     3.1219    42.5877 </r>
       <r>     7.3295     2.9051    42.9000 </r>
       <r>     7.4370     1.9966    43.1146 </r>
       <r>     7.5445     2.8363    43.4195 </r>
       <r>     7.6520     3.0775    43.7503 </r>
       <r>     7.7595     2.4414    44.0127 </r>
       <r>     7.8670     3.2944    44.3668 </r>
       <r>     7.9745     3.7177    44.7664 </r>
       <r>     8.0820     4.2801    45.2265 </r>
       <r>     8.1895     4.5251    45.7129 </r>
       <r>     8.2969     3.7153    46.1123 </r>
       <r>     8.4044     3.6189    46.5013 </r>
       <r>     8.5119     4.1701    46.9495 </r>
       <r>     8.6194     4.1221    47.3926 </r>
       <r>     8.7269     2.9034    47.7047 </r>
       <r>     8.8344     1.5814    47.8747 </r>
       <r>     8.9419     0.6296    47.9423 </r>
       <r>     9.0494     0.4312    47.9887 </r>
       <r>     9.1569     0.1018    47.9996 </r>
       <r>     9.2644     0.0035    48.0000 </r>
       <r>     9.3718     0.0000    48.0000 </r>
       <r>     9.4793     0.0000    48.0000 </r>
       <r>     9.5868     0.0000    48.0000 </r>
       <r>     9.6943     0.0000    48.0000 </r>
       <r>     9.8018     0.0000    48.0000 </r>
       <r>     9.9093     0.0000    48.0000 </r>
       <r>    10.0168     0.0000    48.0000 </r>
       <r>    10.1243     0.0000    48.0000 </r>
       <r>    10.2318     0.0000    48.0000 </r>
       <r>    10.3393     0.0000    48.0000 </r>
       <r>    10.4467     0.0000    48.0000 </r>
      </set>
     </set>
    </array>
   </total>
  </dos>
 </calculation>
 <structure name="finalpos" >
  <crystal>
   <varray name="basis" >
    <v>       4.16991232       2.40750000       0.00000000 </v>
    <v>      -4.16991232       2.40750000       0.00000000 </v>
    <v>       0.00000000       0.00000000      15.00000000 </v>
   </varray>
   <i name="volume">    301.17191726 </i>
   <varray name="rec_basis" >
    <v>       0.11990660       0.20768432       0.00000000 </v>
    <v>      -0.11990660       0.20768432       0.00000000 </v>
    <v>       0.00000000       0.00000000       0.06666667 </v>
   </varray>
  </crystal>
  <varray name="positions" >
   <v>       0.00403845       0.00268840       0.10540329 </v>
   <v>       0.35906840       0.00292776       0.09980513 </v>
   <v>       0.00379482       0.35747607       0.09980577 </v>
   <v>       0.64924821       0.64765577       0.09980220 </v>
   <v>       0.32796373       0.32637070       0.10039781 </v>
   <v>       0.68034850       0.00292352       0.10039429 </v>
   <v>       0.00378516       0.67875362       0.10039096 </v>
   <v>       0.00014839       0.50007350       0.33469217 </v>
   <v>       0.16680481       0.33346850       0.33473315 </v>
   <v>       0.00013095       0.00007927       0.33464836 </v>
   <v>       0.16684502       0.83340501       0.33473683 </v>
   <v>       0.50013971       0.50010533       0.33469508 </v>
   <v>       0.66679710       0.33341415       0.33458415 </v>
   <v>       0.50010578       0.00006154       0.33469055 </v>
   <v>       0.66674164       0.83336419       0.33473294 </v>
  </varray>
 </structure>
</modeling>
