<?xml version="1.0" encoding="ISO-8859-1"?>
<modeling>
 <generator>
  <i name="program" type="string">vasp </i>
  <i name="version" type="string">6.3.2  </i>
  <i name="subversion" type="string">27Jun22 (build Dec 22 2022 13:13:19) complex                          parallel </i>
  <i name="platform" type="string">LinuxIFC </i>
  <i name="date" type="string">2023 08 28 </i>
  <i name="time" type="string">00:39:13 </i>
 </generator>
 <incar>
  <i type="string" name="SYSTEM">Lattice</i>
  <i type="int" name="ISTART">     0</i>
  <i type="string" name="PREC">Accurate</i>
  <i type="string" name="ALGO">Normal</i>
  <i type="int" name="ICHARG">     2</i>
  <i type="int" name="NELM">    64</i>
  <i type="int" name="IBRION">     2</i>
  <i name="EDIFF">      0.00000100</i>
  <i name="EDIFFG">     -0.00100000</i>
  <i type="int" name="NSW">   128</i>
  <i type="int" name="ISIF">     2</i>
  <i name="ENCUT">    450.00000000</i>
  <i name="POTIM">      0.50000000</i>
  <i type="int" name="ISMEAR">     0</i>
  <i name="SIGMA">      0.10000000</i>
  <i type="logical" name="LWAVE"> F  </i>
  <i type="logical" name="LCHARG"> F  </i>
  <i type="string" name="GGA">PE</i>
  <i type="int" name="IVDW">    12</i>
 </incar>
 <primitive_cell>
  <structure name="primitive_cell" >
   <crystal>
    <varray name="basis" >
     <v>       4.31194049       2.48950000       0.00000000 </v>
     <v>      -4.31194049       2.48950000       0.00000000 </v>
     <v>       0.00000000       0.00000000      15.00000000 </v>
    </varray>
    <i name="volume">    322.03727516 </i>
    <varray name="rec_basis" >
     <v>       0.11595707       0.20084354       0.00000000 </v>
     <v>      -0.11595707       0.20084354       0.00000000 </v>
     <v>       0.00000000       0.00000000       0.06666667 </v>
    </varray>
   </crystal>
   <varray name="positions" >
    <v>       0.66888689       1.00000000       0.10000000 </v>
    <v>       0.33111211       1.00000000       0.10000000 </v>
    <v>       1.00000000       0.33111211       0.10000000 </v>
    <v>       1.00000000       0.66888689       0.10000000 </v>
    <v>       0.33111211       0.33111211       0.10000000 </v>
    <v>       0.66888689       0.66888689       0.10000000 </v>
    <v>       0.66666600       0.33333300       0.09922189 </v>
    <v>       0.33333300       0.66666600       0.10077811 </v>
    <v>       0.16666600       0.33333300       0.33600000 </v>
    <v>       0.33333300       0.16666600       0.33600000 </v>
    <v>       0.16666600       0.83333300       0.33600000 </v>
    <v>       0.33333300       0.66666600       0.33600000 </v>
    <v>       0.66666600       0.33333300       0.33600000 </v>
    <v>       0.83333300       0.16666600       0.33600000 </v>
    <v>       0.66666600       0.83333300       0.33600000 </v>
    <v>       0.83333300       0.66666600       0.33600000 </v>
   </varray>
  </structure>
  <varray name="primitive_index" >
   <v type="int" >        1 </v>
   <v type="int" >        2 </v>
   <v type="int" >        3 </v>
   <v type="int" >        4 </v>
   <v type="int" >        5 </v>
   <v type="int" >        6 </v>
   <v type="int" >        7 </v>
   <v type="int" >        8 </v>
   <v type="int" >        9 </v>
   <v type="int" >       10 </v>
   <v type="int" >       11 </v>
   <v type="int" >       12 </v>
   <v type="int" >       13 </v>
   <v type="int" >       14 </v>
   <v type="int" >       15 </v>
   <v type="int" >       16 </v>
  </varray>
 </primitive_cell>
 <kpoints>
  <generation param="Gamma">
   <v type="int" name="divisions">      12       12        1 </v>
   <v name="usershift">      0.00000000       0.00000000       0.00000000 </v>
   <v name="genvec1">      0.08333333      -0.00000000       0.00000000 </v>
   <v name="genvec2">     -0.00000000       0.08333333       0.00000000 </v>
   <v name="genvec3">      0.00000000       0.00000000       1.00000000 </v>
   <v name="shift">      0.00000000       0.00000000       0.00000000 </v>
  </generation>
  <varray name="kpointlist" >
   <v>       0.00000000       0.00000000       0.00000000 </v>
   <v>       0.08333333      -0.00000000       0.00000000 </v>
   <v>       0.16666667       0.00000000       0.00000000 </v>
   <v>       0.25000000       0.00000000       0.00000000 </v>
   <v>       0.33333333       0.00000000       0.00000000 </v>
   <v>       0.41666667       0.00000000       0.00000000 </v>
   <v>       0.50000000       0.00000000       0.00000000 </v>
   <v>       0.08333333       0.08333333       0.00000000 </v>
   <v>       0.16666667       0.08333333       0.00000000 </v>
   <v>       0.25000000       0.08333333       0.00000000 </v>
   <v>       0.33333333       0.08333333       0.00000000 </v>
   <v>       0.41666667       0.08333333       0.00000000 </v>
   <v>       0.16666667       0.16666667       0.00000000 </v>
   <v>       0.25000000       0.16666667       0.00000000 </v>
   <v>       0.33333333       0.16666667       0.00000000 </v>
   <v>       0.41666667       0.16666667       0.00000000 </v>
   <v>       0.25000000       0.25000000       0.00000000 </v>
   <v>       0.33333333       0.25000000       0.00000000 </v>
   <v>       0.33333333       0.33333333       0.00000000 </v>
  </varray>
  <varray name="weights" >
   <v>       0.00694444 </v>
   <v>       0.04166667 </v>
   <v>       0.04166667 </v>
   <v>       0.04166667 </v>
   <v>       0.04166667 </v>
   <v>       0.04166667 </v>
   <v>       0.02083333 </v>
   <v>       0.04166667 </v>
   <v>       0.08333333 </v>
   <v>       0.08333333 </v>
   <v>       0.08333333 </v>
   <v>       0.08333333 </v>
   <v>       0.04166667 </v>
   <v>       0.08333333 </v>
   <v>       0.08333333 </v>
   <v>       0.04166667 </v>
   <v>       0.04166667 </v>
   <v>       0.08333333 </v>
   <v>       0.01388889 </v>
  </varray>
 </kpoints>
 <parameters>
  <separator name="general" >
   <i type="string" name="SYSTEM">Lattice</i>
   <i type="logical" name="LCOMPAT"> F  </i>
  </separator>
  <separator name="electronic" >
   <i type="string" name="PREC">accura</i>
   <i name="ENMAX">    450.00000000</i>
   <i name="ENAUG">    644.87300000</i>
   <i name="EDIFF">      0.00000100</i>
   <i type="int" name="IALGO">    38</i>
   <i type="int" name="IWAVPR">    11</i>
   <i type="int" name="NBANDS">    48</i>
   <i type="int" name="NBANDSLOW">    -1</i>
   <i type="int" name="NBANDSHIGH">    -1</i>
   <i name="NELECT">     56.00000000</i>
   <i type="int" name="TURBO">     0</i>
   <i type="int" name="IRESTART">     0</i>
   <i type="int" name="NREBOOT">     0</i>
   <i type="int" name="NMIN">     0</i>
   <i name="EREF">      0.00000000</i>
   <separator name="electronic smearing" >
    <i type="int" name="ISMEAR">     0</i>
    <i name="SIGMA">      0.10000000</i>
    <i name="KSPACING">      0.50000000</i>
    <i type="logical" name="KGAMMA"> T  </i>
    <i type="logical" name="KBLOWUP"> T  </i>
   </separator>
   <separator name="electronic projectors" >
    <i type="logical" name="LREAL"> F  </i>
    <v name="ROPT">      0.00000000      0.00000000</v>
    <i type="int" name="LMAXPAW">  -100</i>
    <i type="int" name="LMAXMIX">     2</i>
    <i type="logical" name="NLSPLINE"> F  </i>
   </separator>
   <separator name="electronic startup" >
    <i type="int" name="ISTART">     0</i>
    <i type="int" name="ICHARG">     2</i>
    <i type="int" name="INIWAV">     1</i>
   </separator>
   <separator name="electronic spin" >
    <i type="int" name="ISPIN">     1</i>
    <i type="logical" name="LNONCOLLINEAR"> F  </i>
    <v name="MAGMOM">      1.00000000      1.00000000      1.00000000      1.00000000      1.00000000      1.00000000      1.00000000      1.00000000      1.00000000      1.00000000      1.00000000      1.00000000      1.00000000      1.00000000      1.00000000      1.00000000</v>
    <i name="NUPDOWN">     -1.00000000</i>
    <i type="logical" name="LSORBIT"> F  </i>
    <v name="SAXIS">      0.00000000      0.00000000      1.00000000</v>
    <i type="logical" name="LSPIRAL"> F  </i>
    <v name="QSPIRAL">      0.00000000      0.00000000      0.00000000</v>
    <i type="logical" name="LZEROZ"> F  </i>
   </separator>
   <separator name="electronic exchange-correlation" >
    <i type="logical" name="LASPH"> F  </i>
    <i type="logical" name="LMETAGGA"> F  </i>
   </separator>
   <separator name="electronic convergence" >
    <i type="int" name="NELM">    64</i>
    <i type="int" name="NELMDL">    -5</i>
    <i type="int" name="NELMIN">     2</i>
    <i name="ENINI">    450.00000000</i>
    <separator name="electronic convergence detail" >
     <i type="logical" name="LDIAG"> T  </i>
     <i type="logical" name="LSUBROT"> F  </i>
     <i name="WEIMIN">      0.00100000</i>
     <i name="EBREAK">      0.00000001</i>
     <i name="DEPER">      0.30000000</i>
     <i type="int" name="NRMM">     4</i>
     <i name="TIME">      0.40000000</i>
    </separator>
   </separator>
   <separator name="electronic mixer" >
    <i name="AMIX">      0.40000000</i>
    <i name="BMIX">      1.00000000</i>
    <i name="AMIN">      0.10000000</i>
    <i name="AMIX_MAG">      1.60000000</i>
    <i name="BMIX_MAG">      1.00000000</i>
    <separator name="electronic mixer details" >
     <i type="int" name="IMIX">     4</i>
     <i type="logical" name="MIXFIRST"> F  </i>
     <i type="int" name="MAXMIX">   -45</i>
     <i name="WC">    100.00000000</i>
     <i type="int" name="INIMIX">     1</i>
     <i type="int" name="MIXPRE">     1</i>
     <i type="int" name="MREMOVE">     5</i>
    </separator>
   </separator>
   <separator name="electronic dipolcorrection" >
    <i type="logical" name="LDIPOL"> F  </i>
    <i type="logical" name="LMONO"> F  </i>
    <i type="int" name="IDIPOL">     0</i>
    <i name="EPSILON">      1.00000000</i>
    <v name="DIPOL">   -100.00000000   -100.00000000   -100.00000000</v>
    <i name="EFIELD">      0.00000000</i>
   </separator>
  </separator>
  <separator name="grids" >
   <i type="int" name="NGX">    36</i>
   <i type="int" name="NGY">    36</i>
   <i type="int" name="NGZ">   108</i>
   <i type="int" name="NGXF">    72</i>
   <i type="int" name="NGYF">    72</i>
   <i type="int" name="NGZF">   216</i>
   <i type="logical" name="ADDGRID"> F  </i>
  </separator>
  <separator name="ionic" >
   <i type="int" name="NSW">   128</i>
   <i type="int" name="IBRION">     2</i>
   <i type="int" name="MDALGO">     0</i>
   <i type="int" name="ISIF">     2</i>
   <i name="PSTRESS">      0.00000000</i>
   <i name="EDIFFG">     -0.00100000</i>
   <i type="int" name="NFREE">     1</i>
   <i name="POTIM">      0.50000000</i>
   <i name="SMASS">     -3.00000000</i>
   <i name="SCALEE">      1.00000000</i>
  </separator>
  <separator name="ionic md" >
   <i name="TEBEG">      0.00010000</i>
   <i name="TEEND">      0.00010000</i>
   <i type="int" name="NBLOCK">     1</i>
   <i type="int" name="KBLOCK">   128</i>
   <i type="int" name="NPACO">   256</i>
   <i name="APACO">     10.00000000</i>
  </separator>
  <separator name="symmetry" >
   <i type="int" name="ISYM">     2</i>
   <i name="SYMPREC">      0.00001000</i>
  </separator>
  <separator name="dos" >
   <i type="int" name="LORBIT">     0</i>
   <v name="RWIGS">     -1.00000000     -1.00000000</v>
   <i type="int" name="NEDOS">   301</i>
   <i name="EMIN">     10.00000000</i>
   <i name="EMAX">    -10.00000000</i>
   <i name="EFERMI">      0.00000000</i>
  </separator>
  <separator name="writing" >
   <i type="int" name="NWRITE">     2</i>
   <i type="logical" name="LWAVE"> F  </i>
   <i type="logical" name="LDOWNSAMPLE"> F  </i>
   <i type="logical" name="LCHARG"> F  </i>
   <i type="logical" name="LPARD"> F  </i>
   <i type="logical" name="LVTOT"> F  </i>
   <i type="logical" name="LVHAR"> F  </i>
   <i type="logical" name="LELF"> F  </i>
   <i type="logical" name="LOPTICS"> F  </i>
   <v name="STM">      0.00000000      0.00000000      0.00000000      0.00000000      0.00000000      0.00000000      0.00000000</v>
  </separator>
  <separator name="performance" >
   <i type="int" name="NPAR">    24</i>
   <i type="int" name="NSIM">     4</i>
   <i type="int" name="NBLK">    -1</i>
   <i type="logical" name="LPLANE"> T  </i>
   <i type="logical" name="LSCALAPACK"> T  </i>
   <i type="logical" name="LSCAAWARE"> F  </i>
   <i type="logical" name="LSCALU"> F  </i>
   <i type="logical" name="LASYNC"> F  </i>
   <i type="logical" name="LORBITALREAL"> F  </i>
  </separator>
  <separator name="miscellaneous" >
   <i type="int" name="IDIOT">     3</i>
   <i type="int" name="PHON_NSTRUCT">    -1</i>
   <i type="logical" name="LMUSIC"> F  </i>
   <v name="POMASS">     10.81100000     12.01100000</v>
   <v name="DARWINR">      0.00000000      0.00000000</v>
   <v name="DARWINV">      1.00000000      1.00000000</v>
   <i type="logical" name="LCORR"> T  </i>
  </separator>
  <i type="logical" name="GGA_COMPAT"> T  </i>
  <i type="logical" name="LBERRY"> F  </i>
  <i type="int" name="ICORELEVEL">     0</i>
  <i type="logical" name="LDAU"> F  </i>
  <i type="int" name="I_CONSTRAINED_M">     0</i>
  <separator name="electronic exchange-correlation" >
   <i type="string" name="GGA">PE</i>
   <i type="int" name="VOSKOWN">     0</i>
   <i type="logical" name="LHFCALC"> F  </i>
   <i type="string" name="PRECFOCK"></i>
   <i type="logical" name="LSYMGRAD"> F  </i>
   <i type="logical" name="LHFONE"> F  </i>
   <i type="logical" name="LRHFCALC"> F  </i>
   <i type="logical" name="LTHOMAS"> F  </i>
   <i type="logical" name="LMODELHF"> F  </i>
   <i type="logical" name="LFOCKACE"> F  </i>
   <i name="ENCUT4O">     -1.00000000</i>
   <i type="int" name="EXXOEP">     0</i>
   <i type="int" name="FOURORBIT">     0</i>
   <i name="AEXX">      0.00000000</i>
   <i name="HFALPHA">      0.00000000</i>
   <i name="MCALPHA">      0.00000000</i>
   <i name="ALDAX">      1.00000000</i>
   <i name="AGGAX">      1.00000000</i>
   <i name="ALDAC">      1.00000000</i>
   <i name="AGGAC">      1.00000000</i>
   <i type="int" name="NKREDX">     1</i>
   <i type="int" name="NKREDY">     1</i>
   <i type="int" name="NKREDZ">     1</i>
   <i type="logical" name="SHIFTRED"> F  </i>
   <i type="logical" name="ODDONLY"> F  </i>
   <i type="logical" name="EVENONLY"> F  </i>
   <i type="int" name="LMAXFOCK">     0</i>
   <i type="int" name="NMAXFOCKAE">     0</i>
   <i type="logical" name="LFOCKAEDFT"> F  </i>
   <i name="HFSCREEN">      0.00000000</i>
   <i name="HFSCREENC">      0.00000000</i>
   <i type="int" name="NBANDSGWLOW">     0</i>
  </separator>
  <separator name="vdW DFT" >
   <i type="logical" name="LUSE_VDW"> F  </i>
   <i name="Zab_VDW">     -0.84910000</i>
   <i name="PARAM1">      0.12340000</i>
   <i name="PARAM2">      1.00000000</i>
   <i name="PARAM3">      0.00000000</i>
  </separator>
  <separator name="model GW" >
   <i type="int" name="MODEL_GW">     0</i>
   <i name="MODEL_EPS0">     12.07639782</i>
   <i name="MODEL_ALPHA">      1.00000000</i>
  </separator>
  <separator name="linear response parameters" >
   <i type="logical" name="LEPSILON"> F  </i>
   <i type="logical" name="LRPA"> F  </i>
   <i type="logical" name="LNABLA"> F  </i>
   <i type="logical" name="LVEL"> F  </i>
   <i name="CSHIFT">      0.10000000</i>
   <i name="OMEGAMAX">     -1.00000000</i>
   <i name="DEG_THRESHOLD">      0.00200000</i>
   <i name="RTIME">     -0.10000000</i>
   <i name="WPLASMAI">      0.00000000</i>
   <v name="DFIELD">      0.00000000      0.00000000      0.00000000</v>
   <v name="WPLASMA">      0.00000000      0.00000000      0.00000000      0.00000000      0.00000000      0.00000000      0.00000000      0.00000000      0.00000000</v>
  </separator>
  <separator name="orbital magnetization" >
   <i type="logical" name="NUCIND"> F  </i>
   <v name="MAGPOS">      0.00000000      0.00000000      0.00000000</v>
   <i type="logical" name="LNICSALL"> T  </i>
   <i type="logical" name="ORBITALMAG"> F  </i>
   <i type="logical" name="LMAGBLOCH"> F  </i>
   <i type="logical" name="LCHIMAG"> F  </i>
   <i type="logical" name="LGAUGE"> T  </i>
   <i type="int" name="MAGATOM">     0</i>
   <v name="MAGDIPOL">      0.00000000      0.00000000      0.00000000</v>
   <v name="AVECCONST">      0.00000000      0.00000000      0.00000000</v>
  </separator>
  <separator name="response functions" >
   <i type="logical" name="LFINITE_TEMPERATURE"> F  </i>
   <i type="logical" name="LADDER"> F  </i>
   <i type="logical" name="LRPAFORCE"> F  </i>
   <i type="logical" name="LFXC"> F  </i>
   <i type="logical" name="LHARTREE"> T  </i>
   <i type="int" name="IBSE">     0</i>
   <v type="int" name="KPOINT">    -1     0     0     0</v>
   <i type="logical" name="LTCTC"> F  </i>
   <i type="logical" name="LTCTE"> F  </i>
   <i type="logical" name="LTETE"> F  </i>
   <i type="logical" name="LTRIPLET"> F  </i>
   <i type="logical" name="LFXCEPS"> F  </i>
   <i type="logical" name="LFXHEG"> F  </i>
   <i type="int" name="NATURALO">     2</i>
   <i type="logical" name="LHOLEGF"> F  </i>
   <i type="logical" name="L2ORDER"> F  </i>
   <i type="logical" name="LDMP1"> F  </i>
   <i type="logical" name="LMP2LT"> F  </i>
   <i type="logical" name="LSMP2LT"> F  </i>
   <i type="logical" name="LGWLF"> F  </i>
   <i name="ENCUTGW">     -2.00000000</i>
   <i name="ENCUTGWSOFT">     -2.00000000</i>
   <i name="ENCUTLF">     -1.00000000</i>
   <i type="logical" name="LESF_SPLINES"> F  </i>
   <i type="int" name="LMAXMP2">    -1</i>
   <i name="SCISSOR">      0.00000000</i>
   <i type="int" name="NOMEGA">     0</i>
   <i type="int" name="NOMEGAR">     0</i>
   <i type="int" name="NBANDSGW">    -1</i>
   <i type="int" name="NBANDSO">    -1</i>
   <i type="int" name="NBANDSV">    -1</i>
   <i type="int" name="NELMGW">     1</i>
   <i type="int" name="NELMHF">     1</i>
   <i type="int" name="DIM">     3</i>
   <i type="int" name="IESPILON">     4</i>
   <i type="int" name="ANTIRES">     0</i>
   <i name="OMEGAMAX">    -30.00000000</i>
   <i name="OMEGAMIN">    -30.00000000</i>
   <i name="OMEGATL">   -200.00000000</i>
   <i type="int" name="OMEGAGRID">     0</i>
   <i name="CSHIFT">     -0.10000000</i>
   <i type="logical" name="LSELFENERGY"> F  </i>
   <i type="logical" name="LSPECTRAL"> F  </i>
   <i type="logical" name="LSPECTRALGW"> F  </i>
   <i type="logical" name="LSINGLES"> F  </i>
   <i type="logical" name="LFERMIGW"> F  </i>
   <i type="logical" name="ODDONLYGW"> F  </i>
   <i type="logical" name="EVENONLYGW"> F  </i>
   <i type="int" name="NKREDLFX">     1</i>
   <i type="int" name="NKREDLFY">     1</i>
   <i type="int" name="NKREDLFZ">     1</i>
   <i type="int" name="MAXMEM">  2800</i>
   <i type="int" name="TELESCOPE">     0</i>
   <i type="int" name="NTAUPAR">    -1</i>
   <i type="int" name="NOMEGAPAR">    -1</i>
   <i name="DAMP_NEWTON">      0.80000001</i>
   <i name="LAMBDA">      1.00000000</i>
  </separator>
  <separator name="External order field" >
   <i name="OFIELD_KAPPA">      0.00000000</i>
   <v name="OFIELD_K">      0.00000000      0.00000000      0.00000000</v>
   <i name="OFIELD_Q6_NEAR">      0.00000000</i>
   <i name="OFIELD_Q6_FAR">      0.00000000</i>
   <i name="OFIELD_A">      0.00000000</i>
  </separator>
  <separator name="optional k-points parameters" >
   <i type="int" name="KPOINTS_OPT_MODE">     1</i>
   <i type="logical" name="LKPOINTS_OPT"> F  </i>
  </separator>
  <separator name="solvation model" >
   <i type="logical" name="LSOL"> F  </i>
  </separator>
 </parameters>
 <atominfo>
  <atoms>      16 </atoms>
  <types>       2 </types>
  <array name="atoms" >
   <dimension dim="1">ion</dimension>
   <field type="string">element</field>
   <field type="int">atomtype</field>
   <set>
    <rc><c>B </c><c>   1</c></rc>
    <rc><c>B </c><c>   1</c></rc>
    <rc><c>B </c><c>   1</c></rc>
    <rc><c>B </c><c>   1</c></rc>
    <rc><c>B </c><c>   1</c></rc>
    <rc><c>B </c><c>   1</c></rc>
    <rc><c>B </c><c>   1</c></rc>
    <rc><c>B </c><c>   1</c></rc>
    <rc><c>C </c><c>   2</c></rc>
    <rc><c>C </c><c>   2</c></rc>
    <rc><c>C </c><c>   2</c></rc>
    <rc><c>C </c><c>   2</c></rc>
    <rc><c>C </c><c>   2</c></rc>
    <rc><c>C </c><c>   2</c></rc>
    <rc><c>C </c><c>   2</c></rc>
    <rc><c>C </c><c>   2</c></rc>
   </set>
  </array>
  <array name="atomtypes" >
   <dimension dim="1">type</dimension>
   <field type="int">atomspertype</field>
   <field type="string">element</field>
   <field>mass</field>
   <field>valence</field>
   <field type="string">pseudopotential</field>
   <set>
    <rc><c>   8</c><c>B </c><c>     10.81100000</c><c>      3.00000000</c><c>  PAW_PBE B 06Sep2000                   </c></rc>
    <rc><c>   8</c><c>C </c><c>     12.01100000</c><c>      4.00000000</c><c>  PAW_PBE C 08Apr2002                   </c></rc>
   </set>
  </array>
 </atominfo>
 <structure name="initialpos" >
  <crystal>
   <varray name="basis" >
    <v>       4.31194049       2.48950000       0.00000000 </v>
    <v>      -4.31194049       2.48950000       0.00000000 </v>
    <v>       0.00000000       0.00000000      15.00000000 </v>
   </varray>
   <i name="volume">    322.03727516 </i>
   <varray name="rec_basis" >
    <v>       0.11595707       0.20084354       0.00000000 </v>
    <v>      -0.11595707       0.20084354       0.00000000 </v>
    <v>       0.00000000       0.00000000       0.06666667 </v>
   </varray>
  </crystal>
  <varray name="positions" >
   <v>       0.66888689       0.00000000       0.10000000 </v>
   <v>       0.33111211       0.00000000       0.10000000 </v>
   <v>       0.00000000       0.33111211       0.10000000 </v>
   <v>       0.00000000       0.66888689       0.10000000 </v>
   <v>       0.33111211       0.33111211       0.10000000 </v>
   <v>       0.66888689       0.66888689       0.10000000 </v>
   <v>       0.66666600       0.33333300       0.09922189 </v>
   <v>       0.33333300       0.66666600       0.10077811 </v>
   <v>       0.16666600       0.33333300       0.33600000 </v>
   <v>       0.33333300       0.16666600       0.33600000 </v>
   <v>       0.16666600       0.83333300       0.33600000 </v>
   <v>       0.33333300       0.66666600       0.33600000 </v>
   <v>       0.66666600       0.33333300       0.33600000 </v>
   <v>       0.83333300       0.16666600       0.33600000 </v>
   <v>       0.66666600       0.83333300       0.33600000 </v>
   <v>       0.83333300       0.66666600       0.33600000 </v>
  </varray>
 </structure>
 <calculation>
  <scstep>
   <time name="dav">    1.17    1.19</time>
   <time name="total">    1.20    1.22</time>
   <energy>
    <i name="alphaZ">     60.47074313 </i>
    <i name="ewald">   4427.05565022 </i>
    <i name="hartreedc">  -5839.58436042 </i>
    <i name="XCdc">    161.36173806 </i>
    <i name="pawpsdc">   1216.17529508 </i>
    <i name="pawaedc">  -1213.88798198 </i>
    <i name="eentropy">     -0.02168233 </i>
    <i name="bandstr">   -308.31893391 </i>
    <i name="atom">   1746.50554237 </i>
    <i name="e_fr_energy">    249.75601023 </i>
    <i name="e_wo_entrp">    249.77769256 </i>
    <i name="e_0_energy">    249.76685140 </i>
   </energy>
  </scstep>
  <scstep>
   <time name="dav">    1.37    1.38</time>
   <time name="total">    1.37    1.38</time>
   <energy>
    <i name="e_fr_energy">   -110.26937132 </i>
    <i name="e_wo_entrp">   -110.26331078 </i>
    <i name="e_0_energy">   -110.26634105 </i>
   </energy>
  </scstep>
  <scstep>
   <time name="dav">    1.55    1.57</time>
   <time name="total">    1.55    1.57</time>
   <energy>
    <i name="e_fr_energy">   -133.38027268 </i>
    <i name="e_wo_entrp">   -133.37559407 </i>
    <i name="e_0_energy">   -133.37793337 </i>
   </energy>
  </scstep>
  <scstep>
   <time name="dav">    1.52    1.53</time>
   <time name="total">    1.52    1.53</time>
   <energy>
    <i name="e_fr_energy">   -133.73116537 </i>
    <i name="e_wo_entrp">   -133.72648485 </i>
    <i name="e_0_energy">   -133.72882511 </i>
   </energy>
  </scstep>
  <scstep>
   <time name="dav">    1.51    1.52</time>
   <time name="total">    1.58    1.59</time>
   <energy>
    <i name="e_fr_energy">   -133.74420656 </i>
    <i name="e_wo_entrp">   -133.73952604 </i>
    <i name="e_0_energy">   -133.74186630 </i>
   </energy>
  </scstep>
  <scstep>
   <time name="dav">    1.50    1.51</time>
   <time name="total">    1.59    1.61</time>
   <energy>
    <i name="e_fr_energy">   -126.82845502 </i>
    <i name="e_wo_entrp">   -126.82083136 </i>
    <i name="e_0_energy">   -126.82464319 </i>
   </energy>
  </scstep>
  <scstep>
   <time name="dav">    1.58    1.58</time>
   <time name="total">    1.66    1.67</time>
   <energy>
    <i name="e_fr_energy">   -124.12724520 </i>
    <i name="e_wo_entrp">   -124.12074478 </i>
    <i name="e_0_energy">   -124.12399499 </i>
   </energy>
  </scstep>
  <scstep>
   <time name="dav">    1.46    1.47</time>
   <time name="total">    1.55    1.57</time>
   <energy>
    <i name="e_fr_energy">   -124.08865140 </i>
    <i name="e_wo_entrp">   -124.08320569 </i>
    <i name="e_0_energy">   -124.08592854 </i>
   </energy>
  </scstep>
  <scstep>
   <time name="dav">    1.40    1.41</time>
   <time name="total">    1.49    1.50</time>
   <energy>
    <i name="e_fr_energy">   -124.07797958 </i>
    <i name="e_wo_entrp">   -124.07249740 </i>
    <i name="e_0_energy">   -124.07523849 </i>
   </energy>
  </scstep>
  <scstep>
   <time name="dav">    1.48    1.49</time>
   <time name="total">    1.57    1.58</time>
   <energy>
    <i name="e_fr_energy">   -124.06309299 </i>
    <i name="e_wo_entrp">   -124.05766350 </i>
    <i name="e_0_energy">   -124.06037824 </i>
   </energy>
  </scstep>
  <scstep>
   <time name="dav">    1.37    1.38</time>
   <time name="total">    1.46    1.47</time>
   <energy>
    <i name="e_fr_energy">   -124.05862895 </i>
    <i name="e_wo_entrp">   -124.05322849 </i>
    <i name="e_0_energy">   -124.05592872 </i>
   </energy>
  </scstep>
  <scstep>
   <time name="dav">    1.21    1.22</time>
   <time name="total">    1.30    1.31</time>
   <energy>
    <i name="e_fr_energy">   -124.05909337 </i>
    <i name="e_wo_entrp">   -124.05369094 </i>
    <i name="e_0_energy">   -124.05639215 </i>
   </energy>
  </scstep>
  <scstep>
   <time name="dav">    1.34    1.35</time>
   <time name="total">    1.43    1.44</time>
   <energy>
    <i name="e_fr_energy">   -124.06136415 </i>
    <i name="e_wo_entrp">   -124.05594949 </i>
    <i name="e_0_energy">   -124.05865682 </i>
   </energy>
  </scstep>
  <scstep>
   <time name="dav">    1.34    1.35</time>
   <time name="total">    1.43    1.44</time>
   <energy>
    <i name="e_fr_energy">   -124.06435841 </i>
    <i name="e_wo_entrp">   -124.05895729 </i>
    <i name="e_0_energy">   -124.06165785 </i>
   </energy>
  </scstep>
  <scstep>
   <time name="dav">    1.29    1.30</time>
   <time name="total">    1.38    1.38</time>
   <energy>
    <i name="e_fr_energy">   -124.06478745 </i>
    <i name="e_wo_entrp">   -124.05938637 </i>
    <i name="e_0_energy">   -124.06208691 </i>
   </energy>
  </scstep>
  <scstep>
   <time name="dav">    1.29    1.30</time>
   <time name="total">    1.38    1.38</time>
   <energy>
    <i name="e_fr_energy">   -124.06503473 </i>
    <i name="e_wo_entrp">   -124.05963090 </i>
    <i name="e_0_energy">   -124.06233282 </i>
   </energy>
  </scstep>
  <scstep>
   <time name="dav">    1.29    1.30</time>
   <time name="total">    1.38    1.39</time>
   <energy>
    <i name="e_fr_energy">   -124.06506759 </i>
    <i name="e_wo_entrp">   -124.05966425 </i>
    <i name="e_0_energy">   -124.06236592 </i>
   </energy>
  </scstep>
  <scstep>
   <time name="dav">    1.09    1.09</time>
   <time name="total">    1.17    1.18</time>
   <energy>
    <i name="e_fr_energy">   -124.06507350 </i>
    <i name="e_wo_entrp">   -124.05967004 </i>
    <i name="e_0_energy">   -124.06237177 </i>
   </energy>
  </scstep>
  <scstep>
   <time name="dav">    1.04    1.04</time>
   <time name="total">    1.12    1.13</time>
   <energy>
    <i name="e_fr_energy">   -124.06507663 </i>
    <i name="e_wo_entrp">   -124.05967325 </i>
    <i name="e_0_energy">   -124.06237494 </i>
   </energy>
  </scstep>
  <scstep>
   <time name="dav">    1.19    1.20</time>
   <time name="total">    1.21    1.22</time>
   <energy>
    <i name="alphaZ">     60.47074313 </i>
    <i name="ewald">   4427.05565022 </i>
    <i name="hartreedc">  -6035.48849051 </i>
    <i name="XCdc">    168.50721158 </i>
    <i name="pawpsdc">   5807.16479565 </i>
    <i name="pawaedc">  -5806.54160104 </i>
    <i name="eentropy">     -0.00540338 </i>
    <i name="bandstr">   -491.73352521 </i>
    <i name="atom">   1746.50554237 </i>
    <i name="e_fr_energy">   -124.06507719 </i>
    <i name="e_wo_entrp">   -124.05967382 </i>
    <i name="e_0_energy">   -124.06237551 </i>
   </energy>
  </scstep>
  <structure>
   <crystal>
    <varray name="basis" >
     <v>       4.31194049       2.48950000       0.00000000 </v>
     <v>      -4.31194049       2.48950000       0.00000000 </v>
     <v>       0.00000000       0.00000000      15.00000000 </v>
    </varray>
    <i name="volume">    322.03727516 </i>
    <varray name="rec_basis" >
     <v>       0.11595707       0.20084354       0.00000000 </v>
     <v>      -0.11595707       0.20084354       0.00000000 </v>
     <v>       0.00000000       0.00000000       0.06666667 </v>
    </varray>
   </crystal>
   <varray name="positions" >
    <v>       0.66888689       0.00000000       0.10000000 </v>
    <v>       0.33111211       0.00000000       0.10000000 </v>
    <v>       0.00000000       0.33111211       0.10000000 </v>
    <v>       0.00000000       0.66888689       0.10000000 </v>
    <v>       0.33111211       0.33111211       0.10000000 </v>
    <v>       0.66888689       0.66888689       0.10000000 </v>
    <v>       0.66666600       0.33333300       0.09922189 </v>
    <v>       0.33333300       0.66666600       0.10077811 </v>
    <v>       0.16666600       0.33333300       0.33600000 </v>
    <v>       0.33333300       0.16666600       0.33600000 </v>
    <v>       0.16666600       0.83333300       0.33600000 </v>
    <v>       0.33333300       0.66666600       0.33600000 </v>
    <v>       0.66666600       0.33333300       0.33600000 </v>
    <v>       0.83333300       0.16666600       0.33600000 </v>
    <v>       0.66666600       0.83333300       0.33600000 </v>
    <v>       0.83333300       0.66666600       0.33600000 </v>
   </varray>
  </structure>
  <varray name="forces" >
   <v>       0.11754087       0.06808509       0.00398165 </v>
   <v>      -0.11773385      -0.06775084       0.00398165 </v>
   <v>       0.11754087      -0.06808509       0.00398165 </v>
   <v>      -0.11773385       0.06775084       0.00398165 </v>
   <v>       0.00019298      -0.13583592       0.00398165 </v>
   <v>       0.00019298       0.13583592       0.00398165 </v>
   <v>      -0.00000000       0.00000000      -0.00340827 </v>
   <v>      -0.00000000      -0.00000000       0.00307385 </v>
   <v>       0.00125211      -0.00216871      -0.00405544 </v>
   <v>      -0.00108513      -0.00187949      -0.00545898 </v>
   <v>      -0.00250421      -0.00000000      -0.00405544 </v>
   <v>      -0.00000000      -0.00000000       0.00304530 </v>
   <v>      -0.00000000       0.00000000       0.00194245 </v>
   <v>       0.00217025       0.00000000      -0.00545898 </v>
   <v>       0.00125211       0.00216871      -0.00405544 </v>
   <v>      -0.00108513       0.00187949      -0.00545898 </v>
  </varray>
  <varray name="stress" >
   <v>       1.17107752       0.00000000       0.00000000 </v>
   <v>       0.00000000       1.17107752      -0.00000000 </v>
   <v>       0.00000000       0.00000000      -2.00317041 </v>
  </varray>
  <energy>
   <i name="e_fr_energy">   -125.91800335 </i>
   <i name="e_wo_entrp">   -125.91259997 </i>
   <i name="e_0_energy">   -125.91530166 </i>
  </energy>
  <time name="totalsc">   29.75   29.98</time>
 </calculation>
 <calculation>
  <scstep>
   <time name="dav">    1.15    1.16</time>
   <time name="total">    1.24    1.25</time>
   <energy>
    <i name="alphaZ">     60.47074313 </i>
    <i name="ewald">   4426.24455171 </i>
    <i name="hartreedc">  -6035.23078785 </i>
    <i name="XCdc">    168.47991672 </i>
    <i name="pawpsdc">   5807.15976104 </i>
    <i name="pawaedc">  -5806.53657327 </i>
    <i name="eentropy">     -0.00488971 </i>
    <i name="bandstr">   -491.15549165 </i>
    <i name="atom">   1746.50554237 </i>
    <i name="e_fr_energy">   -124.06722751 </i>
    <i name="e_wo_entrp">   -124.06233780 </i>
    <i name="e_0_energy">   -124.06478266 </i>
   </energy>
  </scstep>
  <scstep>
   <time name="dav">    1.36    1.37</time>
   <time name="total">    1.46    1.46</time>
   <energy>
    <i name="e_fr_energy">   -124.06543945 </i>
    <i name="e_wo_entrp">   -124.06054233 </i>
    <i name="e_0_energy">   -124.06299089 </i>
   </energy>
  </scstep>
  <scstep>
   <time name="dav">    1.38    1.39</time>
   <time name="total">    1.46    1.48</time>
   <energy>
    <i name="e_fr_energy">   -124.06511367 </i>
    <i name="e_wo_entrp">   -124.06020316 </i>
    <i name="e_0_energy">   -124.06265842 </i>
   </energy>
  </scstep>
  <scstep>
   <time name="dav">    1.48    1.49</time>
   <time name="total">    1.57    1.57</time>
   <energy>
    <i name="e_fr_energy">   -124.06510315 </i>
    <i name="e_wo_entrp">   -124.06017695 </i>
    <i name="e_0_energy">   -124.06264005 </i>
   </energy>
  </scstep>
  <scstep>
   <time name="dav">    1.33    1.34</time>
   <time name="total">    1.43    1.43</time>
   <energy>
    <i name="e_fr_energy">   -124.06510248 </i>
    <i name="e_wo_entrp">   -124.06017594 </i>
    <i name="e_0_energy">   -124.06263921 </i>
   </energy>
  </scstep>
  <scstep>
   <time name="dav">    1.25    1.26</time>
   <time name="total">    1.27    1.28</time>
   <energy>
    <i name="alphaZ">     60.47074313 </i>
    <i name="ewald">   4426.24455171 </i>
    <i name="hartreedc">  -6034.84371118 </i>
    <i name="XCdc">    168.47128107 </i>
    <i name="pawpsdc">   5794.09730638 </i>
    <i name="pawaedc">  -5793.47008900 </i>
    <i name="eentropy">     -0.00492506 </i>
    <i name="bandstr">   -491.53580190 </i>
    <i name="atom">   1746.50554237 </i>
    <i name="e_fr_energy">   -124.06510248 </i>
    <i name="e_wo_entrp">   -124.06017742 </i>
    <i name="e_0_energy">   -124.06263995 </i>
   </energy>
  </scstep>
  <structure>
   <crystal>
    <varray name="basis" >
     <v>       4.31194049       2.48950000       0.00000000 </v>
     <v>      -4.31194049       2.48950000       0.00000000 </v>
     <v>       0.00000000       0.00000000      15.00000000 </v>
    </varray>
    <i name="volume">    322.03727516 </i>
    <varray name="rec_basis" >
     <v>       0.11595707       0.20084354       0.00000000 </v>
     <v>      -0.11595707       0.20084354       0.00000000 </v>
     <v>       0.00000000       0.00000000       0.06666667 </v>
    </varray>
   </crystal>
   <varray name="positions" >
    <v>       0.67020411       0.00000216       0.10001281 </v>
    <v>       0.32979705       0.00000216       0.10001281 </v>
    <v>      -0.00000216       0.32979489       0.10001281 </v>
    <v>      -0.00000216       0.67020195       0.10001281 </v>
    <v>       0.32979705       0.32979489       0.10001281 </v>
    <v>       0.67020411       0.67020195       0.10001281 </v>
    <v>       0.66666600       0.33333300       0.09921093 </v>
    <v>       0.33333300       0.66666600       0.10078800 </v>
    <v>       0.16665199       0.33330498       0.33598696 </v>
    <v>       0.33330872       0.16665386       0.33598244 </v>
    <v>       0.16665199       0.83334701       0.33598696 </v>
    <v>       0.33333300       0.66666600       0.33600979 </v>
    <v>       0.66666600       0.33333300       0.33600625 </v>
    <v>       0.83334514       0.16665386       0.33598244 </v>
    <v>       0.66669402       0.83334701       0.33598696 </v>
    <v>       0.83334514       0.66669028       0.33598244 </v>
   </varray>
  </structure>
  <varray name="forces" >
   <v>      -0.10558659      -0.06133671       0.00317845 </v>
   <v>       0.10591244       0.06077232       0.00317845 </v>
   <v>      -0.10558659       0.06133671       0.00317845 </v>
   <v>       0.10591244      -0.06077232       0.00317845 </v>
   <v>      -0.00032585       0.12210903       0.00317845 </v>
   <v>      -0.00032585      -0.12210903       0.00317845 </v>
   <v>      -0.00000000       0.00000000      -0.00089851 </v>
   <v>      -0.00000000       0.00000000       0.00107933 </v>
   <v>      -0.00290085       0.00502442      -0.00249522 </v>
   <v>       0.00246309       0.00426619      -0.00236788 </v>
   <v>       0.00580170       0.00000000      -0.00249522 </v>
   <v>      -0.00000000       0.00000000      -0.00160807 </v>
   <v>      -0.00000000       0.00000000      -0.00305417 </v>
   <v>      -0.00492618       0.00000000      -0.00236788 </v>
   <v>      -0.00290085      -0.00502442      -0.00249522 </v>
   <v>       0.00246309      -0.00426619      -0.00236788 </v>
  </varray>
  <varray name="stress" >
   <v>       0.00243141       0.00000000       0.00000000 </v>
   <v>       0.00000000       0.00243141      -0.00000000 </v>
   <v>       0.00000000       0.00000000      -1.94365953 </v>
  </varray>
  <energy>
   <i name="e_fr_energy">   -125.91827901 </i>
   <i name="e_wo_entrp">   -125.91335395 </i>
   <i name="e_0_energy">   -125.91581648 </i>
  </energy>
  <time name="totalsc">    9.82    9.89</time>
 </calculation>
 <calculation>
  <scstep>
   <time name="dav">    1.15    1.17</time>
   <time name="total">    1.23    1.25</time>
   <energy>
    <i name="alphaZ">     60.47074313 </i>
    <i name="ewald">   4426.62048317 </i>
    <i name="hartreedc">  -6034.95268845 </i>
    <i name="XCdc">    168.48390237 </i>
    <i name="pawpsdc">   5794.00823097 </i>
    <i name="pawaedc">  -5793.38099478 </i>
    <i name="eentropy">     -0.00512798 </i>
    <i name="bandstr">   -491.81691457 </i>
    <i name="atom">   1746.50554237 </i>
    <i name="e_fr_energy">   -124.06682377 </i>
    <i name="e_wo_entrp">   -124.06169579 </i>
    <i name="e_0_energy">   -124.06425978 </i>
   </energy>
  </scstep>
  <scstep>
   <time name="dav">    1.45    1.45</time>
   <time name="total">    1.53    1.54</time>
   <energy>
    <i name="e_fr_energy">   -124.06642916 </i>
    <i name="e_wo_entrp">   -124.06127632 </i>
    <i name="e_0_energy">   -124.06385274 </i>
   </energy>
  </scstep>
  <scstep>
   <time name="dav">    1.26    1.27</time>
   <time name="total">    1.34    1.35</time>
   <energy>
    <i name="e_fr_energy">   -124.06635839 </i>
    <i name="e_wo_entrp">   -124.06120960 </i>
    <i name="e_0_energy">   -124.06378399 </i>
   </energy>
  </scstep>
  <scstep>
   <time name="dav">    1.36    1.36</time>
   <time name="total">    1.44    1.45</time>
   <energy>
    <i name="e_fr_energy">   -124.06635668 </i>
    <i name="e_wo_entrp">   -124.06121904 </i>
    <i name="e_0_energy">   -124.06378786 </i>
   </energy>
  </scstep>
  <scstep>
   <time name="dav">    1.28    1.29</time>
   <time name="total">    1.30    1.31</time>
   <energy>
    <i name="alphaZ">     60.47074313 </i>
    <i name="ewald">   4426.62048317 </i>
    <i name="hartreedc">  -6035.11397838 </i>
    <i name="XCdc">    168.48781428 </i>
    <i name="pawpsdc">   5800.05950789 </i>
    <i name="pawaedc">  -5799.43412746 </i>
    <i name="eentropy">     -0.00513782 </i>
    <i name="bandstr">   -491.65720415 </i>
    <i name="atom">   1746.50554237 </i>
    <i name="e_fr_energy">   -124.06635697 </i>
    <i name="e_wo_entrp">   -124.06121915 </i>
    <i name="e_0_energy">   -124.06378806 </i>
   </energy>
  </scstep>
  <structure>
   <crystal>
    <varray name="basis" >
     <v>       4.31194049       2.48950000       0.00000000 </v>
     <v>      -4.31194049       2.48950000       0.00000000 </v>
     <v>       0.00000000       0.00000000      15.00000000 </v>
    </varray>
    <i name="volume">    322.03727516 </i>
    <varray name="rec_basis" >
     <v>       0.11595707       0.20084354       0.00000000 </v>
     <v>      -0.11595707       0.20084354       0.00000000 </v>
     <v>       0.00000000       0.00000000       0.06666667 </v>
    </varray>
   </crystal>
   <varray name="positions" >
    <v>       0.66958165       0.00000114       0.10000675 </v>
    <v>       0.33041848       0.00000114       0.10000675 </v>
    <v>      -0.00000114       0.33041735       0.10000675 </v>
    <v>      -0.00000114       0.66958052       0.10000675 </v>
    <v>       0.33041848       0.33041735       0.10000675 </v>
    <v>       0.66958165       0.66958052       0.10000675 </v>
    <v>       0.66666600       0.33333300       0.09921611 </v>
    <v>       0.33333300       0.66666600       0.10078333 </v>
    <v>       0.16665861       0.33331822       0.33599312 </v>
    <v>       0.33332019       0.16665960       0.33599074 </v>
    <v>       0.16665861       0.83334039       0.33599312 </v>
    <v>       0.33333300       0.66666600       0.33600517 </v>
    <v>       0.66666600       0.33333300       0.33600330 </v>
    <v>       0.83333940       0.16665960       0.33599074 </v>
    <v>       0.66668078       0.83334039       0.33599312 </v>
    <v>       0.83333940       0.66667881       0.33599074 </v>
   </varray>
  </structure>
  <varray name="forces" >
   <v>       0.00069498       0.00031319       0.00353923 </v>
   <v>      -0.00061872      -0.00044528       0.00353923 </v>
   <v>       0.00069498      -0.00031319       0.00353923 </v>
   <v>      -0.00061872       0.00044528       0.00353923 </v>
   <v>      -0.00007626      -0.00075847       0.00353923 </v>
   <v>      -0.00007626       0.00075847       0.00353923 </v>
   <v>       0.00000000      -0.00000000      -0.00206309 </v>
   <v>       0.00000000      -0.00000000       0.00192481 </v>
   <v>      -0.00092133       0.00159580      -0.00321572 </v>
   <v>       0.00077277       0.00133847      -0.00381521 </v>
   <v>       0.00184267      -0.00000000      -0.00321572 </v>
   <v>      -0.00000000      -0.00000000       0.00064444 </v>
   <v>      -0.00000000      -0.00000000      -0.00064872 </v>
   <v>      -0.00154553      -0.00000000      -0.00381521 </v>
   <v>      -0.00092133      -0.00159580      -0.00321572 </v>
   <v>       0.00077277      -0.00133847      -0.00381521 </v>
  </varray>
  <varray name="stress" >
   <v>       0.52554212       0.00000000       0.00000000 </v>
   <v>       0.00000000       0.52554212       0.00000000 </v>
   <v>       0.00000000      -0.00000000      -1.95795854 </v>
  </varray>
  <energy>
   <i name="e_fr_energy">   -125.91941583 </i>
   <i name="e_wo_entrp">   -125.91427800 </i>
   <i name="e_0_energy">   -125.91684692 </i>
  </energy>
  <time name="totalsc">    8.25    8.31</time>
 </calculation>
 <calculation>
  <scstep>
   <time name="dav">    1.23    1.24</time>
   <time name="total">    1.32    1.33</time>
   <energy>
    <i name="alphaZ">     60.47074313 </i>
    <i name="ewald">   4426.61745405 </i>
    <i name="hartreedc">  -6035.11366245 </i>
    <i name="XCdc">    168.48766033 </i>
    <i name="pawpsdc">   5800.13635176 </i>
    <i name="pawaedc">  -5799.51097136 </i>
    <i name="eentropy">     -0.00513678 </i>
    <i name="bandstr">   -491.65433714 </i>
    <i name="atom">   1746.50554237 </i>
    <i name="e_fr_energy">   -124.06635609 </i>
    <i name="e_wo_entrp">   -124.06121931 </i>
    <i name="e_0_energy">   -124.06378770 </i>
   </energy>
  </scstep>
  <scstep>
   <time name="dav">    1.24    1.25</time>
   <time name="total">    1.26    1.27</time>
   <energy>
    <i name="alphaZ">     60.47074313 </i>
    <i name="ewald">   4426.61745405 </i>
    <i name="hartreedc">  -6035.11389921 </i>
    <i name="XCdc">    168.48765468 </i>
    <i name="pawpsdc">   5800.12412232 </i>
    <i name="pawaedc">  -5799.49873749 </i>
    <i name="eentropy">     -0.00513647 </i>
    <i name="bandstr">   -491.65409949 </i>
    <i name="atom">   1746.50554237 </i>
    <i name="e_fr_energy">   -124.06635610 </i>
    <i name="e_wo_entrp">   -124.06121964 </i>
    <i name="e_0_energy">   -124.06378787 </i>
   </energy>
  </scstep>
  <structure>
   <crystal>
    <varray name="basis" >
     <v>       4.31194049       2.48950000       0.00000000 </v>
     <v>      -4.31194049       2.48950000       0.00000000 </v>
     <v>       0.00000000       0.00000000      15.00000000 </v>
    </varray>
    <i name="volume">    322.03727516 </i>
    <varray name="rec_basis" >
     <v>       0.11595707       0.20084354       0.00000000 </v>
     <v>      -0.11595707       0.20084354       0.00000000 </v>
     <v>       0.00000000       0.00000000       0.06666667 </v>
    </varray>
   </crystal>
   <varray name="positions" >
    <v>       0.66958658       0.00000115       0.10000680 </v>
    <v>       0.33041356       0.00000115       0.10000680 </v>
    <v>      -0.00000115       0.33041242       0.10000680 </v>
    <v>      -0.00000115       0.66958544       0.10000680 </v>
    <v>       0.33041356       0.33041242       0.10000680 </v>
    <v>       0.66958658       0.66958544       0.10000680 </v>
    <v>       0.66666600       0.33333300       0.09921606 </v>
    <v>       0.33333300       0.66666600       0.10078336 </v>
    <v>       0.16665856       0.33331812       0.33599307 </v>
    <v>       0.33332010       0.16665955       0.33599067 </v>
    <v>       0.16665856       0.83334044       0.33599307 </v>
    <v>       0.33333300       0.66666600       0.33600520 </v>
    <v>       0.66666600       0.33333300       0.33600332 </v>
    <v>       0.83333945       0.16665955       0.33599067 </v>
    <v>       0.66668088       0.83334044       0.33599307 </v>
    <v>       0.83333945       0.66667890       0.33599067 </v>
   </varray>
  </structure>
  <varray name="forces" >
   <v>      -0.00073320      -0.00051571       0.00352887 </v>
   <v>       0.00081322       0.00037711       0.00352887 </v>
   <v>      -0.00073320       0.00051571       0.00352887 </v>
   <v>       0.00081322      -0.00037711       0.00352887 </v>
   <v>      -0.00008002       0.00089282       0.00352887 </v>
   <v>      -0.00008002      -0.00089282       0.00352887 </v>
   <v>       0.00000000      -0.00000000      -0.00206479 </v>
   <v>      -0.00000000       0.00000000       0.00189337 </v>
   <v>      -0.00093559       0.00162050      -0.00319672 </v>
   <v>       0.00078240       0.00135515      -0.00378874 </v>
   <v>       0.00187119       0.00000000      -0.00319672 </v>
   <v>       0.00000000      -0.00000000       0.00062171 </v>
   <v>       0.00000000       0.00000000      -0.00066716 </v>
   <v>      -0.00156479       0.00000000      -0.00378874 </v>
   <v>      -0.00093559      -0.00162050      -0.00319672 </v>
   <v>       0.00078240      -0.00135515      -0.00378874 </v>
  </varray>
  <varray name="stress" >
   <v>       0.52462141       0.00000000       0.00000000 </v>
   <v>       0.00000000       0.52462141       0.00000000 </v>
   <v>      -0.00000000       0.00000000      -1.95756161 </v>
  </varray>
  <energy>
   <i name="e_fr_energy">   -125.91941590 </i>
   <i name="e_wo_entrp">   -125.91427943 </i>
   <i name="e_0_energy">   -125.91684766 </i>
  </energy>
  <time name="totalsc">    3.98    4.01</time>
 </calculation>
 <calculation>
  <scstep>
   <time name="dav">    1.21    1.22</time>
   <time name="total">    1.30    1.31</time>
   <energy>
    <i name="alphaZ">     60.47074313 </i>
    <i name="ewald">   4426.61869795 </i>
    <i name="hartreedc">  -6035.11500880 </i>
    <i name="XCdc">    168.48770211 </i>
    <i name="pawpsdc">   5800.11582682 </i>
    <i name="pawaedc">  -5799.49043886 </i>
    <i name="eentropy">     -0.00513715 </i>
    <i name="bandstr">   -491.65428415 </i>
    <i name="atom">   1746.50554237 </i>
    <i name="e_fr_energy">   -124.06635658 </i>
    <i name="e_wo_entrp">   -124.06121943 </i>
    <i name="e_0_energy">   -124.06378800 </i>
   </energy>
  </scstep>
  <scstep>
   <time name="dav">    1.16    1.16</time>
   <time name="total">    1.18    1.18</time>
   <energy>
    <i name="alphaZ">     60.47074313 </i>
    <i name="ewald">   4426.61869795 </i>
    <i name="hartreedc">  -6035.11589163 </i>
    <i name="XCdc">    168.48771820 </i>
    <i name="pawpsdc">   5800.12245626 </i>
    <i name="pawaedc">  -5799.49707053 </i>
    <i name="eentropy">     -0.00513727 </i>
    <i name="bandstr">   -491.65341508 </i>
    <i name="atom">   1746.50554237 </i>
    <i name="e_fr_energy">   -124.06635660 </i>
    <i name="e_wo_entrp">   -124.06121933 </i>
    <i name="e_0_energy">   -124.06378796 </i>
   </energy>
  </scstep>
  <structure>
   <crystal>
    <varray name="basis" >
     <v>       4.31194049       2.48950000       0.00000000 </v>
     <v>      -4.31194049       2.48950000       0.00000000 </v>
     <v>       0.00000000       0.00000000      15.00000000 </v>
    </varray>
    <i name="volume">    322.03727516 </i>
    <varray name="rec_basis" >
     <v>       0.11595707       0.20084354       0.00000000 </v>
     <v>      -0.11595707       0.20084354       0.00000000 </v>
     <v>       0.00000000       0.00000000       0.06666667 </v>
    </varray>
   </crystal>
   <varray name="positions" >
    <v>       0.66958456       0.00000114       0.10000678 </v>
    <v>       0.33041558       0.00000114       0.10000678 </v>
    <v>      -0.00000114       0.33041444       0.10000678 </v>
    <v>      -0.00000114       0.66958342       0.10000678 </v>
    <v>       0.33041558       0.33041444       0.10000678 </v>
    <v>       0.66958456       0.66958342       0.10000678 </v>
    <v>       0.66666600       0.33333300       0.09921608 </v>
    <v>       0.33333300       0.66666600       0.10078335 </v>
    <v>       0.16665858       0.33331816       0.33599309 </v>
    <v>       0.33332014       0.16665957       0.33599070 </v>
    <v>       0.16665858       0.83334042       0.33599309 </v>
    <v>       0.33333300       0.66666600       0.33600519 </v>
    <v>       0.66666600       0.33333300       0.33600331 </v>
    <v>       0.83333943       0.16665957       0.33599070 </v>
    <v>       0.66668084       0.83334042       0.33599309 </v>
    <v>       0.83333943       0.66667886       0.33599070 </v>
   </varray>
  </structure>
  <varray name="forces" >
   <v>      -0.00060052      -0.00043848       0.00352764 </v>
   <v>       0.00068000       0.00030083       0.00352764 </v>
   <v>      -0.00060052       0.00043848       0.00352764 </v>
   <v>       0.00068000      -0.00030083       0.00352764 </v>
   <v>      -0.00007948       0.00073931       0.00352764 </v>
   <v>      -0.00007948      -0.00073931       0.00352764 </v>
   <v>       0.00000000       0.00000000      -0.00206507 </v>
   <v>       0.00000000       0.00000000       0.00189432 </v>
   <v>      -0.00093644       0.00162196      -0.00319746 </v>
   <v>       0.00078407       0.00135805      -0.00379153 </v>
   <v>       0.00187288       0.00000000      -0.00319746 </v>
   <v>       0.00000000       0.00000000       0.00062921 </v>
   <v>      -0.00000000      -0.00000000      -0.00065737 </v>
   <v>      -0.00156814       0.00000000      -0.00379153 </v>
   <v>      -0.00093644      -0.00162196      -0.00319746 </v>
   <v>       0.00078407      -0.00135805      -0.00379153 </v>
  </varray>
  <varray name="stress" >
   <v>       0.52619811       0.00000000      -0.00000000 </v>
   <v>       0.00000000       0.52619811       0.00000000 </v>
   <v>       0.00000000       0.00000000      -1.95539729 </v>
  </varray>
  <energy>
   <i name="e_fr_energy">   -125.91941600 </i>
   <i name="e_wo_entrp">   -125.91427874 </i>
   <i name="e_0_energy">   -125.91684737 </i>
  </energy>
  <time name="totalsc">    3.87    3.90</time>
 </calculation>
 <calculation>
  <scstep>
   <time name="dav">    1.02    1.03</time>
   <time name="total">    1.11    1.11</time>
   <energy>
    <i name="alphaZ">     60.47074313 </i>
    <i name="ewald">   4426.61959053 </i>
    <i name="hartreedc">  -6035.11705393 </i>
    <i name="XCdc">    168.48775929 </i>
    <i name="pawpsdc">   5800.12523275 </i>
    <i name="pawaedc">  -5799.49984871 </i>
    <i name="eentropy">     -0.00513781 </i>
    <i name="bandstr">   -491.65318451 </i>
    <i name="atom">   1746.50554237 </i>
    <i name="e_fr_energy">   -124.06635690 </i>
    <i name="e_wo_entrp">   -124.06121908 </i>
    <i name="e_0_energy">   -124.06378799 </i>
   </energy>
  </scstep>
  <scstep>
   <time name="dav">    1.31    1.32</time>
   <time name="total">    1.34    1.35</time>
   <energy>
    <i name="alphaZ">     60.47074313 </i>
    <i name="ewald">   4426.61959053 </i>
    <i name="hartreedc">  -6035.11763784 </i>
    <i name="XCdc">    168.48776894 </i>
    <i name="pawpsdc">   5800.13227724 </i>
    <i name="pawaedc">  -5799.50689542 </i>
    <i name="eentropy">     -0.00513782 </i>
    <i name="bandstr">   -491.65260802 </i>
    <i name="atom">   1746.50554237 </i>
    <i name="e_fr_energy">   -124.06635690 </i>
    <i name="e_wo_entrp">   -124.06121908 </i>
    <i name="e_0_energy">   -124.06378799 </i>
   </energy>
  </scstep>
  <structure>
   <crystal>
    <varray name="basis" >
     <v>       4.31194049       2.48950000       0.00000000 </v>
     <v>      -4.31194049       2.48950000       0.00000000 </v>
     <v>       0.00000000       0.00000000      15.00000000 </v>
    </varray>
    <i name="volume">    322.03727516 </i>
    <varray name="rec_basis" >
     <v>       0.11595707       0.20084354       0.00000000 </v>
     <v>      -0.11595707       0.20084354       0.00000000 </v>
     <v>       0.00000000       0.00000000       0.06666667 </v>
    </varray>
   </crystal>
   <varray name="positions" >
    <v>       0.66958311       0.00000114       0.10000677 </v>
    <v>       0.33041703       0.00000114       0.10000677 </v>
    <v>      -0.00000114       0.33041589       0.10000677 </v>
    <v>      -0.00000114       0.66958197       0.10000677 </v>
    <v>       0.33041703       0.33041589       0.10000677 </v>
    <v>       0.66958311       0.66958197       0.10000677 </v>
    <v>       0.66666600       0.33333300       0.09921609 </v>
    <v>       0.33333300       0.66666600       0.10078334 </v>
    <v>       0.16665860       0.33331819       0.33599311 </v>
    <v>       0.33332017       0.16665958       0.33599072 </v>
    <v>       0.16665860       0.83334040       0.33599311 </v>
    <v>       0.33333300       0.66666600       0.33600518 </v>
    <v>       0.66666600       0.33333300       0.33600330 </v>
    <v>       0.83333942       0.16665958       0.33599072 </v>
    <v>       0.66668081       0.83334040       0.33599311 </v>
    <v>       0.83333942       0.66667883       0.33599072 </v>
   </varray>
  </structure>
  <varray name="forces" >
   <v>      -0.00031416      -0.00027251       0.00352983 </v>
   <v>       0.00039308       0.00013581       0.00352983 </v>
   <v>      -0.00031416       0.00027251       0.00352983 </v>
   <v>       0.00039308      -0.00013581       0.00352983 </v>
   <v>      -0.00007893       0.00040832       0.00352983 </v>
   <v>      -0.00007893      -0.00040832       0.00352983 </v>
   <v>       0.00000000       0.00000000      -0.00206644 </v>
   <v>       0.00000000       0.00000000       0.00189962 </v>
   <v>      -0.00092935       0.00160968      -0.00320117 </v>
   <v>       0.00077785       0.00134728      -0.00379751 </v>
   <v>       0.00185870      -0.00000000      -0.00320117 </v>
   <v>       0.00000000       0.00000000       0.00063584 </v>
   <v>       0.00000000       0.00000000      -0.00065193 </v>
   <v>      -0.00155571       0.00000000      -0.00379751 </v>
   <v>      -0.00092935      -0.00160968      -0.00320117 </v>
   <v>       0.00077785      -0.00134728      -0.00379751 </v>
  </varray>
  <varray name="stress" >
   <v>       0.52751066       0.00000000       0.00000000 </v>
   <v>       0.00000000       0.52751066       0.00000000 </v>
   <v>      -0.00000000      -0.00000000      -1.95639851 </v>
  </varray>
  <energy>
   <i name="e_fr_energy">   -125.91941604 </i>
   <i name="e_wo_entrp">   -125.91427821 </i>
   <i name="e_0_energy">   -125.91684712 </i>
  </energy>
  <time name="totalsc">    3.86    3.89</time>
 </calculation>
 <calculation>
  <scstep>
   <time name="dav">    1.01    1.02</time>
   <time name="total">    1.10    1.10</time>
   <energy>
    <i name="alphaZ">     60.47074313 </i>
    <i name="ewald">   4426.61998144 </i>
    <i name="hartreedc">  -6035.11841256 </i>
    <i name="XCdc">    168.48778936 </i>
    <i name="pawpsdc">   5800.13754327 </i>
    <i name="pawaedc">  -5799.51216320 </i>
    <i name="eentropy">     -0.00513803 </i>
    <i name="bandstr">   -491.65224280 </i>
    <i name="atom">   1746.50554237 </i>
    <i name="e_fr_energy">   -124.06635703 </i>
    <i name="e_wo_entrp">   -124.06121900 </i>
    <i name="e_0_energy">   -124.06378801 </i>
   </energy>
  </scstep>
  <scstep>
   <time name="dav">    1.25    1.26</time>
   <time name="total">    1.28    1.28</time>
   <energy>
    <i name="alphaZ">     60.47074313 </i>
    <i name="ewald">   4426.61998144 </i>
    <i name="hartreedc">  -6035.11875477 </i>
    <i name="XCdc">    168.48779389 </i>
    <i name="pawpsdc">   5800.14125802 </i>
    <i name="pawaedc">  -5799.51587902 </i>
    <i name="eentropy">     -0.00513803 </i>
    <i name="bandstr">   -491.65190405 </i>
    <i name="atom">   1746.50554237 </i>
    <i name="e_fr_energy">   -124.06635703 </i>
    <i name="e_wo_entrp">   -124.06121900 </i>
    <i name="e_0_energy">   -124.06378802 </i>
   </energy>
  </scstep>
  <structure>
   <crystal>
    <varray name="basis" >
     <v>       4.31194049       2.48950000       0.00000000 </v>
     <v>      -4.31194049       2.48950000       0.00000000 </v>
     <v>       0.00000000       0.00000000      15.00000000 </v>
    </varray>
    <i name="volume">    322.03727516 </i>
    <varray name="rec_basis" >
     <v>       0.11595707       0.20084354       0.00000000 </v>
     <v>      -0.11595707       0.20084354       0.00000000 </v>
     <v>       0.00000000       0.00000000       0.06666667 </v>
    </varray>
   </crystal>
   <varray name="positions" >
    <v>       0.66958247       0.00000114       0.10000676 </v>
    <v>       0.33041767       0.00000114       0.10000676 </v>
    <v>      -0.00000114       0.33041653       0.10000676 </v>
    <v>      -0.00000114       0.66958133       0.10000676 </v>
    <v>       0.33041767       0.33041653       0.10000676 </v>
    <v>       0.66958247       0.66958133       0.10000676 </v>
    <v>       0.66666600       0.33333300       0.09921610 </v>
    <v>       0.33333300       0.66666600       0.10078333 </v>
    <v>       0.16665860       0.33331820       0.33599311 </v>
    <v>       0.33332018       0.16665959       0.33599073 </v>
    <v>       0.16665860       0.83334040       0.33599311 </v>
    <v>       0.33333300       0.66666600       0.33600517 </v>
    <v>       0.66666600       0.33333300       0.33600330 </v>
    <v>       0.83333941       0.16665959       0.33599073 </v>
    <v>       0.66668080       0.83334040       0.33599311 </v>
    <v>       0.83333941       0.66667882       0.33599073 </v>
   </varray>
  </structure>
  <varray name="forces" >
   <v>      -0.00019055      -0.00020084       0.00352971 </v>
   <v>       0.00026921       0.00006460       0.00352971 </v>
   <v>      -0.00019055       0.00020084       0.00352971 </v>
   <v>       0.00026921      -0.00006460       0.00352971 </v>
   <v>      -0.00007866       0.00026544       0.00352971 </v>
   <v>      -0.00007866      -0.00026544       0.00352971 </v>
   <v>       0.00000000       0.00000000      -0.00206744 </v>
   <v>       0.00000000       0.00000000       0.00190068 </v>
   <v>      -0.00092795       0.00160726      -0.00320115 </v>
   <v>       0.00077659       0.00134509      -0.00379780 </v>
   <v>       0.00185590       0.00000000      -0.00320115 </v>
   <v>       0.00000000       0.00000000       0.00063613 </v>
   <v>       0.00000000       0.00000000      -0.00065079 </v>
   <v>      -0.00155317       0.00000000      -0.00379780 </v>
   <v>      -0.00092795      -0.00160726      -0.00320115 </v>
   <v>       0.00077659      -0.00134509      -0.00379780 </v>
  </varray>
  <varray name="stress" >
   <v>       0.52815413       0.00000000       0.00000000 </v>
   <v>       0.00000000       0.52815413       0.00000000 </v>
   <v>      -0.00000000       0.00000000      -1.95730973 </v>
  </varray>
  <energy>
   <i name="e_fr_energy">   -125.91941604 </i>
   <i name="e_wo_entrp">   -125.91427801 </i>
   <i name="e_0_energy">   -125.91684703 </i>
  </energy>
  <time name="totalsc">    3.77    3.80</time>
 </calculation>
 <calculation>
  <scstep>
   <time name="dav">    1.00    1.00</time>
   <time name="total">    1.08    1.09</time>
   <energy>
    <i name="alphaZ">     60.47074313 </i>
    <i name="ewald">   4426.62010160 </i>
    <i name="hartreedc">  -6035.11923233 </i>
    <i name="XCdc">    168.48780210 </i>
    <i name="pawpsdc">   5800.14462147 </i>
    <i name="pawaedc">  -5799.51924335 </i>
    <i name="eentropy">     -0.00513809 </i>
    <i name="bandstr">   -491.65155397 </i>
    <i name="atom">   1746.50554237 </i>
    <i name="e_fr_energy">   -124.06635707 </i>
    <i name="e_wo_entrp">   -124.06121898 </i>
    <i name="e_0_energy">   -124.06378803 </i>
   </energy>
  </scstep>
  <scstep>
   <time name="dav">    1.12    1.13</time>
   <time name="total">    1.15    1.16</time>
   <energy>
    <i name="alphaZ">     60.47074313 </i>
    <i name="ewald">   4426.62010160 </i>
    <i name="hartreedc">  -6035.11942376 </i>
    <i name="XCdc">    168.48780393 </i>
    <i name="pawpsdc">   5800.14596415 </i>
    <i name="pawaedc">  -5799.52058635 </i>
    <i name="eentropy">     -0.00513809 </i>
    <i name="bandstr">   -491.65136406 </i>
    <i name="atom">   1746.50554237 </i>
    <i name="e_fr_energy">   -124.06635707 </i>
    <i name="e_wo_entrp">   -124.06121898 </i>
    <i name="e_0_energy">   -124.06378803 </i>
   </energy>
  </scstep>
  <structure>
   <crystal>
    <varray name="basis" >
     <v>       4.31194049       2.48950000       0.00000000 </v>
     <v>      -4.31194049       2.48950000       0.00000000 </v>
     <v>       0.00000000       0.00000000      15.00000000 </v>
    </varray>
    <i name="volume">    322.03727516 </i>
    <varray name="rec_basis" >
     <v>       0.11595707       0.20084354       0.00000000 </v>
     <v>      -0.11595707       0.20084354       0.00000000 </v>
     <v>       0.00000000       0.00000000       0.06666667 </v>
    </varray>
   </crystal>
   <varray name="positions" >
    <v>       0.66958228       0.00000114       0.10000676 </v>
    <v>       0.33041786       0.00000114       0.10000676 </v>
    <v>      -0.00000114       0.33041672       0.10000676 </v>
    <v>      -0.00000114       0.66958114       0.10000676 </v>
    <v>       0.33041786       0.33041672       0.10000676 </v>
    <v>       0.66958228       0.66958114       0.10000676 </v>
    <v>       0.66666600       0.33333300       0.09921610 </v>
    <v>       0.33333300       0.66666600       0.10078333 </v>
    <v>       0.16665860       0.33331821       0.33599311 </v>
    <v>       0.33332018       0.16665959       0.33599073 </v>
    <v>       0.16665860       0.83334040       0.33599311 </v>
    <v>       0.33333300       0.66666600       0.33600517 </v>
    <v>       0.66666600       0.33333300       0.33600330 </v>
    <v>       0.83333941       0.16665959       0.33599073 </v>
    <v>       0.66668079       0.83334040       0.33599311 </v>
    <v>       0.83333941       0.66667882       0.33599073 </v>
   </varray>
  </structure>
  <varray name="forces" >
   <v>      -0.00014860      -0.00017651       0.00352959 </v>
   <v>       0.00022716       0.00004044       0.00352959 </v>
   <v>      -0.00014860       0.00017651       0.00352959 </v>
   <v>       0.00022716      -0.00004044       0.00352959 </v>
   <v>      -0.00007856       0.00021695       0.00352959 </v>
   <v>      -0.00007856      -0.00021695       0.00352959 </v>
   <v>       0.00000000       0.00000000      -0.00206754 </v>
   <v>       0.00000000       0.00000000       0.00190119 </v>
   <v>      -0.00092764       0.00160672      -0.00320093 </v>
   <v>       0.00077627       0.00134453      -0.00379748 </v>
   <v>       0.00185529      -0.00000000      -0.00320093 </v>
   <v>      -0.00000000       0.00000000       0.00063521 </v>
   <v>       0.00000000       0.00000000      -0.00065118 </v>
   <v>      -0.00155253      -0.00000000      -0.00379748 </v>
   <v>      -0.00092764      -0.00160672      -0.00320093 </v>
   <v>       0.00077627      -0.00134453      -0.00379748 </v>
  </varray>
  <varray name="stress" >
   <v>       0.52838925       0.00000000       0.00000000 </v>
   <v>       0.00000000       0.52838925       0.00000000 </v>
   <v>      -0.00000000      -0.00000000      -1.95787925 </v>
  </varray>
  <energy>
   <i name="e_fr_energy">   -125.91941605 </i>
   <i name="e_wo_entrp">   -125.91427796 </i>
   <i name="e_0_energy">   -125.91684700 </i>
  </energy>
  <time name="totalsc">    3.63    3.66</time>
 </calculation>
 <calculation>
  <scstep>
   <time name="dav">    1.13    1.14</time>
   <time name="total">    1.22    1.23</time>
   <energy>
    <i name="alphaZ">     60.47074313 </i>
    <i name="ewald">   4427.01271344 </i>
    <i name="hartreedc">  -6035.51200447 </i>
    <i name="XCdc">    168.48799836 </i>
    <i name="pawpsdc">   5800.14755421 </i>
    <i name="pawaedc">  -5799.52217669 </i>
    <i name="eentropy">     -0.00513920 </i>
    <i name="bandstr">   -491.65151027 </i>
    <i name="atom">   1746.50554237 </i>
    <i name="e_fr_energy">   -124.06627913 </i>
    <i name="e_wo_entrp">   -124.06113993 </i>
    <i name="e_0_energy">   -124.06370953 </i>
   </energy>
  </scstep>
  <scstep>
   <time name="dav">    1.16    1.17</time>
   <time name="total">    1.19    1.19</time>
   <energy>
    <i name="alphaZ">     60.47074313 </i>
    <i name="ewald">   4427.01271344 </i>
    <i name="hartreedc">  -6035.51529013 </i>
    <i name="XCdc">    168.48788370 </i>
    <i name="pawpsdc">   5800.09371232 </i>
    <i name="pawaedc">  -5799.46832052 </i>
    <i name="eentropy">     -0.00513915 </i>
    <i name="bandstr">   -491.64812427 </i>
    <i name="atom">   1746.50554237 </i>
    <i name="e_fr_energy">   -124.06627912 </i>
    <i name="e_wo_entrp">   -124.06113997 </i>
    <i name="e_0_energy">   -124.06370954 </i>
   </energy>
  </scstep>
  <structure>
   <crystal>
    <varray name="basis" >
     <v>       4.31194049       2.48950000       0.00000000 </v>
     <v>      -4.31194049       2.48950000       0.00000000 </v>
     <v>       0.00000000       0.00000000      15.00000000 </v>
    </varray>
    <i name="volume">    322.03727516 </i>
    <varray name="rec_basis" >
     <v>       0.11595707       0.20084354       0.00000000 </v>
     <v>      -0.11595707       0.20084354       0.00000000 </v>
     <v>       0.00000000       0.00000000       0.06666667 </v>
    </varray>
   </crystal>
   <varray name="positions" >
    <v>       0.66958188       0.00000035       0.10001706 </v>
    <v>       0.33041747       0.00000035       0.10001706 </v>
    <v>      -0.00000035       0.33041712       0.10001706 </v>
    <v>      -0.00000035       0.66958153       0.10001706 </v>
    <v>       0.33041747       0.33041712       0.10001706 </v>
    <v>       0.66958188       0.66958153       0.10001706 </v>
    <v>       0.66666600       0.33333300       0.09921006 </v>
    <v>       0.33333300       0.66666600       0.10078888 </v>
    <v>       0.16666798       0.33333697       0.33598377 </v>
    <v>       0.33333588       0.16666744       0.33597965 </v>
    <v>       0.16666798       0.83333102       0.33598377 </v>
    <v>       0.33333300       0.66666600       0.33600703 </v>
    <v>       0.66666600       0.33333300       0.33600141 </v>
    <v>       0.83333156       0.16666744       0.33597965 </v>
    <v>       0.66666203       0.83333102       0.33598377 </v>
    <v>       0.83333156       0.66666312       0.33597965 </v>
   </varray>
  </structure>
  <varray name="forces" >
   <v>      -0.00028923      -0.00002660       0.00357841 </v>
   <v>       0.00016765       0.00023718       0.00357841 </v>
   <v>      -0.00028923       0.00002660       0.00357841 </v>
   <v>       0.00016765      -0.00023718       0.00357841 </v>
   <v>       0.00012158       0.00026378       0.00357841 </v>
   <v>       0.00012158      -0.00026378       0.00357841 </v>
   <v>       0.00000000      -0.00000000      -0.00171774 </v>
   <v>      -0.00000000      -0.00000000       0.00215938 </v>
   <v>       0.00197136      -0.00341449      -0.00278312 </v>
   <v>      -0.00163141      -0.00282569      -0.00298914 </v>
   <v>      -0.00394272       0.00000000      -0.00278312 </v>
   <v>       0.00000000      -0.00000000      -0.00192577 </v>
   <v>      -0.00000000       0.00000000      -0.00266956 </v>
   <v>       0.00326283      -0.00000000      -0.00298914 </v>
   <v>       0.00197136       0.00341449      -0.00278312 </v>
   <v>      -0.00163141       0.00282569      -0.00298914 </v>
  </varray>
  <varray name="stress" >
   <v>       0.52732585       0.00000000      -0.00000000 </v>
   <v>       0.00000000       0.52732585       0.00000000 </v>
   <v>      -0.00000000       0.00000000      -1.95242248 </v>
  </varray>
  <energy>
   <i name="e_fr_energy">   -125.91942211 </i>
   <i name="e_wo_entrp">   -125.91428296 </i>
   <i name="e_0_energy">   -125.91685253 </i>
  </energy>
  <time name="totalsc">    3.80    3.85</time>
 </calculation>
 <calculation>
  <scstep>
   <time name="dav">    1.13    1.14</time>
   <time name="total">    1.22    1.22</time>
   <energy>
    <i name="alphaZ">     60.47074313 </i>
    <i name="ewald">   4427.64070666 </i>
    <i name="hartreedc">  -6036.14444859 </i>
    <i name="XCdc">    168.48819610 </i>
    <i name="pawpsdc">   5800.09663226 </i>
    <i name="pawaedc">  -5799.47124731 </i>
    <i name="eentropy">     -0.00514095 </i>
    <i name="bandstr">   -491.64713136 </i>
    <i name="atom">   1746.50554237 </i>
    <i name="e_fr_energy">   -124.06614770 </i>
    <i name="e_wo_entrp">   -124.06100675 </i>
    <i name="e_0_energy">   -124.06357723 </i>
   </energy>
  </scstep>
  <scstep>
   <time name="dav">    1.23    1.24</time>
   <time name="total">    1.31    1.32</time>
   <energy>
    <i name="e_fr_energy">   -124.06614766 </i>
    <i name="e_wo_entrp">   -124.06100679 </i>
    <i name="e_0_energy">   -124.06357723 </i>
   </energy>
  </scstep>
  <scstep>
   <time name="dav">    1.35    1.36</time>
   <time name="total">    1.37    1.38</time>
   <energy>
    <i name="alphaZ">     60.47074313 </i>
    <i name="ewald">   4427.64070666 </i>
    <i name="hartreedc">  -6036.15082731 </i>
    <i name="XCdc">    168.48805582 </i>
    <i name="pawpsdc">   5800.05383985 </i>
    <i name="pawaedc">  -5799.42845083 </i>
    <i name="eentropy">     -0.00514086 </i>
    <i name="bandstr">   -491.64061634 </i>
    <i name="atom">   1746.50554237 </i>
    <i name="e_fr_energy">   -124.06614751 </i>
    <i name="e_wo_entrp">   -124.06100665 </i>
    <i name="e_0_energy">   -124.06357708 </i>
   </energy>
  </scstep>
  <structure>
   <crystal>
    <varray name="basis" >
     <v>       4.31194049       2.48950000       0.00000000 </v>
     <v>      -4.31194049       2.48950000       0.00000000 </v>
     <v>       0.00000000       0.00000000      15.00000000 </v>
    </varray>
    <i name="volume">    322.03727516 </i>
    <varray name="rec_basis" >
     <v>       0.11595707       0.20084354       0.00000000 </v>
     <v>      -0.11595707       0.20084354       0.00000000 </v>
     <v>       0.00000000       0.00000000       0.06666667 </v>
    </varray>
   </crystal>
   <varray name="positions" >
    <v>       0.66958124      -0.00000092       0.10003353 </v>
    <v>       0.33041683      -0.00000092       0.10003353 </v>
    <v>       0.00000092       0.33041776       0.10003353 </v>
    <v>       0.00000092       0.66958217       0.10003353 </v>
    <v>       0.33041683       0.33041776       0.10003353 </v>
    <v>       0.66958124       0.66958217       0.10003353 </v>
    <v>       0.66666600       0.33333300       0.09920041 </v>
    <v>       0.33333300       0.66666600       0.10079776 </v>
    <v>       0.16668298       0.33336697       0.33596883 </v>
    <v>       0.33336098       0.16667999       0.33596191 </v>
    <v>       0.16668298       0.83331602       0.33596883 </v>
    <v>       0.33333300       0.66666600       0.33601002 </v>
    <v>       0.66666600       0.33333300       0.33599839 </v>
    <v>       0.83331901       0.16667999       0.33596191 </v>
    <v>       0.66663203       0.83331602       0.33596883 </v>
    <v>       0.83331901       0.66663802       0.33596191 </v>
   </varray>
  </structure>
  <varray name="forces" >
   <v>      -0.00055826       0.00028275       0.00305423 </v>
   <v>       0.00003426       0.00062484       0.00305423 </v>
   <v>      -0.00055826      -0.00028275       0.00305423 </v>
   <v>       0.00003426      -0.00062484       0.00305423 </v>
   <v>       0.00052400       0.00034209       0.00305423 </v>
   <v>       0.00052400      -0.00034209       0.00305423 </v>
   <v>       0.00000000       0.00000000      -0.00179988 </v>
   <v>      -0.00000000       0.00000000       0.00220627 </v>
   <v>       0.00708909      -0.01227867      -0.00162947 </v>
   <v>      -0.00592706      -0.01026598      -0.00122194 </v>
   <v>      -0.01417819       0.00000000      -0.00162947 </v>
   <v>       0.00000000       0.00000000      -0.00502893 </v>
   <v>      -0.00000000       0.00000000      -0.00514862 </v>
   <v>       0.01185413       0.00000000      -0.00122194 </v>
   <v>       0.00708909       0.01227867      -0.00162947 </v>
   <v>      -0.00592706       0.01026598      -0.00122194 </v>
  </varray>
  <varray name="stress" >
   <v>       0.52565053       0.00000000       0.00000000 </v>
   <v>       0.00000000       0.52565053       0.00000000 </v>
   <v>       0.00000000       0.00000000      -1.94837924 </v>
  </varray>
  <energy>
   <i name="e_fr_energy">   -125.91942487 </i>
   <i name="e_wo_entrp">   -125.91428400 </i>
   <i name="e_0_energy">   -125.91685444 </i>
  </energy>
  <time name="totalsc">    5.31    5.34</time>
 </calculation>
 <calculation>
  <scstep>
   <time name="dav">    1.20    1.21</time>
   <time name="total">    1.29    1.30</time>
   <energy>
    <i name="alphaZ">     60.47074313 </i>
    <i name="ewald">   4427.72013977 </i>
    <i name="hartreedc">  -6036.22793135 </i>
    <i name="XCdc">    168.48813605 </i>
    <i name="pawpsdc">   5800.08878104 </i>
    <i name="pawaedc">  -5799.46339678 </i>
    <i name="eentropy">     -0.00514114 </i>
    <i name="bandstr">   -491.64300488 </i>
    <i name="atom">   1746.50554237 </i>
    <i name="e_fr_energy">   -124.06613179 </i>
    <i name="e_wo_entrp">   -124.06099065 </i>
    <i name="e_0_energy">   -124.06356122 </i>
   </energy>
  </scstep>
  <scstep>
   <time name="dav">    1.26    1.27</time>
   <time name="total">    1.28    1.29</time>
   <energy>
    <i name="alphaZ">     60.47074313 </i>
    <i name="ewald">   4427.72013977 </i>
    <i name="hartreedc">  -6036.22753460 </i>
    <i name="XCdc">    168.48812487 </i>
    <i name="pawpsdc">   5800.10233805 </i>
    <i name="pawaedc">  -5799.47695474 </i>
    <i name="eentropy">     -0.00514113 </i>
    <i name="bandstr">   -491.64338950 </i>
    <i name="atom">   1746.50554237 </i>
    <i name="e_fr_energy">   -124.06613179 </i>
    <i name="e_wo_entrp">   -124.06099066 </i>
    <i name="e_0_energy">   -124.06356123 </i>
   </energy>
  </scstep>
  <structure>
   <crystal>
    <varray name="basis" >
     <v>       4.31194049       2.48950000       0.00000000 </v>
     <v>      -4.31194049       2.48950000       0.00000000 </v>
     <v>       0.00000000       0.00000000      15.00000000 </v>
    </varray>
    <i name="volume">    322.03727516 </i>
    <varray name="rec_basis" >
     <v>       0.11595707       0.20084354       0.00000000 </v>
     <v>      -0.11595707       0.20084354       0.00000000 </v>
     <v>       0.00000000       0.00000000       0.06666667 </v>
    </varray>
   </crystal>
   <varray name="positions" >
    <v>       0.66958116      -0.00000092       0.10003561 </v>
    <v>       0.33041691      -0.00000092       0.10003561 </v>
    <v>       0.00000092       0.33041784       0.10003561 </v>
    <v>       0.00000092       0.66958209       0.10003561 </v>
    <v>       0.33041691       0.33041784       0.10003561 </v>
    <v>       0.66958116       0.66958209       0.10003561 </v>
    <v>       0.66666600       0.33333300       0.09919919 </v>
    <v>       0.33333300       0.66666600       0.10079893 </v>
    <v>       0.16668276       0.33336653       0.33596704 </v>
    <v>       0.33336061       0.16667981       0.33595984 </v>
    <v>       0.16668276       0.83331624       0.33596704 </v>
    <v>       0.33333300       0.66666600       0.33600996 </v>
    <v>       0.66666600       0.33333300       0.33599766 </v>
    <v>       0.83331919       0.16667981       0.33595984 </v>
    <v>       0.66663247       0.83331624       0.33596704 </v>
    <v>       0.83331919       0.66663839       0.33595984 </v>
   </varray>
  </structure>
  <varray name="forces" >
   <v>      -0.00055447       0.00027787       0.00330933 </v>
   <v>       0.00003659       0.00061912       0.00330933 </v>
   <v>      -0.00055447      -0.00027787       0.00330933 </v>
   <v>       0.00003659      -0.00061912       0.00330933 </v>
   <v>       0.00051788       0.00034125       0.00330933 </v>
   <v>       0.00051788      -0.00034125       0.00330933 </v>
   <v>       0.00000000       0.00000000      -0.00153367 </v>
   <v>       0.00000000       0.00000000       0.00248851 </v>
   <v>       0.00681846      -0.01180992      -0.00180967 </v>
   <v>      -0.00569134      -0.00985769      -0.00136764 </v>
   <v>      -0.01363692       0.00000000      -0.00180967 </v>
   <v>       0.00000000       0.00000000      -0.00560099 </v>
   <v>       0.00000000       0.00000000      -0.00567792 </v>
   <v>       0.01138268       0.00000000      -0.00136764 </v>
   <v>       0.00681846       0.01180992      -0.00180967 </v>
   <v>      -0.00569134       0.00985769      -0.00136764 </v>
  </varray>
  <varray name="stress" >
   <v>       0.52607670       0.00000000       0.00000000 </v>
   <v>       0.00000000       0.52607670       0.00000000 </v>
   <v>       0.00000000      -0.00000000      -1.94915171 </v>
  </varray>
  <energy>
   <i name="e_fr_energy">   -125.91942608 </i>
   <i name="e_wo_entrp">   -125.91428495 </i>
   <i name="e_0_energy">   -125.91685552 </i>
  </energy>
  <time name="totalsc">    3.97    4.00</time>
 </calculation>
 <calculation>
  <scstep>
   <time name="dav">    1.15    1.16</time>
   <time name="total">    1.24    1.24</time>
   <energy>
    <i name="alphaZ">     60.47074313 </i>
    <i name="ewald">   4427.95843940 </i>
    <i name="hartreedc">  -6036.46406452 </i>
    <i name="XCdc">    168.48824376 </i>
    <i name="pawpsdc">   5800.12521924 </i>
    <i name="pawaedc">  -5799.49983889 </i>
    <i name="eentropy">     -0.00514194 </i>
    <i name="bandstr">   -491.64522690 </i>
    <i name="atom">   1746.50554237 </i>
    <i name="e_fr_energy">   -124.06608436 </i>
    <i name="e_wo_entrp">   -124.06094242 </i>
    <i name="e_0_energy">   -124.06351339 </i>
   </energy>
  </scstep>
  <scstep>
   <time name="dav">    1.17    1.17</time>
   <time name="total">    1.19    1.20</time>
   <energy>
    <i name="alphaZ">     60.47074313 </i>
[...]
   <v>      -0.00037898       0.00069927       0.00236414 </v>
   <v>      -0.00041609      -0.00067784       0.00236414 </v>
   <v>      -0.00037898      -0.00069927       0.00236414 </v>
   <v>       0.00079507       0.00002143       0.00236414 </v>
   <v>       0.00079507      -0.00002143       0.00236414 </v>
   <v>       0.00000000       0.00000000      -0.00017539 </v>
   <v>       0.00000000      -0.00000000       0.00424221 </v>
   <v>       0.00357026      -0.00618386       0.00197108 </v>
   <v>      -0.00298023      -0.00516191       0.00483419 </v>
   <v>      -0.00714051       0.00000000       0.00197108 </v>
   <v>       0.00000000       0.00000000      -0.02124713 </v>
   <v>       0.00000000      -0.00000000      -0.01742033 </v>
   <v>       0.00596046      -0.00000000       0.00483419 </v>
   <v>       0.00357026       0.00618386       0.00197108 </v>
   <v>      -0.00298023       0.00516191       0.00483419 </v>
  </varray>
  <varray name="stress" >
   <v>       0.52002993       0.00000000       0.00000000 </v>
   <v>       0.00000000       0.52002993       0.00000000 </v>
   <v>       0.00000000       0.00000000      -1.91874680 </v>
  </varray>
  <energy>
   <i name="e_fr_energy">   -125.91945587 </i>
   <i name="e_wo_entrp">   -125.91430398 </i>
   <i name="e_0_energy">   -125.91687992 </i>
  </energy>
  <time name="totalsc">    6.45    6.49</time>
 </calculation>
 <calculation>
  <scstep>
   <time name="dav">    1.14    1.15</time>
   <time name="total">    1.22    1.23</time>
   <energy>
    <i name="alphaZ">     60.47074313 </i>
    <i name="ewald">   4431.66764508 </i>
    <i name="hartreedc">  -6040.18475581 </i>
    <i name="XCdc">    168.48939487 </i>
    <i name="pawpsdc">   5800.13306425 </i>
    <i name="pawaedc">  -5799.50768659 </i>
    <i name="eentropy">     -0.00515339 </i>
    <i name="bandstr">   -491.63412565 </i>
    <i name="atom">   1746.50554237 </i>
    <i name="e_fr_energy">   -124.06533175 </i>
    <i name="e_wo_entrp">   -124.06017836 </i>
    <i name="e_0_energy">   -124.06275505 </i>
   </energy>
  </scstep>
  <scstep>
   <time name="dav">    1.14    1.15</time>
   <time name="total">    1.17    1.17</time>
   <energy>
    <i name="alphaZ">     60.47074313 </i>
    <i name="ewald">   4431.66764508 </i>
    <i name="hartreedc">  -6040.18542470 </i>
    <i name="XCdc">    168.48927154 </i>
    <i name="pawpsdc">   5800.08671492 </i>
    <i name="pawaedc">  -5799.46132455 </i>
    <i name="eentropy">     -0.00515318 </i>
    <i name="bandstr">   -491.63334648 </i>
    <i name="atom">   1746.50554237 </i>
    <i name="e_fr_energy">   -124.06533188 </i>
    <i name="e_wo_entrp">   -124.06017870 </i>
    <i name="e_0_energy">   -124.06275529 </i>
   </energy>
  </scstep>
  <structure>
   <crystal>
    <varray name="basis" >
     <v>       4.31194049       2.48950000       0.00000000 </v>
     <v>      -4.31194049       2.48950000       0.00000000 </v>
     <v>       0.00000000       0.00000000      15.00000000 </v>
    </varray>
    <i name="volume">    322.03727516 </i>
    <varray name="rec_basis" >
     <v>       0.11595707       0.20084354       0.00000000 </v>
     <v>      -0.11595707       0.20084354       0.00000000 </v>
     <v>       0.00000000       0.00000000       0.06666667 </v>
    </varray>
   </crystal>
   <varray name="positions" >
    <v>       0.66957829       0.00000113       0.10013826 </v>
    <v>       0.33042184       0.00000113       0.10013826 </v>
    <v>      -0.00000113       0.33042071       0.10013826 </v>
    <v>      -0.00000113       0.66957716       0.10013826 </v>
    <v>       0.33042184       0.33042071       0.10013826 </v>
    <v>       0.66957829       0.66957716       0.10013826 </v>
    <v>       0.66666600       0.33333300       0.09913990 </v>
    <v>       0.33333300       0.66666600       0.10085864 </v>
    <v>       0.16666251       0.33332601       0.33588135 </v>
    <v>       0.33332687       0.16666294       0.33586273 </v>
    <v>       0.16666251       0.83333649       0.33588135 </v>
    <v>       0.33333300       0.66666600       0.33599101 </v>
    <v>       0.66666600       0.33333300       0.33594863 </v>
    <v>       0.83333606       0.16666294       0.33586273 </v>
    <v>       0.66667299       0.83333649       0.33588135 </v>
    <v>       0.83333606       0.66667213       0.33586273 </v>
   </varray>
  </structure>
  <varray name="forces" >
   <v>      -0.00017606       0.00030117       0.00243144 </v>
   <v>      -0.00017279       0.00030306       0.00243144 </v>
   <v>      -0.00017606      -0.00030117       0.00243144 </v>
   <v>      -0.00017279      -0.00030306       0.00243144 </v>
   <v>       0.00034885       0.00000189       0.00243144 </v>
   <v>       0.00034885      -0.00000189       0.00243144 </v>
   <v>       0.00000000      -0.00000000       0.00012176 </v>
   <v>      -0.00000000      -0.00000000       0.00444069 </v>
   <v>       0.00032126      -0.00055644       0.00127208 </v>
   <v>      -0.00027695      -0.00047970       0.00366163 </v>
   <v>      -0.00064252      -0.00000000       0.00127208 </v>
   <v>       0.00000000      -0.00000000      -0.01897127 </v>
   <v>      -0.00000000      -0.00000000      -0.01498096 </v>
   <v>       0.00055391       0.00000000       0.00366163 </v>
   <v>       0.00032126       0.00055644       0.00127208 </v>
   <v>      -0.00027695       0.00047970       0.00366163 </v>
  </varray>
  <varray name="stress" >
   <v>       0.51909831       0.00000000      -0.00000000 </v>
   <v>       0.00000000       0.51909831       0.00000000 </v>
   <v>       0.00000000       0.00000000      -1.91117423 </v>
  </varray>
  <energy>
   <i name="e_fr_energy">   -125.91946800 </i>
   <i name="e_wo_entrp">   -125.91431482 </i>
   <i name="e_0_energy">   -125.91689141 </i>
  </energy>
  <time name="totalsc">    3.78    3.81</time>
 </calculation>
 <calculation>
  <scstep>
   <time name="dav">    1.15    1.15</time>
   <time name="total">    1.24    1.24</time>
   <energy>
    <i name="alphaZ">     60.47074313 </i>
    <i name="ewald">   4432.69516731 </i>
    <i name="hartreedc">  -6041.21045486 </i>
    <i name="XCdc">    168.48978103 </i>
    <i name="pawpsdc">   5800.10087508 </i>
    <i name="pawaedc">  -5799.47549307 </i>
    <i name="eentropy">     -0.00515703 </i>
    <i name="bandstr">   -491.63612924 </i>
    <i name="atom">   1746.50554237 </i>
    <i name="e_fr_energy">   -124.06512527 </i>
    <i name="e_wo_entrp">   -124.05996825 </i>
    <i name="e_0_energy">   -124.06254676 </i>
   </energy>
  </scstep>
  <scstep>
   <time name="dav">    1.15    1.16</time>
   <time name="total">    1.24    1.25</time>
   <energy>
    <i name="e_fr_energy">   -124.06512597 </i>
    <i name="e_wo_entrp">   -124.05996956 </i>
    <i name="e_0_energy">   -124.06254777 </i>
   </energy>
  </scstep>
  <scstep>
   <time name="dav">    1.24    1.25</time>
   <time name="total">    1.26    1.27</time>
   <energy>
    <i name="alphaZ">     60.47074313 </i>
    <i name="ewald">   4432.69516731 </i>
    <i name="hartreedc">  -6041.21845335 </i>
    <i name="XCdc">    168.48951096 </i>
    <i name="pawpsdc">   5800.01674889 </i>
    <i name="pawaedc">  -5799.39136224 </i>
    <i name="eentropy">     -0.00515612 </i>
    <i name="bandstr">   -491.62786638 </i>
    <i name="atom">   1746.50554237 </i>
    <i name="e_fr_energy">   -124.06512544 </i>
    <i name="e_wo_entrp">   -124.05996932 </i>
    <i name="e_0_energy">   -124.06254738 </i>
   </energy>
  </scstep>
  <structure>
   <crystal>
    <varray name="basis" >
     <v>       4.31194049       2.48950000       0.00000000 </v>
     <v>      -4.31194049       2.48950000       0.00000000 </v>
     <v>       0.00000000       0.00000000      15.00000000 </v>
    </varray>
    <i name="volume">    322.03727516 </i>
    <varray name="rec_basis" >
     <v>       0.11595707       0.20084354       0.00000000 </v>
     <v>      -0.11595707       0.20084354       0.00000000 </v>
     <v>       0.00000000       0.00000000       0.06666667 </v>
    </varray>
   </crystal>
   <varray name="positions" >
    <v>       0.66958030       0.00000698       0.10016364 </v>
    <v>       0.33042568       0.00000698       0.10016364 </v>
    <v>      -0.00000698       0.33041870       0.10016364 </v>
    <v>      -0.00000698       0.66957332       0.10016364 </v>
    <v>       0.33042568       0.33041870       0.10016364 </v>
    <v>       0.66958030       0.66957332       0.10016364 </v>
    <v>       0.66666600       0.33333300       0.09912759 </v>
    <v>       0.33333300       0.66666600       0.10087903 </v>
    <v>       0.16663402       0.33326904       0.33586792 </v>
    <v>       0.33327933       0.16663917       0.33585262 </v>
    <v>       0.16663402       0.83336498       0.33586792 </v>
    <v>       0.33333300       0.66666600       0.33594545 </v>
    <v>       0.66666600       0.33333300       0.33590451 </v>
    <v>       0.83335983       0.16663917       0.33585262 </v>
    <v>       0.66672996       0.83336498       0.33586792 </v>
    <v>       0.83335983       0.66671967       0.33585262 </v>
   </varray>
  </structure>
  <varray name="forces" >
   <v>       0.00069109      -0.00094870       0.00170440 </v>
   <v>       0.00047605      -0.00107286       0.00170440 </v>
   <v>       0.00069109       0.00094870       0.00170440 </v>
   <v>       0.00047605       0.00107286       0.00170440 </v>
   <v>      -0.00116715      -0.00012415       0.00170440 </v>
   <v>      -0.00116715       0.00012415       0.00170440 </v>
   <v>       0.00000000       0.00000000      -0.00000535 </v>
   <v>       0.00000000       0.00000000       0.00442645 </v>
   <v>      -0.00929179       0.01609386       0.00018746 </v>
   <v>       0.00779447       0.01350042       0.00128586 </v>
   <v>       0.01858359       0.00000000       0.00018746 </v>
   <v>       0.00000000       0.00000000      -0.01174033 </v>
   <v>       0.00000000       0.00000000      -0.00732713 </v>
   <v>      -0.01558894       0.00000000       0.00128586 </v>
   <v>      -0.00929179      -0.01609386       0.00018746 </v>
   <v>       0.00779447      -0.01350042       0.00128586 </v>
  </varray>
  <varray name="stress" >
   <v>       0.51762888       0.00000000       0.00000000 </v>
   <v>       0.00000000       0.51762888       0.00000000 </v>
   <v>      -0.00000000       0.00000000      -1.89404651 </v>
  </varray>
  <energy>
   <i name="e_fr_energy">   -125.91948011 </i>
   <i name="e_wo_entrp">   -125.91432399 </i>
   <i name="e_0_energy">   -125.91690205 </i>
  </energy>
  <time name="totalsc">    5.14    5.17</time>
 </calculation>
 <calculation>
  <scstep>
   <time name="dav">    1.17    1.18</time>
   <time name="total">    1.25    1.26</time>
   <energy>
    <i name="alphaZ">     60.47074313 </i>
    <i name="ewald">   4432.98115966 </i>
    <i name="hartreedc">  -6041.49957117 </i>
    <i name="XCdc">    168.48972369 </i>
    <i name="pawpsdc">   5800.07219902 </i>
    <i name="pawaedc">  -5799.44682141 </i>
    <i name="eentropy">     -0.00515736 </i>
    <i name="bandstr">   -491.63288918 </i>
    <i name="atom">   1746.50554237 </i>
    <i name="e_fr_energy">   -124.06507124 </i>
    <i name="e_wo_entrp">   -124.05991388 </i>
    <i name="e_0_energy">   -124.06249256 </i>
   </energy>
  </scstep>
  <scstep>
   <time name="dav">    1.39    1.40</time>
   <time name="total">    1.41    1.42</time>
   <energy>
    <i name="alphaZ">     60.47074313 </i>
    <i name="ewald">   4432.98115966 </i>
    <i name="hartreedc">  -6041.49993241 </i>
    <i name="XCdc">    168.48965884 </i>
    <i name="pawpsdc">   5800.10844135 </i>
    <i name="pawaedc">  -5799.48306281 </i>
    <i name="eentropy">     -0.00515727 </i>
    <i name="bandstr">   -491.63246406 </i>
    <i name="atom">   1746.50554237 </i>
    <i name="e_fr_energy">   -124.06507120 </i>
    <i name="e_wo_entrp">   -124.05991393 </i>
    <i name="e_0_energy">   -124.06249256 </i>
   </energy>
  </scstep>
  <structure>
   <crystal>
    <varray name="basis" >
     <v>       4.31194049       2.48950000       0.00000000 </v>
     <v>      -4.31194049       2.48950000       0.00000000 </v>
     <v>       0.00000000       0.00000000      15.00000000 </v>
    </varray>
    <i name="volume">    322.03727516 </i>
    <varray name="rec_basis" >
     <v>       0.11595707       0.20084354       0.00000000 </v>
     <v>      -0.11595707       0.20084354       0.00000000 </v>
     <v>       0.00000000       0.00000000       0.06666667 </v>
    </varray>
   </crystal>
   <varray name="positions" >
    <v>       0.66958035       0.00000734       0.10017052 </v>
    <v>       0.33042599       0.00000734       0.10017052 </v>
    <v>      -0.00000734       0.33041865       0.10017052 </v>
    <v>      -0.00000734       0.66957301       0.10017052 </v>
    <v>       0.33042599       0.33041865       0.10017052 </v>
    <v>       0.66958035       0.66957301       0.10017052 </v>
    <v>       0.66666600       0.33333300       0.09912447 </v>
    <v>       0.33333300       0.66666600       0.10088540 </v>
    <v>       0.16663568       0.33327237       0.33586457 </v>
    <v>       0.33328219       0.16664060       0.33585042 </v>
    <v>       0.16663568       0.83336332       0.33586457 </v>
    <v>       0.33333300       0.66666600       0.33593071 </v>
    <v>       0.66666600       0.33333300       0.33589134 </v>
    <v>       0.83335840       0.16664060       0.33585042 </v>
    <v>       0.66672663       0.83336332       0.33586457 </v>
    <v>       0.83335840       0.66671681       0.33585042 </v>
   </varray>
  </structure>
  <varray name="forces" >
   <v>       0.00069963      -0.00096680       0.00215722 </v>
   <v>       0.00048745      -0.00108930       0.00215722 </v>
   <v>       0.00069963       0.00096680       0.00215722 </v>
   <v>       0.00048745       0.00108930       0.00215722 </v>
   <v>      -0.00118709      -0.00012250       0.00215722 </v>
   <v>      -0.00118709       0.00012250       0.00215722 </v>
   <v>       0.00000000      -0.00000000       0.00042859 </v>
   <v>       0.00000000       0.00000000       0.00493185 </v>
   <v>      -0.00830844       0.01439064      -0.00076965 </v>
   <v>       0.00690156       0.01195385      -0.00000264 </v>
   <v>       0.01661688       0.00000000      -0.00076965 </v>
   <v>       0.00000000      -0.00000000      -0.01020936 </v>
   <v>       0.00000000       0.00000000      -0.00577756 </v>
   <v>      -0.01380311      -0.00000000      -0.00000264 </v>
   <v>      -0.00830844      -0.01439064      -0.00076965 </v>
   <v>       0.00690156      -0.01195385      -0.00000264 </v>
  </varray>
  <varray name="stress" >
   <v>       0.51603495       0.00000000       0.00000000 </v>
   <v>       0.00000000       0.51603495       0.00000000 </v>
   <v>      -0.00000000       0.00000000      -1.89799166 </v>
  </varray>
  <energy>
   <i name="e_fr_energy">   -125.91948700 </i>
   <i name="e_wo_entrp">   -125.91432973 </i>
   <i name="e_0_energy">   -125.91690837 </i>
  </energy>
  <time name="totalsc">    4.07    4.10</time>
 </calculation>
 <calculation>
  <scstep>
   <time name="dav">    1.15    1.16</time>
   <time name="total">    1.24    1.24</time>
   <energy>
    <i name="alphaZ">     60.47074313 </i>
    <i name="ewald">   4433.83906698 </i>
    <i name="hartreedc">  -6042.35425483 </i>
    <i name="XCdc">    168.49006709 </i>
    <i name="pawpsdc">   5800.13851352 </i>
    <i name="pawaedc">  -5799.51313750 </i>
    <i name="eentropy">     -0.00516042 </i>
    <i name="bandstr">   -491.63628322 </i>
    <i name="atom">   1746.50554237 </i>
    <i name="e_fr_energy">   -124.06490288 </i>
    <i name="e_wo_entrp">   -124.05974246 </i>
    <i name="e_0_energy">   -124.06232267 </i>
   </energy>
  </scstep>
  <scstep>
   <time name="dav">    1.15    1.16</time>
   <time name="total">    1.24    1.25</time>
   <energy>
    <i name="e_fr_energy">   -124.06490290 </i>
    <i name="e_wo_entrp">   -124.05974276 </i>
    <i name="e_0_energy">   -124.06232283 </i>
   </energy>
  </scstep>
  <scstep>
   <time name="dav">    1.14    1.15</time>
   <time name="total">    1.17    1.17</time>
   <energy>
    <i name="alphaZ">     60.47074313 </i>
    <i name="ewald">   4433.83906698 </i>
    <i name="hartreedc">  -6042.35976166 </i>
    <i name="XCdc">    168.48985125 </i>
    <i name="pawpsdc">   5800.16508206 </i>
    <i name="pawaedc">  -5799.53970864 </i>
    <i name="eentropy">     -0.00516003 </i>
    <i name="bandstr">   -491.63055817 </i>
    <i name="atom">   1746.50554237 </i>
    <i name="e_fr_energy">   -124.06490271 </i>
    <i name="e_wo_entrp">   -124.05974268 </i>
    <i name="e_0_energy">   -124.06232270 </i>
   </energy>
  </scstep>
  <structure>
   <crystal>
    <varray name="basis" >
     <v>       4.31194049       2.48950000       0.00000000 </v>
     <v>      -4.31194049       2.48950000       0.00000000 </v>
     <v>       0.00000000       0.00000000      15.00000000 </v>
    </varray>
    <i name="volume">    322.03727516 </i>
    <varray name="rec_basis" >
     <v>       0.11595707       0.20084354       0.00000000 </v>
     <v>      -0.11595707       0.20084354       0.00000000 </v>
     <v>       0.00000000       0.00000000       0.06666667 </v>
    </varray>
   </crystal>
   <varray name="positions" >
    <v>       0.66958051       0.00000844       0.10019118 </v>
    <v>       0.33042692       0.00000844       0.10019118 </v>
    <v>      -0.00000844       0.33041849       0.10019118 </v>
    <v>      -0.00000844       0.66957208       0.10019118 </v>
    <v>       0.33042692       0.33041849       0.10019118 </v>
    <v>       0.66958051       0.66957208       0.10019118 </v>
    <v>       0.66666600       0.33333300       0.09911512 </v>
    <v>       0.33333300       0.66666600       0.10090452 </v>
    <v>       0.16664068       0.33328237       0.33585454 </v>
    <v>       0.33329077       0.16664488       0.33584380 </v>
    <v>       0.16664068       0.83335832       0.33585454 </v>
    <v>       0.33333300       0.66666600       0.33588646 </v>
    <v>       0.66666600       0.33333300       0.33585183 </v>
    <v>       0.83335412       0.16664488       0.33584380 </v>
    <v>       0.66671663       0.83335832       0.33585454 </v>
    <v>       0.83335412       0.66670823       0.33584380 </v>
   </varray>
  </structure>
  <varray name="forces" >
   <v>       0.00082655      -0.00118349       0.00157707 </v>
   <v>       0.00061166      -0.00130756       0.00157707 </v>
   <v>       0.00082655       0.00118349       0.00157707 </v>
   <v>       0.00061166       0.00130756       0.00157707 </v>
   <v>      -0.00143821      -0.00012407       0.00157707 </v>
   <v>      -0.00143821       0.00012407       0.00157707 </v>
   <v>      -0.00000000      -0.00000000       0.00035312 </v>
   <v>      -0.00000000      -0.00000000       0.00486587 </v>
   <v>      -0.00666267       0.01154008      -0.00211116 </v>
   <v>       0.00549430       0.00951641      -0.00240298 </v>
   <v>       0.01332534      -0.00000000      -0.00211116 </v>
   <v>      -0.00000000      -0.00000000      -0.00261537 </v>
   <v>      -0.00000000      -0.00000000       0.00147640 </v>
   <v>      -0.01098860      -0.00000000      -0.00240298 </v>
   <v>      -0.00666267      -0.01154008      -0.00211116 </v>
   <v>       0.00549430      -0.00951641      -0.00240298 </v>
  </varray>
  <varray name="stress" >
   <v>       0.51364472       0.00000000       0.00000000 </v>
   <v>       0.00000000       0.51364472       0.00000000 </v>
   <v>       0.00000000       0.00000000      -1.88771824 </v>
  </varray>
  <energy>
   <i name="e_fr_energy">   -125.91950197 </i>
   <i name="e_wo_entrp">   -125.91434194 </i>
   <i name="e_0_energy">   -125.91692196 </i>
  </energy>
  <time name="totalsc">    5.03    5.07</time>
 </calculation>
