Lattice                                 
           1
     4.311940    2.489500    0.000000
    -4.311940    2.489500    0.000000
     0.000000    0.000000   15.000000
   B    C 
     8     8
Direct configuration=     1
   0.66888689  0.00000000  0.10000000
   0.33111211  0.00000000  0.10000000
   0.00000000  0.33111211  0.10000000
   0.00000000  0.66888689  0.10000000
   0.33111211  0.33111211  0.10000000
   0.66888689  0.66888689  0.10000000
   0.66666600  0.33333300  0.09922189
   0.33333300  0.66666600  0.10077811
   0.16666600  0.33333300  0.33600000
   0.33333300  0.16666600  0.33600000
   0.16666600  0.83333300  0.33600000
   0.33333300  0.66666600  0.33600000
   0.66666600  0.33333300  0.33600000
   0.83333300  0.16666600  0.33600000
   0.66666600  0.83333300  0.33600000
   0.83333300  0.66666600  0.33600000
Direct configuration=     2
   0.67020411  0.00000216  0.10001281
   0.32979705  0.00000216  0.10001281
  -0.00000216  0.32979489  0.10001281
  -0.00000216  0.67020195  0.10001281
   0.32979705  0.32979489  0.10001281
   0.67020411  0.67020195  0.10001281
   0.66666600  0.33333300  0.09921093
   0.33333300  0.66666600  0.10078800
   0.16665199  0.33330498  0.33598696
   0.33330872  0.16665386  0.33598244
   0.16665199  0.83334701  0.33598696
   0.33333300  0.66666600  0.33600979
   0.66666600  0.33333300  0.33600625
   0.83334514  0.16665386  0.33598244
   0.66669402  0.83334701  0.33598696
   0.83334514  0.66669028  0.33598244
Direct configuration=     3
   0.66958165  0.00000114  0.10000675
   0.33041848  0.00000114  0.10000675
  -0.00000114  0.33041735  0.10000675
  -0.00000114  0.66958052  0.10000675
   0.33041848  0.33041735  0.10000675
   0.66958165  0.66958052  0.10000675
   0.66666600  0.33333300  0.09921611
   0.33333300  0.66666600  0.10078333
   0.16665861  0.33331822  0.33599312
   0.33332019  0.16665960  0.33599074
   0.16665861  0.83334039  0.33599312
   0.33333300  0.66666600  0.33600517
   0.66666600  0.33333300  0.33600330
   0.83333940  0.16665960  0.33599074
   0.66668078  0.83334039  0.33599312
   0.83333940  0.66667881  0.33599074
Direct configuration=     4
   0.66958658  0.00000115  0.10000680
   0.33041356  0.00000115  0.10000680
  -0.00000115  0.33041242  0.10000680
  -0.00000115  0.66958544  0.10000680
   0.33041356  0.33041242  0.10000680
   0.66958658  0.66958544  0.10000680
   0.66666600  0.33333300  0.09921606
   0.33333300  0.66666600  0.10078336
   0.16665856  0.33331812  0.33599307
   0.33332010  0.16665955  0.33599067
   0.16665856  0.83334044  0.33599307
   0.33333300  0.66666600  0.33600520
   0.66666600  0.33333300  0.33600332
   0.83333945  0.16665955  0.33599067
   0.66668088  0.83334044  0.33599307
   0.83333945  0.66667890  0.33599067
Direct configuration=     5
   0.66958456  0.00000114  0.10000678
   0.33041558  0.00000114  0.10000678
  -0.00000114  0.33041444  0.10000678
  -0.00000114  0.66958342  0.10000678
   0.33041558  0.33041444  0.10000678
   0.66958456  0.66958342  0.10000678
   0.66666600  0.33333300  0.09921608
   0.33333300  0.66666600  0.10078335
   0.16665858  0.33331816  0.33599309
   0.33332014  0.16665957  0.33599070
   0.16665858  0.83334042  0.33599309
   0.33333300  0.66666600  0.33600519
   0.66666600  0.33333300  0.33600331
   0.83333943  0.16665957  0.33599070
   0.66668084  0.83334042  0.33599309
   0.83333943  0.66667886  0.33599070
Direct configuration=     6
   0.66958311  0.00000114  0.10000677
   0.33041703  0.00000114  0.10000677
  -0.00000114  0.33041589  0.10000677
  -0.00000114  0.66958197  0.10000677
   0.33041703  0.33041589  0.10000677
   0.66958311  0.66958197  0.10000677
   0.66666600  0.33333300  0.09921609
   0.33333300  0.66666600  0.10078334
   0.16665860  0.33331819  0.33599311
   0.33332017  0.16665958  0.33599072
   0.16665860  0.83334040  0.33599311
   0.33333300  0.66666600  0.33600518
   0.66666600  0.33333300  0.33600330
   0.83333942  0.16665958  0.33599072
   0.66668081  0.83334040  0.33599311
   0.83333942  0.66667883  0.33599072
Direct configuration=     7
   0.66958247  0.00000114  0.10000676
   0.33041767  0.00000114  0.10000676
  -0.00000114  0.33041653  0.10000676
  -0.00000114  0.66958133  0.10000676
   0.33041767  0.33041653  0.10000676
   0.66958247  0.66958133  0.10000676
   0.66666600  0.33333300  0.09921610
   0.33333300  0.66666600  0.10078333
   0.16665860  0.33331820  0.33599311
   0.33332018  0.16665959  0.33599073
   0.16665860  0.83334040  0.33599311
   0.33333300  0.66666600  0.33600517
   0.66666600  0.33333300  0.33600330
   0.83333941  0.16665959  0.33599073
   0.66668080  0.83334040  0.33599311
   0.83333941  0.66667882  0.33599073
Direct configuration=     8
   0.66958228  0.00000114  0.10000676
   0.33041786  0.00000114  0.10000676
  -0.00000114  0.33041672  0.10000676
  -0.00000114  0.66958114  0.10000676
   0.33041786  0.33041672  0.10000676
   0.66958228  0.66958114  0.10000676
   0.66666600  0.33333300  0.09921610
   0.33333300  0.66666600  0.10078333
   0.16665860  0.33331821  0.33599311
   0.33332018  0.16665959  0.33599073
   0.16665860  0.83334040  0.33599311
   0.33333300  0.66666600  0.33600517
   0.66666600  0.33333300  0.33600330
   0.83333941  0.16665959  0.33599073
   0.66668079  0.83334040  0.33599311
   0.83333941  0.66667882  0.33599073
Direct configuration=     9
   0.66958188  0.00000035  0.10001706
   0.33041747  0.00000035  0.10001706
  -0.00000035  0.33041712  0.10001706
  -0.00000035  0.66958153  0.10001706
   0.33041747  0.33041712  0.10001706
   0.66958188  0.66958153  0.10001706
   0.66666600  0.33333300  0.09921006
   0.33333300  0.66666600  0.10078888
   0.16666798  0.33333697  0.33598377
   0.33333588  0.16666744  0.33597965
   0.16666798  0.83333102  0.33598377
   0.33333300  0.66666600  0.33600703
   0.66666600  0.33333300  0.33600141
   0.83333156  0.16666744  0.33597965
   0.66666203  0.83333102  0.33598377
   0.83333156  0.66666312  0.33597965
Direct configuration=    10
   0.66958124 -0.00000092  0.10003353
   0.33041683 -0.00000092  0.10003353
   0.00000092  0.33041776  0.10003353
   0.00000092  0.66958217  0.10003353
   0.33041683  0.33041776  0.10003353
   0.66958124  0.66958217  0.10003353
   0.66666600  0.33333300  0.09920041
   0.33333300  0.66666600  0.10079776
   0.16668298  0.33336697  0.33596883
   0.33336098  0.16667999  0.33596191
   0.16668298  0.83331602  0.33596883
   0.33333300  0.66666600  0.33601002
   0.66666600  0.33333300  0.33599839
   0.83331901  0.16667999  0.33596191
   0.66663203  0.83331602  0.33596883
   0.83331901  0.66663802  0.33596191
Direct configuration=    11
   0.66958116 -0.00000092  0.10003561
   0.33041691 -0.00000092  0.10003561
   0.00000092  0.33041784  0.10003561
   0.00000092  0.66958209  0.10003561
   0.33041691  0.33041784  0.10003561
   0.66958116  0.66958209  0.10003561
   0.66666600  0.33333300  0.09919919
   0.33333300  0.66666600  0.10079893
   0.16668276  0.33336653  0.33596704
   0.33336061  0.16667981  0.33595984
   0.16668276  0.83331624  0.33596704
   0.33333300  0.66666600  0.33600996
   0.66666600  0.33333300  0.33599766
   0.83331919  0.16667981  0.33595984
   0.66663247  0.83331624  0.33596704
   0.83331919  0.66663839  0.33595984
Direct configuration=    12
   0.66958092 -0.00000093  0.10004184
   0.33041715 -0.00000093  0.10004184
   0.00000093  0.33041808  0.10004184
   0.00000093  0.66958185  0.10004184
   0.33041715  0.33041808  0.10004184
   0.66958092  0.66958185  0.10004184
   0.66666600  0.33333300  0.09919553
   0.33333300  0.66666600  0.10080241
   0.16668210  0.33336520  0.33596165
   0.33335951  0.16667926  0.33595361
   0.16668210  0.83331690  0.33596165
   0.33333300  0.66666600  0.33600980
   0.66666600  0.33333300  0.33599546
   0.83331974  0.16667926  0.33595361
   0.66663380  0.83331690  0.33596165
   0.83331974  0.66663949  0.33595361
Direct configuration=    13
   0.66958044 -0.00000094  0.10005430
   0.33041762 -0.00000094  0.10005430
   0.00000094  0.33041856  0.10005430
   0.00000094  0.66958138  0.10005430
   0.33041762  0.33041856  0.10005430
   0.66958044  0.66958138  0.10005430
   0.66666600  0.33333300  0.09918822
   0.33333300  0.66666600  0.10080939
   0.16668078  0.33336256  0.33595087
   0.33335732  0.16667816  0.33594115
   0.16668078  0.83331822  0.33595087
   0.33333300  0.66666600  0.33600948
   0.66666600  0.33333300  0.33599105
   0.83332084  0.16667816  0.33594115
   0.66663644  0.83331822  0.33595087
   0.83332084  0.66664168  0.33594115
Direct configuration=    14
   0.66957948 -0.00000095  0.10007922
   0.33041856 -0.00000095  0.10007922
   0.00000095  0.33041952  0.10007922
   0.00000095  0.66958044  0.10007922
   0.33041856  0.33041952  0.10007922
   0.66957948  0.66958044  0.10007922
   0.66666600  0.33333300  0.09917361
   0.33333300  0.66666600  0.10082334
   0.16667813  0.33335727  0.33592932
   0.33335292  0.16667596  0.33591623
   0.16667813  0.83332087  0.33592932
   0.33333300  0.66666600  0.33600884
   0.66666600  0.33333300  0.33598225
   0.83332304  0.16667596  0.33591623
   0.66664173  0.83332087  0.33592932
   0.83332304  0.66664608  0.33591623
Direct configuration=    15
   0.66957756 -0.00000099  0.10012906
   0.33042045 -0.00000099  0.10012906
   0.00000099  0.33042144  0.10012906
   0.00000099  0.66957855  0.10012906
   0.33042045  0.33042144  0.10012906
   0.66957756  0.66957855  0.10012906
   0.66666600  0.33333300  0.09914437
   0.33333300  0.66666600  0.10085124
   0.16667285  0.33334669  0.33588622
   0.33334413  0.16667157  0.33586640
   0.16667285  0.83332615  0.33588622
   0.33333300  0.66666600  0.33600755
   0.66666600  0.33333300  0.33596464
   0.83332743  0.16667157  0.33586640
   0.66665231  0.83332615  0.33588622
   0.83332743  0.66665487  0.33586640
Direct configuration=    16
   0.66957829  0.00000113  0.10013826
   0.33042184  0.00000113  0.10013826
  -0.00000113  0.33042071  0.10013826
  -0.00000113  0.66957716  0.10013826
   0.33042184  0.33042071  0.10013826
   0.66957829  0.66957716  0.10013826
   0.66666600  0.33333300  0.09913990
   0.33333300  0.66666600  0.10085864
   0.16666251  0.33332601  0.33588135
   0.33332687  0.16666294  0.33586273
   0.16666251  0.83333649  0.33588135
   0.33333300  0.66666600  0.33599101
   0.66666600  0.33333300  0.33594863
   0.83333606  0.16666294  0.33586273
   0.66667299  0.83333649  0.33588135
   0.83333606  0.66667213  0.33586273
Direct configuration=    17
   0.66958030  0.00000698  0.10016364
   0.33042568  0.00000698  0.10016364
  -0.00000698  0.33041870  0.10016364
  -0.00000698  0.66957332  0.10016364
   0.33042568  0.33041870  0.10016364
   0.66958030  0.66957332  0.10016364
   0.66666600  0.33333300  0.09912759
   0.33333300  0.66666600  0.10087903
   0.16663402  0.33326904  0.33586792
   0.33327933  0.16663917  0.33585262
   0.16663402  0.83336498  0.33586792
   0.33333300  0.66666600  0.33594545
   0.66666600  0.33333300  0.33590451
   0.83335983  0.16663917  0.33585262
   0.66672996  0.83336498  0.33586792
   0.83335983  0.66671967  0.33585262
Direct configuration=    18
   0.66958035  0.00000734  0.10017052
   0.33042599  0.00000734  0.10017052
  -0.00000734  0.33041865  0.10017052
  -0.00000734  0.66957301  0.10017052
   0.33042599  0.33041865  0.10017052
   0.66958035  0.66957301  0.10017052
   0.66666600  0.33333300  0.09912447
   0.33333300  0.66666600  0.10088540
   0.16663568  0.33327237  0.33586457
   0.33328219  0.16664060  0.33585042
   0.16663568  0.83336332  0.33586457
   0.33333300  0.66666600  0.33593071
   0.66666600  0.33333300  0.33589134
   0.83335840  0.16664060  0.33585042
   0.66672663  0.83336332  0.33586457
   0.83335840  0.66671681  0.33585042
Direct configuration=    19
   0.66958051  0.00000844  0.10019118
   0.33042692  0.00000844  0.10019118
  -0.00000844  0.33041849  0.10019118
  -0.00000844  0.66957208  0.10019118
   0.33042692  0.33041849  0.10019118
   0.66958051  0.66957208  0.10019118
   0.66666600  0.33333300  0.09911512
   0.33333300  0.66666600  0.10090452
   0.16664068  0.33328237  0.33585454
   0.33329077  0.16664488  0.33584380
   0.16664068  0.83335832  0.33585454
   0.33333300  0.66666600  0.33588646
   0.66666600  0.33333300  0.33585183
   0.83335412  0.16664488  0.33584380
   0.66671663  0.83335832  0.33585454
   0.83335412  0.66670823  0.33584380
