 vasp.6.3.2 27Jun22 (build Dec 22 2022 13:13:19) complex                        
  
 executed on             LinuxIFC date 2023.09.01  22:11:47
 running   48 mpi-ranks, with    1 threads/rank
 distrk:  each k-point on   48 cores,    1 groups
 distr:  one band on NCORE=   1 cores,   48 groups


--------------------------------------------------------------------------------------------------------


 INCAR:
   SYSTEM = BS
   ISTART = 0
   ICHARG = 11
   PREC = Accurate
   LORBIT = 11
   ENCUT = 450
   ALGO = Normal
   NELM = 64
   EDIFF = 1E-6
   EDIFFG = -1E-3
   SIGMA = 0.1
   ISMEAR = 0
   GGA = PE
   IVDW = 12
   ISYM = 0

 POTCAR:    PAW_PBE B 06Sep2000                   
 POTCAR:    PAW_PBE C 08Apr2002                   
 POTCAR:    PAW_PBE B 06Sep2000                   
   SHA256 =  a32ced30f5ae56fd4d10b4325ff17eb3e4e38ee0f4288bc219fb012fddfa6e97 B/POTCAR              
   COPYR  = (c) Copyright 06Sep2000 Georg Kresse                                                    
   COPYR  = This file is part of the software VASP. Any use, copying, and all other rights are regul
   COPYR  = If you do not have a valid VASP license, you may not use, copy or distribute this file. 
   VRHFIN =B: s2p1                                                                                  
   LEXCH  = PE                                                                                      
   EATOM  =    71.1703 eV,    5.2309 Ry                                                             
                                                                                                    
   TITEL  = PAW_PBE B 06Sep2000                                                                     
   LULTRA =        F    use ultrasoft PP ?                                                          
   IUNSCR =        1    unscreen: 0-lin 1-nonlin 2-no                                               
   RPACOR =    1.200    partial core radius                                                         
   POMASS =   10.811; ZVAL   =    3.000    mass and valenz                                          
   RCORE  =    1.700    outmost cutoff radius                                                       
   RWIGS  =    1.710; RWIGS  =    0.905    wigner-seitz radius (au A)                               
   ENMAX  =  318.614; ENMIN  =  238.960 eV                                                          
   ICORE  =        2    local potential                                                             
   LCOR   =        T    correct aug charges                                                         
   LPAW   =        T    paw PP                                                                      
   EAUG   =  535.514                                                                                
   DEXC   =    0.000                                                                                
   RMAX   =    1.732    core radius for proj-oper                                                   
   RAUG   =    1.300    factor for augmentation sphere                                              
   RDEP   =    1.757    radius for radial grids                                                     
   RDEPT  =    1.436    core radius for aug-charge                                                  
                                                                                                    
   Atomic configuration                                                                             
    4 entries                                                                                       
     n  l   j            E        occ.                                                              
     1  0  0.50      -180.5896   2.0000                                                             
     2  0  0.50        -9.4431   2.0000                                                             
     2  1  0.50        -3.6068   1.0000                                                             
     3  2  1.50        -4.0817   0.0000                                                             
   Description                                                                                      
     l       E           TYP  RCUT    TYP  RCUT                                                     
     0     -9.4430752     23  1.500                                                                 
     0      0.8675899     23  1.500                                                                 
     1     -3.6067955     23  1.700                                                                 
     1      6.1086146     23  1.700                                                                 
     2     -4.0817478      7  1.700                                                                 
  local pseudopotential read in
  partial core-charges read in
  partial kinetic energy density read in
  atomic valenz-charges read in
  non local Contribution for L=           0  read in
    real space projection operators read in
  non local Contribution for L=           0  read in
    real space projection operators read in
  non local Contribution for L=           1  read in
    real space projection operators read in
  non local Contribution for L=           1  read in
    real space projection operators read in
    PAW grid and wavefunctions read in
 
   number of l-projection  operators is LMAX  =           4
   number of lm-projection operators is LMMAX =           8
 
 POTCAR:    PAW_PBE C 08Apr2002                   
   SHA256 =  253f7b50bb8d59471dbedb8285d89021f4a42ed1a2c5d38a03a736e69125dd95 C/POTCAR              
   COPYR  = (c) Copyright 08Apr2002 Georg Kresse                                                    
   COPYR  = This file is part of the software VASP. Any use, copying, and all other rights are regul
   COPYR  = If you do not have a valid VASP license, you may not use, copy or distribute this file. 
   VRHFIN =C: s2p2                                                                                  
   LEXCH  = PE                                                                                      
   EATOM  =   147.1560 eV,   10.8157 Ry                                                             
                                                                                                    
   TITEL  = PAW_PBE C 08Apr2002                                                                     
   LULTRA =        F    use ultrasoft PP ?                                                          
   IUNSCR =        1    unscreen: 0-lin 1-nonlin 2-no                                               
   RPACOR =    1.200    partial core radius                                                         
   POMASS =   12.011; ZVAL   =    4.000    mass and valenz                                          
   RCORE  =    1.500    outmost cutoff radius                                                       
   RWIGS  =    1.630; RWIGS  =    0.863    wigner-seitz radius (au A)                               
   ENMAX  =  400.000; ENMIN  =  300.000 eV                                                          
   ICORE  =        2    local potential                                                             
   LCOR   =        T    correct aug charges                                                         
   LPAW   =        T    paw PP                                                                      
   EAUG   =  644.873                                                                                
   DEXC   =    0.000                                                                                
   RMAX   =    1.529    core radius for proj-oper                                                   
   RAUG   =    1.300    factor for augmentation sphere                                              
   RDEP   =    1.501    radius for radial grids                                                     
   RDEPT  =    1.300    core radius for aug-charge                                                  
                                                                                                    
   Atomic configuration                                                                             
    4 entries                                                                                       
     n  l   j            E        occ.                                                              
     1  0  0.50      -273.3789   2.0000                                                             
     2  0  0.50       -13.7508   2.0000                                                             
     2  1  0.50        -5.2854   2.0000                                                             
     3  2  1.50        -5.4423   0.0000                                                             
   Description                                                                                      
     l       E           TYP  RCUT    TYP  RCUT                                                     
     0    -13.7508458     23  1.200                                                                 
     0     -8.2022199     23  1.200                                                                 
     1     -5.2854383     23  1.500                                                                 
     1     34.0145650     23  1.500                                                                 
     2     -5.4423304      7  1.500                                                                 
  local pseudopotential read in
  partial core-charges read in
  partial kinetic energy density read in
  atomic valenz-charges read in
  non local Contribution for L=           0  read in
    real space projection operators read in
  non local Contribution for L=           0  read in
    real space projection operators read in
  non local Contribution for L=           1  read in
    real space projection operators read in
  non local Contribution for L=           1  read in
    real space projection operators read in
    PAW grid and wavefunctions read in
 
   number of l-projection  operators is LMAX  =           4
   number of lm-projection operators is LMMAX =           8
 
  PAW_PBE B 06Sep2000                   :
 energy of atom  1       EATOM=  -71.1703
 kinetic energy error for atom=    0.0015 (will be added to EATOM!!)
  PAW_PBE C 08Apr2002                   :
 energy of atom  2       EATOM= -147.1560
 kinetic energy error for atom=    0.0116 (will be added to EATOM!!)
 
 
 POSCAR: B4C3 with lattice parameter 4.690
  positions in direct lattice
  velocities in cartesian coordinates
 exchange correlation table for  LEXCH =        8
   RHO(1)=    0.500       N(1)  =     2000
   RHO(2)=  100.500       N(2)  =     4000

 VTST: version 4.2, (08/11/21)

 CHAIN: initializing optimizer
 
 OPT: Using VASP Dynamics algorithm
 CHAIN: Read ICHAIN            0
 
 POSCAR: B4C3 with lattice parameter 4.690
  positions in direct lattice
  velocities in cartesian coordinates
 


--------------------------------------------------------------------------------------------------------


 ion  position               nearest neighbor table
   1  0.004  0.003  0.120-   7 1.55   6 1.55   5 1.55   4 1.69   2 1.69   3 1.69
   2  0.357  0.003  0.098-   6 1.52   5 1.59   7 1.59   1 1.69
   3  0.004  0.356  0.098-   7 1.52   5 1.59   6 1.59   1 1.69
   4  0.651  0.650  0.098-   5 1.52   6 1.59   7 1.59   1 1.69
   5  0.328  0.327  0.100-   4 1.52   1 1.55   3 1.59   2 1.59
   6  0.680  0.003  0.100-   2 1.52   1 1.55   3 1.59   4 1.59
   7  0.004  0.679  0.100-   3 1.52   1 1.55   2 1.59   4 1.59
 

IMPORTANT INFORMATION: All symmetrisations will be switched off!
NOSYMM: (Re-)initialisation of all symmetry stuff for point group C_1.


----------------------------------------------------------------------------------------

                                     Primitive cell                                     

  volume of cell :     285.7377

  direct lattice vectors                    reciprocal lattice vectors
     4.061659000  2.345000000  0.000000000     0.123102407  0.213219616  0.000000000
    -4.061659000  2.345000000  0.000000000    -0.123102407  0.213219616  0.000000000
     0.000000000  0.000000000 15.000000000     0.000000000  0.000000000  0.066666667

  length of vectors
     4.689999876  4.689999876 15.000000000     0.246204808  0.246204808  0.066666667

  position of ions in fractional coordinates (direct lattice)
     0.004183931  0.002770402  0.120265168
     0.356955219  0.002781990  0.097503442
     0.004186971  0.355542049  0.097502993
     0.651416230  0.650011713  0.097505455
     0.328100716  0.326694043  0.100282726
     0.680268274  0.002781113  0.100292166
     0.004186659  0.678856689  0.100294050

  ion indices of the primitive-cell ions
   primitive index   ion index
                 1           1
                 2           2
                 3           3
                 4           4
                 5           5
                 6           6
                 7           7

----------------------------------------------------------------------------------------

 
 
 KPOINTS: K-points                                

Interpolating k-points between supplied coordinates.

 Line segments in fractional coordinates (reciprocal lattice):
    0.333000  0.333000  0.000000  ...  0.000000  0.000000  0.000000
    0.000000  0.000000  0.000000  ...  0.000000  0.500000  0.000000
    0.000000  0.500000  0.000000  ...  0.333000  0.333000  0.000000

 Generated    64 points on each line segment, for a total of    192 k-points:

 Following reciprocal coordinates:
            Coordinates               Weight
  0.333000  0.333000  0.000000      0.005208
  0.327714  0.327714  0.000000      0.005208
  0.322429  0.322429  0.000000      0.005208
  0.317143  0.317143  0.000000      0.005208
  0.311857  0.311857  0.000000      0.005208
  0.306571  0.306571  0.000000      0.005208
  0.301286  0.301286  0.000000      0.005208
  0.296000  0.296000  0.000000      0.005208
  0.290714  0.290714  0.000000      0.005208
  0.285429  0.285429  0.000000      0.005208
  0.280143  0.280143  0.000000      0.005208
  0.274857  0.274857  0.000000      0.005208
  0.269571  0.269571  0.000000      0.005208
  0.264286  0.264286  0.000000      0.005208
  0.259000  0.259000  0.000000      0.005208
  0.253714  0.253714  0.000000      0.005208
  0.248429  0.248429  0.000000      0.005208
  0.243143  0.243143  0.000000      0.005208
  0.237857  0.237857  0.000000      0.005208
  0.232571  0.232571  0.000000      0.005208
  0.227286  0.227286  0.000000      0.005208
  0.222000  0.222000  0.000000      0.005208
  0.216714  0.216714  0.000000      0.005208
  0.211429  0.211429  0.000000      0.005208
  0.206143  0.206143  0.000000      0.005208
  0.200857  0.200857  0.000000      0.005208
  0.195571  0.195571  0.000000      0.005208
  0.190286  0.190286  0.000000      0.005208
  0.185000  0.185000  0.000000      0.005208
  0.179714  0.179714  0.000000      0.005208
  0.174429  0.174429  0.000000      0.005208
  0.169143  0.169143  0.000000      0.005208
  0.163857  0.163857  0.000000      0.005208
  0.158571  0.158571  0.000000      0.005208
  0.153286  0.153286  0.000000      0.005208
  0.148000  0.148000  0.000000      0.005208
  0.142714  0.142714  0.000000      0.005208
  0.137429  0.137429  0.000000      0.005208
  0.132143  0.132143  0.000000      0.005208
  0.126857  0.126857  0.000000      0.005208
  0.121571  0.121571  0.000000      0.005208
  0.116286  0.116286  0.000000      0.005208
  0.111000  0.111000  0.000000      0.005208
  0.105714  0.105714  0.000000      0.005208
  0.100429  0.100429  0.000000      0.005208
  0.095143  0.095143  0.000000      0.005208
  0.089857  0.089857  0.000000      0.005208
  0.084571  0.084571  0.000000      0.005208
  0.079286  0.079286  0.000000      0.005208
  0.074000  0.074000  0.000000      0.005208
  0.068714  0.068714  0.000000      0.005208
  0.063429  0.063429  0.000000      0.005208
  0.058143  0.058143  0.000000      0.005208
  0.052857  0.052857  0.000000      0.005208
  0.047571  0.047571  0.000000      0.005208
  0.042286  0.042286  0.000000      0.005208
  0.037000  0.037000  0.000000      0.005208
  0.031714  0.031714  0.000000      0.005208
  0.026429  0.026429  0.000000      0.005208
  0.021143  0.021143  0.000000      0.005208
  0.015857  0.015857  0.000000      0.005208
  0.010571  0.010571  0.000000      0.005208
  0.005286  0.005286  0.000000      0.005208
  0.000000  0.000000  0.000000      0.005208
  0.000000  0.000000  0.000000      0.005208
  0.000000  0.007937  0.000000      0.005208
  0.000000  0.015873  0.000000      0.005208
  0.000000  0.023810  0.000000      0.005208
  0.000000  0.031746  0.000000      0.005208
  0.000000  0.039683  0.000000      0.005208
  0.000000  0.047619  0.000000      0.005208
  0.000000  0.055556  0.000000      0.005208
  0.000000  0.063492  0.000000      0.005208
  0.000000  0.071429  0.000000      0.005208
  0.000000  0.079365  0.000000      0.005208
  0.000000  0.087302  0.000000      0.005208
  0.000000  0.095238  0.000000      0.005208
  0.000000  0.103175  0.000000      0.005208
  0.000000  0.111111  0.000000      0.005208
  0.000000  0.119048  0.000000      0.005208
  0.000000  0.126984  0.000000      0.005208
  0.000000  0.134921  0.000000      0.005208
  0.000000  0.142857  0.000000      0.005208
  0.000000  0.150794  0.000000      0.005208
  0.000000  0.158730  0.000000      0.005208
  0.000000  0.166667  0.000000      0.005208
  0.000000  0.174603  0.000000      0.005208
  0.000000  0.182540  0.000000      0.005208
  0.000000  0.190476  0.000000      0.005208
  0.000000  0.198413  0.000000      0.005208
  0.000000  0.206349  0.000000      0.005208
  0.000000  0.214286  0.000000      0.005208
  0.000000  0.222222  0.000000      0.005208
  0.000000  0.230159  0.000000      0.005208
  0.000000  0.238095  0.000000      0.005208
  0.000000  0.246032  0.000000      0.005208
  0.000000  0.253968  0.000000      0.005208
  0.000000  0.261905  0.000000      0.005208
  0.000000  0.269841  0.000000      0.005208
  0.000000  0.277778  0.000000      0.005208
  0.000000  0.285714  0.000000      0.005208
  0.000000  0.293651  0.000000      0.005208
  0.000000  0.301587  0.000000      0.005208
  0.000000  0.309524  0.000000      0.005208
  0.000000  0.317460  0.000000      0.005208
  0.000000  0.325397  0.000000      0.005208
  0.000000  0.333333  0.000000      0.005208
  0.000000  0.341270  0.000000      0.005208
  0.000000  0.349206  0.000000      0.005208
  0.000000  0.357143  0.000000      0.005208
  0.000000  0.365079  0.000000      0.005208
  0.000000  0.373016  0.000000      0.005208
  0.000000  0.380952  0.000000      0.005208
  0.000000  0.388889  0.000000      0.005208
  0.000000  0.396825  0.000000      0.005208
  0.000000  0.404762  0.000000      0.005208
  0.000000  0.412698  0.000000      0.005208
  0.000000  0.420635  0.000000      0.005208
  0.000000  0.428571  0.000000      0.005208
  0.000000  0.436508  0.000000      0.005208
  0.000000  0.444444  0.000000      0.005208
  0.000000  0.452381  0.000000      0.005208
  0.000000  0.460317  0.000000      0.005208
  0.000000  0.468254  0.000000      0.005208
  0.000000  0.476190  0.000000      0.005208
  0.000000  0.484127  0.000000      0.005208
  0.000000  0.492063  0.000000      0.005208
  0.000000  0.500000  0.000000      0.005208
  0.000000  0.500000  0.000000      0.005208
  0.005286  0.497349  0.000000      0.005208
  0.010571  0.494698  0.000000      0.005208
  0.015857  0.492048  0.000000      0.005208
  0.021143  0.489397  0.000000      0.005208
  0.026429  0.486746  0.000000      0.005208
  0.031714  0.484095  0.000000      0.005208
  0.037000  0.481444  0.000000      0.005208
  0.042286  0.478794  0.000000      0.005208
  0.047571  0.476143  0.000000      0.005208
  0.052857  0.473492  0.000000      0.005208
  0.058143  0.470841  0.000000      0.005208
  0.063429  0.468190  0.000000      0.005208
  0.068714  0.465540  0.000000      0.005208
  0.074000  0.462889  0.000000      0.005208
  0.079286  0.460238  0.000000      0.005208
  0.084571  0.457587  0.000000      0.005208
  0.089857  0.454937  0.000000      0.005208
  0.095143  0.452286  0.000000      0.005208
  0.100429  0.449635  0.000000      0.005208
  0.105714  0.446984  0.000000      0.005208
  0.111000  0.444333  0.000000      0.005208
  0.116286  0.441683  0.000000      0.005208
  0.121571  0.439032  0.000000      0.005208
  0.126857  0.436381  0.000000      0.005208
  0.132143  0.433730  0.000000      0.005208
  0.137429  0.431079  0.000000      0.005208
  0.142714  0.428429  0.000000      0.005208
  0.148000  0.425778  0.000000      0.005208
  0.153286  0.423127  0.000000      0.005208
  0.158571  0.420476  0.000000      0.005208
  0.163857  0.417825  0.000000      0.005208
  0.169143  0.415175  0.000000      0.005208
  0.174429  0.412524  0.000000      0.005208
  0.179714  0.409873  0.000000      0.005208
  0.185000  0.407222  0.000000      0.005208
  0.190286  0.404571  0.000000      0.005208
  0.195571  0.401921  0.000000      0.005208
  0.200857  0.399270  0.000000      0.005208
  0.206143  0.396619  0.000000      0.005208
  0.211429  0.393968  0.000000      0.005208
  0.216714  0.391317  0.000000      0.005208
  0.222000  0.388667  0.000000      0.005208
  0.227286  0.386016  0.000000      0.005208
  0.232571  0.383365  0.000000      0.005208
  0.237857  0.380714  0.000000      0.005208
  0.243143  0.378063  0.000000      0.005208
  0.248429  0.375413  0.000000      0.005208
  0.253714  0.372762  0.000000      0.005208
  0.259000  0.370111  0.000000      0.005208
  0.264286  0.367460  0.000000      0.005208
  0.269571  0.364810  0.000000      0.005208
  0.274857  0.362159  0.000000      0.005208
  0.280143  0.359508  0.000000      0.005208
  0.285429  0.356857  0.000000      0.005208
  0.290714  0.354206  0.000000      0.005208
  0.296000  0.351556  0.000000      0.005208
  0.301286  0.348905  0.000000      0.005208
  0.306571  0.346254  0.000000      0.005208
  0.311857  0.343603  0.000000      0.005208
  0.317143  0.340952  0.000000      0.005208
  0.322429  0.338302  0.000000      0.005208
  0.327714  0.335651  0.000000      0.005208
  0.333000  0.333000  0.000000      0.005208

 Following cartesian coordinates:
            Coordinates               Weight
 -0.000000  0.142004  0.000000      0.005208
 -0.000000  0.139750  0.000000      0.005208
  0.000000  0.137496  0.000000      0.005208
  0.000000  0.135242  0.000000      0.005208
  0.000000  0.132988  0.000000      0.005208
  0.000000  0.130734  0.000000      0.005208
 -0.000000  0.128480  0.000000      0.005208
 -0.000000  0.126226  0.000000      0.005208
 -0.000000  0.123972  0.000000      0.005208
 -0.000000  0.121718  0.000000      0.005208
  0.000000  0.119464  0.000000      0.005208
  0.000000  0.117210  0.000000      0.005208
  0.000000  0.114956  0.000000      0.005208
  0.000000  0.112702  0.000000      0.005208
 -0.000000  0.110448  0.000000      0.005208
 -0.000000  0.108194  0.000000      0.005208
  0.000000  0.105940  0.000000      0.005208
  0.000000  0.103686  0.000000      0.005208
 -0.000000  0.101432  0.000000      0.005208
 -0.000000  0.099178  0.000000      0.005208
  0.000000  0.096924  0.000000      0.005208
  0.000000  0.094670  0.000000      0.005208
 -0.000000  0.092415  0.000000      0.005208
 -0.000000  0.090161  0.000000      0.005208
  0.000000  0.087907  0.000000      0.005208
  0.000000  0.085653  0.000000      0.005208
 -0.000000  0.083399  0.000000      0.005208
 -0.000000  0.081145  0.000000      0.005208
 -0.000000  0.078891  0.000000      0.005208
  0.000000  0.076637  0.000000      0.005208
  0.000000  0.074383  0.000000      0.005208
 -0.000000  0.072129  0.000000      0.005208
 -0.000000  0.069875  0.000000      0.005208
  0.000000  0.067621  0.000000      0.005208
  0.000000  0.065367  0.000000      0.005208
 -0.000000  0.063113  0.000000      0.005208
 -0.000000  0.060859  0.000000      0.005208
  0.000000  0.058605  0.000000      0.005208
  0.000000  0.056351  0.000000      0.005208
 -0.000000  0.054097  0.000000      0.005208
  0.000000  0.051843  0.000000      0.005208
 -0.000000  0.049589  0.000000      0.005208
  0.000000  0.047335  0.000000      0.005208
 -0.000000  0.045081  0.000000      0.005208
  0.000000  0.042827  0.000000      0.005208
 -0.000000  0.040573  0.000000      0.005208
  0.000000  0.038319  0.000000      0.005208
 -0.000000  0.036065  0.000000      0.005208
  0.000000  0.033811  0.000000      0.005208
 -0.000000  0.031557  0.000000      0.005208
  0.000000  0.029302  0.000000      0.005208
 -0.000000  0.027048  0.000000      0.005208
 -0.000000  0.024794  0.000000      0.005208
 -0.000000  0.022540  0.000000      0.005208
 -0.000000  0.020286  0.000000      0.005208
 -0.000000  0.018032  0.000000      0.005208
 -0.000000  0.015778  0.000000      0.005208
 -0.000000  0.013524  0.000000      0.005208
 -0.000000  0.011270  0.000000      0.005208
 -0.000000  0.009016  0.000000      0.005208
 -0.000000  0.006762  0.000000      0.005208
 -0.000000  0.004508  0.000000      0.005208
 -0.000000  0.002254  0.000000      0.005208
  0.000000  0.000000  0.000000      0.005208
  0.000000  0.000000  0.000000      0.005208
 -0.000977  0.001692  0.000000      0.005208
 -0.001954  0.003384  0.000000      0.005208
 -0.002931  0.005077  0.000000      0.005208
 -0.003908  0.006769  0.000000      0.005208
 -0.004885  0.008461  0.000000      0.005208
 -0.005862  0.010153  0.000000      0.005208
 -0.006839  0.011846  0.000000      0.005208
 -0.007816  0.013538  0.000000      0.005208
 -0.008793  0.015230  0.000000      0.005208
 -0.009770  0.016922  0.000000      0.005208
 -0.010747  0.018614  0.000000      0.005208
 -0.011724  0.020307  0.000000      0.005208
 -0.012701  0.021999  0.000000      0.005208
 -0.013678  0.023691  0.000000      0.005208
 -0.014655  0.025383  0.000000      0.005208
 -0.015632  0.027076  0.000000      0.005208
 -0.016609  0.028768  0.000000      0.005208
 -0.017586  0.030460  0.000000      0.005208
 -0.018563  0.032152  0.000000      0.005208
 -0.019540  0.033844  0.000000      0.005208
 -0.020517  0.035537  0.000000      0.005208
 -0.021494  0.037229  0.000000      0.005208
 -0.022471  0.038921  0.000000      0.005208
 -0.023448  0.040613  0.000000      0.005208
 -0.024425  0.042305  0.000000      0.005208
 -0.025402  0.043998  0.000000      0.005208
 -0.026379  0.045690  0.000000      0.005208
 -0.027356  0.047382  0.000000      0.005208
 -0.028333  0.049074  0.000000      0.005208
 -0.029310  0.050767  0.000000      0.005208
 -0.030287  0.052459  0.000000      0.005208
 -0.031264  0.054151  0.000000      0.005208
 -0.032241  0.055843  0.000000      0.005208
 -0.033218  0.057535  0.000000      0.005208
 -0.034195  0.059228  0.000000      0.005208
 -0.035172  0.060920  0.000000      0.005208
 -0.036149  0.062612  0.000000      0.005208
 -0.037126  0.064304  0.000000      0.005208
 -0.038103  0.065997  0.000000      0.005208
 -0.039080  0.067689  0.000000      0.005208
 -0.040057  0.069381  0.000000      0.005208
 -0.041034  0.071073  0.000000      0.005208
 -0.042011  0.072765  0.000000      0.005208
 -0.042988  0.074458  0.000000      0.005208
 -0.043965  0.076150  0.000000      0.005208
 -0.044942  0.077842  0.000000      0.005208
 -0.045919  0.079534  0.000000      0.005208
 -0.046896  0.081227  0.000000      0.005208
 -0.047873  0.082919  0.000000      0.005208
 -0.048850  0.084611  0.000000      0.005208
 -0.049827  0.086303  0.000000      0.005208
 -0.050804  0.087995  0.000000      0.005208
 -0.051781  0.089688  0.000000      0.005208
 -0.052758  0.091380  0.000000      0.005208
 -0.053735  0.093072  0.000000      0.005208
 -0.054712  0.094764  0.000000      0.005208
 -0.055689  0.096456  0.000000      0.005208
 -0.056666  0.098149  0.000000      0.005208
 -0.057643  0.099841  0.000000      0.005208
 -0.058620  0.101533  0.000000      0.005208
 -0.059597  0.103225  0.000000      0.005208
 -0.060574  0.104918  0.000000      0.005208
 -0.061551  0.106610  0.000000      0.005208
 -0.061551  0.106610  0.000000      0.005208
 -0.060574  0.107172  0.000000      0.005208
 -0.059597  0.107733  0.000000      0.005208
 -0.058620  0.108295  0.000000      0.005208
 -0.057643  0.108857  0.000000      0.005208
 -0.056666  0.109419  0.000000      0.005208
 -0.055689  0.109981  0.000000      0.005208
 -0.054712  0.110543  0.000000      0.005208
 -0.053735  0.111104  0.000000      0.005208
 -0.052758  0.111666  0.000000      0.005208
 -0.051781  0.112228  0.000000      0.005208
 -0.050804  0.112790  0.000000      0.005208
 -0.049827  0.113352  0.000000      0.005208
 -0.048850  0.113913  0.000000      0.005208
 -0.047873  0.114475  0.000000      0.005208
 -0.046896  0.115037  0.000000      0.005208
 -0.045919  0.115599  0.000000      0.005208
 -0.044942  0.116161  0.000000      0.005208
 -0.043965  0.116723  0.000000      0.005208
 -0.042988  0.117284  0.000000      0.005208
 -0.042011  0.117846  0.000000      0.005208
 -0.041034  0.118408  0.000000      0.005208
 -0.040057  0.118970  0.000000      0.005208
 -0.039080  0.119532  0.000000      0.005208
 -0.038103  0.120093  0.000000      0.005208
 -0.037126  0.120655  0.000000      0.005208
 -0.036149  0.121217  0.000000      0.005208
 -0.035172  0.121779  0.000000      0.005208
 -0.034195  0.122341  0.000000      0.005208
 -0.033218  0.122902  0.000000      0.005208
 -0.032241  0.123464  0.000000      0.005208
 -0.031264  0.124026  0.000000      0.005208
 -0.030287  0.124588  0.000000      0.005208
 -0.029310  0.125150  0.000000      0.005208
 -0.028333  0.125712  0.000000      0.005208
 -0.027356  0.126273  0.000000      0.005208
 -0.026379  0.126835  0.000000      0.005208
 -0.025402  0.127397  0.000000      0.005208
 -0.024425  0.127959  0.000000      0.005208
 -0.023448  0.128521  0.000000      0.005208
 -0.022471  0.129082  0.000000      0.005208
 -0.021494  0.129644  0.000000      0.005208
 -0.020517  0.130206  0.000000      0.005208
 -0.019540  0.130768  0.000000      0.005208
 -0.018563  0.131330  0.000000      0.005208
 -0.017586  0.131892  0.000000      0.005208
 -0.016609  0.132453  0.000000      0.005208
 -0.015632  0.133015  0.000000      0.005208
 -0.014655  0.133577  0.000000      0.005208
 -0.013678  0.134139  0.000000      0.005208
 -0.012701  0.134701  0.000000      0.005208
 -0.011724  0.135262  0.000000      0.005208
 -0.010747  0.135824  0.000000      0.005208
 -0.009770  0.136386  0.000000      0.005208
 -0.008793  0.136948  0.000000      0.005208
 -0.007816  0.137510  0.000000      0.005208
 -0.006839  0.138072  0.000000      0.005208
 -0.005862  0.138633  0.000000      0.005208
 -0.004885  0.139195  0.000000      0.005208
 -0.003908  0.139757  0.000000      0.005208
 -0.002931  0.140319  0.000000      0.005208
 -0.001954  0.140881  0.000000      0.005208
 -0.000977  0.141442  0.000000      0.005208
 -0.000000  0.142004  0.000000      0.005208
 


--------------------------------------------------------------------------------------------------------




 Dimension of arrays:
   k-points           NKPTS =    192   k-points in BZ     NKDIM =    192   number of bands    NBANDS=     48
   number of dos      NEDOS =    301   number of ions     NIONS =      7
   non local maximal  LDIM  =      4   non local SUM 2l+1 LMDIM =      8
   total plane-waves  NPLWV = 110592
   max r-space proj   IRMAX =      1   max aug-charges    IRDMAX=   6234
   dimension x,y,z NGX =    32 NGY =   32 NGZ =  108
   dimension x,y,z NGXF=    64 NGYF=   64 NGZF=  216
   support grid    NGXF=    64 NGYF=   64 NGZF=  216
   ions per type =               4   3
   NGX,Y,Z   is equivalent  to a cutoff of  11.34, 11.34, 11.97 a.u.
   NGXF,Y,Z  is equivalent  to a cutoff of  22.69, 22.69, 23.94 a.u.

 SYSTEM =  BS                                      
 POSCAR =  B4C3 with lattice parameter 4.690       

 Startparameter for this run:
   NWRITE =      2    write-flag & timer
   PREC   = accura    normal or accurate (medium, high low for compatibility)
   ISTART =      0    job   : 0-new  1-cont  2-samecut
   ICHARG =     11    charge: 1-file 2-atom 10-const
   ISPIN  =      1    spin polarized calculation?
   LNONCOLLINEAR =      F non collinear calculations
   LSORBIT =      F    spin-orbit coupling
   INIWAV =      1    electr: 0-lowe 1-rand  2-diag
   LASPH  =      F    aspherical Exc in radial PAW
 Electronic Relaxation 1
   ENCUT  =  450.0 eV  33.07 Ry    5.75 a.u.   8.11  8.11 25.95*2*pi/ulx,y,z
   ENINI  =  450.0     initial cutoff
   ENAUG  =  644.9 eV  augmentation charge cutoff
   NELM   =     64;   NELMIN=  2; NELMDL= -5     # of ELM steps 
   EDIFF  = 0.1E-05   stopping-criterion for ELM
   LREAL  =      F    real-space projection
   NLSPLINE    = F    spline interpolate recip. space projectors
   LCOMPAT=      F    compatible to vasp.4.4
   GGA_COMPAT  = T    GGA compatible to vasp.4.4-vasp.4.6
   LMAXPAW     = -100 max onsite density
   LMAXMIX     =    2 max onsite mixed and CHGCAR
   VOSKOWN=      0    Vosko Wilk Nusair interpolation
   ROPT   =    0.00000   0.00000
 Ionic relaxation
   EDIFFG = -.1E-02   stopping-criterion for IOM
   NSW    =      0    number of steps for IOM
   NBLOCK =      1;   KBLOCK =      1    inner block; outer block 
   IBRION =     -1    ionic relax: 0-MD 1-quasi-New 2-CG
   NFREE  =      0    steps in history (QN), initial steepest desc. (CG)
   ISIF   =      2    stress and relaxation
   IWAVPR =     10    prediction:  0-non 1-charg 2-wave 3-comb
   ISYM   =      0    0-nonsym 1-usesym 2-fastsym
   LCORR  =      T    Harris-Foulkes like correction to forces

   POTIM  = 0.5000    time-step for ionic-motion
   TEIN   =    0.0    initial temperature
   TEBEG  =    0.0;   TEEND  =   0.0 temperature during run
   SMASS  =  -3.00    Nose mass-parameter (am)
   estimated Nose-frequenzy (Omega)   =  0.10E-29 period in steps = 0.13E+47 mass=  -0.503E-27a.u.
   SCALEE = 1.0000    scale energy and forces
   NPACO  =    256;   APACO  = 10.0  distance and # of slots for P.C.
   PSTRESS=    0.0 pullay stress

  Mass of Ions in am
   POMASS =  10.81 12.01
  Ionic Valenz
   ZVAL   =   3.00  4.00
  Atomic Wigner-Seitz radii
   RWIGS  =  -1.00 -1.00
  virtual crystal weights 
   VCA    =   1.00  1.00
   NELECT =      24.0000    total number of electrons
   NUPDOWN=      -1.0000    fix difference up-down

 DOS related values:
   EMIN   =  10.00;   EMAX   =-10.00  energy-range for DOS
   EFERMI =   0.00
   ISMEAR =     0;   SIGMA  =   0.10  broadening in eV -4-tet -1-fermi 0-gaus

 Electronic relaxation 2 (details)
   IALGO  =     38    algorithm
   LDIAG  =      T    sub-space diagonalisation (order eigenvalues)
   LSUBROT=      F    optimize rotation matrix (better conditioning)
   TURBO    =      0    0=normal 1=particle mesh
   IRESTART =      0    0=no restart 2=restart with 2 vectors
   NREBOOT  =      0    no. of reboots
   NMIN     =      0    reboot dimension
   EREF     =   0.00    reference energy to select bands
   IMIX   =      4    mixing-type and parameters
     AMIX     =   0.40;   BMIX     =  1.00
     AMIX_MAG =   1.60;   BMIX_MAG =  1.00
     AMIN     =   0.10
     WC   =   100.;   INIMIX=   1;  MIXPRE=   1;  MAXMIX= -45

 Intra band minimization:
   WEIMIN = 0.0000     energy-eigenvalue tresh-hold
   EBREAK =  0.52E-08  absolut break condition
   DEPER  =   0.30     relativ break condition  

   TIME   =   0.40     timestep for ELM

  volume/ion in A,a.u.               =      40.82       275.46
  Fermi-wavevector in a.u.,A,eV,Ry     =   0.716951  1.354841  6.993647  0.514019
  Thomas-Fermi vector in A             =   1.805505
 
 Write flags
   LWAVE        =      T    write WAVECAR
   LDOWNSAMPLE  =      F    k-point downsampling of WAVECAR
   LCHARG       =      T    write CHGCAR
   LVTOT        =      F    write LOCPOT, total local potential
   LVHAR        =      F    write LOCPOT, Hartree potential only
   LELF         =      F    write electronic localiz. function (ELF)
   LORBIT       =     11    0 simple, 1 ext, 2 COOP (PROOUT), +10 PAW based schemes


 Dipole corrections
   LMONO  =      F    monopole corrections only (constant potential shift)
   LDIPOL =      F    correct potential (dipole corrections)
   IDIPOL =      0    1-x, 2-y, 3-z, 4-all directions 
   EPSILON=  1.0000000 bulk dielectric constant

 Exchange correlation treatment:
   GGA     =    PE    GGA type
   LEXCH   =     8    internal setting for exchange type
   LIBXC   =     F    Libxc                    
   VOSKOWN =     0    Vosko Wilk Nusair interpolation
   LHFCALC =     F    Hartree Fock is set to
   LHFONE  =     F    Hartree Fock one center treatment
   AEXX    =    0.0000 exact exchange contribution

 Linear response parameters
   LEPSILON=     F    determine dielectric tensor
   LRPA    =     F    only Hartree local field effects (RPA)
   LNABLA  =     F    use nabla operator in PAW spheres
   LVEL    =     F    velocity operator in full k-point grid
   CSHIFT  =0.1000    complex shift for real part using Kramers Kronig
   OMEGAMAX=  -1.0    maximum frequency
   DEG_THRESHOLD= 0.2000000E-02 threshold for treating states as degnerate
   RTIME   =   -0.100 relaxation time in fs
  (WPLASMAI=    0.000 imaginary part of plasma frequency in eV, 0.658/RTIME)
   DFIELD  = 0.0000000 0.0000000 0.0000000 field for delta impulse in time
 
  Optional k-point grid parameters
   LKPOINTS_OPT  =     F    use optional k-point grid
   KPOINTS_OPT_MODE=     1    mode for optional k-point grid
 
 Orbital magnetization related:
   ORBITALMAG=     F  switch on orbital magnetization
   LCHIMAG   =     F  perturbation theory with respect to B field
   DQ        =  0.001000  dq finite difference perturbation B field
   LLRAUG    =     F  two centre corrections for induced B field



--------------------------------------------------------------------------------------------------------


 Static calculation
 charge density and potential remain constant during run
 non-spin polarized calculation
 Variant of blocked Davidson
 Davidson routine will perform the subspace rotation
 perform sub-space diagonalisation
    after iterative eigenvector-optimisation
 no mixing
 using additional bands           36
 reciprocal scheme for non local part
 use partial core corrections
 calculate Harris-corrections to forces 
   (improved forces if not selfconsistent)
 use gradient corrections 
 WARNING: stress and forces are not correct
  (second derivative of E(xc) not defined)
 use of overlap-Matrix (Vanderbilt PP)
 Gauss-broadening in eV      SIGMA  =   0.10


--------------------------------------------------------------------------------------------------------


  energy-cutoff  :      450.00
  volume of cell :      285.74
      direct lattice vectors                 reciprocal lattice vectors
     4.061659000  2.345000000  0.000000000     0.123102407  0.213219616  0.000000000
    -4.061659000  2.345000000  0.000000000    -0.123102407  0.213219616  0.000000000
     0.000000000  0.000000000 15.000000000     0.000000000  0.000000000  0.066666667

  length of vectors
     4.689999876  4.689999876 15.000000000     0.246204808  0.246204808  0.066666667


 
 k-points in units of 2pi/SCALE and weight: K-points                                
  -0.00000000  0.14200426  0.00000000       0.005
  -0.00000000  0.13975023  0.00000000       0.005
   0.00000000  0.13749619  0.00000000       0.005
   0.00000000  0.13524216  0.00000000       0.005
   0.00000000  0.13298812  0.00000000       0.005
   0.00000000  0.13073408  0.00000000       0.005
  -0.00000000  0.12848005  0.00000000       0.005
  -0.00000000  0.12622601  0.00000000       0.005
  -0.00000000  0.12397198  0.00000000       0.005
  -0.00000000  0.12171794  0.00000000       0.005
   0.00000000  0.11946390  0.00000000       0.005
   0.00000000  0.11720987  0.00000000       0.005
   0.00000000  0.11495583  0.00000000       0.005
   0.00000000  0.11270180  0.00000000       0.005
  -0.00000000  0.11044776  0.00000000       0.005
  -0.00000000  0.10819373  0.00000000       0.005
   0.00000000  0.10593969  0.00000000       0.005
   0.00000000  0.10368565  0.00000000       0.005
  -0.00000000  0.10143162  0.00000000       0.005
  -0.00000000  0.09917758  0.00000000       0.005
   0.00000000  0.09692355  0.00000000       0.005
   0.00000000  0.09466951  0.00000000       0.005
  -0.00000000  0.09241547  0.00000000       0.005
  -0.00000000  0.09016144  0.00000000       0.005
   0.00000000  0.08790740  0.00000000       0.005
   0.00000000  0.08565337  0.00000000       0.005
  -0.00000000  0.08339933  0.00000000       0.005
  -0.00000000  0.08114529  0.00000000       0.005
  -0.00000000  0.07889126  0.00000000       0.005
   0.00000000  0.07663722  0.00000000       0.005
   0.00000000  0.07438319  0.00000000       0.005
  -0.00000000  0.07212915  0.00000000       0.005
  -0.00000000  0.06987511  0.00000000       0.005
   0.00000000  0.06762108  0.00000000       0.005
   0.00000000  0.06536704  0.00000000       0.005
  -0.00000000  0.06311301  0.00000000       0.005
  -0.00000000  0.06085897  0.00000000       0.005
   0.00000000  0.05860493  0.00000000       0.005
   0.00000000  0.05635090  0.00000000       0.005
  -0.00000000  0.05409686  0.00000000       0.005
   0.00000000  0.05184283  0.00000000       0.005
  -0.00000000  0.04958879  0.00000000       0.005
   0.00000000  0.04733475  0.00000000       0.005
  -0.00000000  0.04508072  0.00000000       0.005
   0.00000000  0.04282668  0.00000000       0.005
  -0.00000000  0.04057265  0.00000000       0.005
   0.00000000  0.03831861  0.00000000       0.005
  -0.00000000  0.03606458  0.00000000       0.005
   0.00000000  0.03381054  0.00000000       0.005
  -0.00000000  0.03155650  0.00000000       0.005
   0.00000000  0.02930247  0.00000000       0.005
  -0.00000000  0.02704843  0.00000000       0.005
  -0.00000000  0.02479440  0.00000000       0.005
  -0.00000000  0.02254036  0.00000000       0.005
  -0.00000000  0.02028632  0.00000000       0.005
  -0.00000000  0.01803229  0.00000000       0.005
  -0.00000000  0.01577825  0.00000000       0.005
  -0.00000000  0.01352422  0.00000000       0.005
  -0.00000000  0.01127018  0.00000000       0.005
  -0.00000000  0.00901614  0.00000000       0.005
  -0.00000000  0.00676211  0.00000000       0.005
  -0.00000000  0.00450807  0.00000000       0.005
  -0.00000000  0.00225404  0.00000000       0.005
   0.00000000  0.00000000  0.00000000       0.005
   0.00000000  0.00000000  0.00000000       0.005
  -0.00097700  0.00169222  0.00000000       0.005
  -0.00195401  0.00338444  0.00000000       0.005
  -0.00293101  0.00507666  0.00000000       0.005
  -0.00390801  0.00676888  0.00000000       0.005
  -0.00488502  0.00846110  0.00000000       0.005
  -0.00586202  0.01015332  0.00000000       0.005
  -0.00683902  0.01184553  0.00000000       0.005
  -0.00781603  0.01353775  0.00000000       0.005
  -0.00879303  0.01522997  0.00000000       0.005
  -0.00977003  0.01692219  0.00000000       0.005
  -0.01074704  0.01861441  0.00000000       0.005
  -0.01172404  0.02030663  0.00000000       0.005
  -0.01270104  0.02199885  0.00000000       0.005
  -0.01367805  0.02369107  0.00000000       0.005
  -0.01465505  0.02538329  0.00000000       0.005
  -0.01563205  0.02707551  0.00000000       0.005
  -0.01660905  0.02876773  0.00000000       0.005
  -0.01758606  0.03045995  0.00000000       0.005
  -0.01856306  0.03215216  0.00000000       0.005
  -0.01954006  0.03384438  0.00000000       0.005
  -0.02051707  0.03553660  0.00000000       0.005
  -0.02149407  0.03722882  0.00000000       0.005
  -0.02247107  0.03892104  0.00000000       0.005
  -0.02344808  0.04061326  0.00000000       0.005
  -0.02442508  0.04230548  0.00000000       0.005
  -0.02540208  0.04399770  0.00000000       0.005
  -0.02637909  0.04568992  0.00000000       0.005
  -0.02735609  0.04738214  0.00000000       0.005
  -0.02833309  0.04907436  0.00000000       0.005
  -0.02931010  0.05076658  0.00000000       0.005
  -0.03028710  0.05245879  0.00000000       0.005
  -0.03126410  0.05415101  0.00000000       0.005
  -0.03224111  0.05584323  0.00000000       0.005
  -0.03321811  0.05753545  0.00000000       0.005
  -0.03419511  0.05922767  0.00000000       0.005
  -0.03517212  0.06091989  0.00000000       0.005
  -0.03614912  0.06261211  0.00000000       0.005
  -0.03712612  0.06430433  0.00000000       0.005
  -0.03810313  0.06599655  0.00000000       0.005
  -0.03908013  0.06768877  0.00000000       0.005
  -0.04005713  0.06938099  0.00000000       0.005
  -0.04103414  0.07107321  0.00000000       0.005
  -0.04201114  0.07276542  0.00000000       0.005
  -0.04298814  0.07445764  0.00000000       0.005
  -0.04396515  0.07614986  0.00000000       0.005
  -0.04494215  0.07784208  0.00000000       0.005
  -0.04591915  0.07953430  0.00000000       0.005
  -0.04689616  0.08122652  0.00000000       0.005
  -0.04787316  0.08291874  0.00000000       0.005
  -0.04885016  0.08461096  0.00000000       0.005
  -0.04982716  0.08630318  0.00000000       0.005
  -0.05080417  0.08799540  0.00000000       0.005
  -0.05178117  0.08968762  0.00000000       0.005
  -0.05275817  0.09137984  0.00000000       0.005
  -0.05373518  0.09307205  0.00000000       0.005
  -0.05471218  0.09476427  0.00000000       0.005
  -0.05568918  0.09645649  0.00000000       0.005
  -0.05666619  0.09814871  0.00000000       0.005
  -0.05764319  0.09984093  0.00000000       0.005
  -0.05862019  0.10153315  0.00000000       0.005
  -0.05959720  0.10322537  0.00000000       0.005
  -0.06057420  0.10491759  0.00000000       0.005
  -0.06155120  0.10660981  0.00000000       0.005
  -0.06155120  0.10660981  0.00000000       0.005
  -0.06057420  0.10717162  0.00000000       0.005
  -0.05959720  0.10773344  0.00000000       0.005
  -0.05862019  0.10829526  0.00000000       0.005
  -0.05764319  0.10885708  0.00000000       0.005
  -0.05666619  0.10941889  0.00000000       0.005
  -0.05568918  0.10998071  0.00000000       0.005
  -0.05471218  0.11054253  0.00000000       0.005
  -0.05373518  0.11110434  0.00000000       0.005
  -0.05275817  0.11166616  0.00000000       0.005
  -0.05178117  0.11222798  0.00000000       0.005
  -0.05080417  0.11278979  0.00000000       0.005
  -0.04982716  0.11335161  0.00000000       0.005
  -0.04885016  0.11391343  0.00000000       0.005
  -0.04787316  0.11447524  0.00000000       0.005
  -0.04689616  0.11503706  0.00000000       0.005
  -0.04591915  0.11559888  0.00000000       0.005
  -0.04494215  0.11616069  0.00000000       0.005
  -0.04396515  0.11672251  0.00000000       0.005
  -0.04298814  0.11728433  0.00000000       0.005
  -0.04201114  0.11784614  0.00000000       0.005
  -0.04103414  0.11840796  0.00000000       0.005
  -0.04005713  0.11896978  0.00000000       0.005
  -0.03908013  0.11953159  0.00000000       0.005
  -0.03810313  0.12009341  0.00000000       0.005
  -0.03712612  0.12065523  0.00000000       0.005
  -0.03614912  0.12121704  0.00000000       0.005
  -0.03517212  0.12177886  0.00000000       0.005
  -0.03419511  0.12234068  0.00000000       0.005
  -0.03321811  0.12290249  0.00000000       0.005
  -0.03224111  0.12346431  0.00000000       0.005
  -0.03126410  0.12402613  0.00000000       0.005
  -0.03028710  0.12458794  0.00000000       0.005
  -0.02931010  0.12514976  0.00000000       0.005
  -0.02833309  0.12571158  0.00000000       0.005
  -0.02735609  0.12627339  0.00000000       0.005
  -0.02637909  0.12683521  0.00000000       0.005
  -0.02540208  0.12739703  0.00000000       0.005
  -0.02442508  0.12795885  0.00000000       0.005
  -0.02344808  0.12852066  0.00000000       0.005
  -0.02247107  0.12908248  0.00000000       0.005
  -0.02149407  0.12964430  0.00000000       0.005
  -0.02051707  0.13020611  0.00000000       0.005
  -0.01954006  0.13076793  0.00000000       0.005
  -0.01856306  0.13132975  0.00000000       0.005
  -0.01758606  0.13189156  0.00000000       0.005
  -0.01660905  0.13245338  0.00000000       0.005
  -0.01563205  0.13301520  0.00000000       0.005
  -0.01465505  0.13357701  0.00000000       0.005
  -0.01367805  0.13413883  0.00000000       0.005
  -0.01270104  0.13470065  0.00000000       0.005
  -0.01172404  0.13526246  0.00000000       0.005
  -0.01074704  0.13582428  0.00000000       0.005
  -0.00977003  0.13638610  0.00000000       0.005
  -0.00879303  0.13694791  0.00000000       0.005
  -0.00781603  0.13750973  0.00000000       0.005
  -0.00683902  0.13807155  0.00000000       0.005
  -0.00586202  0.13863336  0.00000000       0.005
  -0.00488502  0.13919518  0.00000000       0.005
  -0.00390801  0.13975700  0.00000000       0.005
  -0.00293101  0.14031881  0.00000000       0.005
  -0.00195401  0.14088063  0.00000000       0.005
  -0.00097700  0.14144245  0.00000000       0.005
  -0.00000000  0.14200426  0.00000000       0.005
 
 k-points in reciprocal lattice and weights: K-points                                
   0.33300000  0.33300000  0.00000000       0.005
   0.32771429  0.32771429  0.00000000       0.005
   0.32242857  0.32242857  0.00000000       0.005
   0.31714286  0.31714286  0.00000000       0.005
   0.31185714  0.31185714  0.00000000       0.005
   0.30657143  0.30657143  0.00000000       0.005
   0.30128571  0.30128571  0.00000000       0.005
   0.29600000  0.29600000  0.00000000       0.005
   0.29071429  0.29071429  0.00000000       0.005
   0.28542857  0.28542857  0.00000000       0.005
   0.28014286  0.28014286  0.00000000       0.005
   0.27485714  0.27485714  0.00000000       0.005
   0.26957143  0.26957143  0.00000000       0.005
   0.26428571  0.26428571  0.00000000       0.005
   0.25900000  0.25900000  0.00000000       0.005
   0.25371429  0.25371429  0.00000000       0.005
   0.24842857  0.24842857  0.00000000       0.005
   0.24314286  0.24314286  0.00000000       0.005
   0.23785714  0.23785714  0.00000000       0.005
   0.23257143  0.23257143  0.00000000       0.005
   0.22728571  0.22728571  0.00000000       0.005
   0.22200000  0.22200000  0.00000000       0.005
   0.21671429  0.21671429  0.00000000       0.005
   0.21142857  0.21142857  0.00000000       0.005
   0.20614286  0.20614286  0.00000000       0.005
   0.20085714  0.20085714  0.00000000       0.005
   0.19557143  0.19557143  0.00000000       0.005
   0.19028571  0.19028571  0.00000000       0.005
   0.18500000  0.18500000  0.00000000       0.005
   0.17971429  0.17971429  0.00000000       0.005
   0.17442857  0.17442857  0.00000000       0.005
   0.16914286  0.16914286  0.00000000       0.005
   0.16385714  0.16385714  0.00000000       0.005
   0.15857143  0.15857143  0.00000000       0.005
   0.15328571  0.15328571  0.00000000       0.005
   0.14800000  0.14800000  0.00000000       0.005
   0.14271429  0.14271429  0.00000000       0.005
   0.13742857  0.13742857  0.00000000       0.005
   0.13214286  0.13214286  0.00000000       0.005
   0.12685714  0.12685714  0.00000000       0.005
   0.12157143  0.12157143  0.00000000       0.005
   0.11628571  0.11628571  0.00000000       0.005
   0.11100000  0.11100000  0.00000000       0.005
   0.10571429  0.10571429  0.00000000       0.005
   0.10042857  0.10042857  0.00000000       0.005
   0.09514286  0.09514286  0.00000000       0.005
   0.08985714  0.08985714  0.00000000       0.005
   0.08457143  0.08457143  0.00000000       0.005
   0.07928571  0.07928571  0.00000000       0.005
   0.07400000  0.07400000  0.00000000       0.005
   0.06871429  0.06871429  0.00000000       0.005
   0.06342857  0.06342857  0.00000000       0.005
   0.05814286  0.05814286  0.00000000       0.005
   0.05285714  0.05285714  0.00000000       0.005
   0.04757143  0.04757143  0.00000000       0.005
   0.04228571  0.04228571  0.00000000       0.005
   0.03700000  0.03700000  0.00000000       0.005
   0.03171429  0.03171429  0.00000000       0.005
   0.02642857  0.02642857  0.00000000       0.005
   0.02114286  0.02114286  0.00000000       0.005
   0.01585714  0.01585714  0.00000000       0.005
   0.01057143  0.01057143  0.00000000       0.005
   0.00528571  0.00528571  0.00000000       0.005
   0.00000000  0.00000000  0.00000000       0.005
   0.00000000  0.00000000  0.00000000       0.005
   0.00000000  0.00793651  0.00000000       0.005
   0.00000000  0.01587302  0.00000000       0.005
   0.00000000  0.02380952  0.00000000       0.005
   0.00000000  0.03174603  0.00000000       0.005
   0.00000000  0.03968254  0.00000000       0.005
   0.00000000  0.04761905  0.00000000       0.005
   0.00000000  0.05555556  0.00000000       0.005
   0.00000000  0.06349206  0.00000000       0.005
   0.00000000  0.07142857  0.00000000       0.005
   0.00000000  0.07936508  0.00000000       0.005
   0.00000000  0.08730159  0.00000000       0.005
   0.00000000  0.09523810  0.00000000       0.005
   0.00000000  0.10317460  0.00000000       0.005
   0.00000000  0.11111111  0.00000000       0.005
   0.00000000  0.11904762  0.00000000       0.005
   0.00000000  0.12698413  0.00000000       0.005
   0.00000000  0.13492063  0.00000000       0.005
   0.00000000  0.14285714  0.00000000       0.005
   0.00000000  0.15079365  0.00000000       0.005
   0.00000000  0.15873016  0.00000000       0.005
   0.00000000  0.16666667  0.00000000       0.005
   0.00000000  0.17460317  0.00000000       0.005
   0.00000000  0.18253968  0.00000000       0.005
   0.00000000  0.19047619  0.00000000       0.005
   0.00000000  0.19841270  0.00000000       0.005
   0.00000000  0.20634921  0.00000000       0.005
   0.00000000  0.21428571  0.00000000       0.005
   0.00000000  0.22222222  0.00000000       0.005
   0.00000000  0.23015873  0.00000000       0.005
   0.00000000  0.23809524  0.00000000       0.005
   0.00000000  0.24603175  0.00000000       0.005
   0.00000000  0.25396825  0.00000000       0.005
   0.00000000  0.26190476  0.00000000       0.005
   0.00000000  0.26984127  0.00000000       0.005
   0.00000000  0.27777778  0.00000000       0.005
   0.00000000  0.28571429  0.00000000       0.005
   0.00000000  0.29365079  0.00000000       0.005
   0.00000000  0.30158730  0.00000000       0.005
   0.00000000  0.30952381  0.00000000       0.005
   0.00000000  0.31746032  0.00000000       0.005
   0.00000000  0.32539683  0.00000000       0.005
   0.00000000  0.33333333  0.00000000       0.005
   0.00000000  0.34126984  0.00000000       0.005
   0.00000000  0.34920635  0.00000000       0.005
   0.00000000  0.35714286  0.00000000       0.005
   0.00000000  0.36507937  0.00000000       0.005
   0.00000000  0.37301587  0.00000000       0.005
   0.00000000  0.38095238  0.00000000       0.005
   0.00000000  0.38888889  0.00000000       0.005
   0.00000000  0.39682540  0.00000000       0.005
   0.00000000  0.40476190  0.00000000       0.005
   0.00000000  0.41269841  0.00000000       0.005
   0.00000000  0.42063492  0.00000000       0.005
   0.00000000  0.42857143  0.00000000       0.005
   0.00000000  0.43650794  0.00000000       0.005
   0.00000000  0.44444444  0.00000000       0.005
   0.00000000  0.45238095  0.00000000       0.005
   0.00000000  0.46031746  0.00000000       0.005
   0.00000000  0.46825397  0.00000000       0.005
   0.00000000  0.47619048  0.00000000       0.005
   0.00000000  0.48412698  0.00000000       0.005
   0.00000000  0.49206349  0.00000000       0.005
   0.00000000  0.50000000  0.00000000       0.005
   0.00000000  0.50000000  0.00000000       0.005
   0.00528571  0.49734921  0.00000000       0.005
   0.01057143  0.49469841  0.00000000       0.005
   0.01585714  0.49204762  0.00000000       0.005
   0.02114286  0.48939683  0.00000000       0.005
   0.02642857  0.48674603  0.00000000       0.005
   0.03171429  0.48409524  0.00000000       0.005
   0.03700000  0.48144444  0.00000000       0.005
   0.04228571  0.47879365  0.00000000       0.005
   0.04757143  0.47614286  0.00000000       0.005
   0.05285714  0.47349206  0.00000000       0.005
   0.05814286  0.47084127  0.00000000       0.005
   0.06342857  0.46819048  0.00000000       0.005
   0.06871429  0.46553968  0.00000000       0.005
   0.07400000  0.46288889  0.00000000       0.005
   0.07928571  0.46023810  0.00000000       0.005
   0.08457143  0.45758730  0.00000000       0.005
   0.08985714  0.45493651  0.00000000       0.005
   0.09514286  0.45228571  0.00000000       0.005
   0.10042857  0.44963492  0.00000000       0.005
   0.10571429  0.44698413  0.00000000       0.005
   0.11100000  0.44433333  0.00000000       0.005
   0.11628571  0.44168254  0.00000000       0.005
   0.12157143  0.43903175  0.00000000       0.005
   0.12685714  0.43638095  0.00000000       0.005
   0.13214286  0.43373016  0.00000000       0.005
   0.13742857  0.43107937  0.00000000       0.005
   0.14271429  0.42842857  0.00000000       0.005
   0.14800000  0.42577778  0.00000000       0.005
   0.15328571  0.42312698  0.00000000       0.005
   0.15857143  0.42047619  0.00000000       0.005
   0.16385714  0.41782540  0.00000000       0.005
   0.16914286  0.41517460  0.00000000       0.005
   0.17442857  0.41252381  0.00000000       0.005
   0.17971429  0.40987302  0.00000000       0.005
   0.18500000  0.40722222  0.00000000       0.005
   0.19028571  0.40457143  0.00000000       0.005
   0.19557143  0.40192063  0.00000000       0.005
   0.20085714  0.39926984  0.00000000       0.005
   0.20614286  0.39661905  0.00000000       0.005
   0.21142857  0.39396825  0.00000000       0.005
   0.21671429  0.39131746  0.00000000       0.005
   0.22200000  0.38866667  0.00000000       0.005
   0.22728571  0.38601587  0.00000000       0.005
   0.23257143  0.38336508  0.00000000       0.005
   0.23785714  0.38071429  0.00000000       0.005
   0.24314286  0.37806349  0.00000000       0.005
   0.24842857  0.37541270  0.00000000       0.005
   0.25371429  0.37276190  0.00000000       0.005
   0.25900000  0.37011111  0.00000000       0.005
   0.26428571  0.36746032  0.00000000       0.005
   0.26957143  0.36480952  0.00000000       0.005
   0.27485714  0.36215873  0.00000000       0.005
   0.28014286  0.35950794  0.00000000       0.005
   0.28542857  0.35685714  0.00000000       0.005
   0.29071429  0.35420635  0.00000000       0.005
   0.29600000  0.35155556  0.00000000       0.005
   0.30128571  0.34890476  0.00000000       0.005
   0.30657143  0.34625397  0.00000000       0.005
   0.31185714  0.34360317  0.00000000       0.005
   0.31714286  0.34095238  0.00000000       0.005
   0.32242857  0.33830159  0.00000000       0.005
   0.32771429  0.33565079  0.00000000       0.005
   0.33300000  0.33300000  0.00000000       0.005
 
 position of ions in fractional coordinates (direct lattice) 
   0.00418393  0.00277040  0.12026517
   0.35695522  0.00278199  0.09750344
   0.00418697  0.35554205  0.09750299
   0.65141623  0.65001171  0.09750545
   0.32810072  0.32669404  0.10028273
   0.68026827  0.00278111  0.10029217
   0.00418666  0.67885669  0.10029405
 
 position of ions in cartesian coordinates  (Angst):
   0.00574127  0.01630791  1.80397753
   1.43853088  0.84358376  1.46255163
  -1.42708452  0.84356455  1.46254490
   0.00570467  3.05184853  1.46258182
   0.00571343  1.53549371  1.50424089
   2.75172183  1.60175081  1.50438248
  -2.74027960  1.60173665  1.50441075
 


--------------------------------------------------------------------------------------------------------


 k-point   1 :   0.3330 0.3330 0.0000  plane waves:    6204
 k-point   2 :   0.3277 0.3277 0.0000  plane waves:    6206
 k-point   3 :   0.3224 0.3224 0.0000  plane waves:    6204
 k-point   4 :   0.3171 0.3171 0.0000  plane waves:    6200
 k-point   5 :   0.3119 0.3119 0.0000  plane waves:    6200
 k-point   6 :   0.3066 0.3066 0.0000  plane waves:    6206
 k-point   7 :   0.3013 0.3013 0.0000  plane waves:    6202
 k-point   8 :   0.2960 0.2960 0.0000  plane waves:    6190
 k-point   9 :   0.2907 0.2907 0.0000  plane waves:    6194
 k-point  10 :   0.2854 0.2854 0.0000  plane waves:    6204
 k-point  11 :   0.2801 0.2801 0.0000  plane waves:    6196
 k-point  12 :   0.2749 0.2749 0.0000  plane waves:    6196
 k-point  13 :   0.2696 0.2696 0.0000  plane waves:    6204
 k-point  14 :   0.2643 0.2643 0.0000  plane waves:    6200
 k-point  15 :   0.2590 0.2590 0.0000  plane waves:    6204
 k-point  16 :   0.2537 0.2537 0.0000  plane waves:    6206
 k-point  17 :   0.2484 0.2484 0.0000  plane waves:    6210
 k-point  18 :   0.2431 0.2431 0.0000  plane waves:    6206
 k-point  19 :   0.2379 0.2379 0.0000  plane waves:    6208
 k-point  20 :   0.2326 0.2326 0.0000  plane waves:    6212
 k-point  21 :   0.2273 0.2273 0.0000  plane waves:    6216
 k-point  22 :   0.2220 0.2220 0.0000  plane waves:    6208
 k-point  23 :   0.2167 0.2167 0.0000  plane waves:    6204
 k-point  24 :   0.2114 0.2114 0.0000  plane waves:    6200
 k-point  25 :   0.2061 0.2061 0.0000  plane waves:    6196
 k-point  26 :   0.2009 0.2009 0.0000  plane waves:    6204
 k-point  27 :   0.1956 0.1956 0.0000  plane waves:    6194
 k-point  28 :   0.1903 0.1903 0.0000  plane waves:    6196
 k-point  29 :   0.1850 0.1850 0.0000  plane waves:    6188
 k-point  30 :   0.1797 0.1797 0.0000  plane waves:    6184
 k-point  31 :   0.1744 0.1744 0.0000  plane waves:    6180
 k-point  32 :   0.1691 0.1691 0.0000  plane waves:    6180
 k-point  33 :   0.1639 0.1639 0.0000  plane waves:    6172
 k-point  34 :   0.1586 0.1586 0.0000  plane waves:    6172
 k-point  35 :   0.1533 0.1533 0.0000  plane waves:    6160
 k-point  36 :   0.1480 0.1480 0.0000  plane waves:    6176
 k-point  37 :   0.1427 0.1427 0.0000  plane waves:    6176
 k-point  38 :   0.1374 0.1374 0.0000  plane waves:    6174
 k-point  39 :   0.1321 0.1321 0.0000  plane waves:    6162
 k-point  40 :   0.1269 0.1269 0.0000  plane waves:    6166
 k-point  41 :   0.1216 0.1216 0.0000  plane waves:    6168
 k-point  42 :   0.1163 0.1163 0.0000  plane waves:    6172
 k-point  43 :   0.1110 0.1110 0.0000  plane waves:    6166
 k-point  44 :   0.1057 0.1057 0.0000  plane waves:    6164
 k-point  45 :   0.1004 0.1004 0.0000  plane waves:    6168
 k-point  46 :   0.0951 0.0951 0.0000  plane waves:    6160
 k-point  47 :   0.0899 0.0899 0.0000  plane waves:    6162
 k-point  48 :   0.0846 0.0846 0.0000  plane waves:    6168
 k-point  49 :   0.0793 0.0793 0.0000  plane waves:    6168
 k-point  50 :   0.0740 0.0740 0.0000  plane waves:    6170
 k-point  51 :   0.0687 0.0687 0.0000  plane waves:    6174
 k-point  52 :   0.0634 0.0634 0.0000  plane waves:    6176
 k-point  53 :   0.0581 0.0581 0.0000  plane waves:    6172
 k-point  54 :   0.0529 0.0529 0.0000  plane waves:    6169
 k-point  55 :   0.0476 0.0476 0.0000  plane waves:    6169
 k-point  56 :   0.0423 0.0423 0.0000  plane waves:    6167
 k-point  57 :   0.0370 0.0370 0.0000  plane waves:    6169
 k-point  58 :   0.0317 0.0317 0.0000  plane waves:    6157
 k-point  59 :   0.0264 0.0264 0.0000  plane waves:    6163
 k-point  60 :   0.0211 0.0211 0.0000  plane waves:    6165
 k-point  61 :   0.0159 0.0159 0.0000  plane waves:    6173
 k-point  62 :   0.0106 0.0106 0.0000  plane waves:    6183
 k-point  63 :   0.0053 0.0053 0.0000  plane waves:    6189
 k-point  64 :   0.0000 0.0000 0.0000  plane waves:    6189
 k-point  65 :   0.0000 0.0000 0.0000  plane waves:    6189
 k-point  66 :   0.0000 0.0079 0.0000  plane waves:    6187
 k-point  67 :   0.0000 0.0159 0.0000  plane waves:    6179
 k-point  68 :   0.0000 0.0238 0.0000  plane waves:    6179
 k-point  69 :   0.0000 0.0317 0.0000  plane waves:    6164
 k-point  70 :   0.0000 0.0397 0.0000  plane waves:    6166
 k-point  71 :   0.0000 0.0476 0.0000  plane waves:    6170
 k-point  72 :   0.0000 0.0556 0.0000  plane waves:    6164
 k-point  73 :   0.0000 0.0635 0.0000  plane waves:    6168
 k-point  74 :   0.0000 0.0714 0.0000  plane waves:    6172
 k-point  75 :   0.0000 0.0794 0.0000  plane waves:    6180
 k-point  76 :   0.0000 0.0873 0.0000  plane waves:    6172
 k-point  77 :   0.0000 0.0952 0.0000  plane waves:    6168
 k-point  78 :   0.0000 0.1032 0.0000  plane waves:    6168
 k-point  79 :   0.0000 0.1111 0.0000  plane waves:    6174
 k-point  80 :   0.0000 0.1190 0.0000  plane waves:    6176
 k-point  81 :   0.0000 0.1270 0.0000  plane waves:    6164
 k-point  82 :   0.0000 0.1349 0.0000  plane waves:    6156
 k-point  83 :   0.0000 0.1429 0.0000  plane waves:    6160
 k-point  84 :   0.0000 0.1508 0.0000  plane waves:    6156
 k-point  85 :   0.0000 0.1587 0.0000  plane waves:    6156
 k-point  86 :   0.0000 0.1667 0.0000  plane waves:    6148
 k-point  87 :   0.0000 0.1746 0.0000  plane waves:    6152
 k-point  88 :   0.0000 0.1825 0.0000  plane waves:    6152
 k-point  89 :   0.0000 0.1905 0.0000  plane waves:    6160
 k-point  90 :   0.0000 0.1984 0.0000  plane waves:    6170
 k-point  91 :   0.0000 0.2063 0.0000  plane waves:    6170
 k-point  92 :   0.0000 0.2143 0.0000  plane waves:    6174
 k-point  93 :   0.0000 0.2222 0.0000  plane waves:    6180
 k-point  94 :   0.0000 0.2302 0.0000  plane waves:    6178
 k-point  95 :   0.0000 0.2381 0.0000  plane waves:    6184
 k-point  96 :   0.0000 0.2460 0.0000  plane waves:    6184
 k-point  97 :   0.0000 0.2540 0.0000  plane waves:    6182
 k-point  98 :   0.0000 0.2619 0.0000  plane waves:    6186
 k-point  99 :   0.0000 0.2698 0.0000  plane waves:    6192
 k-point 100 :   0.0000 0.2778 0.0000  plane waves:    6200
 k-point 101 :   0.0000 0.2857 0.0000  plane waves:    6208
 k-point 102 :   0.0000 0.2937 0.0000  plane waves:    6208
 k-point 103 :   0.0000 0.3016 0.0000  plane waves:    6204
 k-point 104 :   0.0000 0.3095 0.0000  plane waves:    6206
 k-point 105 :   0.0000 0.3175 0.0000  plane waves:    6204
 k-point 106 :   0.0000 0.3254 0.0000  plane waves:    6200
 k-point 107 :   0.0000 0.3333 0.0000  plane waves:    6210
 k-point 108 :   0.0000 0.3413 0.0000  plane waves:    6202
 k-point 109 :   0.0000 0.3492 0.0000  plane waves:    6218
 k-point 110 :   0.0000 0.3571 0.0000  plane waves:    6214
 k-point 111 :   0.0000 0.3651 0.0000  plane waves:    6208
 k-point 112 :   0.0000 0.3730 0.0000  plane waves:    6212
 k-point 113 :   0.0000 0.3810 0.0000  plane waves:    6212
 k-point 114 :   0.0000 0.3889 0.0000  plane waves:    6208
 k-point 115 :   0.0000 0.3968 0.0000  plane waves:    6216
 k-point 116 :   0.0000 0.4048 0.0000  plane waves:    6220
 k-point 117 :   0.0000 0.4127 0.0000  plane waves:    6226
 k-point 118 :   0.0000 0.4206 0.0000  plane waves:    6222
 k-point 119 :   0.0000 0.4286 0.0000  plane waves:    6214
 k-point 120 :   0.0000 0.4365 0.0000  plane waves:    6214
 k-point 121 :   0.0000 0.4444 0.0000  plane waves:    6206
 k-point 122 :   0.0000 0.4524 0.0000  plane waves:    6206
 k-point 123 :   0.0000 0.4603 0.0000  plane waves:    6194
 k-point 124 :   0.0000 0.4683 0.0000  plane waves:    6194
 k-point 125 :   0.0000 0.4762 0.0000  plane waves:    6200
 k-point 126 :   0.0000 0.4841 0.0000  plane waves:    6202
 k-point 127 :   0.0000 0.4921 0.0000  plane waves:    6198
 k-point 128 :   0.0000 0.5000 0.0000  plane waves:    6202
 k-point 129 :   0.0000 0.5000 0.0000  plane waves:    6202
 k-point 130 :   0.0053 0.4973 0.0000  plane waves:    6198
 k-point 131 :   0.0106 0.4947 0.0000  plane waves:    6202
 k-point 132 :   0.0159 0.4920 0.0000  plane waves:    6202
 k-point 133 :   0.0211 0.4894 0.0000  plane waves:    6196
 k-point 134 :   0.0264 0.4867 0.0000  plane waves:    6200
 k-point 135 :   0.0317 0.4841 0.0000  plane waves:    6188
 k-point 136 :   0.0370 0.4814 0.0000  plane waves:    6184
 k-point 137 :   0.0423 0.4788 0.0000  plane waves:    6188
 k-point 138 :   0.0476 0.4761 0.0000  plane waves:    6196
 k-point 139 :   0.0529 0.4735 0.0000  plane waves:    6200
 k-point 140 :   0.0581 0.4708 0.0000  plane waves:    6196
 k-point 141 :   0.0634 0.4682 0.0000  plane waves:    6204
 k-point 142 :   0.0687 0.4655 0.0000  plane waves:    6204
 k-point 143 :   0.0740 0.4629 0.0000  plane waves:    6204
 k-point 144 :   0.0793 0.4602 0.0000  plane waves:    6210
 k-point 145 :   0.0846 0.4576 0.0000  plane waves:    6212
 k-point 146 :   0.0899 0.4549 0.0000  plane waves:    6208
 k-point 147 :   0.0951 0.4523 0.0000  plane waves:    6198
 k-point 148 :   0.1004 0.4496 0.0000  plane waves:    6194
 k-point 149 :   0.1057 0.4470 0.0000  plane waves:    6192
 k-point 150 :   0.1110 0.4443 0.0000  plane waves:    6194
 k-point 151 :   0.1163 0.4417 0.0000  plane waves:    6194
 k-point 152 :   0.1216 0.4390 0.0000  plane waves:    6186
 k-point 153 :   0.1269 0.4364 0.0000  plane waves:    6194
 k-point 154 :   0.1321 0.4337 0.0000  plane waves:    6202
 k-point 155 :   0.1374 0.4311 0.0000  plane waves:    6198
 k-point 156 :   0.1427 0.4284 0.0000  plane waves:    6200
 k-point 157 :   0.1480 0.4258 0.0000  plane waves:    6194
 k-point 158 :   0.1533 0.4231 0.0000  plane waves:    6194
 k-point 159 :   0.1586 0.4205 0.0000  plane waves:    6192
 k-point 160 :   0.1639 0.4178 0.0000  plane waves:    6188
 k-point 161 :   0.1691 0.4152 0.0000  plane waves:    6184
 k-point 162 :   0.1744 0.4125 0.0000  plane waves:    6190
 k-point 163 :   0.1797 0.4099 0.0000  plane waves:    6190
 k-point 164 :   0.1850 0.4072 0.0000  plane waves:    6190
 k-point 165 :   0.1903 0.4046 0.0000  plane waves:    6192
 k-point 166 :   0.1956 0.4019 0.0000  plane waves:    6188
 k-point 167 :   0.2009 0.3993 0.0000  plane waves:    6184
 k-point 168 :   0.2061 0.3966 0.0000  plane waves:    6186
 k-point 169 :   0.2114 0.3940 0.0000  plane waves:    6196
 k-point 170 :   0.2167 0.3913 0.0000  plane waves:    6196
 k-point 171 :   0.2220 0.3887 0.0000  plane waves:    6188
 k-point 172 :   0.2273 0.3860 0.0000  plane waves:    6192
 k-point 173 :   0.2326 0.3834 0.0000  plane waves:    6190
 k-point 174 :   0.2379 0.3807 0.0000  plane waves:    6196
 k-point 175 :   0.2431 0.3781 0.0000  plane waves:    6196
 k-point 176 :   0.2484 0.3754 0.0000  plane waves:    6196
 k-point 177 :   0.2537 0.3728 0.0000  plane waves:    6192
 k-point 178 :   0.2590 0.3701 0.0000  plane waves:    6190
 k-point 179 :   0.2643 0.3675 0.0000  plane waves:    6188
 k-point 180 :   0.2696 0.3648 0.0000  plane waves:    6192
 k-point 181 :   0.2749 0.3622 0.0000  plane waves:    6192
 k-point 182 :   0.2801 0.3595 0.0000  plane waves:    6188
 k-point 183 :   0.2854 0.3569 0.0000  plane waves:    6188
 k-point 184 :   0.2907 0.3542 0.0000  plane waves:    6186
 k-point 185 :   0.2960 0.3516 0.0000  plane waves:    6196
 k-point 186 :   0.3013 0.3489 0.0000  plane waves:    6196
 k-point 187 :   0.3066 0.3463 0.0000  plane waves:    6207
 k-point 188 :   0.3119 0.3436 0.0000  plane waves:    6205
 k-point 189 :   0.3171 0.3410 0.0000  plane waves:    6205
 k-point 190 :   0.3224 0.3383 0.0000  plane waves:    6206
 k-point 191 :   0.3277 0.3357 0.0000  plane waves:    6206
 k-point 192 :   0.3330 0.3330 0.0000  plane waves:    6204

 maximum and minimum number of plane-waves per node :      6226     6148

 maximum number of plane-waves:      6226
 maximum index in each direction: 
   IXMAX=    8   IYMAX=    8   IZMAX=   25
   IXMIN=   -8   IYMIN=   -8   IZMIN=  -25


 serial   3D FFT for wavefunctions
 parallel 3D FFT for charge:
    minimum data exchange during FFTs selected (reduces bandwidth)


 total amount of memory used by VASP MPI-rank0   210849. kBytes
=======================================================================

   base      :      30000. kBytes
   nonl-proj :     154053. kBytes
   fftplans  :       1313. kBytes
   grid      :       5998. kBytes
   one-center:         21. kBytes
   wavefun   :      19464. kBytes
 
     INWAV:  cpu time      0.0000: real time      0.0001
 initial charge density was supplied:
 number of electron      24.0000000 magnetization 
 keeping initial charge density in first step


--------------------------------------------------------------------------------------------------------


 Maximum index for augmentation-charges          368 (set IRDMAX)


--------------------------------------------------------------------------------------------------------


 First call to EWALD:  gamma=   0.269
 Maximum number of real-space cells 4x 4x 1
 Maximum number of reciprocal cells 2x 2x 6

    FEWALD:  cpu time      0.0017: real time      0.0021


--------------------------------------- Iteration      1(   1)  ---------------------------------------


    POTLOK:  cpu time      0.0216: real time      0.0240
    SETDIJ:  cpu time      0.0080: real time      0.0089
     EDDAV:  cpu time      5.5946: real time      5.6526
       DOS:  cpu time      0.0047: real time      0.0063
    --------------------------------------------
      LOOP:  cpu time      5.6288: real time      5.6918

 eigenvalue-minimisations  : 18432
 total energy-change (2. order) : 0.4168908E+02  (-0.9124741E+03)
 number of electron      24.0000000 magnetization 
 augmentation part       24.0000000 magnetization 

 Free energy of the ion-electron system (eV)
  ---------------------------------------------------
  alpha Z        PSCENC =        12.87923804
  Ewald energy   TEWEN  =      2035.29425873
  -Hartree energ DENC   =     -2651.55161553
  -exchange      EXHF   =         0.00000000
  -V(xc)+E(xc)   XCENC  =        70.47677744
  PAW double counting   =      2428.94870052    -2427.93693070
  entropy T*S    EENTRO =        -0.01241440
  eigenvalues    EBANDS =      -152.51733061
  atomic energy  EATOM  =       726.10839270
  Solvation  Ediel_sol  =         0.00000000
  ---------------------------------------------------
  free energy    TOTEN  =        41.68907619 eV

  energy without entropy =       41.70149058  energy(sigma->0) =       41.69528339


--------------------------------------------------------------------------------------------------------




--------------------------------------- Iteration      1(   2)  ---------------------------------------


     EDDAV:  cpu time      8.9727: real time      9.0642
       DOS:  cpu time      0.0011: real time      0.0011
    --------------------------------------------
      LOOP:  cpu time      8.9739: real time      9.0653

 eigenvalue-minimisations  : 27936
 total energy-change (2. order) :-0.9200253E+02  (-0.8955795E+02)
 number of electron      24.0000000 magnetization 
 augmentation part       24.0000000 magnetization 

 Free energy of the ion-electron system (eV)
  ---------------------------------------------------
  alpha Z        PSCENC =        12.87923804
  Ewald energy   TEWEN  =      2035.29425873
  -Hartree energ DENC   =     -2651.55161553
  -exchange      EXHF   =         0.00000000
  -V(xc)+E(xc)   XCENC  =        70.47677744
  PAW double counting   =      2428.94870052    -2427.93693070
  entropy T*S    EENTRO =        -0.00000000
  eigenvalues    EBANDS =      -244.53227262
  atomic energy  EATOM  =       726.10839270
  Solvation  Ediel_sol  =         0.00000000
  ---------------------------------------------------
  free energy    TOTEN  =       -50.31345142 eV

  energy without entropy =      -50.31345142  energy(sigma->0) =      -50.31345142


--------------------------------------------------------------------------------------------------------




--------------------------------------- Iteration      1(   3)  ---------------------------------------


     EDDAV:  cpu time      6.0632: real time      6.1185
       DOS:  cpu time      0.0010: real time      0.0010
    --------------------------------------------
      LOOP:  cpu time      6.0641: real time      6.1195

 eigenvalue-minimisations  : 19536
 total energy-change (2. order) :-0.1490768E+01  (-0.1490768E+01)
 number of electron      24.0000000 magnetization 
 augmentation part       24.0000000 magnetization 

 Free energy of the ion-electron system (eV)
  ---------------------------------------------------
  alpha Z        PSCENC =        12.87923804
  Ewald energy   TEWEN  =      2035.29425873
  -Hartree energ DENC   =     -2651.55161553
  -exchange      EXHF   =         0.00000000
  -V(xc)+E(xc)   XCENC  =        70.47677744
  PAW double counting   =      2428.94870052    -2427.93693070
  entropy T*S    EENTRO =        -0.00000000
  eigenvalues    EBANDS =      -246.02304039
  atomic energy  EATOM  =       726.10839270
  Solvation  Ediel_sol  =         0.00000000
  ---------------------------------------------------
  free energy    TOTEN  =       -51.80421919 eV

  energy without entropy =      -51.80421919  energy(sigma->0) =      -51.80421919


--------------------------------------------------------------------------------------------------------




--------------------------------------- Iteration      1(   4)  ---------------------------------------


     EDDAV:  cpu time     12.5768: real time     12.6778
       DOS:  cpu time      0.0011: real time      0.0011
    --------------------------------------------
      LOOP:  cpu time     12.5778: real time     12.6788

 eigenvalue-minimisations  : 35376
 total energy-change (2. order) :-0.1045014E-01  (-0.1045014E-01)
 number of electron      24.0000000 magnetization 
 augmentation part       24.0000000 magnetization 

 Free energy of the ion-electron system (eV)
  ---------------------------------------------------
  alpha Z        PSCENC =        12.87923804
  Ewald energy   TEWEN  =      2035.29425873
  -Hartree energ DENC   =     -2651.55161553
  -exchange      EXHF   =         0.00000000
  -V(xc)+E(xc)   XCENC  =        70.47677744
  PAW double counting   =      2428.94870052    -2427.93693070
  entropy T*S    EENTRO =        -0.00000000
  eigenvalues    EBANDS =      -246.03349052
  atomic energy  EATOM  =       726.10839270
  Solvation  Ediel_sol  =         0.00000000
  ---------------------------------------------------
  free energy    TOTEN  =       -51.81466933 eV

  energy without entropy =      -51.81466933  energy(sigma->0) =      -51.81466933


--------------------------------------------------------------------------------------------------------




--------------------------------------- Iteration      1(   5)  ---------------------------------------


     EDDAV:  cpu time      5.9432: real time      5.9971
       DOS:  cpu time      0.0009: real time      0.0009
    --------------------------------------------
      LOOP:  cpu time      5.9441: real time      5.9980

 eigenvalue-minimisations  : 19248
 total energy-change (2. order) :-0.1253739E-05  (-0.1253776E-05)
 number of electron      24.0000000 magnetization 
 augmentation part       24.0000000 magnetization 

 Free energy of the ion-electron system (eV)
  ---------------------------------------------------
  alpha Z        PSCENC =        12.87923804
  Ewald energy   TEWEN  =      2035.29425873
  -Hartree energ DENC   =     -2651.55161553
  -exchange      EXHF   =         0.00000000
  -V(xc)+E(xc)   XCENC  =        70.47677744
  PAW double counting   =      2428.94870052    -2427.93693070
  entropy T*S    EENTRO =        -0.00000000
  eigenvalues    EBANDS =      -246.03349178
  atomic energy  EATOM  =       726.10839270
  Solvation  Ediel_sol  =         0.00000000
  ---------------------------------------------------
  free energy    TOTEN  =       -51.81467058 eV

  energy without entropy =      -51.81467058  energy(sigma->0) =      -51.81467058


--------------------------------------------------------------------------------------------------------




--------------------------------------- Iteration      1(   6)  ---------------------------------------


     EDDAV:  cpu time     12.0635: real time     12.1426
       DOS:  cpu time      0.0010: real time      0.0010
    --------------------------------------------
      LOOP:  cpu time     12.0645: real time     12.1436

 eigenvalue-minimisations  : 34368
 total energy-change (2. order) :-0.1391754E-07  (-0.1393132E-07)
 number of electron      24.0000000 magnetization 
[...]
      4     -11.2928      2.00000
      5     -11.0547      2.00000
      6      -9.9943      2.00000
      7      -7.6478      2.00000
      8      -7.5965      2.00000
      9      -7.5033      2.00000
     10      -5.7657      2.00000
     11      -5.6518      2.00000
     12      -5.4722      2.00000
     13       0.5629      0.00000
     14       2.2244      0.00000
     15       2.5212      0.00000
     16       2.6947      0.00000
     17       3.3229      0.00000
     18       3.4798      0.00000
     19       3.5251      0.00000
     20       4.0799      0.00000
     21       4.1927      0.00000
     22       4.6692      0.00000
     23       4.7948      0.00000
     24       5.0292      0.00000
     25       5.1066      0.00000
     26       5.2988      0.00000
     27       5.5610      0.00000
     28       6.1204      0.00000
     29       7.1653      0.00000
     30       7.1738      0.00000
     31       7.4980      0.00000
     32       7.8561      0.00000
     33       8.0000      0.00000
     34       8.3175      0.00000
     35       8.6592      0.00000
     36       9.0006      0.00000
     37      10.4462      0.00000
     38      10.8532      0.00000
     39      10.9359      0.00000
     40      11.2676      0.00000
     41      11.3044      0.00000
     42      11.3496      0.00000
     43      12.0642      0.00000
     44      12.2515      0.00000
     45      12.3664      0.00000
     46      12.3867      0.00000
     47      12.6698      0.00000
     48      12.7841      0.00000

 k-point   188 :       0.3119    0.3436    0.0000
  band No.  band energies     occupation 
      1     -19.0026      2.00000
      2     -16.7898      2.00000
      3     -16.6910      2.00000
      4     -11.2650      2.00000
      5     -11.0767      2.00000
      6      -9.9997      2.00000
      7      -7.6342      2.00000
      8      -7.5936      2.00000
      9      -7.5179      2.00000
     10      -5.7623      2.00000
     11      -5.6364      2.00000
     12      -5.4934      2.00000
     13       0.5721      0.00000
     14       2.2507      0.00000
     15       2.4916      0.00000
     16       2.6906      0.00000
     17       3.3291      0.00000
     18       3.4829      0.00000
     19       3.5181      0.00000
     20       4.0833      0.00000
     21       4.1743      0.00000
     22       4.6862      0.00000
     23       4.8143      0.00000
     24       5.0202      0.00000
     25       5.0826      0.00000
     26       5.3203      0.00000
     27       5.5290      0.00000
     28       6.1167      0.00000
     29       7.1859      0.00000
     30       7.1945      0.00000
     31       7.4546      0.00000
     32       7.8766      0.00000
     33       8.0023      0.00000
     34       8.2940      0.00000
     35       8.6964      0.00000
     36       8.9748      0.00000
     37      10.4480      0.00000
     38      10.8689      0.00000
     39      10.9443      0.00000
     40      11.2788      0.00000
     41      11.2902      0.00000
     42      11.3499      0.00000
     43      12.0702      0.00000
     44      12.2642      0.00000
     45      12.3542      0.00000
     46      12.3732      0.00000
     47      12.6923      0.00000
     48      12.7771      0.00000

 k-point   189 :       0.3171    0.3410    0.0000
  band No.  band energies     occupation 
      1     -19.0020      2.00000
      2     -16.7785      2.00000
      3     -16.7044      2.00000
      4     -11.2384      2.00000
      5     -11.0986      2.00000
      6     -10.0040      2.00000
      7      -7.6205      2.00000
      8      -7.5910      2.00000
      9      -7.5325      2.00000
     10      -5.7596      2.00000
     11      -5.6206      2.00000
     12      -5.5137      2.00000
     13       0.5792      0.00000
     14       2.2783      0.00000
     15       2.4617      0.00000
     16       2.6873      0.00000
     17       3.3347      0.00000
     18       3.4859      0.00000
     19       3.5112      0.00000
     20       4.0885      0.00000
     21       4.1573      0.00000
     22       4.7024      0.00000
     23       4.8342      0.00000
     24       4.9928      0.00000
     25       5.0776      0.00000
     26       5.3422      0.00000
     27       5.4974      0.00000
     28       6.1142      0.00000
     29       7.2067      0.00000
     30       7.2155      0.00000
     31       7.4109      0.00000
     32       7.8972      0.00000
     33       8.0006      0.00000
     34       8.2740      0.00000
     35       8.7341      0.00000
     36       8.9465      0.00000
     37      10.4493      0.00000
     38      10.8844      0.00000
     39      10.9489      0.00000
     40      11.2623      0.00000
     41      11.3045      0.00000
     42      11.3490      0.00000
     43      12.0749      0.00000
     44      12.2755      0.00000
     45      12.3438      0.00000
     46      12.3611      0.00000
     47      12.7117      0.00000
     48      12.7705      0.00000

 k-point   190 :       0.3224    0.3383    0.0000
  band No.  band energies     occupation 
      1     -19.0015      2.00000
      2     -16.7670      2.00000
      3     -16.7174      2.00000
      4     -11.2130      2.00000
      5     -11.1204      2.00000
      6     -10.0073      2.00000
      7      -7.6067      2.00000
      8      -7.5889      2.00000
      9      -7.5473      2.00000
     10      -5.7577      2.00000
     11      -5.6045      2.00000
     12      -5.5330      2.00000
     13       0.5842      0.00000
     14       2.3071      0.00000
     15       2.4317      0.00000
     16       2.6847      0.00000
     17       3.3394      0.00000
     18       3.4888      0.00000
     19       3.5048      0.00000
     20       4.0955      0.00000
     21       4.1419      0.00000
     22       4.7171      0.00000
     23       4.8546      0.00000
     24       4.9588      0.00000
     25       5.0804      0.00000
     26       5.3645      0.00000
     27       5.4670      0.00000
     28       6.1126      0.00000
     29       7.2279      0.00000
     30       7.2367      0.00000
     31       7.3671      0.00000
     32       7.9180      0.00000
     33       7.9937      0.00000
     34       8.2591      0.00000
     35       8.7716      0.00000
     36       8.9161      0.00000
     37      10.4502      0.00000
     38      10.8997      0.00000
     39      10.9487      0.00000
     40      11.2483      0.00000
     41      11.3180      0.00000
     42      11.3468      0.00000
     43      12.0784      0.00000
     44      12.2849      0.00000
     45      12.3363      0.00000
     46      12.3509      0.00000
     47      12.7277      0.00000
     48      12.7640      0.00000

 k-point   191 :       0.3277    0.3357    0.0000
  band No.  band energies     occupation 
      1     -19.0012      2.00000
      2     -16.7554      2.00000
      3     -16.7300      2.00000
      4     -11.1891      2.00000
      5     -11.1421      2.00000
      6     -10.0093      2.00000
      7      -7.5929      2.00000
      8      -7.5872      2.00000
      9      -7.5621      2.00000
     10      -5.7566      2.00000
     11      -5.5881      2.00000
     12      -5.5515      2.00000
     13       0.5871      0.00000
     14       2.3368      0.00000
     15       2.4016      0.00000
     16       2.6829      0.00000
     17       3.3426      0.00000
     18       3.4917      0.00000
     19       3.4992      0.00000
     20       4.1041      0.00000
     21       4.1281      0.00000
     22       4.7286      0.00000
     23       4.8753      0.00000
     24       4.9260      0.00000
     25       5.0838      0.00000
     26       5.3871      0.00000
     27       5.4387      0.00000
     28       6.1118      0.00000
     29       7.2493      0.00000
     30       7.2582      0.00000
     31       7.3234      0.00000
     32       7.9389      0.00000
     33       7.9810      0.00000
     34       8.2502      0.00000
     35       8.8084      0.00000
     36       8.8837      0.00000
     37      10.4507      0.00000
     38      10.9147      0.00000
     39      10.9431      0.00000
     40      11.2395      0.00000
     41      11.3289      0.00000
     42      11.3432      0.00000
     43      12.0804      0.00000
     44      12.2909      0.00000
     45      12.3332      0.00000
     46      12.3427      0.00000
     47      12.7402      0.00000
     48      12.7574      0.00000

 k-point   192 :       0.3330    0.3330    0.0000
  band No.  band energies     occupation 
      1     -19.0011      2.00000
      2     -16.7443      2.00000
      3     -16.7414      2.00000
      4     -11.1679      2.00000
      5     -11.1625      2.00000
      6     -10.0101      2.00000
      7      -7.5865      2.00000
      8      -7.5795      2.00000
      9      -7.5761      2.00000
     10      -5.7562      2.00000
     11      -5.5722      2.00000
     12      -5.5680      2.00000
     13       0.5882      0.00000
     14       2.3653      0.00000
     15       2.3731      0.00000
     16       2.6823      0.00000
     17       3.3439      0.00000
     18       3.4945      0.00000
     19       3.4953      0.00000
     20       4.1138      0.00000
     21       4.1166      0.00000
     22       4.7339      0.00000
     23       4.8952      0.00000
     24       4.9005      0.00000
     25       5.0855      0.00000
     26       5.4088      0.00000
     27       5.4147      0.00000
     28       6.1115      0.00000
     29       7.2708      0.00000
     30       7.2779      0.00000
     31       7.2819      0.00000
     32       7.9587      0.00000
     33       7.9640      0.00000
     34       8.2471      0.00000
     35       8.8424      0.00000
     36       8.8513      0.00000
     37      10.4509      0.00000
     38      10.9286      0.00000
     39      10.9324      0.00000
     40      11.2364      0.00000
     41      11.3366      0.00000
     42      11.3381      0.00000
     43      12.0810      0.00000
     44      12.2928      0.00000
     45      12.3354      0.00000
     46      12.3367      0.00000
     47      12.7489      0.00000
     48      12.7507      0.00000


--------------------------------------------------------------------------------------------------------


 soft charge-density along one line, spin component           1
         0         1         2         3         4         5         6         7         8         9
 total charge-density along one line
 
 pseudopotential strength for first ion, spin component:           1
  6.902  10.543   0.000  -0.005   0.000   0.000  -0.008   0.000
 10.543  16.103   0.000  -0.008   0.000   0.000  -0.012   0.000
  0.000   0.000  -2.403  -0.000   0.000  -4.146  -0.000   0.000
 -0.005  -0.008  -0.000  -2.397   0.000  -0.000  -4.132   0.000
  0.000   0.000   0.000   0.000  -2.403   0.000   0.000  -4.146
  0.000   0.000  -4.146  -0.000   0.000  -6.957  -0.000   0.000
 -0.008  -0.012  -0.000  -4.132   0.000  -0.000  -6.927   0.000
  0.000   0.000   0.000   0.000  -4.146   0.000   0.000  -6.957
 total augmentation occupancy for first ion, spin component:           1
  2.000   0.000   0.000   0.000   0.000   0.000   0.000   0.000
  0.000   0.000   0.000   0.000   0.000   0.000   0.000   0.000
  0.000   0.000   0.333   0.000   0.000   0.000   0.000   0.000
  0.000   0.000   0.000   0.333   0.000   0.000   0.000   0.000
  0.000   0.000   0.000   0.000   0.333   0.000   0.000   0.000
  0.000   0.000   0.000   0.000   0.000   0.000   0.000   0.000
  0.000   0.000   0.000   0.000   0.000   0.000   0.000   0.000
  0.000   0.000   0.000   0.000   0.000   0.000   0.000   0.000


------------------------ aborting loop because EDIFF is reached ----------------------------------------





 total charge

# of ion       s       p       d       tot
------------------------------------------
    1        0.691   1.416   0.000   2.107
    2        0.691   1.318   0.000   2.009
    3        0.712   1.349   0.000   2.061
    4        0.719   1.352   0.000   2.071
    5        0.856   1.790   0.000   2.646
    6        0.828   1.811   0.000   2.639
    7        0.850   1.798   0.000   2.648
--------------------------------------------------
tot          5.347  10.833   0.000  16.179
 
    CHARGE:  cpu time      0.1718: real time      0.1747
    FORLOC:  cpu time      0.0012: real time      0.0016
    FORNL :  cpu time      0.5309: real time      0.5330
    STRESS:  cpu time      4.9466: real time      4.9637
    FORCOR:  cpu time      0.0126: real time      0.0135
    FORHAR:  cpu time      0.0048: real time      0.0051
    OFIELD:  cpu time      0.0002: real time      0.0004

 ---------------------------------------------------------------------------------------------

         DFTD3 V3.0 Rev 1        
 IVDW         = 12
 DF pbe       
 parameters
 VDW_S6       =    1.0000
 VDW_S8       =    0.7875
 VDW_A1       =    0.4289
 VDW_A2       =    4.4407
 k1-k3        =   16.0000    1.3333   -4.0000
 VDW_RADIUS   =   50.2022 A
 VDW_CNRADIUS =   21.1671 A
 Edisp (eV)   -0.52724

 E6    (eV) :    -0.3479
 E8    (eV) :    -0.1793
 % E8        : 34.01
    FORVDW:  cpu time      0.0355: real time      0.0436

  FORCE on cell =-STRESS in cart. coord.  units (eV):
  Direction    XX          YY          ZZ          XY          YZ          ZX
  --------------------------------------------------------------------------------------
  Alpha Z    12.87924    12.87924    12.87924
  Ewald    2711.23721  2711.22565 -3387.16952    -0.00217    -0.00655     0.00082
  Hartree  2614.90449  2616.13065 -2576.68922    -0.82716     0.10227     0.11168
  E(xc)     -83.07515   -83.08674   -85.82347     0.01159    -0.00018    -0.00144
  Local   -5544.34142 -5546.61269  5699.70285     1.94344    -0.36176    -0.41318
  n-local   -14.50710   -16.09922   -16.29276     0.94190    -0.01107    -0.00591
  augment    -0.90927    -0.91237    -0.74486     0.00312     0.00232     0.00231
  Kinetic   303.81197   309.49274   355.17681    -3.03347     0.22811     0.30157
  Fock        0.00000     0.00000     0.00000     0.00000     0.00000     0.00000
  vdW        -0.54156    -0.54156    -0.00673     0.00000    -0.00000     0.00000
  -------------------------------------------------------------------------------------
  Total      -0.54159     2.47570     1.03234    -0.96275    -0.04686    -0.00415
  in kB      -3.03679    13.88164     5.78851    -5.39832    -0.26274    -0.02325
  external pressure =        5.54 kB  Pullay stress =        0.00 kB


 VOLUME and BASIS-vectors are now :
 -----------------------------------------------------------------------------
  energy-cutoff  :      450.00
  volume of cell :      285.74
      direct lattice vectors                 reciprocal lattice vectors
     4.061659000  2.345000000  0.000000000     0.123102407  0.213219616  0.000000000
    -4.061659000  2.345000000  0.000000000    -0.123102407  0.213219616  0.000000000
     0.000000000  0.000000000 15.000000000     0.000000000  0.000000000  0.066666667

  length of vectors
     4.689999876  4.689999876 15.000000000     0.246204808  0.246204808  0.066666667


 FORCES acting on ions
    electron-ion (+dipol)            ewald-force                    non-local-force                 convergence-correction
 -----------------------------------------------------------------------------------------------
   -.369E+00 -.393E+00 -.918E+02   -.146E-02 0.384E-02 0.932E+02   -.111E-01 -.261E-01 -.141E+01   0.263E+00 0.263E+00 0.191E+00
   -.215E+02 -.125E+02 0.196E+02   0.236E+02 0.136E+02 -.204E+02   -.302E+01 -.168E+01 0.423E+00   0.236E+00 0.163E+00 0.158E+00
   0.204E+02 -.120E+02 0.200E+02   -.236E+02 0.136E+02 -.204E+02   0.242E+01 -.188E+01 0.314E+00   0.600E-01 -.108E+00 0.611E-01
   -.634E-01 0.236E+02 0.200E+02   0.516E-03 -.272E+02 -.204E+02   -.469E+00 0.299E+01 0.272E+00   -.868E-01 0.839E-01 0.505E-01
   -.536E+00 -.365E+02 0.906E+01   0.107E-03 0.439E+02 -.107E+02   0.238E+00 -.614E+01 0.176E+01   0.613E+00 -.675E+00 -.143E-01
   0.345E+02 0.198E+02 0.726E+01   -.380E+02 -.220E+02 -.107E+02   0.617E+01 0.352E+01 0.269E+01   -.123E+01 -.559E+00 0.502E+00
   -.323E+02 0.179E+02 0.878E+01   0.380E+02 -.220E+02 -.107E+02   -.537E+01 0.333E+01 0.194E+01   0.336E-01 0.838E+00 0.411E-01
 -----------------------------------------------------------------------------------------------
   0.174E+00 -.951E-01 -.705E+01   -.142E-13 0.249E-13 -.178E-14   -.406E-01 0.102E+00 0.599E+01   -.109E+00 0.662E-02 0.989E+00
 
 
 POSITION                                       TOTAL-FORCE (eV/Angst)
 -----------------------------------------------------------------------------------
      0.00574      0.01631      1.80398        -0.121325     -0.154310      0.196757
      1.43853      0.84358      1.46255        -0.770116     -0.459280     -0.183775
     -1.42708      0.84356      1.46254        -0.671503     -0.345342     -0.006326
      0.00570      3.05185      1.46258        -0.622199     -0.539553     -0.006126
      0.00571      1.53549      1.50424         0.311540      0.649580      0.100676
      2.75172      1.60175      1.50438         1.425522      0.785328     -0.210540
     -2.74028      1.60174      1.50441         0.448083      0.063577      0.109334
 -----------------------------------------------------------------------------------
    total drift:                                0.024680      0.013522     -0.065457


--------------------------------------------------------------------------------------------------------



  FREE ENERGIE OF THE ION-ELECTRON SYSTEM (eV)
  ---------------------------------------------------
  free  energy   TOTEN  =       -52.34190639 eV

  energy  without entropy=      -52.34190639  energy(sigma->0) =      -52.34190639
 


--------------------------------------------------------------------------------------------------------


    POTLOK:  cpu time      0.0180: real time      0.0185


--------------------------------------------------------------------------------------------------------


 stress matrix after NEB project (eV)
     -0.54159     -0.96275     -0.00415
     -0.96275      2.47570     -0.04686
     -0.00415     -0.04686      1.03234
  FORCES: max atom, RMS     1.641091    0.894638
  FORCE total and by dimension    2.366990    1.425522
  Stress total and by dimension    3.057180    2.475698
 writing wavefunctions
     LOOP+:  cpu time     59.0570: real time     60.2270
    4ORBIT:  cpu time      0.0000: real time      0.0000



 total charge

# of ion       s       p       d       tot
------------------------------------------
    1        0.691   1.416   0.000   2.107
    2        0.691   1.318   0.000   2.009
    3        0.712   1.349   0.000   2.061
    4        0.719   1.352   0.000   2.071
    5        0.856   1.790   0.000   2.646
    6        0.828   1.811   0.000   2.639
    7        0.850   1.798   0.000   2.648
--------------------------------------------------
tot          5.347  10.833   0.000  16.179
 

 total amount of memory used by VASP MPI-rank0   210849. kBytes
=======================================================================

   base      :      30000. kBytes
   nonl-proj :     154053. kBytes
   fftplans  :       1313. kBytes
   grid      :       5998. kBytes
   one-center:         21. kBytes
   wavefun   :      19464. kBytes
 
  
  
 General timing and accounting informations for this job:
 ========================================================
  
                  Total CPU time used (sec):       67.196
                            User time (sec):       63.496
                          System time (sec):        3.700
                         Elapsed time (sec):       70.624
  
                   Maximum memory used (kb):      736848.
                   Average memory used (kb):          N/A
  
                          Minor page faults:       422109
                          Major page faults:         4061
                 Voluntary context switches:         8312
