   8   8   0  16
  0.3994802E+02  0.4960000E-09  0.4960000E-09  0.1500000E-08  0.5000000E-15
  1.000000000000000E-004
  CAR 
 Graphene                                
     13.23311143    -23.34988798  301     -2.30904360      1.00000000
    -23.350  0.0000E+00  0.0000E+00
    -23.228  0.0000E+00  0.0000E+00
    -23.106  0.0000E+00  0.0000E+00
    -22.984  0.0000E+00  0.0000E+00
    -22.862  0.0000E+00  0.0000E+00
    -22.740  0.0000E+00  0.0000E+00
    -22.618  0.0000E+00  0.0000E+00
    -22.496  0.0000E+00  0.0000E+00
    -22.374  0.0000E+00  0.0000E+00
    -22.252  0.7587E-18  0.9252E-19
    -22.130  0.2302E-12  0.2808E-13
    -22.009  0.4145E-08  0.5054E-09
    -21.887  0.5065E-05  0.6181E-06
    -21.765  0.4917E-03  0.6058E-04
    -21.643  0.5161E-02  0.6900E-03
    -21.521  0.1130E-01  0.2068E-02
    -21.399  0.1248E-01  0.3590E-02
    -21.277  0.1204E-01  0.5058E-02
    -21.155  0.1325E-01  0.6674E-02
    -21.033  0.1176E-01  0.8108E-02
    -20.911  0.1216E-01  0.9591E-02
    -20.789  0.1473E-01  0.1139E-01
    -20.667  0.8994E-02  0.1248E-01
    -20.545  0.1482E-01  0.1429E-01
    -20.423  0.1435E-01  0.1604E-01
    -20.301  0.8108E-02  0.1703E-01
    -20.179  0.1428E-01  0.1877E-01
    -20.057  0.1601E-01  0.2072E-01
    -19.935  0.1054E-01  0.2201E-01
    -19.814  0.8316E-02  0.2302E-01
    -19.692  0.1732E-01  0.2513E-01
    -19.570  0.1580E-01  0.2706E-01
    -19.448  0.8201E-02  0.2806E-01
    -19.326  0.1038E-01  0.2933E-01
    -19.204  0.1505E-01  0.3116E-01
    -19.082  0.1779E-01  0.3333E-01
    -18.960  0.1166E-01  0.3475E-01
    -18.838  0.6061E-02  0.3549E-01
    -18.716  0.1426E-01  0.3723E-01
    -18.594  0.1796E-01  0.3942E-01
    -18.472  0.1461E-01  0.4120E-01
    -18.350  0.1172E-01  0.4263E-01
    -18.228  0.7016E-02  0.4349E-01
    -18.106  0.1190E-01  0.4494E-01
    -17.984  0.2276E-01  0.4772E-01
    -17.862  0.1304E-01  0.4931E-01
    -17.740  0.1100E-01  0.5065E-01
    -17.619  0.1083E-01  0.5197E-01
    -17.497  0.8772E-02  0.5304E-01
    -17.375  0.1918E-01  0.5538E-01
    -17.253  0.2134E-01  0.5798E-01
    -17.131  0.1087E-01  0.5930E-01
    -17.009  0.1038E-01  0.6057E-01
    -16.887  0.1122E-01  0.6194E-01
    -16.765  0.1455E-01  0.6371E-01
    -16.643  0.2465E-01  0.6672E-01
    -16.521  0.2164E-01  0.6935E-01
    -16.399  0.1676E-01  0.7140E-01
    -16.277  0.6527E-02  0.7219E-01
    -16.155  0.3753E-02  0.7265E-01
    -16.033  0.2053E-01  0.7515E-01
    -15.911  0.1560E-01  0.7706E-01
    -15.789  0.1358E-02  0.7722E-01
    -15.667  0.7222E-03  0.7731E-01
    -15.546  0.4452E-02  0.7785E-01
    -15.424  0.9565E-02  0.7902E-01
    -15.302  0.1473E-01  0.8082E-01
    -15.180  0.1213E-01  0.8230E-01
    -15.058  0.1082E-01  0.8361E-01
    -14.936  0.1335E-01  0.8524E-01
    -14.814  0.1367E-01  0.8691E-01
    -14.692  0.1891E-01  0.8921E-01
    -14.570  0.1529E-01  0.9108E-01
    -14.448  0.2062E-01  0.9359E-01
    -14.326  0.1729E-01  0.9570E-01
    -14.204  0.1527E-01  0.9756E-01
    -14.082  0.1170E-01  0.9899E-01
    -13.960  0.1237E-01  0.1005E+00
    -13.838  0.2263E-01  0.1033E+00
    -13.716  0.8152E-02  0.1043E+00
    -13.594  0.9071E-02  0.1054E+00
    -13.472  0.1325E-01  0.1070E+00
    -13.351  0.1734E-01  0.1091E+00
    -13.229  0.1072E-01  0.1104E+00
    -13.107  0.7325E-02  0.1113E+00
    -12.985  0.1047E-01  0.1126E+00
    -12.863  0.1348E-01  0.1142E+00
    -12.741  0.1524E-01  0.1161E+00
    -12.619  0.1145E-01  0.1175E+00
    -12.497  0.8376E-02  0.1185E+00
    -12.375  0.1686E-01  0.1205E+00
    -12.253  0.2023E-01  0.1230E+00
    -12.131  0.1525E-01  0.1249E+00
    -12.009  0.4122E-02  0.1254E+00
    -11.887  0.1579E-01  0.1273E+00
    -11.765  0.2616E-01  0.1305E+00
    -11.643  0.1550E-01  0.1324E+00
    -11.521  0.1038E-01  0.1336E+00
    -11.399  0.7696E-02  0.1346E+00
    -11.277  0.1770E-01  0.1367E+00
    -11.156  0.2377E-01  0.1396E+00
    -11.034  0.1519E-01  0.1415E+00
    -10.912  0.9878E-02  0.1427E+00
    -10.790  0.2509E-01  0.1458E+00
    -10.668  0.1436E-01  0.1475E+00
    -10.546  0.6050E-02  0.1482E+00
    -10.424  0.1912E-01  0.1506E+00
    -10.302  0.2291E-01  0.1534E+00
    -10.180  0.2436E-01  0.1563E+00
    -10.058  0.1337E-01  0.1580E+00
     -9.936  0.1413E-01  0.1597E+00
     -9.814  0.1180E-01  0.1611E+00
     -9.692  0.4016E-01  0.1660E+00
     -9.570  0.3433E-01  0.1702E+00
     -9.448  0.2207E-01  0.1729E+00
     -9.326  0.2442E-01  0.1759E+00
     -9.204  0.4252E-01  0.1811E+00
     -9.083  0.4113E-01  0.1861E+00
     -8.961  0.2454E-01  0.1891E+00
     -8.839  0.3438E-01  0.1933E+00
     -8.717  0.4474E-01  0.1987E+00
     -8.595  0.4599E-01  0.2043E+00
     -8.473  0.5222E-01  0.2107E+00
     -8.351  0.3218E-01  0.2146E+00
     -8.229  0.2615E-01  0.2178E+00
     -8.107  0.2864E-01  0.2213E+00
     -7.985  0.4055E-01  0.2263E+00
     -7.863  0.2784E-01  0.2296E+00
     -7.741  0.3030E-01  0.2333E+00
     -7.619  0.2671E-01  0.2366E+00
     -7.497  0.2506E-01  0.2397E+00
     -7.375  0.2540E-01  0.2428E+00
     -7.253  0.3032E-01  0.2464E+00
     -7.131  0.2769E-01  0.2498E+00
     -7.009  0.1616E-01  0.2518E+00
     -6.888  0.2721E-01  0.2551E+00
     -6.766  0.3565E-01  0.2595E+00
     -6.644  0.2091E-01  0.2620E+00
     -6.522  0.8807E-02  0.2631E+00
     -6.400  0.2720E-01  0.2664E+00
     -6.278  0.3611E-01  0.2708E+00
     -6.156  0.2071E-01  0.2733E+00
     -6.034  0.1781E-01  0.2755E+00
     -5.912  0.2267E-01  0.2783E+00
     -5.790  0.1777E-01  0.2804E+00
     -5.668  0.2551E-01  0.2835E+00
     -5.546  0.2787E-01  0.2869E+00
     -5.424  0.2444E-01  0.2899E+00
     -5.302  0.1629E-01  0.2919E+00
     -5.180  0.8058E-02  0.2929E+00
     -5.058  0.1239E-01  0.2944E+00
     -4.936  0.2321E-01  0.2972E+00
     -4.815  0.2536E-01  0.3003E+00
     -4.693  0.2060E-01  0.3028E+00
     -4.571  0.1432E-01  0.3046E+00
     -4.449  0.8715E-02  0.3056E+00
     -4.327  0.2437E-01  0.3086E+00
     -4.205  0.2601E-01  0.3118E+00
     -4.083  0.5566E-02  0.3125E+00
     -3.961  0.4158E-02  0.3130E+00
     -3.839  0.4371E-02  0.3135E+00
     -3.717  0.1038E-01  0.3148E+00
     -3.595  0.1304E-01  0.3164E+00
     -3.473  0.6665E-02  0.3172E+00
     -3.351  0.2486E-02  0.3175E+00
     -3.229  0.3957E-02  0.3180E+00
     -3.107  0.1132E-02  0.3181E+00
     -2.985  0.5595E-02  0.3188E+00
     -2.863  0.6876E-02  0.3196E+00
     -2.741  0.7882E-03  0.3197E+00
     -2.620  0.6750E-05  0.3197E+00
     -2.498  0.1745E-04  0.3197E+00
     -2.376  0.7714E-03  0.3198E+00
     -2.254  0.2779E-02  0.3202E+00
     -2.132  0.9603E-03  0.3203E+00
     -2.010  0.2766E-04  0.3203E+00
     -1.888  0.8189E-05  0.3203E+00
     -1.766  0.8763E-03  0.3204E+00
     -1.644  0.7076E-02  0.3212E+00
     -1.522  0.5458E-02  0.3219E+00
     -1.400  0.2609E-02  0.3222E+00
     -1.278  0.3849E-02  0.3227E+00
     -1.156  0.1557E-02  0.3229E+00
     -1.034  0.1248E-01  0.3244E+00
     -0.912  0.1958E-01  0.3268E+00
     -0.790  0.8057E-02  0.3278E+00
     -0.668  0.1333E-01  0.3294E+00
     -0.546  0.2596E-01  0.3326E+00
     -0.425  0.2243E-01  0.3353E+00
     -0.303  0.2694E-01  0.3386E+00
     -0.181  0.1173E-01  0.3400E+00
     -0.059  0.1106E-01  0.3414E+00
      0.063  0.1277E-01  0.3429E+00
      0.185  0.9606E-02  0.3441E+00
      0.307  0.9607E-02  0.3453E+00
      0.429  0.2159E-01  0.3479E+00
      0.551  0.1463E-01  0.3497E+00
      0.673  0.2558E-02  0.3500E+00
      0.795  0.8444E-02  0.3510E+00
      0.917  0.1214E-01  0.3525E+00
      1.039  0.1261E-01  0.3541E+00
      1.161  0.1776E-01  0.3562E+00
      1.283  0.1977E-01  0.3586E+00
      1.405  0.2523E-01  0.3617E+00
      1.527  0.1710E-01  0.3638E+00
      1.648  0.8875E-02  0.3649E+00
      1.770  0.1887E-01  0.3672E+00
      1.892  0.1758E-01  0.3693E+00
      2.014  0.2698E-01  0.3726E+00
      2.136  0.3552E-01  0.3769E+00
      2.258  0.2288E-01  0.3797E+00
      2.380  0.1952E-01  0.3821E+00
      2.502  0.3158E-01  0.3860E+00
      2.624  0.3827E-01  0.3906E+00
      2.746  0.3093E-01  0.3944E+00
      2.868  0.2855E-01  0.3979E+00
      2.990  0.3568E-01  0.4022E+00
      3.112  0.5074E-01  0.4084E+00
      3.234  0.3288E-01  0.4124E+00
      3.356  0.2197E-01  0.4151E+00
      3.478  0.3048E-01  0.4188E+00
      3.600  0.3756E-01  0.4234E+00
      3.722  0.3935E-01  0.4282E+00
      3.843  0.2933E-01  0.4318E+00
      3.965  0.4045E-01  0.4367E+00
      4.087  0.4134E-01  0.4418E+00
      4.209  0.2822E-01  0.4452E+00
      4.331  0.1730E-01  0.4473E+00
      4.453  0.3601E-01  0.4517E+00
      4.575  0.5141E-01  0.4580E+00
      4.697  0.5472E-01  0.4646E+00
      4.819  0.4350E-01  0.4699E+00
      4.941  0.4390E-01  0.4753E+00
      5.063  0.5214E-01  0.4817E+00
      5.185  0.7504E-01  0.4908E+00
      5.307  0.7863E-01  0.5004E+00
      5.429  0.7792E-01  0.5099E+00
      5.551  0.6770E-01  0.5181E+00
      5.673  0.7593E-01  0.5274E+00
      5.795  0.7333E-01  0.5363E+00
      5.917  0.8449E-01  0.5467E+00
      6.038  0.1165E+00  0.5609E+00
      6.160  0.9475E-01  0.5724E+00
      6.282  0.6704E-01  0.5806E+00
      6.404  0.8020E-01  0.5904E+00
      6.526  0.7765E-01  0.5998E+00
      6.648  0.7368E-01  0.6088E+00
      6.770  0.6266E-01  0.6165E+00
      6.892  0.7451E-01  0.6255E+00
      7.014  0.9343E-01  0.6369E+00
      7.136  0.5948E-01  0.6442E+00
      7.258  0.5551E-01  0.6510E+00
      7.380  0.4510E-01  0.6565E+00
      7.502  0.6972E-01  0.6650E+00
      7.624  0.7952E-01  0.6747E+00
      7.746  0.7406E-01  0.6837E+00
      7.868  0.8323E-01  0.6938E+00
      7.990  0.7461E-01  0.7029E+00
      8.111  0.4977E-01  0.7090E+00
      8.233  0.4777E-01  0.7148E+00
      8.355  0.8310E-01  0.7250E+00
      8.477  0.8045E-01  0.7348E+00
      8.599  0.1062E+00  0.7477E+00
      8.721  0.9254E-01  0.7590E+00
      8.843  0.9194E-01  0.7702E+00
      8.965  0.8718E-01  0.7809E+00
      9.087  0.5814E-01  0.7879E+00
      9.209  0.6515E-01  0.7959E+00
      9.331  0.7125E-01  0.8046E+00
      9.453  0.5550E-01  0.8113E+00
      9.575  0.7839E-01  0.8209E+00
      9.697  0.9127E-01  0.8320E+00
      9.819  0.9825E-01  0.8440E+00
      9.941  0.9613E-01  0.8557E+00
     10.063  0.8627E-01  0.8663E+00
     10.185  0.8347E-01  0.8764E+00
     10.306  0.9256E-01  0.8877E+00
     10.428  0.9730E-01  0.8996E+00
     10.550  0.9014E-01  0.9106E+00
     10.672  0.8156E-01  0.9205E+00
     10.794  0.9710E-01  0.9324E+00
     10.916  0.7928E-01  0.9420E+00
     11.038  0.5273E-01  0.9485E+00
     11.160  0.4162E-01  0.9535E+00
     11.282  0.3141E-01  0.9574E+00
     11.404  0.7247E-02  0.9583E+00
     11.526  0.4252E-02  0.9588E+00
     11.648  0.8190E-02  0.9598E+00
     11.770  0.1829E-02  0.9600E+00
     11.892  0.3258E-04  0.9600E+00
     12.014  0.3727E-07  0.9600E+00
     12.136  0.2451E-11  0.9600E+00
     12.258  0.9104E-17  0.9600E+00
     12.380  0.0000E+00  0.9600E+00
     12.501  0.0000E+00  0.9600E+00
     12.623  0.0000E+00  0.9600E+00
     12.745  0.0000E+00  0.9600E+00
     12.867  0.0000E+00  0.9600E+00
     12.989  0.0000E+00  0.9600E+00
     13.111  0.0000E+00  0.9600E+00
     13.233  0.0000E+00  0.9600E+00
