 ----------------------------------------------------
    OOO  PPPP  EEEEE N   N M   M PPPP
   O   O P   P E     NN  N MM MM P   P
   O   O PPPP  EEEEE N N N M M M PPPP   -- VERSION
   O   O P     E     N  NN M   M P
    OOO  P     EEEEE N   N M   M P
 ----------------------------------------------------
 running   48 mpi-ranks, with    1 threads/rank
 distrk:  each k-point on   48 cores,    1 groups
 distr:  one band on    1 cores,   48 groups
 vasp.6.3.2 27Jun22 (build Dec 22 2022 13:13:19) complex                        
  
 POSCAR found type information on POSCAR C 
 POSCAR found :  1 types and       8 ions
 Reading from existing POTCAR
 scaLAPACK will be used
 Reading from existing POTCAR
 LDA part: xc-table for Pade appr. of Perdew
 POSCAR found type information on POSCAR C 
 POSCAR found :  1 types and       8 ions
 POSCAR, INCAR and KPOINTS ok, starting setup
 FFT: planning ... GRIDC
 FFT: planning ... GRID_SOFT
 FFT: planning ... GRID
 WAVECAR not read
 entering main loop
       N       E                     dE             d eps       ncg     rms          rms(c)
DAV:   1     0.105505505067E+03    0.10551E+03   -0.13639E+04  1824   0.448E+02
DAV:   2    -0.729749144357E+02   -0.17848E+03   -0.17670E+03  2352   0.938E+01
DAV:   3    -0.786178533127E+02   -0.56429E+01   -0.56414E+01  3072   0.220E+01
DAV:   4    -0.786279860711E+02   -0.10133E-01   -0.10133E-01  2304   0.958E-01
DAV:   5    -0.786279978329E+02   -0.11762E-04   -0.11762E-04  3024   0.388E-02    0.124E+01
DAV:   6    -0.751735725087E+02    0.34544E+01   -0.33634E+00  2880   0.436E+00    0.736E+00
DAV:   7    -0.738359972783E+02    0.13376E+01   -0.44132E+00  2880   0.487E+00    0.182E+00
DAV:   8    -0.738084997774E+02    0.27498E-01   -0.32338E-02  2928   0.590E-01    0.209E-01
DAV:   9    -0.737990273359E+02    0.94724E-02   -0.65495E-03  3024   0.155E-01    0.164E-01
DAV:  10    -0.737945113304E+02    0.45160E-02   -0.70262E-03  2688   0.139E-01    0.650E-02
DAV:  11    -0.737950703649E+02   -0.55903E-03   -0.89074E-04  2208   0.567E-02    0.515E-02
DAV:  12    -0.737963962551E+02   -0.13259E-02   -0.16646E-04  2592   0.267E-02    0.229E-02
DAV:  13    -0.737990962409E+02   -0.27000E-02   -0.73545E-04  2736   0.366E-02    0.922E-03
DAV:  14    -0.737994383749E+02   -0.34213E-03   -0.10748E-05  3024   0.621E-03    0.326E-03
DAV:  15    -0.737996816707E+02   -0.24330E-03   -0.22096E-05  1872   0.548E-03    0.159E-03
DAV:  16    -0.737997110863E+02   -0.29416E-04   -0.89985E-07  2496   0.175E-03    0.443E-04
DAV:  17    -0.737997126678E+02   -0.15815E-05   -0.83367E-08  2304   0.464E-04    0.127E-04
DAV:  18    -0.737997133050E+02   -0.63725E-06   -0.10996E-08  2160   0.191E-04
   1 F= -.74507066E+02 E0= -.74506282E+02  d E =-.745071E+02
 curvature:   0.00 expect dE= 0.000E+00 dE for cont linesearch  0.000E+00
 trial: gam= 0.00000 g(F)=  0.288E-39 g(S)=  0.000E+00 ort = 0.000E+00 (trialstep = 0.100E+01)
 search vector abs. value=  0.100E-09
 reached required accuracy - stopping structural energy minimisation
