  15  15   0  16
  0.1962206E+02  0.4760000E-09  0.4760000E-09  0.1500000E-08  0.5000000E-15
  1.000000000000000E-004
  CAR 
 Lattice                                 
     10.74208046    -22.00818703  301     -0.15770562      1.00000000
    -22.008  0.0000E+00  0.0000E+00  0.0000E+00  0.0000E+00
    -21.899  0.0000E+00  0.0000E+00  0.0000E+00  0.0000E+00
    -21.790  0.0000E+00  0.0000E+00  0.0000E+00  0.0000E+00
    -21.681  0.0000E+00  0.0000E+00  0.0000E+00  0.0000E+00
    -21.572  0.0000E+00  0.0000E+00  0.0000E+00  0.0000E+00
    -21.462  0.0000E+00  0.0000E+00  0.0000E+00  0.0000E+00
    -21.353  0.0000E+00  0.0000E+00  0.0000E+00  0.0000E+00
    -21.244  0.0000E+00  0.0000E+00  0.0000E+00  0.0000E+00
    -21.135  0.0000E+00  0.0000E+00  0.0000E+00  0.0000E+00
    -21.026  0.2148E-15  0.2148E-15  0.2345E-16  0.2345E-16
    -20.917  0.5599E-11  0.5599E-11  0.6113E-12  0.6113E-12
    -20.807  0.1579E-07  0.1579E-07  0.1724E-08  0.1724E-08
    -20.698  0.5352E-05  0.5352E-05  0.5860E-06  0.5860E-06
    -20.589  0.2466E-03  0.2466E-03  0.2751E-04  0.2751E-04
    -20.480  0.1904E-02  0.1904E-02  0.2354E-03  0.2354E-03
    -20.371  0.4048E-02  0.4048E-02  0.6773E-03  0.6773E-03
    -20.262  0.4361E-02  0.4361E-02  0.1153E-02  0.1153E-02
    -20.152  0.4826E-02  0.4826E-02  0.1680E-02  0.1680E-02
    -20.043  0.3973E-02  0.3973E-02  0.2114E-02  0.2114E-02
    -19.934  0.5236E-02  0.5236E-02  0.2686E-02  0.2686E-02
    -19.825  0.4157E-02  0.4157E-02  0.3139E-02  0.3139E-02
    -19.716  0.3962E-02  0.3962E-02  0.3572E-02  0.3572E-02
    -19.607  0.5898E-02  0.5898E-02  0.4216E-02  0.4216E-02
    -19.497  0.3856E-02  0.3856E-02  0.4637E-02  0.4637E-02
    -19.388  0.3509E-02  0.3509E-02  0.5020E-02  0.5020E-02
    -19.279  0.5904E-02  0.5904E-02  0.5664E-02  0.5664E-02
    -19.170  0.5240E-02  0.5240E-02  0.6236E-02  0.6236E-02
    -19.061  0.3041E-02  0.3041E-02  0.6568E-02  0.6568E-02
    -18.951  0.3707E-02  0.3707E-02  0.6973E-02  0.6973E-02
    -18.842  0.6811E-02  0.6811E-02  0.7717E-02  0.7717E-02
    -18.733  0.4705E-02  0.4705E-02  0.8230E-02  0.8230E-02
    -18.624  0.3783E-02  0.3783E-02  0.8643E-02  0.8643E-02
    -18.515  0.2715E-02  0.2715E-02  0.8940E-02  0.8940E-02
    -18.406  0.5781E-02  0.5781E-02  0.9571E-02  0.9571E-02
    -18.296  0.6893E-02  0.6893E-02  0.1032E-01  0.1032E-01
    -18.187  0.3909E-02  0.3909E-02  0.1075E-01  0.1075E-01
    -18.078  0.2875E-02  0.2875E-02  0.1106E-01  0.1106E-01
    -17.969  0.3883E-02  0.3883E-02  0.1149E-01  0.1149E-01
    -17.860  0.5374E-02  0.5374E-02  0.1207E-01  0.1207E-01
    -17.751  0.6896E-02  0.6896E-02  0.1283E-01  0.1283E-01
    -17.641  0.4997E-02  0.4997E-02  0.1337E-01  0.1337E-01
    -17.532  0.3198E-02  0.3198E-02  0.1372E-01  0.1372E-01
    -17.423  0.4596E-02  0.4596E-02  0.1422E-01  0.1422E-01
    -17.314  0.1169E-01  0.1169E-01  0.1550E-01  0.1550E-01
    -17.205  0.1402E-01  0.1402E-01  0.1703E-01  0.1703E-01
    -17.096  0.1371E-01  0.1371E-01  0.1853E-01  0.1853E-01
    -16.986  0.1421E-01  0.1421E-01  0.2008E-01  0.2008E-01
    -16.877  0.1793E-01  0.1793E-01  0.2203E-01  0.2203E-01
    -16.768  0.1778E-01  0.1778E-01  0.2398E-01  0.2398E-01
    -16.659  0.1156E-01  0.1156E-01  0.2524E-01  0.2524E-01
    -16.550  0.9714E-02  0.9714E-02  0.2630E-01  0.2630E-01
    -16.441  0.5146E-02  0.5146E-02  0.2686E-01  0.2686E-01
    -16.331  0.4171E-02  0.4171E-02  0.2732E-01  0.2732E-01
    -16.222  0.3562E-02  0.3562E-02  0.2770E-01  0.2770E-01
    -16.113  0.4043E-02  0.4043E-02  0.2815E-01  0.2815E-01
    -16.004  0.3002E-02  0.3002E-02  0.2847E-01  0.2847E-01
    -15.895  0.5673E-02  0.5673E-02  0.2909E-01  0.2909E-01
    -15.786  0.8783E-02  0.8783E-02  0.3005E-01  0.3005E-01
    -15.676  0.5417E-02  0.5417E-02  0.3064E-01  0.3064E-01
    -15.567  0.3480E-02  0.3480E-02  0.3102E-01  0.3102E-01
    -15.458  0.3278E-02  0.3278E-02  0.3138E-01  0.3138E-01
    -15.349  0.3433E-02  0.3433E-02  0.3176E-01  0.3176E-01
    -15.240  0.5199E-02  0.5199E-02  0.3232E-01  0.3232E-01
    -15.131  0.6577E-02  0.6577E-02  0.3304E-01  0.3304E-01
    -15.021  0.7225E-02  0.7225E-02  0.3383E-01  0.3383E-01
    -14.912  0.1010E-01  0.1010E-01  0.3493E-01  0.3493E-01
    -14.803  0.1265E-01  0.1265E-01  0.3631E-01  0.3631E-01
    -14.694  0.1708E-01  0.1708E-01  0.3818E-01  0.3818E-01
    -14.585  0.1427E-01  0.1427E-01  0.3974E-01  0.3974E-01
    -14.476  0.9925E-02  0.9925E-02  0.4082E-01  0.4082E-01
    -14.366  0.1264E-01  0.1264E-01  0.4220E-01  0.4220E-01
    -14.257  0.1561E-01  0.1561E-01  0.4390E-01  0.4390E-01
    -14.148  0.8676E-02  0.8676E-02  0.4485E-01  0.4485E-01
    -14.039  0.8495E-02  0.8495E-02  0.4578E-01  0.4578E-01
    -13.930  0.1226E-01  0.1226E-01  0.4712E-01  0.4712E-01
    -13.821  0.1306E-01  0.1306E-01  0.4854E-01  0.4854E-01
    -13.711  0.2067E-01  0.2067E-01  0.5080E-01  0.5080E-01
    -13.602  0.2248E-01  0.2248E-01  0.5325E-01  0.5325E-01
    -13.493  0.1723E-01  0.1723E-01  0.5513E-01  0.5513E-01
    -13.384  0.1112E-01  0.1112E-01  0.5635E-01  0.5635E-01
    -13.275  0.7176E-02  0.7176E-02  0.5713E-01  0.5713E-01
    -13.166  0.6196E-02  0.6196E-02  0.5781E-01  0.5781E-01
    -13.056  0.6647E-02  0.6647E-02  0.5853E-01  0.5853E-01
    -12.947  0.5101E-02  0.5101E-02  0.5909E-01  0.5909E-01
    -12.838  0.5584E-02  0.5584E-02  0.5970E-01  0.5970E-01
    -12.729  0.5455E-02  0.5455E-02  0.6029E-01  0.6029E-01
    -12.620  0.6489E-02  0.6489E-02  0.6100E-01  0.6100E-01
    -12.511  0.5481E-02  0.5482E-02  0.6160E-01  0.6160E-01
    -12.401  0.4173E-02  0.4173E-02  0.6206E-01  0.6206E-01
    -12.292  0.4519E-02  0.4519E-02  0.6255E-01  0.6255E-01
    -12.183  0.7763E-02  0.7763E-02  0.6340E-01  0.6340E-01
    -12.074  0.4528E-02  0.4528E-02  0.6389E-01  0.6389E-01
    -11.965  0.3514E-02  0.3514E-02  0.6428E-01  0.6428E-01
    -11.856  0.3735E-02  0.3735E-02  0.6468E-01  0.6468E-01
    -11.746  0.3653E-02  0.3653E-02  0.6508E-01  0.6508E-01
    -11.637  0.5938E-02  0.5938E-02  0.6573E-01  0.6573E-01
    -11.528  0.6713E-02  0.6713E-02  0.6646E-01  0.6646E-01
    -11.419  0.2780E-02  0.2780E-02  0.6677E-01  0.6677E-01
    -11.310  0.2325E-02  0.2325E-02  0.6702E-01  0.6702E-01
    -11.201  0.6368E-02  0.6368E-02  0.6772E-01  0.6772E-01
    -11.091  0.8510E-02  0.8510E-02  0.6864E-01  0.6864E-01
    -10.982  0.4744E-02  0.4744E-02  0.6916E-01  0.6916E-01
    -10.873  0.5394E-02  0.5394E-02  0.6975E-01  0.6975E-01
    -10.764  0.4608E-02  0.4608E-02  0.7025E-01  0.7025E-01
    -10.655  0.3219E-02  0.3219E-02  0.7061E-01  0.7061E-01
    -10.546  0.6308E-02  0.6308E-02  0.7129E-01  0.7129E-01
    -10.436  0.1139E-01  0.1139E-01  0.7254E-01  0.7254E-01
    -10.327  0.1774E-01  0.1774E-01  0.7448E-01  0.7448E-01
    -10.218  0.1348E-01  0.1348E-01  0.7595E-01  0.7595E-01
    -10.109  0.1286E-01  0.1286E-01  0.7735E-01  0.7735E-01
    -10.000  0.1747E-01  0.1747E-01  0.7926E-01  0.7926E-01
     -9.891  0.1658E-01  0.1658E-01  0.8107E-01  0.8107E-01
     -9.781  0.9142E-02  0.9142E-02  0.8207E-01  0.8207E-01
     -9.672  0.4508E-02  0.4508E-02  0.8256E-01  0.8256E-01
     -9.563  0.1507E-01  0.1507E-01  0.8420E-01  0.8420E-01
     -9.454  0.2264E-01  0.2264E-01  0.8668E-01  0.8668E-01
     -9.345  0.1366E-01  0.1366E-01  0.8817E-01  0.8817E-01
     -9.236  0.8448E-02  0.8448E-02  0.8909E-01  0.8909E-01
     -9.126  0.1262E-01  0.1262E-01  0.9047E-01  0.9047E-01
     -9.017  0.1044E-01  0.1044E-01  0.9161E-01  0.9161E-01
     -8.908  0.1140E-01  0.1140E-01  0.9285E-01  0.9285E-01
     -8.799  0.1654E-01  0.1654E-01  0.9466E-01  0.9466E-01
     -8.690  0.1554E-01  0.1554E-01  0.9635E-01  0.9635E-01
     -8.581  0.1847E-01  0.1847E-01  0.9837E-01  0.9837E-01
     -8.471  0.1343E-01  0.1343E-01  0.9984E-01  0.9984E-01
     -8.362  0.1086E-01  0.1086E-01  0.1010E+00  0.1010E+00
     -8.253  0.1972E-01  0.1972E-01  0.1032E+00  0.1032E+00
     -8.144  0.2016E-01  0.2016E-01  0.1054E+00  0.1054E+00
     -8.035  0.1370E-01  0.1370E-01  0.1069E+00  0.1069E+00
     -7.926  0.1617E-01  0.1617E-01  0.1086E+00  0.1086E+00
     -7.816  0.1839E-01  0.1839E-01  0.1106E+00  0.1106E+00
     -7.707  0.2230E-01  0.2230E-01  0.1131E+00  0.1131E+00
     -7.598  0.1941E-01  0.1941E-01  0.1152E+00  0.1152E+00
     -7.489  0.1880E-01  0.1880E-01  0.1172E+00  0.1172E+00
     -7.380  0.1827E-01  0.1827E-01  0.1192E+00  0.1192E+00
     -7.271  0.1502E-01  0.1502E-01  0.1209E+00  0.1209E+00
     -7.161  0.1393E-01  0.1393E-01  0.1224E+00  0.1224E+00
     -7.052  0.1474E-01  0.1474E-01  0.1240E+00  0.1240E+00
     -6.943  0.1562E-01  0.1562E-01  0.1257E+00  0.1257E+00
     -6.834  0.1462E-01  0.1462E-01  0.1273E+00  0.1273E+00
     -6.725  0.1642E-01  0.1642E-01  0.1291E+00  0.1291E+00
     -6.616  0.2623E-01  0.2623E-01  0.1320E+00  0.1320E+00
     -6.506  0.1860E-01  0.1860E-01  0.1340E+00  0.1340E+00
     -6.397  0.1612E-01  0.1612E-01  0.1358E+00  0.1358E+00
     -6.288  0.1744E-01  0.1744E-01  0.1377E+00  0.1377E+00
     -6.179  0.1370E-01  0.1370E-01  0.1392E+00  0.1392E+00
     -6.070  0.2241E-01  0.2241E-01  0.1416E+00  0.1416E+00
     -5.961  0.2394E-01  0.2394E-01  0.1442E+00  0.1442E+00
     -5.851  0.2134E-01  0.2134E-01  0.1466E+00  0.1466E+00
     -5.742  0.2155E-01  0.2155E-01  0.1489E+00  0.1489E+00
     -5.633  0.2543E-01  0.2543E-01  0.1517E+00  0.1517E+00
     -5.524  0.2269E-01  0.2269E-01  0.1542E+00  0.1542E+00
     -5.415  0.2279E-01  0.2279E-01  0.1566E+00  0.1566E+00
     -5.306  0.2156E-01  0.2156E-01  0.1590E+00  0.1590E+00
     -5.196  0.3115E-01  0.3115E-01  0.1624E+00  0.1624E+00
     -5.087  0.2991E-01  0.2991E-01  0.1657E+00  0.1657E+00
     -4.978  0.1357E-01  0.1356E-01  0.1671E+00  0.1671E+00
     -4.869  0.8148E-02  0.8148E-02  0.1680E+00  0.1680E+00
     -4.760  0.1309E-01  0.1309E-01  0.1695E+00  0.1695E+00
     -4.651  0.1331E-01  0.1331E-01  0.1709E+00  0.1709E+00
     -4.541  0.1319E-01  0.1319E-01  0.1724E+00  0.1724E+00
     -4.432  0.9068E-02  0.9068E-02  0.1733E+00  0.1733E+00
     -4.323  0.7366E-02  0.7366E-02  0.1742E+00  0.1742E+00
     -4.214  0.1324E-01  0.1324E-01  0.1756E+00  0.1756E+00
     -4.105  0.1664E-01  0.1664E-01  0.1774E+00  0.1774E+00
     -3.996  0.1939E-01  0.1939E-01  0.1795E+00  0.1795E+00
     -3.886  0.2514E-01  0.2514E-01  0.1823E+00  0.1823E+00
     -3.777  0.2763E-01  0.2763E-01  0.1853E+00  0.1853E+00
     -3.668  0.2305E-01  0.2305E-01  0.1878E+00  0.1878E+00
     -3.559  0.1699E-01  0.1699E-01  0.1897E+00  0.1897E+00
     -3.450  0.1546E-01  0.1546E-01  0.1913E+00  0.1913E+00
     -3.341  0.1574E-01  0.1574E-01  0.1931E+00  0.1931E+00
     -3.231  0.1804E-01  0.1804E-01  0.1950E+00  0.1950E+00
     -3.122  0.1613E-01  0.1613E-01  0.1968E+00  0.1968E+00
     -3.013  0.1803E-01  0.1803E-01  0.1988E+00  0.1988E+00
     -2.904  0.1561E-01  0.1561E-01  0.2005E+00  0.2005E+00
     -2.795  0.1165E-01  0.1165E-01  0.2017E+00  0.2017E+00
     -2.686  0.1276E-01  0.1276E-01  0.2031E+00  0.2031E+00
     -2.576  0.8287E-02  0.8287E-02  0.2040E+00  0.2040E+00
     -2.467  0.1428E-01  0.1428E-01  0.2056E+00  0.2056E+00
     -2.358  0.1910E-01  0.1910E-01  0.2077E+00  0.2077E+00
     -2.249  0.9429E-02  0.9429E-02  0.2087E+00  0.2087E+00
     -2.140  0.3346E-02  0.3346E-02  0.2091E+00  0.2091E+00
     -2.031  0.7563E-02  0.7563E-02  0.2099E+00  0.2099E+00
     -1.921  0.1095E-01  0.1095E-01  0.2111E+00  0.2111E+00
     -1.812  0.9890E-02  0.9890E-02  0.2122E+00  0.2122E+00
     -1.703  0.1102E-01  0.1102E-01  0.2134E+00  0.2134E+00
     -1.594  0.1038E-01  0.1038E-01  0.2145E+00  0.2145E+00
     -1.485  0.8093E-02  0.8093E-02  0.2154E+00  0.2154E+00
     -1.376  0.6331E-02  0.6331E-02  0.2161E+00  0.2161E+00
     -1.266  0.3490E-02  0.3490E-02  0.2165E+00  0.2165E+00
     -1.157  0.4220E-02  0.4220E-02  0.2169E+00  0.2169E+00
     -1.048  0.3751E-02  0.3751E-02  0.2173E+00  0.2173E+00
     -0.939  0.4252E-02  0.4252E-02  0.2178E+00  0.2178E+00
     -0.830  0.5424E-02  0.5424E-02  0.2184E+00  0.2184E+00
     -0.721  0.1951E-02  0.1951E-02  0.2186E+00  0.2186E+00
     -0.611  0.2616E-03  0.2616E-03  0.2186E+00  0.2186E+00
     -0.502  0.1087E-04  0.1087E-04  0.2186E+00  0.2186E+00
     -0.393  0.1002E-05  0.1002E-05  0.2186E+00  0.2186E+00
     -0.284  0.7499E-04  0.7499E-04  0.2186E+00  0.2186E+00
     -0.175  0.7307E-03  0.7307E-03  0.2187E+00  0.2187E+00
     -0.066  0.9871E-03  0.9871E-03  0.2188E+00  0.2188E+00
      0.044  0.1894E-03  0.1894E-03  0.2189E+00  0.2189E+00
      0.153  0.4629E-05  0.4628E-05  0.2189E+00  0.2189E+00
      0.262  0.9367E-07  0.9368E-07  0.2189E+00  0.2189E+00
      0.371  0.2375E-04  0.2375E-04  0.2189E+00  0.2189E+00
      0.480  0.7739E-03  0.7740E-03  0.2189E+00  0.2189E+00
      0.589  0.3187E-02  0.3188E-02  0.2193E+00  0.2193E+00
      0.699  0.1894E-02  0.1894E-02  0.2195E+00  0.2195E+00
      0.808  0.1365E-02  0.1365E-02  0.2196E+00  0.2196E+00
      0.917  0.4705E-02  0.4705E-02  0.2202E+00  0.2202E+00
      1.026  0.5904E-02  0.5903E-02  0.2208E+00  0.2208E+00
      1.135  0.1166E-01  0.1166E-01  0.2221E+00  0.2221E+00
      1.245  0.2526E-01  0.2526E-01  0.2248E+00  0.2248E+00
      1.354  0.1644E-01  0.1644E-01  0.2266E+00  0.2266E+00
      1.463  0.4275E-02  0.4276E-02  0.2271E+00  0.2271E+00
      1.572  0.4449E-02  0.4449E-02  0.2276E+00  0.2276E+00
      1.681  0.9117E-02  0.9117E-02  0.2286E+00  0.2286E+00
      1.790  0.1724E-01  0.1724E-01  0.2305E+00  0.2305E+00
      1.900  0.1737E-01  0.1737E-01  0.2324E+00  0.2324E+00
      2.009  0.9573E-02  0.9573E-02  0.2334E+00  0.2334E+00
      2.118  0.7469E-02  0.7468E-02  0.2342E+00  0.2342E+00
      2.227  0.1245E-01  0.1245E-01  0.2356E+00  0.2356E+00
      2.336  0.9882E-02  0.9883E-02  0.2367E+00  0.2367E+00
      2.445  0.6786E-02  0.6786E-02  0.2374E+00  0.2374E+00
      2.555  0.8026E-02  0.8025E-02  0.2383E+00  0.2383E+00
      2.664  0.7711E-02  0.7711E-02  0.2391E+00  0.2391E+00
      2.773  0.8250E-02  0.8251E-02  0.2400E+00  0.2400E+00
      2.882  0.1016E-01  0.1016E-01  0.2411E+00  0.2411E+00
      2.991  0.1001E-01  0.1001E-01  0.2422E+00  0.2422E+00
      3.100  0.9485E-02  0.9485E-02  0.2433E+00  0.2433E+00
      3.210  0.9034E-02  0.9036E-02  0.2442E+00  0.2442E+00
      3.319  0.8367E-02  0.8369E-02  0.2452E+00  0.2452E+00
      3.428  0.1000E-01  0.1000E-01  0.2462E+00  0.2462E+00
      3.537  0.1084E-01  0.1084E-01  0.2474E+00  0.2474E+00
      3.646  0.9903E-02  0.9905E-02  0.2485E+00  0.2485E+00
      3.755  0.1184E-01  0.1184E-01  0.2498E+00  0.2498E+00
      3.865  0.1926E-01  0.1925E-01  0.2519E+00  0.2519E+00
      3.974  0.1755E-01  0.1754E-01  0.2538E+00  0.2538E+00
      4.083  0.1231E-01  0.1231E-01  0.2552E+00  0.2552E+00
      4.192  0.1409E-01  0.1409E-01  0.2567E+00  0.2567E+00
      4.301  0.1553E-01  0.1552E-01  0.2584E+00  0.2584E+00
      4.410  0.2196E-01  0.2195E-01  0.2608E+00  0.2608E+00
      4.520  0.2143E-01  0.2144E-01  0.2631E+00  0.2631E+00
      4.629  0.1763E-01  0.1764E-01  0.2651E+00  0.2651E+00
      4.738  0.2034E-01  0.2034E-01  0.2673E+00  0.2673E+00
      4.847  0.2719E-01  0.2719E-01  0.2702E+00  0.2702E+00
      4.956  0.2652E-01  0.2652E-01  0.2731E+00  0.2731E+00
      5.065  0.2584E-01  0.2583E-01  0.2760E+00  0.2760E+00
      5.175  0.3181E-01  0.3182E-01  0.2794E+00  0.2794E+00
      5.284  0.2410E-01  0.2409E-01  0.2821E+00  0.2821E+00
      5.393  0.2827E-01  0.2826E-01  0.2852E+00  0.2852E+00
      5.502  0.2292E-01  0.2294E-01  0.2877E+00  0.2877E+00
      5.611  0.1634E-01  0.1635E-01  0.2894E+00  0.2894E+00
      5.720  0.1774E-01  0.1775E-01  0.2914E+00  0.2914E+00
      5.830  0.2507E-01  0.2507E-01  0.2941E+00  0.2941E+00
      5.939  0.2269E-01  0.2268E-01  0.2966E+00  0.2966E+00
      6.048  0.1923E-01  0.1922E-01  0.2987E+00  0.2987E+00
      6.157  0.1827E-01  0.1828E-01  0.3007E+00  0.3007E+00
      6.266  0.2076E-01  0.2075E-01  0.3030E+00  0.3030E+00
      6.375  0.2242E-01  0.2239E-01  0.3054E+00  0.3054E+00
      6.485  0.2158E-01  0.2158E-01  0.3078E+00  0.3078E+00
      6.594  0.1830E-01  0.1831E-01  0.3098E+00  0.3098E+00
      6.703  0.1822E-01  0.1822E-01  0.3117E+00  0.3117E+00
      6.812  0.2582E-01  0.2582E-01  0.3146E+00  0.3146E+00
      6.921  0.2903E-01  0.2904E-01  0.3177E+00  0.3177E+00
      7.030  0.2275E-01  0.2274E-01  0.3202E+00  0.3202E+00
      7.140  0.2860E-01  0.2860E-01  0.3233E+00  0.3233E+00
      7.249  0.3107E-01  0.3107E-01  0.3267E+00  0.3267E+00
      7.358  0.1653E-01  0.1653E-01  0.3285E+00  0.3285E+00
      7.467  0.1463E-01  0.1462E-01  0.3301E+00  0.3301E+00
      7.576  0.2311E-01  0.2311E-01  0.3327E+00  0.3327E+00
      7.685  0.2358E-01  0.2359E-01  0.3352E+00  0.3352E+00
      7.795  0.2371E-01  0.2371E-01  0.3378E+00  0.3378E+00
      7.904  0.2401E-01  0.2401E-01  0.3404E+00  0.3404E+00
      8.013  0.1950E-01  0.1950E-01  0.3426E+00  0.3426E+00
      8.122  0.1936E-01  0.1939E-01  0.3447E+00  0.3447E+00
      8.231  0.3309E-01  0.3311E-01  0.3483E+00  0.3483E+00
      8.340  0.2994E-01  0.2990E-01  0.3516E+00  0.3516E+00
      8.450  0.3252E-01  0.3253E-01  0.3551E+00  0.3551E+00
      8.559  0.3326E-01  0.3325E-01  0.3587E+00  0.3587E+00
      8.668  0.3150E-01  0.3147E-01  0.3622E+00  0.3622E+00
      8.777  0.3518E-01  0.3518E-01  0.3660E+00  0.3660E+00
      8.886  0.2456E-01  0.2458E-01  0.3687E+00  0.3687E+00
      8.995  0.1844E-01  0.1844E-01  0.3707E+00  0.3707E+00
      9.105  0.1962E-01  0.1962E-01  0.3729E+00  0.3729E+00
      9.214  0.1350E-01  0.1350E-01  0.3743E+00  0.3743E+00
      9.323  0.5276E-02  0.5279E-02  0.3749E+00  0.3749E+00
      9.432  0.8385E-03  0.8397E-03  0.3750E+00  0.3750E+00
      9.541  0.2356E-04  0.2362E-04  0.3750E+00  0.3750E+00
      9.650  0.8120E-07  0.8150E-07  0.3750E+00  0.3750E+00
      9.760  0.3002E-10  0.3017E-10  0.3750E+00  0.3750E+00
      9.869  0.1123E-14  0.1130E-14  0.3750E+00  0.3750E+00
      9.978  0.0000E+00  0.0000E+00  0.3750E+00  0.3750E+00
     10.087  0.0000E+00  0.0000E+00  0.3750E+00  0.3750E+00
     10.196  0.0000E+00  0.0000E+00  0.3750E+00  0.3750E+00
     10.305  0.0000E+00  0.0000E+00  0.3750E+00  0.3750E+00
     10.415  0.0000E+00  0.0000E+00  0.3750E+00  0.3750E+00
     10.524  0.0000E+00  0.0000E+00  0.3750E+00  0.3750E+00
     10.633  0.0000E+00  0.0000E+00  0.3750E+00  0.3750E+00
     10.742  0.0000E+00  0.0000E+00  0.3750E+00  0.3750E+00
