  16  16   0   4
  0.2021636E+02  0.4990000E-09  0.4990000E-09  0.1500000E-08  0.5000000E-15
  1.000000000000000E-004
  CAR 
 Lattice                                 
      9.86424721    -21.44602849  301     -0.87097858      1.00000000
    -21.446  0.0000E+00  0.0000E+00  0.0000E+00  0.0000E+00
    -21.342  0.0000E+00  0.0000E+00  0.0000E+00  0.0000E+00
    -21.237  0.0000E+00  0.0000E+00  0.0000E+00  0.0000E+00
    -21.133  0.0000E+00  0.0000E+00  0.0000E+00  0.0000E+00
    -21.029  0.0000E+00  0.0000E+00  0.0000E+00  0.0000E+00
    -20.924  0.0000E+00  0.0000E+00  0.0000E+00  0.0000E+00
    -20.820  0.0000E+00  0.0000E+00  0.0000E+00  0.0000E+00
    -20.715  0.0000E+00  0.0000E+00  0.0000E+00  0.0000E+00
    -20.611  0.2886E-19  0.2886E-19  0.3012E-20  0.3012E-20
    -20.507  0.2208E-14  0.2207E-14  0.2304E-15  0.2304E-15
    -20.402  0.2535E-10  0.2535E-10  0.2646E-11  0.2646E-11
    -20.298  0.3874E-07  0.3874E-07  0.4046E-08  0.4045E-08
    -20.194  0.8554E-05  0.8553E-05  0.8968E-06  0.8968E-06
    -20.089  0.3019E-03  0.3019E-03  0.3240E-04  0.3240E-04
    -19.985  0.2085E-02  0.2085E-02  0.2500E-03  0.2500E-03
    -19.881  0.4334E-02  0.4334E-02  0.7023E-03  0.7023E-03
    -19.776  0.4797E-02  0.4797E-02  0.1203E-02  0.1203E-02
    -19.672  0.5104E-02  0.5104E-02  0.1736E-02  0.1736E-02
    -19.567  0.4501E-02  0.4501E-02  0.2205E-02  0.2205E-02
    -19.463  0.5612E-02  0.5612E-02  0.2791E-02  0.2791E-02
    -19.359  0.4231E-02  0.4231E-02  0.3233E-02  0.3233E-02
    -19.254  0.4981E-02  0.4981E-02  0.3753E-02  0.3753E-02
    -19.150  0.5984E-02  0.5984E-02  0.4377E-02  0.4377E-02
    -19.046  0.3628E-02  0.3628E-02  0.4756E-02  0.4756E-02
    -18.941  0.4926E-02  0.4926E-02  0.5270E-02  0.5270E-02
    -18.837  0.6352E-02  0.6352E-02  0.5933E-02  0.5933E-02
    -18.732  0.4681E-02  0.4681E-02  0.6421E-02  0.6421E-02
    -18.628  0.3069E-02  0.3069E-02  0.6742E-02  0.6742E-02
    -18.524  0.6221E-02  0.6221E-02  0.7391E-02  0.7391E-02
    -18.419  0.6355E-02  0.6355E-02  0.8054E-02  0.8054E-02
    -18.315  0.4262E-02  0.4262E-02  0.8499E-02  0.8499E-02
    -18.211  0.3435E-02  0.3435E-02  0.8857E-02  0.8857E-02
    -18.106  0.5809E-02  0.5809E-02  0.9464E-02  0.9464E-02
    -18.002  0.1162E-01  0.1162E-01  0.1068E-01  0.1068E-01
    -17.898  0.1148E-01  0.1148E-01  0.1188E-01  0.1188E-01
    -17.793  0.1050E-01  0.1050E-01  0.1297E-01  0.1297E-01
    -17.689  0.1229E-01  0.1229E-01  0.1425E-01  0.1425E-01
    -17.584  0.1495E-01  0.1495E-01  0.1581E-01  0.1581E-01
    -17.480  0.1943E-01  0.1943E-01  0.1784E-01  0.1784E-01
    -17.376  0.2057E-01  0.2057E-01  0.1999E-01  0.1999E-01
    -17.271  0.1265E-01  0.1265E-01  0.2131E-01  0.2131E-01
    -17.167  0.4896E-02  0.4896E-02  0.2182E-01  0.2182E-01
    -17.063  0.6612E-02  0.6612E-02  0.2251E-01  0.2251E-01
    -16.958  0.7015E-02  0.7015E-02  0.2324E-01  0.2324E-01
    -16.854  0.5852E-02  0.5852E-02  0.2385E-01  0.2385E-01
    -16.749  0.4752E-02  0.4752E-02  0.2435E-01  0.2435E-01
    -16.645  0.3553E-02  0.3553E-02  0.2472E-01  0.2472E-01
    -16.541  0.2497E-02  0.2497E-02  0.2498E-01  0.2498E-01
    -16.436  0.7876E-02  0.7876E-02  0.2580E-01  0.2580E-01
    -16.332  0.7941E-02  0.7941E-02  0.2663E-01  0.2663E-01
    -16.228  0.4867E-02  0.4867E-02  0.2714E-01  0.2714E-01
    -16.123  0.4338E-02  0.4338E-02  0.2759E-01  0.2759E-01
    -16.019  0.4287E-02  0.4287E-02  0.2804E-01  0.2804E-01
    -15.915  0.3526E-02  0.3526E-02  0.2841E-01  0.2841E-01
    -15.810  0.5714E-02  0.5714E-02  0.2900E-01  0.2900E-01
    -15.706  0.1219E-01  0.1219E-01  0.3027E-01  0.3027E-01
    -15.601  0.1397E-01  0.1397E-01  0.3173E-01  0.3173E-01
    -15.497  0.1491E-01  0.1491E-01  0.3329E-01  0.3329E-01
    -15.393  0.1516E-01  0.1516E-01  0.3487E-01  0.3487E-01
    -15.288  0.1206E-01  0.1206E-01  0.3613E-01  0.3613E-01
    -15.184  0.1178E-01  0.1178E-01  0.3736E-01  0.3736E-01
    -15.080  0.1559E-01  0.1559E-01  0.3898E-01  0.3898E-01
    -14.975  0.1709E-01  0.1709E-01  0.4077E-01  0.4077E-01
    -14.871  0.1369E-01  0.1369E-01  0.4220E-01  0.4220E-01
    -14.767  0.1299E-01  0.1299E-01  0.4355E-01  0.4355E-01
    -14.662  0.9221E-02  0.9221E-02  0.4452E-01  0.4452E-01
    -14.558  0.1068E-01  0.1068E-01  0.4563E-01  0.4563E-01
    -14.453  0.1728E-01  0.1728E-01  0.4743E-01  0.4743E-01
    -14.349  0.1952E-01  0.1952E-01  0.4947E-01  0.4947E-01
    -14.245  0.1234E-01  0.1234E-01  0.5076E-01  0.5076E-01
    -14.140  0.8493E-02  0.8493E-02  0.5165E-01  0.5165E-01
    -14.036  0.6914E-02  0.6914E-02  0.5237E-01  0.5237E-01
    -13.932  0.7892E-02  0.7892E-02  0.5319E-01  0.5319E-01
    -13.827  0.8254E-02  0.8254E-02  0.5405E-01  0.5405E-01
    -13.723  0.6713E-02  0.6713E-02  0.5475E-01  0.5475E-01
    -13.618  0.5058E-02  0.5058E-02  0.5528E-01  0.5528E-01
    -13.514  0.4279E-02  0.4279E-02  0.5573E-01  0.5573E-01
    -13.410  0.5027E-02  0.5027E-02  0.5625E-01  0.5625E-01
    -13.305  0.5506E-02  0.5506E-02  0.5683E-01  0.5683E-01
    -13.201  0.5694E-02  0.5694E-02  0.5742E-01  0.5742E-01
    -13.097  0.7449E-02  0.7449E-02  0.5820E-01  0.5820E-01
    -12.992  0.6571E-02  0.6571E-02  0.5889E-01  0.5889E-01
    -12.888  0.7538E-02  0.7538E-02  0.5967E-01  0.5967E-01
    -12.784  0.8228E-02  0.8228E-02  0.6053E-01  0.6053E-01
    -12.679  0.5227E-02  0.5227E-02  0.6108E-01  0.6108E-01
    -12.575  0.6822E-02  0.6822E-02  0.6179E-01  0.6179E-01
    -12.470  0.3581E-02  0.3581E-02  0.6216E-01  0.6216E-01
    -12.366  0.5566E-02  0.5566E-02  0.6274E-01  0.6274E-01
    -12.262  0.9454E-02  0.9454E-02  0.6373E-01  0.6373E-01
    -12.157  0.6585E-02  0.6585E-02  0.6442E-01  0.6442E-01
    -12.053  0.8500E-02  0.8500E-02  0.6530E-01  0.6530E-01
    -11.949  0.1374E-01  0.1374E-01  0.6674E-01  0.6674E-01
    -11.844  0.1654E-01  0.1654E-01  0.6846E-01  0.6846E-01
    -11.740  0.1541E-01  0.1541E-01  0.7007E-01  0.7007E-01
    -11.635  0.1393E-01  0.1393E-01  0.7153E-01  0.7153E-01
    -11.531  0.1552E-01  0.1552E-01  0.7315E-01  0.7315E-01
    -11.427  0.1292E-01  0.1292E-01  0.7449E-01  0.7449E-01
    -11.322  0.7397E-02  0.7397E-02  0.7527E-01  0.7527E-01
    -11.218  0.9625E-02  0.9625E-02  0.7627E-01  0.7627E-01
    -11.114  0.1288E-01  0.1288E-01  0.7761E-01  0.7761E-01
    -11.009  0.1100E-01  0.1100E-01  0.7876E-01  0.7876E-01
    -10.905  0.5164E-02  0.5164E-02  0.7930E-01  0.7930E-01
    -10.801  0.9363E-02  0.9363E-02  0.8028E-01  0.8028E-01
    -10.696  0.1552E-01  0.1552E-01  0.8190E-01  0.8190E-01
    -10.592  0.1596E-01  0.1596E-01  0.8356E-01  0.8356E-01
    -10.487  0.7690E-02  0.7691E-02  0.8437E-01  0.8437E-01
    -10.383  0.5222E-02  0.5222E-02  0.8491E-01  0.8491E-01
    -10.279  0.1436E-01  0.1436E-01  0.8641E-01  0.8641E-01
    -10.174  0.2039E-01  0.2039E-01  0.8854E-01  0.8854E-01
    -10.070  0.1300E-01  0.1300E-01  0.8990E-01  0.8990E-01
     -9.966  0.8319E-02  0.8319E-02  0.9076E-01  0.9076E-01
     -9.861  0.6434E-02  0.6434E-02  0.9144E-01  0.9144E-01
     -9.757  0.9091E-02  0.9090E-02  0.9238E-01  0.9238E-01
     -9.652  0.1360E-01  0.1360E-01  0.9380E-01  0.9380E-01
     -9.548  0.1262E-01  0.1262E-01  0.9512E-01  0.9512E-01
     -9.444  0.9267E-02  0.9267E-02  0.9609E-01  0.9609E-01
     -9.339  0.6436E-02  0.6436E-02  0.9676E-01  0.9676E-01
     -9.235  0.1041E-01  0.1041E-01  0.9785E-01  0.9785E-01
     -9.131  0.7510E-02  0.7510E-02  0.9863E-01  0.9863E-01
     -9.026  0.3143E-02  0.3142E-02  0.9896E-01  0.9896E-01
     -8.922  0.9237E-02  0.9237E-02  0.9992E-01  0.9992E-01
     -8.818  0.1587E-01  0.1587E-01  0.1016E+00  0.1016E+00
     -8.713  0.1762E-01  0.1762E-01  0.1034E+00  0.1034E+00
     -8.609  0.1208E-01  0.1208E-01  0.1047E+00  0.1047E+00
     -8.504  0.8064E-02  0.8064E-02  0.1055E+00  0.1055E+00
     -8.400  0.9686E-02  0.9686E-02  0.1065E+00  0.1065E+00
     -8.296  0.1347E-01  0.1347E-01  0.1079E+00  0.1079E+00
     -8.191  0.2259E-01  0.2259E-01  0.1103E+00  0.1103E+00
     -8.087  0.2556E-01  0.2556E-01  0.1130E+00  0.1130E+00
     -7.983  0.1870E-01  0.1870E-01  0.1149E+00  0.1149E+00
     -7.878  0.1355E-01  0.1355E-01  0.1163E+00  0.1163E+00
     -7.774  0.1166E-01  0.1166E-01  0.1175E+00  0.1175E+00
     -7.670  0.2084E-01  0.2084E-01  0.1197E+00  0.1197E+00
     -7.565  0.2737E-01  0.2737E-01  0.1226E+00  0.1226E+00
     -7.461  0.2196E-01  0.2196E-01  0.1249E+00  0.1249E+00
     -7.356  0.2135E-01  0.2135E-01  0.1271E+00  0.1271E+00
     -7.252  0.2225E-01  0.2225E-01  0.1294E+00  0.1294E+00
     -7.148  0.2188E-01  0.2188E-01  0.1317E+00  0.1317E+00
     -7.043  0.2541E-01  0.2541E-01  0.1344E+00  0.1344E+00
     -6.939  0.2764E-01  0.2764E-01  0.1372E+00  0.1372E+00
     -6.835  0.1914E-01  0.1914E-01  0.1392E+00  0.1392E+00
     -6.730  0.2000E-01  0.2000E-01  0.1413E+00  0.1413E+00
     -6.626  0.2714E-01  0.2714E-01  0.1442E+00  0.1442E+00
     -6.521  0.2702E-01  0.2702E-01  0.1470E+00  0.1470E+00
     -6.417  0.2404E-01  0.2404E-01  0.1495E+00  0.1495E+00
     -6.313  0.2128E-01  0.2128E-01  0.1517E+00  0.1517E+00
     -6.208  0.2398E-01  0.2398E-01  0.1542E+00  0.1542E+00
     -6.104  0.2278E-01  0.2278E-01  0.1566E+00  0.1566E+00
     -6.000  0.1920E-01  0.1920E-01  0.1586E+00  0.1586E+00
     -5.895  0.1783E-01  0.1783E-01  0.1605E+00  0.1605E+00
     -5.791  0.2068E-01  0.2068E-01  0.1626E+00  0.1626E+00
     -5.687  0.2016E-01  0.2016E-01  0.1647E+00  0.1647E+00
     -5.582  0.2365E-01  0.2365E-01  0.1672E+00  0.1672E+00
     -5.478  0.2172E-01  0.2172E-01  0.1694E+00  0.1694E+00
     -5.373  0.2226E-01  0.2226E-01  0.1718E+00  0.1718E+00
     -5.269  0.2693E-01  0.2693E-01  0.1746E+00  0.1746E+00
     -5.165  0.2428E-01  0.2428E-01  0.1771E+00  0.1771E+00
     -5.060  0.1126E-01  0.1126E-01  0.1783E+00  0.1783E+00
     -4.956  0.9534E-02  0.9534E-02  0.1793E+00  0.1793E+00
     -4.852  0.1708E-01  0.1708E-01  0.1811E+00  0.1811E+00
     -4.747  0.2121E-01  0.2121E-01  0.1833E+00  0.1833E+00
     -4.643  0.1807E-01  0.1807E-01  0.1852E+00  0.1852E+00
     -4.538  0.1447E-01  0.1447E-01  0.1867E+00  0.1867E+00
     -4.434  0.1717E-01  0.1717E-01  0.1885E+00  0.1885E+00
     -4.330  0.2249E-01  0.2249E-01  0.1908E+00  0.1908E+00
     -4.225  0.2363E-01  0.2363E-01  0.1933E+00  0.1933E+00
     -4.121  0.2996E-01  0.2996E-01  0.1964E+00  0.1964E+00
     -4.017  0.3722E-01  0.3722E-01  0.2003E+00  0.2003E+00
     -3.912  0.3275E-01  0.3275E-01  0.2037E+00  0.2037E+00
     -3.808  0.2373E-01  0.2373E-01  0.2062E+00  0.2062E+00
     -3.704  0.1624E-01  0.1624E-01  0.2079E+00  0.2079E+00
     -3.599  0.1489E-01  0.1489E-01  0.2094E+00  0.2094E+00
     -3.495  0.1563E-01  0.1563E-01  0.2111E+00  0.2111E+00
     -3.390  0.1872E-01  0.1872E-01  0.2130E+00  0.2130E+00
     -3.286  0.1976E-01  0.1976E-01  0.2151E+00  0.2151E+00
     -3.182  0.1671E-01  0.1671E-01  0.2168E+00  0.2168E+00
     -3.077  0.1493E-01  0.1493E-01  0.2184E+00  0.2184E+00
     -2.973  0.1366E-01  0.1366E-01  0.2198E+00  0.2198E+00
     -2.869  0.2417E-01  0.2417E-01  0.2223E+00  0.2223E+00
     -2.764  0.2273E-01  0.2273E-01  0.2247E+00  0.2247E+00
     -2.660  0.1344E-01  0.1344E-01  0.2261E+00  0.2261E+00
     -2.555  0.1557E-01  0.1557E-01  0.2277E+00  0.2277E+00
     -2.451  0.2177E-01  0.2177E-01  0.2300E+00  0.2300E+00
     -2.347  0.2074E-01  0.2074E-01  0.2322E+00  0.2322E+00
     -2.242  0.1858E-01  0.1858E-01  0.2341E+00  0.2341E+00
     -2.138  0.1442E-01  0.1442E-01  0.2356E+00  0.2356E+00
     -2.034  0.1435E-01  0.1435E-01  0.2371E+00  0.2371E+00
     -1.929  0.8015E-02  0.8015E-02  0.2380E+00  0.2380E+00
     -1.825  0.3444E-02  0.3444E-02  0.2383E+00  0.2383E+00
     -1.721  0.6584E-02  0.6584E-02  0.2390E+00  0.2390E+00
     -1.616  0.6349E-02  0.6349E-02  0.2397E+00  0.2397E+00
     -1.512  0.5401E-02  0.5401E-02  0.2402E+00  0.2402E+00
     -1.407  0.7259E-02  0.7259E-02  0.2410E+00  0.2410E+00
     -1.303  0.4979E-02  0.4979E-02  0.2415E+00  0.2415E+00
     -1.199  0.3603E-02  0.3603E-02  0.2419E+00  0.2419E+00
     -1.094  0.1621E-02  0.1621E-02  0.2420E+00  0.2420E+00
     -0.990  0.3033E-03  0.3033E-03  0.2421E+00  0.2421E+00
     -0.886  0.7401E-03  0.7401E-03  0.2422E+00  0.2422E+00
     -0.781  0.3164E-02  0.3164E-02  0.2425E+00  0.2425E+00
     -0.677  0.3875E-02  0.3875E-02  0.2429E+00  0.2429E+00
     -0.573  0.5663E-02  0.5663E-02  0.2435E+00  0.2435E+00
     -0.468  0.1004E-01  0.1004E-01  0.2445E+00  0.2445E+00
     -0.364  0.8823E-02  0.8823E-02  0.2455E+00  0.2455E+00
     -0.259  0.9125E-02  0.9125E-02  0.2464E+00  0.2464E+00
     -0.155  0.1249E-01  0.1249E-01  0.2477E+00  0.2477E+00
     -0.051  0.1175E-01  0.1175E-01  0.2489E+00  0.2489E+00
      0.054  0.6150E-02  0.6150E-02  0.2496E+00  0.2496E+00
      0.158  0.2515E-02  0.2515E-02  0.2498E+00  0.2498E+00
      0.262  0.1315E-02  0.1315E-02  0.2500E+00  0.2500E+00
      0.367  0.1611E-02  0.1611E-02  0.2501E+00  0.2501E+00
      0.471  0.5855E-02  0.5855E-02  0.2508E+00  0.2508E+00
      0.576  0.1054E-01  0.1054E-01  0.2519E+00  0.2519E+00
      0.680  0.7282E-02  0.7282E-02  0.2526E+00  0.2526E+00
      0.784  0.3411E-02  0.3411E-02  0.2530E+00  0.2530E+00
      0.889  0.6426E-02  0.6425E-02  0.2536E+00  0.2536E+00
      0.993  0.1105E-01  0.1105E-01  0.2548E+00  0.2548E+00
      1.097  0.1204E-01  0.1204E-01  0.2561E+00  0.2561E+00
      1.202  0.1199E-01  0.1199E-01  0.2573E+00  0.2573E+00
      1.306  0.5609E-02  0.5609E-02  0.2579E+00  0.2579E+00
      1.410  0.4275E-02  0.4275E-02  0.2583E+00  0.2583E+00
      1.515  0.5419E-02  0.5419E-02  0.2589E+00  0.2589E+00
      1.619  0.4705E-02  0.4705E-02  0.2594E+00  0.2594E+00
      1.724  0.6412E-02  0.6412E-02  0.2601E+00  0.2601E+00
      1.828  0.8427E-02  0.8427E-02  0.2609E+00  0.2609E+00
      1.932  0.1078E-01  0.1078E-01  0.2621E+00  0.2621E+00
      2.037  0.5635E-02  0.5635E-02  0.2627E+00  0.2627E+00
      2.141  0.1826E-02  0.1826E-02  0.2628E+00  0.2628E+00
      2.245  0.7175E-02  0.7175E-02  0.2636E+00  0.2636E+00
      2.350  0.1666E-01  0.1666E-01  0.2653E+00  0.2653E+00
      2.454  0.1421E-01  0.1421E-01  0.2668E+00  0.2668E+00
      2.559  0.1100E-01  0.1100E-01  0.2680E+00  0.2680E+00
      2.663  0.1067E-01  0.1067E-01  0.2691E+00  0.2691E+00
      2.767  0.1112E-01  0.1112E-01  0.2702E+00  0.2702E+00
      2.872  0.1270E-01  0.1270E-01  0.2716E+00  0.2716E+00
      2.976  0.1042E-01  0.1041E-01  0.2727E+00  0.2726E+00
      3.080  0.8195E-02  0.8190E-02  0.2735E+00  0.2735E+00
      3.185  0.1118E-01  0.1119E-01  0.2747E+00  0.2747E+00
      3.289  0.1345E-01  0.1344E-01  0.2761E+00  0.2761E+00
      3.393  0.1200E-01  0.1201E-01  0.2773E+00  0.2773E+00
      3.498  0.1130E-01  0.1130E-01  0.2785E+00  0.2785E+00
      3.602  0.1188E-01  0.1186E-01  0.2797E+00  0.2797E+00
      3.707  0.1135E-01  0.1137E-01  0.2809E+00  0.2809E+00
      3.811  0.9298E-02  0.9301E-02  0.2819E+00  0.2819E+00
      3.915  0.1175E-01  0.1173E-01  0.2831E+00  0.2831E+00
      4.020  0.1616E-01  0.1615E-01  0.2848E+00  0.2848E+00
      4.124  0.1566E-01  0.1568E-01  0.2865E+00  0.2864E+00
      4.228  0.1219E-01  0.1220E-01  0.2877E+00  0.2877E+00
      4.333  0.1027E-01  0.1026E-01  0.2888E+00  0.2888E+00
      4.437  0.1757E-01  0.1756E-01  0.2906E+00  0.2906E+00
      4.542  0.2279E-01  0.2279E-01  0.2930E+00  0.2930E+00
      4.646  0.1322E-01  0.1323E-01  0.2944E+00  0.2944E+00
      4.750  0.7432E-02  0.7428E-02  0.2952E+00  0.2952E+00
      4.855  0.1425E-01  0.1421E-01  0.2966E+00  0.2966E+00
      4.959  0.2130E-01  0.2128E-01  0.2989E+00  0.2989E+00
      5.063  0.1950E-01  0.1952E-01  0.3009E+00  0.3009E+00
      5.168  0.1356E-01  0.1355E-01  0.3023E+00  0.3023E+00
      5.272  0.1708E-01  0.1708E-01  0.3041E+00  0.3041E+00
      5.376  0.1720E-01  0.1723E-01  0.3059E+00  0.3059E+00
      5.481  0.1437E-01  0.1433E-01  0.3074E+00  0.3074E+00
      5.585  0.2336E-01  0.2334E-01  0.3098E+00  0.3098E+00
      5.690  0.1907E-01  0.1911E-01  0.3118E+00  0.3118E+00
      5.794  0.1121E-01  0.1122E-01  0.3130E+00  0.3130E+00
      5.898  0.1096E-01  0.1094E-01  0.3141E+00  0.3141E+00
      6.003  0.1713E-01  0.1714E-01  0.3159E+00  0.3159E+00
      6.107  0.1602E-01  0.1602E-01  0.3176E+00  0.3176E+00
      6.211  0.1984E-01  0.1982E-01  0.3197E+00  0.3197E+00
      6.316  0.2565E-01  0.2563E-01  0.3224E+00  0.3223E+00
      6.420  0.2574E-01  0.2575E-01  0.3250E+00  0.3250E+00
      6.524  0.2602E-01  0.2606E-01  0.3278E+00  0.3277E+00
      6.629  0.1887E-01  0.1888E-01  0.3297E+00  0.3297E+00
      6.733  0.1762E-01  0.1760E-01  0.3316E+00  0.3316E+00
      6.838  0.2054E-01  0.2050E-01  0.3337E+00  0.3337E+00
      6.942  0.2830E-01  0.2831E-01  0.3367E+00  0.3367E+00
      7.046  0.3225E-01  0.3229E-01  0.3400E+00  0.3400E+00
      7.151  0.3042E-01  0.3040E-01  0.3432E+00  0.3432E+00
      7.255  0.3076E-01  0.3076E-01  0.3464E+00  0.3464E+00
      7.359  0.3554E-01  0.3551E-01  0.3501E+00  0.3501E+00
      7.464  0.3653E-01  0.3652E-01  0.3539E+00  0.3539E+00
      7.568  0.2909E-01  0.2911E-01  0.3570E+00  0.3570E+00
      7.673  0.3022E-01  0.3021E-01  0.3601E+00  0.3601E+00
      7.777  0.3455E-01  0.3451E-01  0.3637E+00  0.3637E+00
      7.881  0.4012E-01  0.4011E-01  0.3679E+00  0.3679E+00
      7.986  0.2974E-01  0.2976E-01  0.3710E+00  0.3710E+00
      8.090  0.1799E-01  0.1805E-01  0.3729E+00  0.3729E+00
      8.194  0.9709E-02  0.9746E-02  0.3739E+00  0.3739E+00
      8.299  0.5130E-02  0.5156E-02  0.3744E+00  0.3744E+00
      8.403  0.2639E-02  0.2640E-02  0.3747E+00  0.3747E+00
      8.507  0.2081E-02  0.2084E-02  0.3749E+00  0.3749E+00
      8.612  0.5508E-03  0.5563E-03  0.3750E+00  0.3750E+00
      8.716  0.2369E-04  0.2416E-04  0.3750E+00  0.3750E+00
      8.821  0.1394E-06  0.1436E-06  0.3750E+00  0.3750E+00
      8.925  0.1037E-09  0.1079E-09  0.3750E+00  0.3750E+00
      9.029  0.9347E-14  0.9842E-14  0.3750E+00  0.3750E+00
      9.134  0.0000E+00  0.0000E+00  0.3750E+00  0.3750E+00
      9.238  0.0000E+00  0.0000E+00  0.3750E+00  0.3750E+00
      9.342  0.0000E+00  0.0000E+00  0.3750E+00  0.3750E+00
      9.447  0.0000E+00  0.0000E+00  0.3750E+00  0.3750E+00
      9.551  0.0000E+00  0.0000E+00  0.3750E+00  0.3750E+00
      9.656  0.0000E+00  0.0000E+00  0.3750E+00  0.3750E+00
      9.760  0.0000E+00  0.0000E+00  0.3750E+00  0.3750E+00
      9.864  0.0000E+00  0.0000E+00  0.3750E+00  0.3750E+00
