 ----------------------------------------------------
    OOO  PPPP  EEEEE N   N M   M PPPP
   O   O P   P E     NN  N MM MM P   P
   O   O PPPP  EEEEE N N N M M M PPPP   -- VERSION
   O   O P     E     N  NN M   M P
    OOO  P     EEEEE N   N M   M P
 ----------------------------------------------------
 running   24 mpi-ranks, with    1 threads/rank
 distrk:  each k-point on   24 cores,    1 groups
 distr:  one band on    1 cores,   24 groups
 vasp.6.3.2 27Jun22 (build Dec 22 2022 13:13:19) complex                        
  
 POSCAR found type information on POSCAR B C 
 POSCAR found :  2 types and       8 ions
 Reading from existing POTCAR
 scaLAPACK will be used
 Reading from existing POTCAR
 LDA part: xc-table for Pade appr. of Perdew
 POSCAR found type information on POSCAR B C 
 POSCAR found :  2 types and       8 ions
 POSCAR, INCAR and KPOINTS ok, starting setup
 FFT: planning ... GRIDC
 FFT: planning ... GRID_SOFT
 FFT: planning ... GRID
 WAVECAR not read
 entering main loop
       N       E                     dE             d eps       ncg     rms          rms(c)
DAV:   1     0.186475084615E+03    0.18648E+03   -0.11418E+04  2928   0.827E+02
DAV:   2    -0.564882051021E+02   -0.24296E+03   -0.24214E+03  4824   0.158E+02
DAV:   3    -0.732749244615E+02   -0.16787E+02   -0.16729E+02  4464   0.639E+01
DAV:   4    -0.734311292157E+02   -0.15620E+00   -0.15620E+00  5064   0.607E+00
DAV:   5    -0.734312912493E+02   -0.16203E-03   -0.16203E-03  4200   0.195E-01    0.131E+01
DAV:   6    -0.689926511574E+02    0.44386E+01   -0.58719E+00  5568   0.104E+01    0.746E+00
DAV:   7    -0.673333548397E+02    0.16593E+01   -0.39196E+00  5592   0.857E+00    0.213E+00
DAV:   8    -0.672503151438E+02    0.83040E-01   -0.17125E-01  4656   0.178E+00    0.601E-01
DAV:   9    -0.672309609222E+02    0.19354E-01   -0.13468E-02  4440   0.655E-01    0.169E-01
DAV:  10    -0.672218762454E+02    0.90847E-02   -0.96157E-03  3744   0.345E-01    0.993E-02
DAV:  11    -0.672196024445E+02    0.22738E-02   -0.48741E-03  4272   0.255E-01    0.596E-02
DAV:  12    -0.672202033058E+02   -0.60086E-03   -0.67163E-04  3216   0.115E-01    0.280E-02
DAV:  13    -0.672232929055E+02   -0.30896E-02   -0.59785E-04  4752   0.882E-02    0.193E-02
DAV:  14    -0.672248240711E+02   -0.15312E-02   -0.27293E-04  3792   0.591E-02    0.117E-02
DAV:  15    -0.672255731690E+02   -0.74910E-03   -0.86972E-05  4008   0.328E-02    0.470E-03
DAV:  16    -0.672258181462E+02   -0.24498E-03   -0.30771E-05  3216   0.172E-02    0.219E-03
DAV:  17    -0.672258887639E+02   -0.70618E-04   -0.33077E-06  2928   0.677E-03    0.137E-03
DAV:  18    -0.672258959823E+02   -0.72185E-05   -0.30219E-07  4416   0.216E-03    0.265E-04
DAV:  19    -0.672258982404E+02   -0.22580E-05   -0.58216E-08  3456   0.774E-04    0.181E-04
DAV:  20    -0.672258985355E+02   -0.29512E-06   -0.63899E-09  4056   0.266E-04
   1 F= -.67904235E+02 E0= -.67904235E+02  d E =-.679042E+02
 curvature:   0.00 expect dE= 0.000E+00 dE for cont linesearch  0.000E+00
 trial: gam= 0.00000 g(F)=  0.211E-01 g(S)=  0.000E+00 ort = 0.000E+00 (trialstep = 0.100E+01)
 search vector abs. value=  0.211E-01
 bond charge predicted
       N       E                     dE             d eps       ncg     rms          rms(c)
DAV:   1    -0.672219409074E+02    0.39573E-02   -0.32540E+00  2928   0.107E+01    0.494E-01
DAV:   2    -0.672163845303E+02    0.55564E-02   -0.55131E-02  5232   0.146E+00    0.242E-01
DAV:   3    -0.672156017835E+02    0.78275E-03   -0.89719E-03  3936   0.499E-01    0.936E-02
DAV:   4    -0.672155964556E+02    0.53279E-05   -0.12742E-03  3504   0.180E-01    0.421E-02
DAV:   5    -0.672156024390E+02   -0.59834E-05   -0.76071E-05  2952   0.565E-02    0.656E-03
DAV:   6    -0.672156035202E+02   -0.10812E-05   -0.14021E-05  3312   0.222E-02    0.426E-03
DAV:   7    -0.672156054543E+02   -0.19340E-05   -0.23903E-06  3048   0.847E-03    0.695E-04
DAV:   8    -0.672156066237E+02   -0.11695E-05   -0.22303E-07  3552   0.253E-03    0.437E-04
DAV:   9    -0.672156082961E+02   -0.16724E-05   -0.90882E-08  3216   0.937E-04    0.353E-04
DAV:  10    -0.672156094168E+02   -0.11207E-05   -0.85217E-08  4464   0.121E-03    0.298E-04
DAV:  11    -0.672156102387E+02   -0.82193E-06   -0.53033E-08  4536   0.891E-04
   2 F= -.67892953E+02 E0= -.67892953E+02  d E =0.112822E-01
 trial-energy change:    0.011282  1 .order    0.011413   -0.021067    0.043893
 step:   0.3270(harm=  0.3243)  dis= 0.00410  next Energy=   -67.907684 (dE=-0.345E-02)
 bond charge predicted
       N       E                     dE             d eps       ncg     rms          rms(c)
DAV:   1    -0.672325586053E+02   -0.16949E-01   -0.14788E+00  2928   0.721E+00    0.332E-01
DAV:   2    -0.672299524071E+02    0.26062E-02   -0.25486E-02  4968   0.978E-01    0.163E-01
DAV:   3    -0.672296388906E+02    0.31352E-03   -0.39459E-03  5232   0.332E-01    0.646E-02
DAV:   4    -0.672296362527E+02    0.26380E-05   -0.48979E-04  3792   0.110E-01    0.281E-02
DAV:   5    -0.672296410220E+02   -0.47693E-05   -0.38608E-05  4368   0.385E-02    0.472E-03
DAV:   6    -0.672296420498E+02   -0.10278E-05   -0.59335E-06  3360   0.143E-02    0.278E-03
DAV:   7    -0.672296436958E+02   -0.16460E-05   -0.10745E-06  3264   0.562E-03    0.570E-04
DAV:   8    -0.672296447263E+02   -0.10305E-05   -0.13807E-07  3696   0.188E-03    0.415E-04
DAV:   9    -0.672296457295E+02   -0.10033E-05   -0.69477E-08  4056   0.931E-04    0.206E-04
DAV:  10    -0.672296464376E+02   -0.70803E-06   -0.46906E-08  3936   0.674E-04
   3 F= -.67907683E+02 E0= -.67907683E+02  d E =-.344792E-02
 curvature:  -0.16 expect dE=-0.908E-05 dE for cont linesearch -0.224E-10
 trial: gam= 0.00258 g(F)=  0.560E-04 g(S)=  0.000E+00 ort = 0.171E-05 (trialstep = 0.865E+00)
 search vector abs. value=  0.561E-04
 bond charge predicted
       N       E                     dE             d eps       ncg     rms          rms(c)
DAV:   1    -0.672296523114E+02   -0.65819E-05   -0.43256E-03  4032   0.426E-01    0.142E-02
DAV:   2    -0.672296532630E+02   -0.95157E-06   -0.43702E-05  3504   0.397E-02    0.860E-03
DAV:   3    -0.672296528160E+02    0.44697E-06   -0.30636E-06  3336   0.107E-02
   4 F= -.67907688E+02 E0= -.67907688E+02  d E =-.465851E-05
 trial-energy change:   -0.000005  1 .order   -0.000004   -0.000048    0.000040
 step:   0.4725(harm=  0.4725)  dis= 0.00038  next Energy=   -67.907696 (dE=-0.132E-04)
 bond charge predicted
       N       E                     dE             d eps       ncg     rms          rms(c)
DAV:   1    -0.672296605023E+02   -0.72393E-05   -0.89109E-04  2976   0.194E-01    0.583E-03
DAV:   2    -0.672296611663E+02   -0.66405E-06   -0.13386E-05  3120   0.221E-02    0.379E-03
DAV:   3    -0.672296610748E+02    0.91557E-07   -0.68629E-07  3576   0.506E-03
   5 F= -.67907697E+02 E0= -.67907697E+02  d E =-.136981E-04
 curvature:  -0.24 expect dE=-0.132E-04 dE for cont linesearch -0.684E-10
 trial: gam= 0.99656 g(F)=  0.559E-04 g(S)=  0.000E+00 ort = 0.127E-06 (trialstep = 0.395E+00)
 search vector abs. value=  0.112E-03
 bond charge predicted
       N       E                     dE             d eps       ncg     rms          rms(c)
DAV:   1    -0.672296760835E+02   -0.14917E-04   -0.15278E-03  3000   0.261E-01    0.657E-03
DAV:   2    -0.672296771605E+02   -0.10770E-05   -0.14689E-05  3024   0.210E-02    0.487E-03
DAV:   3    -0.672296773297E+02   -0.16921E-06   -0.54864E-07  2928   0.410E-03
   6 F= -.67907714E+02 E0= -.67907714E+02  d E =-.168722E-04
 trial-energy change:   -0.000017  1 .order   -0.000017   -0.000022   -0.000012
 step:   0.8319(harm=  0.8319)  dis= 0.00080  next Energy=   -67.907720 (dE=-0.233E-04)
 bond charge predicted
       N       E                     dE             d eps       ncg     rms          rms(c)
DAV:   1    -0.672296816881E+02   -0.45276E-05   -0.18733E-03  2976   0.288E-01    0.751E-03
DAV:   2    -0.672296830391E+02   -0.13510E-05   -0.18397E-05  2976   0.237E-02    0.555E-03
DAV:   3    -0.672296832634E+02   -0.22429E-06   -0.70362E-07  2976   0.464E-03
   7 F= -.67907720E+02 E0= -.67907720E+02  d E =-.234691E-04
 curvature:  -0.83 expect dE=-0.109E-05 dE for cont linesearch -0.511E-09
 trial: gam= 0.02350 g(F)=  0.132E-05 g(S)=  0.000E+00 ort = 0.262E-06 (trialstep = 0.482E+00)
 search vector abs. value=  0.139E-05
 bond charge predicted
       N       E                     dE             d eps       ncg     rms          rms(c)
DAV:   1    -0.672296836982E+02   -0.65904E-06   -0.24629E-05  3432   0.303E-02    0.140E-03
DAV:   2    -0.672296836822E+02    0.15972E-07   -0.50008E-07  3720   0.436E-03
   8 F= -.67907721E+02 E0= -.67907720E+02  d E =-.312815E-06
 trial-energy change:   -0.000000  1 .order   -0.000000   -0.000001    0.000000
 step:   0.4006(harm=  0.4006)  dis= 0.00008  next Energy=   -67.907720 (dE=-0.265E-06)
 reached required accuracy - stopping structural energy minimisation
