   7   7   0   4
  0.4081967E+02  0.4690000E-09  0.4690000E-09  0.1500000E-08  0.5000000E-15
  1.000000000000000E-004
  CAR 
 Lattice                                 
      8.64101874    -21.08809005  301     -2.35720312      1.00000000
    -21.088  0.0000E+00  0.0000E+00
    -20.989  0.0000E+00  0.0000E+00
    -20.890  0.0000E+00  0.0000E+00
    -20.791  0.0000E+00  0.0000E+00
    -20.692  0.0000E+00  0.0000E+00
    -20.593  0.0000E+00  0.0000E+00
    -20.494  0.0000E+00  0.0000E+00
    -20.394  0.0000E+00  0.0000E+00
    -20.295  0.9421E-18  0.9336E-19
    -20.196  0.2919E-13  0.2893E-14
    -20.097  0.1478E-09  0.1464E-10
    -19.998  0.1212E-06  0.1203E-07
    -19.899  0.1703E-04  0.1700E-05
    -19.800  0.4537E-03  0.4666E-04
    -19.701  0.2818E-02  0.3259E-03
    -19.602  0.5850E-02  0.9056E-03
    -19.503  0.7097E-02  0.1609E-02
    -19.403  0.7773E-02  0.2379E-02
    -19.304  0.8914E-02  0.3263E-02
    -19.205  0.1141E-01  0.4393E-02
    -19.106  0.1559E-01  0.5938E-02
    -19.007  0.1381E-01  0.7306E-02
    -18.908  0.4653E-02  0.7767E-02
    -18.809  0.4492E-03  0.7812E-02
    -18.710  0.9691E-05  0.7812E-02
    -18.611  0.3922E-07  0.7812E-02
    -18.512  0.2718E-10  0.7812E-02
    -18.412  0.3050E-14  0.7812E-02
    -18.313  0.0000E+00  0.7812E-02
    -18.214  0.0000E+00  0.7812E-02
    -18.115  0.0000E+00  0.7812E-02
    -18.016  0.0000E+00  0.7812E-02
    -17.917  0.0000E+00  0.7812E-02
    -17.818  0.0000E+00  0.7812E-02
    -17.719  0.1823E-18  0.7812E-02
    -17.620  0.8849E-14  0.7813E-02
    -17.521  0.5818E-10  0.7813E-02
    -17.421  0.5949E-07  0.7813E-02
    -17.322  0.1042E-04  0.7814E-02
    -17.223  0.3674E-03  0.7850E-02
    -17.124  0.3132E-02  0.8160E-02
    -17.025  0.8068E-02  0.8960E-02
    -16.926  0.1121E-01  0.1007E-01
    -16.827  0.1183E-01  0.1124E-01
    -16.728  0.8796E-02  0.1211E-01
    -16.629  0.6296E-02  0.1274E-01
    -16.530  0.5963E-02  0.1333E-01
    -16.431  0.7791E-02  0.1410E-01
    -16.331  0.5989E-02  0.1470E-01
    -16.232  0.6738E-02  0.1536E-01
    -16.133  0.9778E-02  0.1633E-01
    -16.034  0.8475E-02  0.1717E-01
    -15.935  0.1064E-01  0.1823E-01
    -15.836  0.1528E-01  0.1974E-01
    -15.737  0.1345E-01  0.2107E-01
    -15.638  0.1054E-01  0.2212E-01
    -15.539  0.8500E-02  0.2296E-01
    -15.440  0.4055E-02  0.2336E-01
    -15.340  0.7357E-03  0.2343E-01
    -15.241  0.3449E-04  0.2344E-01
    -15.142  0.3161E-06  0.2344E-01
    -15.043  0.4927E-09  0.2344E-01
    -14.944  0.1221E-12  0.2344E-01
    -14.845  0.4863E-17  0.2344E-01
    -14.746  0.0000E+00  0.2344E-01
    -14.647  0.0000E+00  0.2344E-01
    -14.548  0.0000E+00  0.2344E-01
    -14.449  0.0000E+00  0.2344E-01
    -14.349  0.0000E+00  0.2344E-01
    -14.250  0.0000E+00  0.2344E-01
    -14.151  0.0000E+00  0.2344E-01
    -14.052  0.0000E+00  0.2344E-01
    -13.953  0.0000E+00  0.2344E-01
    -13.854  0.0000E+00  0.2344E-01
    -13.755  0.0000E+00  0.2344E-01
    -13.656  0.0000E+00  0.2344E-01
    -13.557  0.0000E+00  0.2344E-01
    -13.458  0.0000E+00  0.2344E-01
    -13.359  0.0000E+00  0.2344E-01
    -13.259  0.1076E-14  0.2344E-01
    -13.160  0.1059E-10  0.2344E-01
    -13.061  0.1583E-07  0.2344E-01
    -12.962  0.3818E-05  0.2344E-01
    -12.863  0.1632E-03  0.2345E-01
    -12.764  0.1423E-02  0.2360E-01
    -12.665  0.3782E-02  0.2397E-01
    -12.566  0.7383E-02  0.2470E-01
    -12.467  0.9192E-02  0.2561E-01
    -12.368  0.7787E-02  0.2638E-01
    -12.268  0.8672E-02  0.2724E-01
    -12.169  0.1002E-01  0.2824E-01
    -12.070  0.1081E-01  0.2931E-01
    -11.971  0.6180E-02  0.2992E-01
    -11.872  0.2508E-02  0.3017E-01
    -11.773  0.4651E-02  0.3063E-01
    -11.674  0.1168E-01  0.3179E-01
    -11.575  0.8575E-02  0.3264E-01
    -11.476  0.3301E-02  0.3296E-01
    -11.377  0.4072E-02  0.3337E-01
    -11.277  0.9391E-02  0.3430E-01
    -11.178  0.1010E-01  0.3530E-01
    -11.079  0.4836E-02  0.3578E-01
    -10.980  0.4314E-02  0.3621E-01
    -10.881  0.6472E-02  0.3685E-01
    -10.782  0.9422E-02  0.3778E-01
    -10.683  0.1099E-01  0.3887E-01
    -10.584  0.6299E-02  0.3949E-01
    -10.485  0.2907E-02  0.3978E-01
    -10.386  0.4010E-02  0.4018E-01
    -10.287  0.9599E-02  0.4113E-01
    -10.187  0.8701E-02  0.4199E-01
    -10.088  0.3398E-02  0.4233E-01
     -9.989  0.1991E-02  0.4253E-01
     -9.890  0.6891E-02  0.4321E-01
     -9.791  0.1107E-01  0.4431E-01
     -9.692  0.1006E-01  0.4530E-01
     -9.593  0.1009E-01  0.4630E-01
     -9.494  0.6815E-02  0.4698E-01
     -9.395  0.2377E-02  0.4722E-01
     -9.296  0.3887E-03  0.4725E-01
     -9.196  0.4463E-03  0.4730E-01
     -9.097  0.2453E-02  0.4754E-01
     -8.998  0.4452E-02  0.4798E-01
     -8.899  0.5667E-02  0.4854E-01
     -8.800  0.4743E-02  0.4901E-01
     -8.701  0.4575E-02  0.4947E-01
     -8.602  0.3947E-02  0.4986E-01
     -8.503  0.5500E-02  0.5040E-01
     -8.404  0.8716E-02  0.5127E-01
     -8.305  0.5308E-02  0.5179E-01
     -8.205  0.6067E-02  0.5239E-01
     -8.106  0.8473E-02  0.5323E-01
     -8.007  0.8300E-02  0.5406E-01
     -7.908  0.1474E-01  0.5552E-01
     -7.809  0.2016E-01  0.5752E-01
     -7.710  0.1842E-01  0.5934E-01
     -7.611  0.1264E-01  0.6059E-01
     -7.512  0.6747E-02  0.6126E-01
     -7.413  0.7234E-02  0.6198E-01
     -7.314  0.1377E-01  0.6334E-01
     -7.215  0.1915E-01  0.6524E-01
     -7.115  0.1434E-01  0.6666E-01
     -7.016  0.3563E-02  0.6702E-01
     -6.917  0.1619E-02  0.6718E-01
     -6.818  0.1339E-02  0.6731E-01
     -6.719  0.1026E-02  0.6741E-01
     -6.620  0.3651E-02  0.6777E-01
     -6.521  0.3979E-02  0.6817E-01
     -6.422  0.1349E-02  0.6830E-01
     -6.323  0.1415E-02  0.6844E-01
     -6.224  0.6054E-02  0.6904E-01
     -6.124  0.1197E-01  0.7023E-01
     -6.025  0.1751E-01  0.7196E-01
     -5.926  0.1818E-01  0.7376E-01
     -5.827  0.1662E-01  0.7541E-01
     -5.728  0.1594E-01  0.7699E-01
     -5.629  0.9842E-02  0.7797E-01
     -5.530  0.8941E-02  0.7885E-01
     -5.431  0.6082E-02  0.7946E-01
     -5.332  0.6615E-02  0.8011E-01
     -5.233  0.1021E-01  0.8112E-01
     -5.133  0.9518E-02  0.8207E-01
     -5.034  0.5226E-02  0.8258E-01
     -4.935  0.5692E-02  0.8315E-01
     -4.836  0.7418E-02  0.8388E-01
     -4.737  0.6840E-02  0.8456E-01
     -4.638  0.8903E-02  0.8544E-01
     -4.539  0.6568E-02  0.8609E-01
     -4.440  0.5138E-02  0.8660E-01
     -4.341  0.3636E-02  0.8696E-01
     -4.242  0.4721E-02  0.8743E-01
     -4.142  0.9410E-02  0.8836E-01
     -4.043  0.8409E-02  0.8920E-01
     -3.944  0.6414E-02  0.8983E-01
     -3.845  0.6170E-02  0.9044E-01
     -3.746  0.4587E-02  0.9090E-01
     -3.647  0.4294E-02  0.9132E-01
     -3.548  0.6449E-02  0.9196E-01
     -3.449  0.3403E-02  0.9230E-01
     -3.350  0.1345E-02  0.9243E-01
     -3.251  0.3323E-02  0.9276E-01
     -3.152  0.3313E-02  0.9309E-01
     -3.052  0.2502E-02  0.9334E-01
     -2.953  0.2202E-02  0.9356E-01
     -2.854  0.1326E-02  0.9369E-01
     -2.755  0.5289E-03  0.9374E-01
     -2.656  0.8291E-04  0.9375E-01
     -2.557  0.2563E-05  0.9375E-01
     -2.458  0.1288E-07  0.9375E-01
     -2.359  0.9876E-11  0.9375E-01
     -2.260  0.1121E-14  0.9375E-01
     -2.161  0.0000E+00  0.9375E-01
     -2.061  0.0000E+00  0.9375E-01
     -1.962  0.0000E+00  0.9375E-01
     -1.863  0.0000E+00  0.9375E-01
     -1.764  0.4072E-17  0.9375E-01
     -1.665  0.1161E-12  0.9375E-01
     -1.566  0.5065E-09  0.9375E-01
     -1.467  0.3434E-06  0.9375E-01
     -1.368  0.3813E-04  0.9375E-01
     -1.269  0.7628E-03  0.9383E-01
     -1.170  0.3294E-02  0.9416E-01
     -1.070  0.4622E-02  0.9461E-01
     -0.971  0.6649E-02  0.9527E-01
     -0.872  0.1306E-01  0.9657E-01
     -0.773  0.1372E-01  0.9793E-01
     -0.674  0.6121E-02  0.9853E-01
     -0.575  0.2503E-02  0.9878E-01
     -0.476  0.3120E-02  0.9909E-01
     -0.377  0.6016E-02  0.9969E-01
     -0.278  0.1067E-01  0.1007E+00
     -0.179  0.6408E-02  0.1014E+00
     -0.080  0.2789E-02  0.1017E+00
      0.020  0.2196E-02  0.1019E+00
      0.119  0.3474E-02  0.1022E+00
      0.218  0.6293E-02  0.1028E+00
      0.317  0.6922E-02  0.1035E+00
      0.416  0.6059E-02  0.1041E+00
      0.515  0.3255E-02  0.1044E+00
      0.614  0.1800E-02  0.1046E+00
      0.713  0.3056E-02  0.1049E+00
      0.812  0.5332E-02  0.1055E+00
      0.911  0.6886E-02  0.1061E+00
      1.011  0.5716E-02  0.1067E+00
      1.110  0.4037E-02  0.1071E+00
      1.209  0.3038E-02  0.1074E+00
      1.308  0.7216E-02  0.1081E+00
      1.407  0.8468E-02  0.1090E+00
      1.506  0.5438E-02  0.1095E+00
      1.605  0.7342E-02  0.1102E+00
      1.704  0.1040E-01  0.1113E+00
      1.803  0.1011E-01  0.1123E+00
      1.902  0.9236E-02  0.1132E+00
      2.002  0.1600E-01  0.1148E+00
      2.101  0.1580E-01  0.1163E+00
      2.200  0.8703E-02  0.1172E+00
      2.299  0.7771E-02  0.1180E+00
      2.398  0.1086E-01  0.1190E+00
      2.497  0.1120E-01  0.1201E+00
      2.596  0.1300E-01  0.1214E+00
      2.695  0.1496E-01  0.1229E+00
      2.794  0.1289E-01  0.1242E+00
      2.893  0.1643E-01  0.1258E+00
      2.992  0.2328E-01  0.1281E+00
      3.092  0.2569E-01  0.1307E+00
      3.191  0.2630E-01  0.1333E+00
      3.290  0.2793E-01  0.1360E+00
      3.389  0.2375E-01  0.1384E+00
      3.488  0.2096E-01  0.1405E+00
      3.587  0.2555E-01  0.1430E+00
      3.686  0.1921E-01  0.1449E+00
      3.785  0.1090E-01  0.1460E+00
      3.884  0.1311E-01  0.1473E+00
      3.983  0.1640E-01  0.1489E+00
      4.083  0.1779E-01  0.1507E+00
      4.182  0.1938E-01  0.1526E+00
      4.281  0.2012E-01  0.1546E+00
      4.380  0.2232E-01  0.1568E+00
      4.479  0.2045E-01  0.1588E+00
      4.578  0.2130E-01  0.1609E+00
      4.677  0.2491E-01  0.1634E+00
      4.776  0.2590E-01  0.1660E+00
      4.875  0.2438E-01  0.1684E+00
      4.974  0.2639E-01  0.1710E+00
      5.074  0.2266E-01  0.1733E+00
      5.173  0.1922E-01  0.1752E+00
      5.272  0.1367E-01  0.1765E+00
      5.371  0.1475E-01  0.1780E+00
      5.470  0.2041E-01  0.1800E+00
      5.569  0.1097E-01  0.1811E+00
      5.668  0.5143E-02  0.1816E+00
      5.767  0.1004E-01  0.1826E+00
      5.866  0.1035E-01  0.1836E+00
      5.965  0.5160E-02  0.1841E+00
      6.064  0.3558E-02  0.1845E+00
      6.164  0.2768E-02  0.1848E+00
      6.263  0.2125E-02  0.1850E+00
      6.362  0.3421E-02  0.1853E+00
      6.461  0.1847E-02  0.1855E+00
      6.560  0.1768E-02  0.1857E+00
      6.659  0.1199E-02  0.1858E+00
      6.758  0.2135E-02  0.1860E+00
      6.857  0.3081E-02  0.1863E+00
      6.956  0.1171E-02  0.1864E+00
      7.055  0.1151E-02  0.1865E+00
      7.155  0.2414E-02  0.1868E+00
      7.254  0.3397E-02  0.1871E+00
      7.353  0.3127E-02  0.1874E+00
      7.452  0.7821E-03  0.1875E+00
      7.551  0.4067E-04  0.1875E+00
      7.650  0.3813E-06  0.1875E+00
      7.749  0.5801E-09  0.1875E+00
      7.848  0.1345E-12  0.1875E+00
      7.947  0.4376E-17  0.1875E+00
      8.046  0.0000E+00  0.1875E+00
      8.146  0.0000E+00  0.1875E+00
      8.245  0.0000E+00  0.1875E+00
      8.344  0.0000E+00  0.1875E+00
      8.443  0.0000E+00  0.1875E+00
      8.542  0.0000E+00  0.1875E+00
      8.641  0.0000E+00  0.1875E+00
