Lattice                                 
           1
     4.476485    2.584500    0.000000
    -4.476485    2.584500    0.000000
     0.000000    0.000000   15.000000
   B    C 
     2     6
Direct configuration=     1
   0.33835568  0.66919338  0.25000000
   0.67168550  0.33578412  0.25000000
   0.16393418  0.32096121  0.25000000
   0.32344383  0.16194918  0.25000000
   0.16445142  0.84350783  0.25000000
   0.84555675  0.16147694  0.25000000
   0.68650730  0.84304996  0.25000000
   0.84606136  0.68407339  0.25000000
Direct configuration=     2
   0.33826096  0.66913789  0.25000000
   0.67167031  0.33589161  0.25000000
   0.16281335  0.31804825  0.25000000
   0.32052282  0.16045045  0.25000000
   0.16295857  0.84489341  0.25000000
   0.84701576  0.16013853  0.25000000
   0.68957233  0.84455732  0.25000000
   0.84718190  0.68687854  0.25000000
Direct configuration=     3
   0.33832471  0.66917524  0.25000000
   0.67168053  0.33581927  0.25000000
   0.16356770  0.32000875  0.25000000
   0.32248874  0.16145913  0.25000000
   0.16396330  0.84396088  0.25000000
   0.84603380  0.16103932  0.25000000
   0.68750949  0.84354283  0.25000000
   0.84642775  0.68499060  0.25000000
Direct configuration=     4
   0.33832473  0.66917525  0.25000000
   0.67168053  0.33581924  0.25000000
   0.16356793  0.32000935  0.25000000
   0.32248934  0.16145945  0.25000000
   0.16396361  0.84396059  0.25000000
   0.84603350  0.16103960  0.25000000
   0.68750885  0.84354251  0.25000000
   0.84642751  0.68499001  0.25000000
Direct configuration=     5
   0.33835318  0.66917133  0.25000000
   0.67163668  0.33583227  0.25000000
   0.16358194  0.31999652  0.25000000
   0.32253740  0.16135862  0.25000000
   0.16380843  0.84385597  0.25000000
   0.84619391  0.16114536  0.25000000
   0.68746236  0.84363705  0.25000000
   0.84642208  0.68499887  0.25000000
Direct configuration=     6
   0.33834035  0.66917310  0.25000000
   0.67165646  0.33582640  0.25000000
   0.16357562  0.32000231  0.25000000
   0.32251573  0.16140409  0.25000000
   0.16387841  0.84390315  0.25000000
   0.84612157  0.16109766  0.25000000
   0.68748333  0.84359442  0.25000000
   0.84642453  0.68499488  0.25000000
Direct configuration=     7
   0.33833494  0.66916867  0.25000000
   0.67165610  0.33583401  0.25000000
   0.16365846  0.32000076  0.25000000
   0.32250856  0.16133279  0.25000000
   0.16382038  0.84383250  0.25000000
   0.84618116  0.16116825  0.25000000
   0.68749137  0.84366341  0.25000000
   0.84634503  0.68499561  0.25000000
Direct configuration=     8
   0.33832882  0.66916366  0.25000000
   0.67165568  0.33584265  0.25000000
   0.16375233  0.31999901  0.25000000
   0.32250044  0.16125199  0.25000000
   0.16375464  0.84375245  0.25000000
   0.84624867  0.16124823  0.25000000
   0.68750048  0.84374158  0.25000000
   0.84625494  0.68499645  0.25000000
Direct configuration=     9
   0.33833419  0.66916509  0.25000000
   0.67166632  0.33583190  0.25000000
   0.16374592  0.31999952  0.25000000
   0.32249948  0.16125027  0.25000000
   0.16375429  0.84374918  0.25000000
   0.84624418  0.16125058  0.25000000
   0.68750002  0.84375011  0.25000000
   0.84625161  0.68499936  0.25000000
