Lattice                                 
           1
     4.347448    2.510000    0.000000
    -4.347448    2.510000    0.000000
     0.000000    0.000000   15.000000
   B    C 
     2    14
Direct configuration=     1
   0.33833034  0.66916432  0.10000000
   0.67165522  0.33584146  0.10000000
   0.16373946  0.31999962  0.10000000
   0.32250218  0.16126397  0.10000000
   0.16376430  0.84376384  0.10000000
   0.84623863  0.16123684  0.10000000
   0.68749850  0.84373000  0.10000000
   0.84626736  0.68499594  0.10000000
   0.33333267  0.16666633  0.32553333
   0.49999967  0.99999933  0.32553333
   0.33333267  0.66666633  0.32553333
   0.49999967  0.49999933  0.32553333
   0.83333267  0.16666633  0.32553333
   0.99999967  0.99999933  0.32553333
   0.83333267  0.66666633  0.32553333
   0.99999967  0.49999933  0.32553333
Direct configuration=     2
   0.33834453  0.66917107  0.10016803
   0.67169389  0.33582025  0.09997901
   0.16766815  0.32786347  0.09994647
   0.33009726  0.16505767  0.10001726
   0.16769924  0.83982326  0.09994647
   0.84241317  0.16504343  0.10001678
   0.67963281  0.83981689  0.09994623
   0.84243873  0.67739578  0.10001677
   0.33337784  0.16668779  0.32554219
   0.50012606  0.00026941  0.32558353
   0.33332886  0.66666336  0.32532814
   0.50012606  0.49985788  0.32558352
   0.83331928  0.16669171  0.32553873
   0.00000496  0.00000309  0.32552988
   0.83331932  0.66662539  0.32553876
   0.99973518  0.49986821  0.32558489
Direct configuration=     3
   0.33833404  0.66916608  0.10004385
   0.67166531  0.33583592  0.09999452
   0.16476481  0.32205201  0.09998603
   0.32448442  0.16225408  0.10000451
   0.16479128  0.84273539  0.09998603
   0.84524023  0.16223032  0.10000438
   0.68544564  0.84270872  0.09998597
   0.84526813  0.68301238  0.10000438
   0.33334446  0.16667193  0.32553565
   0.50003265  0.00006982  0.32554643
   0.33333167  0.66666556  0.32547978
   0.50003265  0.49996242  0.32554643
   0.83332917  0.16667296  0.32553474
   0.00000105  0.00000031  0.32553243
   0.83332918  0.66665565  0.32553475
   0.99993064  0.49996511  0.32554679
Direct configuration=     4
   0.33833404  0.66916608  0.10004382
   0.67166530  0.33583593  0.09999453
   0.16476400  0.32205039  0.09998604
   0.32448286  0.16225330  0.10000450
   0.16479047  0.84273620  0.09998604
   0.84524101  0.16222954  0.10000438
   0.68544725  0.84270953  0.09998598
   0.84526891  0.68301394  0.10000437
   0.33334445  0.16667193  0.32553564
   0.50003263  0.00006977  0.32554642
   0.33333167  0.66666556  0.32547982
   0.50003263  0.49996245  0.32554642
   0.83332918  0.16667295  0.32553474
   0.00000105  0.00000031  0.32553243
   0.83332919  0.66665566  0.32553475
   0.99993069  0.49996514  0.32554678
Direct configuration=     5
   0.33833830  0.66916628  0.10015100
   0.67166896  0.33583235  0.09997689
   0.16476277  0.32205481  0.09996070
   0.32447212  0.16224234  0.10000889
   0.16478137  0.84272609  0.09996070
   0.84525599  0.16222724  0.10000851
   0.68543562  0.84271382  0.09996033
   0.84527241  0.68302874  0.10000851
   0.33335568  0.16667771  0.32554714
   0.50004342  0.00009025  0.32557253
   0.33333094  0.66666532  0.32535052
   0.50004342  0.49995251  0.32557253
   0.83332408  0.16667938  0.32554397
   0.00000336  0.00000135  0.32552676
   0.83332406  0.66664440  0.32554397
   0.99991282  0.49995608  0.32557371
Direct configuration=     6
   0.33833956  0.66916634  0.10018280
   0.67167005  0.33583129  0.09997166
   0.16476240  0.32205612  0.09995319
   0.32446893  0.16223908  0.10001019
   0.16477867  0.84272309  0.09995319
   0.84526043  0.16222656  0.10000974
   0.68543217  0.84271509  0.09995272
   0.84527345  0.68303314  0.10000974
   0.33335901  0.16667942  0.32555055
   0.50004662  0.00009632  0.32558027
   0.33333072  0.66666525  0.32531216
   0.50004663  0.49994956  0.32558027
   0.83332256  0.16668129  0.32554671
   0.00000405  0.00000166  0.32552507
   0.83332255  0.66664106  0.32554671
   0.99990752  0.49995339  0.32558170
Direct configuration=     7
   0.33831614  0.66916349  0.10024573
   0.67167067  0.33583855  0.09997598
   0.16478949  0.32203243  0.09996819
   0.32447899  0.16224810  0.09998577
   0.16478520  0.84274371  0.09996819
   0.84522899  0.16223690  0.09998496
   0.68547831  0.84272392  0.09996733
   0.84522934  0.68299921  0.09998496
   0.33333744  0.16666812  0.32557497
   0.50002274  0.00004822  0.32556042
   0.33333651  0.66666766  0.32526755
   0.50002271  0.49997481  0.32556043
   0.83333802  0.16666839  0.32557015
   0.00000041  0.00000035  0.32552015
   0.83333804  0.66666848  0.32557013
   0.99995231  0.49997629  0.32556175
Direct configuration=     8
   0.33832121  0.66916411  0.10023211
   0.67167054  0.33583698  0.09997505
   0.16478363  0.32203756  0.09996494
   0.32447682  0.16224615  0.09999105
   0.16478379  0.84273925  0.09996495
   0.84523580  0.16223466  0.09999032
   0.68546833  0.84272201  0.09996417
   0.84523889  0.68300655  0.09999032
   0.33334211  0.16667057  0.32556968
   0.50002790  0.00005863  0.32556472
   0.33333526  0.66666714  0.32527720
   0.50002788  0.49996935  0.32556472
   0.83333468  0.16667118  0.32556508
   0.00000120  0.00000064  0.32552122
   0.83333469  0.66666255  0.32556507
   0.99994262  0.49997134  0.32556607
Direct configuration=     9
   0.33834662  0.66916864  0.10028717
   0.67164738  0.33582985  0.09997892
   0.16473093  0.32204508  0.09998379
   0.32450122  0.16223305  0.09996981
   0.16473436  0.84270894  0.09998384
   0.84529616  0.16224710  0.09996857
   0.68541055  0.84272167  0.09998257
   0.84530039  0.68302704  0.09996858
   0.33335146  0.16667584  0.32558533
   0.50004352  0.00008418  0.32553923
   0.33333249  0.66666642  0.32525157
   0.50004358  0.49995828  0.32553922
   0.83332790  0.16667721  0.32558018
   0.00000668  0.00000281  0.32552756
   0.83332792  0.66665096  0.32558018
   0.99992418  0.49996159  0.32554015
Direct configuration=    10
   0.33833125  0.66916590  0.10025386
   0.67166139  0.33583417  0.09997658
   0.16476281  0.32204053  0.09997239
   0.32448646  0.16224097  0.09998266
   0.16476426  0.84272728  0.09997241
   0.84525964  0.16223958  0.09998173
   0.68544550  0.84272188  0.09997144
   0.84526318  0.68301465  0.09998174
   0.33334581  0.16667265  0.32557586
   0.50003407  0.00006873  0.32555465
   0.33333416  0.66666686  0.32526708
   0.50003408  0.49996498  0.32555465
   0.83333200  0.16667356  0.32557104
   0.00000336  0.00000150  0.32552372
   0.83333202  0.66665797  0.32557104
   0.99993533  0.49996749  0.32555583
Direct configuration=    11
   0.33833187  0.66916601  0.10025521
   0.67166082  0.33583399  0.09997667
   0.16476152  0.32204071  0.09997285
   0.32448705  0.16224065  0.09998214
   0.16476305  0.84272653  0.09997287
   0.84526112  0.16223988  0.09998120
   0.68544409  0.84272187  0.09997189
   0.84526469  0.68301515  0.09998120
   0.33334604  0.16667278  0.32557625
   0.50003446  0.00006935  0.32555402
   0.33333410  0.66666684  0.32526645
   0.50003447  0.49996471  0.32555402
   0.83333183  0.16667371  0.32557141
   0.00000350  0.00000155  0.32552388
   0.83333185  0.66665768  0.32557141
   0.99993488  0.49996725  0.32555519
Direct configuration=    12
   0.33832988  0.66916488  0.10028028
   0.67167361  0.33583046  0.09997533
   0.16478181  0.32205839  0.09998150
   0.32445529  0.16223102  0.09997867
   0.16478344  0.84271922  0.09998152
   0.84525324  0.16222567  0.09997734
   0.68543623  0.84271786  0.09998018
   0.84525202  0.68303283  0.09997735
   0.33336182  0.16668092  0.32557362
   0.50005127  0.00010149  0.32554166
   0.33333290  0.66666642  0.32526095
   0.50005126  0.49994900  0.32554166
   0.83332450  0.16668287  0.32556882
   0.00000692  0.00000309  0.32553650
   0.83332448  0.66664161  0.32556882
   0.99990665  0.49995293  0.32554243
Direct configuration=    13
   0.33833076  0.66916538  0.10026921
   0.67166796  0.33583202  0.09997592
   0.16477285  0.32205058  0.09997768
   0.32446932  0.16223528  0.09998020
   0.16477443  0.84272245  0.09997770
   0.84525672  0.16223195  0.09997904
   0.68543970  0.84271963  0.09997652
   0.84525762  0.68302502  0.09997905
   0.33335485  0.16667732  0.32557478
   0.50004384  0.00008729  0.32554712
   0.33333343  0.66666661  0.32526338
   0.50004384  0.49995594  0.32554712
   0.83332774  0.16667882  0.32556997
   0.00000541  0.00000241  0.32553093
   0.83332774  0.66664871  0.32556996
   0.99991912  0.49995926  0.32554807
Direct configuration=    14
   0.33832949  0.66916391  0.10028184
   0.67166728  0.33583227  0.09997329
   0.16477144  0.32204618  0.09998126
   0.32447184  0.16223647  0.09998422
   0.16477093  0.84272371  0.09998124
   0.84525364  0.16223411  0.09998273
   0.68544429  0.84272172  0.09997984
   0.84525252  0.68301984  0.09998276
   0.33335443  0.16667690  0.32556698
   0.50004046  0.00008077  0.32554144
   0.33333587  0.66666761  0.32526201
   0.50004046  0.49995958  0.32554144
   0.83333128  0.16667820  0.32556231
   0.00000487  0.00000238  0.32554090
   0.83333126  0.66665242  0.32556231
   0.99992528  0.49996258  0.32554211
Direct configuration=    15
   0.33832839  0.66916263  0.10029274
   0.67166669  0.33583248  0.09997103
   0.16477023  0.32204238  0.09998434
   0.32447401  0.16223751  0.09998768
   0.16476791  0.84272479  0.09998430
   0.84525098  0.16223598  0.09998591
   0.68544825  0.84272352  0.09998271
   0.84524812  0.68301537  0.09998597
   0.33335406  0.16667654  0.32556024
   0.50003754  0.00007514  0.32553654
   0.33333799  0.66666848  0.32526082
   0.50003754  0.49996272  0.32553654
   0.83333433  0.16667767  0.32555570
   0.00000440  0.00000236  0.32554951
   0.83333430  0.66665563  0.32555569
   0.99993059  0.49996546  0.32553696
Direct configuration=    16
   0.33832970  0.66916440  0.10030255
   0.67165939  0.33583088  0.09997137
   0.16476372  0.32204428  0.09999089
   0.32447472  0.16223372  0.09999393
   0.16476267  0.84271956  0.09999082
   0.84525959  0.16223647  0.09999169
   0.68543569  0.84272033  0.09998885
   0.84525878  0.68301969  0.09999175
   0.33335251  0.16667642  0.32555307
   0.50004483  0.00008198  0.32552924
   0.33333553  0.66666797  0.32525731
   0.50004481  0.49996189  0.32552924
   0.83333163  0.16667755  0.32554859
   0.00000954  0.00000429  0.32554925
   0.83333164  0.66665443  0.32554860
   0.99993059  0.49996481  0.32552953
Direct configuration=    17
   0.33833004  0.66916484  0.10030503
   0.67165754  0.33583047  0.09997146
   0.16476207  0.32204476  0.09999254
   0.32447490  0.16223277  0.09999551
   0.16476134  0.84271824  0.09999247
   0.84526177  0.16223659  0.09999315
   0.68543251  0.84271952  0.09999040
   0.84526148  0.68302078  0.09999321
   0.33335211  0.16667640  0.32555125
   0.50004667  0.00008372  0.32552739
   0.33333490  0.66666784  0.32525643
   0.50004666  0.49996167  0.32552739
   0.83333095  0.16667752  0.32554679
   0.00001084  0.00000478  0.32554918
   0.83333096  0.66665412  0.32554680
   0.99993059  0.49996465  0.32552765
Direct configuration=    18
   0.33832850  0.66916473  0.10030853
   0.67165720  0.33583016  0.09997245
   0.16476373  0.32204566  0.09999583
   0.32447216  0.16223164  0.09999840
   0.16476292  0.84271787  0.09999575
   0.84526027  0.16223522  0.09999583
   0.68543179  0.84271866  0.09999349
   0.84526016  0.68302150  0.09999589
   0.33335316  0.16667696  0.32554848
   0.50004828  0.00008579  0.32552415
   0.33333530  0.66666808  0.32525430
   0.50004825  0.49996115  0.32552416
   0.83333108  0.16667813  0.32554403
   0.00001172  0.00000519  0.32554694
   0.83333110  0.66665374  0.32554404
   0.99992971  0.49996419  0.32552440
Direct configuration=    19
   0.33832388  0.66916439  0.10031901
   0.67165616  0.33582922  0.09997542
   0.16476872  0.32204834  0.10000570
   0.32446393  0.16222827  0.10000709
   0.16476768  0.84271679  0.10000560
   0.84525578  0.16223111  0.10000387
   0.68542963  0.84271606  0.10000275
   0.84525622  0.68302367  0.10000392
   0.33335630  0.16667866  0.32554016
   0.50005309  0.00009201  0.32551444
   0.33333649  0.66666881  0.32524791
   0.50005305  0.49995959  0.32551445
   0.83333146  0.16667994  0.32553574
   0.00001435  0.00000643  0.32554021
   0.83333150  0.66665259  0.32553575
   0.99992708  0.49996279  0.32551464
Direct configuration=    20
   0.33831465  0.66916370  0.10033998
   0.67165409  0.33582734  0.09998137
   0.16477869  0.32205370  0.10002542
   0.32444748  0.16222152  0.10002446
   0.16477719  0.84271463  0.10002528
   0.84524680  0.16222290  0.10001995
   0.68542529  0.84271086  0.10002128
   0.84524835  0.68302799  0.10001999
   0.33336258  0.16668205  0.32552354
   0.50006271  0.00010446  0.32549501
   0.33333887  0.66667027  0.32523515
   0.50006265  0.49995648  0.32549503
   0.83333223  0.16668356  0.32551916
   0.00001962  0.00000892  0.32552676
   0.83333231  0.66665030  0.32551917
   0.99992180  0.49996000  0.32549512
Direct configuration=    21
   0.33831705  0.66916388  0.10033452
   0.67165463  0.33582783  0.09997982
   0.16477610  0.32205230  0.10002029
   0.32445176  0.16222327  0.10001994
   0.16477471  0.84271519  0.10002016
   0.84524913  0.16222504  0.10001577
   0.68542642  0.84271221  0.10001646
   0.84525040  0.68302687  0.10001581
   0.33336095  0.16668116  0.32552786
   0.50006021  0.00010122  0.32550007
   0.33333825  0.66666989  0.32523847
   0.50006016  0.49995729  0.32550008
   0.83333203  0.16668262  0.32552347
   0.00001825  0.00000828  0.32553026
   0.83333210  0.66665090  0.32552348
   0.99992318  0.49996072  0.32550020
Direct configuration=    22
   0.33831687  0.66916249  0.10033889
   0.67165429  0.33582751  0.09998284
   0.16477261  0.32204963  0.10002546
   0.32445339  0.16222430  0.10002441
   0.16477103  0.84271542  0.10002532
   0.84524773  0.16222580  0.10001990
   0.68542767  0.84271295  0.10002131
   0.84524847  0.68302427  0.10001995
   0.33336314  0.16668197  0.32552389
   0.50005818  0.00009837  0.32549561
   0.33334101  0.66667097  0.32523401
   0.50005814  0.49995877  0.32549562
   0.83333501  0.16668340  0.32551948
   0.00001746  0.00000821  0.32552473
   0.83333506  0.66665249  0.32551949
   0.99992527  0.49996210  0.32549576
Direct configuration=    23
   0.33831633  0.66915831  0.10035197
   0.67165327  0.33582658  0.09999188
   0.16476217  0.32204163  0.10004097
   0.32445827  0.16222740  0.10003782
   0.16475998  0.84271610  0.10004080
   0.84524353  0.16222811  0.10003232
   0.68543142  0.84271518  0.10003586
   0.84524267  0.68301646  0.10003235
   0.33336970  0.16668440  0.32551197
   0.50005210  0.00008982  0.32548223
   0.33334927  0.66667419  0.32522065
   0.50005209  0.49996321  0.32548224
   0.83334394  0.16668574  0.32550750
   0.00001510  0.00000801  0.32550814
   0.83334393  0.66665729  0.32550752
   0.99993154  0.49996623  0.32548245
Direct configuration=    24
   0.33831525  0.66914995  0.10037814
   0.67165123  0.33582470  0.10000996
   0.16474127  0.32202562  0.10007198
   0.32446804  0.16223360  0.10006465
   0.16473789  0.84271747  0.10007177
   0.84523513  0.16223271  0.10005715
   0.68543893  0.84271964  0.10006496
   0.84523109  0.68300086  0.10005715
   0.33338283  0.16668927  0.32548814
   0.50003994  0.00007273  0.32545547
   0.33336581  0.66668064  0.32519392
   0.50004000  0.49997210  0.32545549
   0.83336180  0.16669043  0.32548354
   0.00001037  0.00000760  0.32547496
   0.83336167  0.66666687  0.32548357
   0.99994408  0.49997449  0.32545582
Direct configuration=    25
   0.33831419  0.66914927  0.10038349
   0.67165021  0.33582403  0.10001513
   0.16473963  0.32202450  0.10007844
   0.32446683  0.16223333  0.10007068
   0.16473662  0.84271701  0.10007823
   0.84523356  0.16223209  0.10006275
   0.68543758  0.84271909  0.10007100
   0.84522935  0.68299961  0.10006273
   0.33338235  0.16668929  0.32548270
   0.50004234  0.00007317  0.32545013
   0.33336584  0.66668093  0.32518730
   0.50004240  0.49997360  0.32545015
   0.83336203  0.16669043  0.32547807
   0.00001303  0.00000871  0.32546725
   0.83336190  0.66666765  0.32547810
   0.99994748  0.49997597  0.32545053
Direct configuration=    26
   0.33831102  0.66914723  0.10039953
   0.67164717  0.33582202  0.10003063
   0.16473468  0.32202113  0.10009783
   0.32446319  0.16223250  0.10008877
   0.16473282  0.84271565  0.10009760
   0.84522883  0.16223025  0.10007954
   0.68543354  0.84271744  0.10008911
   0.84522412  0.68299586  0.10007950
   0.33338090  0.16668938  0.32546638
   0.50004953  0.00007452  0.32543411
   0.33336595  0.66668179  0.32516745
   0.50004960  0.49997810  0.32543413
   0.83336271  0.16669041  0.32546166
   0.00002099  0.00001202  0.32544411
   0.83336260  0.66666998  0.32546169
   0.99995768  0.49998039  0.32543463
Direct configuration=    27
   0.33830468  0.66914315  0.10043163
   0.67164108  0.33581799  0.10006163
   0.16472480  0.32201440  0.10013662
   0.32445592  0.16223085  0.10012495
   0.16472521  0.84271292  0.10013634
   0.84521939  0.16222656  0.10011312
   0.68542545  0.84271414  0.10012533
   0.84521366  0.68298836  0.10011303
   0.33337801  0.16668955  0.32543374
   0.50006393  0.00007722  0.32540207
   0.33336617  0.66668352  0.32512775
   0.50006398  0.49998709  0.32540209
   0.83336408  0.16669038  0.32542883
   0.00003691  0.00001866  0.32539783
   0.83336399  0.66667464  0.32542887
   0.99997808  0.49998924  0.32540283
Direct configuration=    28
   0.33829200  0.66913498  0.10049581
   0.67162891  0.33580994  0.10012364
   0.16470503  0.32200094  0.10021418
   0.32444137  0.16222754  0.10019732
   0.16470999  0.84270747  0.10021383
   0.84520049  0.16221919  0.10018028
   0.68540929  0.84270754  0.10019778
   0.84519274  0.68297337  0.10018009
   0.33337221  0.16668989  0.32536846
   0.50009272  0.00008261  0.32533799
   0.33336660  0.66668697  0.32504834
   0.50009276  0.50000507  0.32533801
   0.83336681  0.16669032  0.32536318
   0.00006876  0.00003192  0.32530528
   0.83336676  0.66668397  0.32536322
   0.00001889  0.50000695  0.32533925
Direct configuration=    29
   0.33829810  0.66913890  0.10046496
   0.67163476  0.33581381  0.10009384
   0.16471453  0.32200741  0.10017690
   0.32444836  0.16222913  0.10016254
   0.16471731  0.84271009  0.10017659
   0.84520957  0.16222273  0.10014800
   0.68541706  0.84271071  0.10016296
   0.84520279  0.68298058  0.10014786
   0.33337500  0.16668973  0.32539984
   0.50007888  0.00008002  0.32536879
   0.33336639  0.66668531  0.32508651
   0.50007893  0.49999643  0.32536881
   0.83336550  0.16669035  0.32539474
   0.00005345  0.00002554  0.32534976
   0.83336543  0.66667949  0.32539477
  -0.00000072  0.49999844  0.32536981
Direct configuration=    30
   0.33828865  0.66913920  0.10048416
   0.67162585  0.33580989  0.10011604
   0.16471939  0.32201563  0.10019678
   0.32443291  0.16221908  0.10018490
   0.16472204  0.84270395  0.10019646
   0.84520663  0.16221349  0.10016887
   0.68540348  0.84270194  0.10018131
   0.84520448  0.68299001  0.10016868
   0.33338733  0.16669533  0.32537874
   0.50008718  0.00009580  0.32535084
   0.33337437  0.66668881  0.32506336
   0.50008720  0.49999031  0.32535087
   0.83337166  0.16669631  0.32537359
   0.00005566  0.00002733  0.32532650
   0.83337167  0.66667869  0.32537363
  -0.00001317  0.49999290  0.32535194
Direct configuration=    31
   0.33828522  0.66913930  0.10049113
   0.67162262  0.33580846  0.10012409
   0.16472116  0.32201861  0.10020399
   0.32442731  0.16221544  0.10019301
   0.16472376  0.84270172  0.10020366
   0.84520557  0.16221014  0.10017644
   0.68539855  0.84269876  0.10018796
   0.84520509  0.68299343  0.10017624
   0.33339181  0.16669737  0.32537108
   0.50009019  0.00010152  0.32534434
   0.33337726  0.66669008  0.32505497
   0.50009021  0.49998809  0.32534436
   0.83337389  0.16669848  0.32536592
   0.00005646  0.00002797  0.32531806
   0.83337393  0.66667841  0.32536596
  -0.00001769  0.49999089  0.32534546
Direct configuration=    32
   0.33827836  0.66913952  0.10050505
   0.67161616  0.33580562  0.10014019
   0.16472469  0.32202457  0.10021840
   0.32441611  0.16220814  0.10020923
   0.16472719  0.84269727  0.10021808
   0.84520344  0.16220344  0.10019157
   0.68538870  0.84269240  0.10020127
   0.84520631  0.68300027  0.10019134
   0.33340075  0.16670143  0.32535578
   0.50009621  0.00011297  0.32533132
   0.33338305  0.66669261  0.32503819
   0.50009621  0.49998365  0.32533135
   0.83337836  0.16670280  0.32535059
   0.00005806  0.00002926  0.32530119
   0.83337845  0.66667783  0.32535062
  -0.00002672  0.49998687  0.32533250
Direct configuration=    33
   0.33827913  0.66913949  0.10050350
   0.67161688  0.33580594  0.10013839
   0.16472429  0.32202390  0.10021679
   0.32441736  0.16220896  0.10020741
   0.16472681  0.84269776  0.10021647
   0.84520368  0.16220419  0.10018988
   0.68538980  0.84269311  0.10019978
   0.84520617  0.68299951  0.10018966
   0.33339976  0.16670098  0.32535749
   0.50009554  0.00011169  0.32533277
   0.33338240  0.66669233  0.32504006
   0.50009554  0.49998415  0.32533280
   0.83337786  0.16670232  0.32535230
   0.00005788  0.00002912  0.32530307
   0.83337795  0.66667789  0.32535233
  -0.00002571  0.49998731  0.32533395
Direct configuration=    34
   0.33827859  0.66913951  0.10050460
   0.67161637  0.33580571  0.10013966
   0.16472457  0.32202437  0.10021793
   0.32441647  0.16220838  0.10020869
   0.16472708  0.84269741  0.10021760
   0.84520351  0.16220366  0.10019108
   0.68538902  0.84269261  0.10020083
   0.84520627  0.68300005  0.10019085
   0.33340046  0.16670130  0.32535628
   0.50009601  0.00011260  0.32533175
   0.33338286  0.66669253  0.32503874
   0.50009601  0.49998380  0.32533177
   0.83337821  0.16670266  0.32535109
   0.00005801  0.00002922  0.32530174
   0.83337830  0.66667785  0.32535112
  -0.00002642  0.49998700  0.32533293
Direct configuration=    35
   0.33827842  0.66913952  0.10050493
   0.67161622  0.33580565  0.10014005
   0.16472466  0.32202451  0.10021828
   0.32441621  0.16220821  0.10020908
   0.16472716  0.84269731  0.10021795
   0.84520346  0.16220350  0.10019144
   0.68538879  0.84269246  0.10020115
   0.84520630  0.68300021  0.10019121
   0.33340068  0.16670140  0.32535591
   0.50009615  0.00011287  0.32533144
   0.33338300  0.66669259  0.32503833
   0.50009616  0.49998369  0.32533146
   0.83337832  0.16670276  0.32535072
   0.00005805  0.00002925  0.32530133
   0.83337841  0.66667784  0.32535076
  -0.00002664  0.49998690  0.32533262
Direct configuration=    36
   0.33827838  0.66913952  0.10050502
   0.67161618  0.33580563  0.10014015
   0.16472468  0.32202455  0.10021837
   0.32441614  0.16220816  0.10020919
   0.16472718  0.84269728  0.10021804
   0.84520344  0.16220345  0.10019153
   0.68538872  0.84269242  0.10020124
   0.84520631  0.68300025  0.10019131
   0.33340073  0.16670142  0.32535582
   0.50009619  0.00011294  0.32533135
   0.33338304  0.66669261  0.32503823
   0.50009619  0.49998366  0.32533138
   0.83337835  0.16670279  0.32535063
   0.00005806  0.00002926  0.32530123
   0.83337844  0.66667783  0.32535066
  -0.00002669  0.49998688  0.32533253
Direct configuration=    37
   0.33827837  0.66913952  0.10050504
   0.67161617  0.33580562  0.10014018
   0.16472469  0.32202456  0.10021839
   0.32441612  0.16220815  0.10020921
   0.16472719  0.84269727  0.10021807
   0.84520344  0.16220344  0.10019156
   0.68538871  0.84269241  0.10020126
   0.84520631  0.68300027  0.10019133
   0.33340075  0.16670143  0.32535579
   0.50009620  0.00011296  0.32533133
   0.33338305  0.66669261  0.32503820
   0.50009621  0.49998366  0.32533136
   0.83337835  0.16670280  0.32535060
   0.00005806  0.00002926  0.32530120
   0.83337845  0.66667783  0.32535063
  -0.00002671  0.49998687  0.32533251
Direct configuration=    38
   0.33827836  0.66913952  0.10050505
   0.67161616  0.33580562  0.10014019
   0.16472469  0.32202457  0.10021840
   0.32441611  0.16220815  0.10020922
   0.16472719  0.84269727  0.10021807
   0.84520344  0.16220344  0.10019157
   0.68538870  0.84269241  0.10020127
   0.84520631  0.68300027  0.10019134
   0.33340075  0.16670143  0.32535578
   0.50009621  0.00011297  0.32533132
   0.33338305  0.66669261  0.32503819
   0.50009621  0.49998365  0.32533135
   0.83337836  0.16670280  0.32535059
   0.00005806  0.00002926  0.32530119
   0.83337845  0.66667783  0.32535062
  -0.00002671  0.49998687  0.32533250
Direct configuration=    39
   0.33827836  0.66913952  0.10050505
   0.67161616  0.33580562  0.10014019
   0.16472469  0.32202457  0.10021840
   0.32441611  0.16220814  0.10020922
   0.16472719  0.84269727  0.10021807
   0.84520344  0.16220344  0.10019157
   0.68538870  0.84269240  0.10020127
   0.84520631  0.68300027  0.10019134
   0.33340075  0.16670143  0.32535578
   0.50009621  0.00011297  0.32533132
   0.33338305  0.66669261  0.32503819
   0.50009621  0.49998365  0.32533135
   0.83337836  0.16670280  0.32535059
   0.00005806  0.00002926  0.32530119
   0.83337845  0.66667783  0.32535062
  -0.00002672  0.49998687  0.32533250
Direct configuration=    40
   0.33827836  0.66913952  0.10050505
   0.67161616  0.33580562  0.10014019
   0.16472469  0.32202457  0.10021840
   0.32441611  0.16220814  0.10020923
   0.16472719  0.84269727  0.10021808
   0.84520344  0.16220344  0.10019157
   0.68538870  0.84269240  0.10020127
   0.84520631  0.68300027  0.10019134
   0.33340075  0.16670143  0.32535578
   0.50009621  0.00011297  0.32533132
   0.33338305  0.66669261  0.32503819
   0.50009621  0.49998365  0.32533135
   0.83337836  0.16670280  0.32535059
   0.00005806  0.00002926  0.32530119
   0.83337845  0.66667783  0.32535062
  -0.00002672  0.49998687  0.32533250
Direct configuration=    41
   0.33827836  0.66913952  0.10050505
   0.67161616  0.33580562  0.10014019
   0.16472469  0.32202457  0.10021840
   0.32441611  0.16220814  0.10020923
   0.16472719  0.84269727  0.10021808
   0.84520344  0.16220344  0.10019157
   0.68538870  0.84269240  0.10020127
   0.84520631  0.68300027  0.10019134
   0.33340075  0.16670143  0.32535578
   0.50009621  0.00011297  0.32533132
   0.33338305  0.66669261  0.32503819
   0.50009621  0.49998365  0.32533135
   0.83337836  0.16670280  0.32535059
   0.00005806  0.00002926  0.32530119
   0.83337845  0.66667783  0.32535062
  -0.00002672  0.49998687  0.32533250
Direct configuration=    42
   0.33827836  0.66913952  0.10050505
   0.67161616  0.33580562  0.10014019
   0.16472469  0.32202457  0.10021840
   0.32441611  0.16220814  0.10020923
   0.16472719  0.84269727  0.10021808
   0.84520344  0.16220344  0.10019157
   0.68538870  0.84269240  0.10020127
   0.84520631  0.68300027  0.10019134
   0.33340075  0.16670143  0.32535578
   0.50009621  0.00011297  0.32533132
   0.33338305  0.66669261  0.32503819
   0.50009621  0.49998365  0.32533135
   0.83337836  0.16670280  0.32535059
   0.00005806  0.00002926  0.32530119
   0.83337845  0.66667783  0.32535062
  -0.00002672  0.49998687  0.32533250
Direct configuration=    43
   0.33827836  0.66913952  0.10050505
   0.67161616  0.33580562  0.10014019
   0.16472469  0.32202457  0.10021840
   0.32441611  0.16220814  0.10020923
   0.16472719  0.84269727  0.10021808
   0.84520344  0.16220344  0.10019157
   0.68538870  0.84269240  0.10020127
   0.84520631  0.68300027  0.10019134
   0.33340075  0.16670143  0.32535578
   0.50009621  0.00011297  0.32533132
   0.33338305  0.66669261  0.32503819
   0.50009621  0.49998365  0.32533135
   0.83337836  0.16670280  0.32535059
   0.00005806  0.00002926  0.32530119
   0.83337845  0.66667783  0.32535062
  -0.00002672  0.49998687  0.32533250
Direct configuration=    44
   0.33827836  0.66913952  0.10050505
   0.67161616  0.33580562  0.10014019
   0.16472469  0.32202457  0.10021840
   0.32441611  0.16220814  0.10020923
   0.16472719  0.84269727  0.10021808
   0.84520344  0.16220344  0.10019157
   0.68538870  0.84269240  0.10020127
   0.84520631  0.68300027  0.10019134
   0.33340075  0.16670143  0.32535578
   0.50009621  0.00011297  0.32533132
   0.33338305  0.66669261  0.32503819
   0.50009621  0.49998365  0.32533135
   0.83337836  0.16670280  0.32535059
   0.00005806  0.00002926  0.32530119
   0.83337845  0.66667783  0.32535062
  -0.00002672  0.49998687  0.32533250
