       N       E                     dE             d eps       ncg     rms          rms(c)
DAV:   1     0.258846430584E+03    0.25885E+03   -0.28632E+04 14208   0.964E+02
DAV:   2    -0.130402473955E+03   -0.38925E+03   -0.38857E+03 21888   0.181E+02
DAV:   3    -0.145918911983E+03   -0.15516E+02   -0.15496E+02 25776   0.497E+01
DAV:   4    -0.145964751602E+03   -0.45840E-01   -0.45824E-01 21792   0.246E+00
DAV:   5    -0.145964827324E+03   -0.75721E-04   -0.75722E-04 24192   0.106E-01    0.251E+01
DAV:   6    -0.107401950295E+03    0.38563E+02   -0.67397E+01 24192   0.265E+01    0.146E+01
DAV:   7    -0.114670781438E+03   -0.72688E+01   -0.10228E+01 22896   0.111E+01    0.857E+00
DAV:   8    -0.123644654159E+03   -0.89739E+01   -0.83263E+00 25392   0.905E+00    0.462E+00
DAV:   9    -0.131271090752E+03   -0.76264E+01   -0.40411E+00 17856   0.695E+00    0.306E+00
DAV:  10    -0.138634500092E+03   -0.73634E+01   -0.10324E+01 20784   0.796E+00    0.175E+00
DAV:  11    -0.140029407515E+03   -0.13949E+01   -0.15285E+00 20928   0.324E+00    0.119E+00
DAV:  12    -0.140270610000E+03   -0.24120E+00   -0.32159E-01 21552   0.155E+00    0.490E-01
DAV:  13    -0.140332152763E+03   -0.61543E-01   -0.48982E-02 17280   0.806E-01    0.209E-01
DAV:  14    -0.140358202242E+03   -0.26049E-01   -0.87772E-03 18864   0.338E-01    0.994E-02
DAV:  15    -0.140367721022E+03   -0.95188E-02   -0.51019E-03 16032   0.187E-01    0.501E-02
DAV:  16    -0.140369453593E+03   -0.17326E-02   -0.74129E-04 15456   0.101E-01    0.279E-02
DAV:  17    -0.140371249360E+03   -0.17958E-02   -0.25345E-04 14496   0.650E-02    0.179E-02
DAV:  18    -0.140372377900E+03   -0.11285E-02   -0.13269E-04 15696   0.474E-02    0.131E-02
DAV:  19    -0.140372930292E+03   -0.55239E-03   -0.72919E-05 18672   0.388E-02    0.794E-03
DAV:  20    -0.140373115320E+03   -0.18503E-03   -0.26554E-05 16368   0.251E-02    0.466E-03
DAV:  21    -0.140373162226E+03   -0.46905E-04   -0.99859E-06 20400   0.152E-02    0.284E-03
DAV:  22    -0.140373180117E+03   -0.17892E-04   -0.43180E-06 22656   0.883E-03    0.198E-03
DAV:  23    -0.140373189604E+03   -0.94863E-05   -0.18035E-06 20208   0.489E-03    0.923E-04
DAV:  24    -0.140373193162E+03   -0.35580E-05   -0.43025E-07 23184   0.243E-03    0.522E-04
DAV:  25    -0.140373195151E+03   -0.19893E-05   -0.12492E-07 20448   0.121E-03    0.277E-04
DAV:  26    -0.140373196253E+03   -0.11017E-05   -0.80197E-08 19392   0.895E-04    0.141E-04
DAV:  27    -0.140373196643E+03   -0.39072E-06   -0.27440E-08 20448   0.502E-04    0.592E-05
DAV:  28    -0.140373196867E+03   -0.22391E-06   -0.63400E-09 18240   0.232E-04    0.388E-05
DAV:  29    -0.140373196994E+03   -0.12723E-06   -0.46815E-09 19632   0.153E-04    0.256E-05
DAV:  30    -0.140373197021E+03   -0.26866E-07   -0.14995E-09 20736   0.788E-05    0.142E-05
DAV:  31    -0.140373197034E+03   -0.12783E-07   -0.29187E-10 19584   0.396E-05    0.957E-06
DAV:  32    -0.140373197045E+03   -0.11431E-07   -0.16176E-10 19008   0.273E-05    0.461E-06
DAV:  33    -0.140373197049E+03   -0.35516E-08   -0.42657E-11 19872   0.164E-05
   1 F= -.14227072E+03 E0= -.14226942E+03  d E =-.142271E+03  mag=    -0.0000
       N       E                     dE             d eps       ncg     rms          rms(c)
DAV:   1    -0.140320115346E+03    0.53082E-01   -0.18914E+01 14208   0.144E+01    0.125E+00
DAV:   2    -0.140271028034E+03    0.49087E-01   -0.31829E-01 24240   0.192E+00    0.592E-01
DAV:   3    -0.140266824707E+03    0.42033E-02   -0.42655E-02 23904   0.639E-01    0.262E-01
DAV:   4    -0.140266696154E+03    0.12855E-03   -0.44163E-03 22416   0.204E-01    0.970E-02
DAV:   5    -0.140266692129E+03    0.40254E-05   -0.34431E-04 19536   0.685E-02    0.193E-02
DAV:   6    -0.140266693629E+03   -0.15007E-05   -0.60869E-05 23904   0.275E-02    0.969E-03
DAV:   7    -0.140266705016E+03   -0.11386E-04   -0.66172E-06 19968   0.884E-03    0.270E-03
DAV:   8    -0.140266713289E+03   -0.82736E-05   -0.85254E-07 23808   0.283E-03    0.180E-03
DAV:   9    -0.140266729554E+03   -0.16264E-04   -0.19766E-06 18816   0.316E-03    0.116E-03
DAV:  10    -0.140266737925E+03   -0.83708E-05   -0.70432E-07 20064   0.166E-03    0.932E-04
DAV:  11    -0.140266745371E+03   -0.74467E-05   -0.86283E-07 17088   0.144E-03    0.339E-04
DAV:  12    -0.140266746648E+03   -0.12767E-05   -0.77673E-08 20736   0.463E-04    0.298E-04
DAV:  13    -0.140266747253E+03   -0.60463E-06   -0.37555E-08 16464   0.332E-04    0.907E-05
DAV:  14    -0.140266747634E+03   -0.38134E-06   -0.28202E-08 15936   0.262E-04    0.443E-05
DAV:  15    -0.140266747780E+03   -0.14643E-06   -0.48589E-09 20160   0.113E-04    0.389E-05
DAV:  16    -0.140266747923E+03   -0.14229E-06   -0.31829E-09 17568   0.112E-04    0.330E-05
DAV:  17    -0.140266748022E+03   -0.99112E-07   -0.21555E-09 18144   0.956E-05    0.150E-05
DAV:  18    -0.140266748040E+03   -0.18178E-07   -0.39438E-10 21216   0.371E-05    0.116E-05
DAV:  19    -0.140266748045E+03   -0.52833E-08   -0.15290E-10 19536   0.234E-05
   2 F= -.14216965E+03 E0= -.14216816E+03  d E =0.101076E+00  mag=    -0.0000
       N       E                     dE             d eps       ncg     rms          rms(c)
DAV:   1    -0.140416002661E+03   -0.14925E+00   -0.10032E+01 14208   0.103E+01    0.916E-01
DAV:   2    -0.140389323866E+03    0.26679E-01   -0.16110E-01 23328   0.139E+00    0.428E-01
DAV:   3    -0.140387031783E+03    0.22921E-02   -0.25870E-02 23424   0.482E-01    0.183E-01
DAV:   4    -0.140386947273E+03    0.84510E-04   -0.27622E-03 17904   0.157E-01    0.785E-02
DAV:   5    -0.140386944863E+03    0.24099E-05   -0.22056E-04 20256   0.540E-02    0.135E-02
DAV:   6    -0.140386943208E+03    0.16545E-05   -0.40986E-05 18144   0.214E-02    0.703E-03
DAV:   7    -0.140386948809E+03   -0.56012E-05   -0.38716E-06 22176   0.655E-03    0.131E-03
DAV:   8    -0.140386956411E+03   -0.76018E-05   -0.57964E-07 22752   0.224E-03    0.763E-04
DAV:   9    -0.140386962219E+03   -0.58078E-05   -0.27038E-07 18816   0.109E-03    0.808E-04
DAV:  10    -0.140386966700E+03   -0.44808E-05   -0.18856E-07 16512   0.781E-04    0.572E-04
DAV:  11    -0.140386970781E+03   -0.40811E-05   -0.33206E-07 14208   0.919E-04    0.263E-04
DAV:  12    -0.140386971147E+03   -0.36608E-06   -0.60754E-09 24192   0.185E-04    0.118E-04
DAV:  13    -0.140386971518E+03   -0.37118E-06   -0.97173E-09 15456   0.169E-04    0.358E-05
DAV:  14    -0.140386971620E+03   -0.10204E-06   -0.17220E-09 22752   0.735E-05    0.235E-05
DAV:  15    -0.140386971689E+03   -0.68580E-07   -0.96289E-10 16992   0.543E-05    0.196E-05
DAV:  16    -0.140386971717E+03   -0.28338E-07   -0.38138E-10 19584   0.400E-05    0.168E-05
DAV:  17    -0.140386971730E+03   -0.12677E-07   -0.24740E-10 17280   0.311E-05    0.756E-06
DAV:  18    -0.140386971734E+03   -0.40591E-08   -0.14133E-10 20448   0.221E-05
   3 F= -.14228636E+03 E0= -.14228497E+03  d E =-.116715E+00  mag=    -0.0000
       N       E                     dE             d eps       ncg     rms          rms(c)
DAV:   1    -0.140386973025E+03   -0.12954E-05   -0.44888E-03 14208   0.297E-01    0.148E-02
DAV:   2    -0.140386971581E+03    0.14438E-05   -0.42218E-05 16800   0.293E-02    0.904E-03
DAV:   3    -0.140386972240E+03   -0.65885E-06   -0.75750E-06 15264   0.106E-02    0.252E-03
DAV:   4    -0.140386972274E+03   -0.33539E-07   -0.13696E-06 25536   0.438E-03    0.136E-03
DAV:   5    -0.140386972439E+03   -0.16533E-06   -0.39004E-08 15984   0.956E-04    0.473E-04
DAV:   6    -0.140386972446E+03   -0.70986E-08   -0.99683E-09 19008   0.367E-04
   4 F= -.14228638E+03 E0= -.14228499E+03  d E =-.185687E-04  mag=    -0.0000
       N       E                     dE             d eps       ncg     rms          rms(c)
DAV:   1    -0.140386960818E+03    0.11621E-04   -0.15110E-03 14208   0.169E-01    0.965E-03
DAV:   2    -0.140386960707E+03    0.11151E-06   -0.24239E-05 17472   0.218E-02    0.582E-03
DAV:   3    -0.140386960301E+03    0.40558E-06   -0.27569E-06 14688   0.714E-03    0.201E-03
DAV:   4    -0.140386960318E+03   -0.17008E-07   -0.55204E-07 18432   0.277E-03    0.913E-04
DAV:   5    -0.140386960345E+03   -0.27232E-07   -0.31609E-08 15984   0.830E-04    0.321E-04
DAV:   6    -0.140386960345E+03   -0.24374E-09   -0.62784E-09 26736   0.346E-04
   5 F= -.14228638E+03 E0= -.14228499E+03  d E =-.338176E-05  mag=    -0.0000
       N       E                     dE             d eps       ncg     rms          rms(c)
DAV:   1    -0.140386948638E+03    0.11707E-04   -0.81344E-04 14208   0.121E-01    0.726E-03
DAV:   2    -0.140386948434E+03    0.20469E-06   -0.11554E-05 16416   0.141E-02    0.423E-03
DAV:   3    -0.140386948311E+03    0.12316E-06   -0.12940E-06 14496   0.450E-03    0.140E-03
DAV:   4    -0.140386948347E+03   -0.36047E-07   -0.21911E-07 16416   0.166E-03    0.544E-04
DAV:   5    -0.140386948365E+03   -0.18749E-07   -0.12031E-08 19968   0.455E-04    0.204E-04
DAV:   6    -0.140386948367E+03   -0.13888E-08   -0.24201E-09 22416   0.188E-04
   6 F= -.14228639E+03 E0= -.14228500E+03  d E =-.792873E-05  mag=     0.0000
       N       E                     dE             d eps       ncg     rms          rms(c)
DAV:   1    -0.140386917878E+03    0.30487E-04   -0.36689E-04 14400   0.835E-02    0.505E-03
DAV:   2    -0.140386917454E+03    0.42410E-06   -0.64544E-06 16416   0.116E-02    0.268E-03
DAV:   3    -0.140386917445E+03    0.89276E-08   -0.97738E-07 17088   0.400E-03    0.121E-03
DAV:   4    -0.140386917463E+03   -0.17731E-07   -0.16168E-07 16416   0.148E-03    0.633E-04
DAV:   5    -0.140386917476E+03   -0.12843E-07   -0.11878E-08 17232   0.526E-04    0.127E-04
DAV:   6    -0.140386917476E+03    0.97316E-10   -0.23950E-09 25296   0.205E-04
   7 F= -.14228639E+03 E0= -.14228500E+03  d E =-.262550E-05  mag=     0.0000
       N       E                     dE             d eps       ncg     rms          rms(c)
DAV:   1    -0.140386898767E+03    0.18709E-04   -0.20267E-04 14208   0.593E-02    0.364E-03
DAV:   2    -0.140386898493E+03    0.27422E-06   -0.26268E-06 16416   0.687E-03    0.201E-03
DAV:   3    -0.140386898525E+03   -0.31801E-07   -0.48939E-07 15360   0.245E-03    0.684E-04
DAV:   4    -0.140386898546E+03   -0.21498E-07   -0.75977E-08 16416   0.928E-04    0.322E-04
DAV:   5    -0.140386898562E+03   -0.15483E-07   -0.30745E-09 18672   0.243E-04    0.840E-05
DAV:   6    -0.140386898563E+03   -0.14034E-08   -0.67573E-10 23520   0.936E-05
   8 F= -.14228640E+03 E0= -.14228501E+03  d E =-.147587E-05  mag=     0.0000
       N       E                     dE             d eps       ncg     rms          rms(c)
DAV:   1    -0.140386874111E+03    0.24451E-04   -0.77649E-05 14208   0.377E-02    0.222E-03
DAV:   2    -0.140386874005E+03    0.10618E-06   -0.12231E-06 16416   0.495E-03    0.125E-03
DAV:   3    -0.140386874018E+03   -0.13328E-07   -0.20237E-07 14592   0.178E-03    0.478E-04
DAV:   4    -0.140386874027E+03   -0.95379E-08   -0.38132E-08 16416   0.712E-04
   9 F= -.14228640E+03 E0= -.14228501E+03  d E =-.732783E-06  mag=     0.0000
       N       E                     dE             d eps       ncg     rms          rms(c)
DAV:   1    -0.140386844072E+03    0.29946E-04   -0.88897E-05 14208   0.391E-02    0.212E-03
DAV:   2    -0.140386843975E+03    0.96450E-07   -0.11495E-06 16416   0.460E-03    0.128E-03
DAV:   3    -0.140386844024E+03   -0.48933E-07   -0.16164E-07 15120   0.155E-03    0.379E-04
DAV:   4    -0.140386844036E+03   -0.12187E-07   -0.34898E-08 16464   0.668E-04    0.201E-04
DAV:   5    -0.140386844044E+03   -0.73251E-08   -0.13394E-09 20496   0.168E-04
  10 F= -.14228640E+03 E0= -.14228501E+03  d E =-.785967E-06  mag=     0.0000
       N       E                     dE             d eps       ncg     rms          rms(c)
DAV:   1    -0.140386831917E+03    0.12119E-04   -0.23912E-05 14784   0.204E-02    0.115E-03
DAV:   2    -0.140386831894E+03    0.23167E-07   -0.34123E-07 16032   0.239E-03    0.697E-04
DAV:   3    -0.140386831905E+03   -0.10433E-07   -0.42484E-08 15840   0.784E-04    0.194E-04
DAV:   4    -0.140386831908E+03   -0.33897E-08   -0.76276E-09 17376   0.298E-04
  11 F= -.14228640E+03 E0= -.14228501E+03  d E =-.385297E-06  mag=    -0.0000
       N       E                     dE             d eps       ncg     rms          rms(c)
DAV:   1    -0.140386804993E+03    0.26911E-04   -0.71122E-05 14208   0.345E-02    0.186E-03
DAV:   2    -0.140386804895E+03    0.98529E-07   -0.89608E-07 16416   0.401E-03    0.111E-03
DAV:   3    -0.140386804942E+03   -0.47014E-07   -0.13599E-07 15168   0.138E-03    0.324E-04
DAV:   4    -0.140386804954E+03   -0.11678E-07   -0.27812E-08 16416   0.590E-04    0.173E-04
DAV:   5    -0.140386804961E+03   -0.73969E-08   -0.95857E-10 19872   0.146E-04
  12 F= -.14228640E+03 E0= -.14228501E+03  d E =-.685114E-06  mag=     0.0000
       N       E                     dE             d eps       ncg     rms          rms(c)
DAV:   1    -0.140386784759E+03    0.20194E-04   -0.27258E-05 14208   0.215E-02    0.118E-03
DAV:   2    -0.140386784710E+03    0.49455E-07   -0.35745E-07 16416   0.254E-03    0.687E-04
DAV:   3    -0.140386784732E+03   -0.22548E-07   -0.60207E-08 14832   0.905E-04    0.207E-04
DAV:   4    -0.140386784738E+03   -0.54752E-08   -0.12013E-08 16416   0.383E-04
  13 F= -.14228640E+03 E0= -.14228501E+03  d E =-.492624E-06  mag=     0.0000
       N       E                     dE             d eps       ncg     rms          rms(c)
DAV:   1    -0.140386756806E+03    0.27926E-04   -0.64329E-05 14208   0.325E-02    0.175E-03
DAV:   2    -0.140386756712E+03    0.94610E-07   -0.77342E-07 16416   0.371E-03    0.104E-03
DAV:   3    -0.140386756761E+03   -0.49155E-07   -0.11247E-07 15168   0.123E-03    0.270E-04
DAV:   4    -0.140386756772E+03   -0.11604E-07   -0.21631E-08 16416   0.518E-04    0.137E-04
DAV:   5    -0.140386756779E+03   -0.62764E-08   -0.68369E-10 19392   0.128E-04
  14 F= -.14228640E+03 E0= -.14228501E+03  d E =-.644974E-06  mag=     0.0000
       N       E                     dE             d eps       ncg     rms          rms(c)
DAV:   1    -0.140386739839E+03    0.16933E-04   -0.22923E-05 14208   0.196E-02    0.103E-03
DAV:   2    -0.140386739802E+03    0.37154E-07   -0.28675E-07 16080   0.227E-03    0.619E-04
DAV:   3    -0.140386739824E+03   -0.21887E-07   -0.40753E-08 15216   0.761E-04    0.167E-04
DAV:   4    -0.140386739829E+03   -0.46794E-08   -0.83150E-09 16272   0.324E-04
  15 F= -.14228640E+03 E0= -.14228501E+03  d E =-.375897E-06  mag=    -0.0000
       N       E                     dE             d eps       ncg     rms          rms(c)
DAV:   1    -0.140386718005E+03    0.21819E-04   -0.34576E-05 14208   0.238E-02    0.128E-03
DAV:   2    -0.140386717947E+03    0.57933E-07   -0.41660E-07 16128   0.271E-03    0.762E-04
DAV:   3    -0.140386717981E+03   -0.34149E-07   -0.58338E-08 15216   0.886E-04    0.191E-04
DAV:   4    -0.140386717988E+03   -0.70386E-08   -0.11217E-08 16416   0.370E-04
  16 F= -.14228640E+03 E0= -.14228501E+03  d E =-.462241E-06  mag=    -0.0000
       N       E                     dE             d eps       ncg     rms          rms(c)
DAV:   1    -0.140386697731E+03    0.20250E-04   -0.31061E-05 15696   0.225E-02    0.121E-03
DAV:   2    -0.140386697678E+03    0.53436E-07   -0.36643E-07 16416   0.254E-03    0.717E-04
DAV:   3    -0.140386697709E+03   -0.31187E-07   -0.51615E-08 15120   0.836E-04    0.183E-04
DAV:   4    -0.140386697715E+03   -0.62255E-08   -0.99298E-09 16416   0.356E-04
  17 F= -.14228640E+03 E0= -.14228501E+03  d E =-.445736E-06  mag=    -0.0000
       N       E                     dE             d eps       ncg     rms          rms(c)
DAV:   1    -0.140386662502E+03    0.35207E-04   -0.94053E-05 14208   0.391E-02    0.211E-03
DAV:   2    -0.140386662367E+03    0.13466E-06   -0.11009E-06 16416   0.440E-03    0.125E-03
DAV:   3    -0.140386662434E+03   -0.66995E-07   -0.15997E-07 15360   0.145E-03    0.305E-04
DAV:   4    -0.140386662452E+03   -0.17835E-07   -0.29744E-08 16416   0.608E-04    0.145E-04
DAV:   5    -0.140386662461E+03   -0.87120E-08   -0.10459E-09 19296   0.163E-04
  18 F= -.14228640E+03 E0= -.14228501E+03  d E =-.759060E-06  mag=    -0.0000
       N       E                     dE             d eps       ncg     rms          rms(c)
DAV:   1    -0.140386647434E+03    0.15019E-04   -0.16271E-05 14976   0.164E-02    0.869E-04
DAV:   2    -0.140386647405E+03    0.28826E-07   -0.19929E-07 16128   0.188E-03    0.520E-04
DAV:   3    -0.140386647422E+03   -0.17029E-07   -0.28608E-08 15408   0.631E-04    0.133E-04
DAV:   4    -0.140386647426E+03   -0.37717E-08   -0.55366E-09 16704   0.260E-04
  19 F= -.14228640E+03 E0= -.14228501E+03  d E =-.303030E-06  mag=     0.0000
       N       E                     dE             d eps       ncg     rms          rms(c)
DAV:   1    -0.140386618292E+03    0.29130E-04   -0.63400E-05 14208   0.322E-02    0.172E-03
DAV:   2    -0.140386618194E+03    0.97312E-07   -0.74659E-07 16416   0.362E-03    0.102E-03
DAV:   3    -0.140386618246E+03   -0.51955E-07   -0.10620E-07 15168   0.118E-03    0.252E-04
DAV:   4    -0.140386618259E+03   -0.12679E-07   -0.20007E-08 16416   0.490E-04    0.117E-04
DAV:   5    -0.140386618265E+03   -0.61809E-08   -0.60465E-10 20160   0.113E-04
  20 F= -.14228640E+03 E0= -.14228501E+03  d E =-.607889E-06  mag=    -0.0000
       N       E                     dE             d eps       ncg     rms          rms(c)
DAV:   1    -0.140386609033E+03    0.92263E-05   -0.74729E-06 15360   0.112E-02    0.588E-04
DAV:   2    -0.140386609021E+03    0.12100E-07   -0.94219E-08 15456   0.128E-03    0.356E-04
DAV:   3    -0.140386609028E+03   -0.73478E-08   -0.12587E-08 16032   0.420E-04
  21 F= -.14228640E+03 E0= -.14228501E+03  d E =-.203696E-06  mag=    -0.0000
       N       E                     dE             d eps       ncg     rms          rms(c)
DAV:   1    -0.140386558307E+03    0.50713E-04   -0.18638E-04 14208   0.550E-02    0.298E-03
DAV:   2    -0.140386558071E+03    0.23654E-06   -0.21527E-06 16416   0.612E-03    0.176E-03
DAV:   3    -0.140386558174E+03   -0.10300E-06   -0.31802E-07 15360   0.204E-03    0.420E-04
DAV:   4    -0.140386558205E+03   -0.31045E-07   -0.59132E-08 16416   0.845E-04    0.192E-04
DAV:   5    -0.140386558222E+03   -0.17511E-07   -0.18171E-09 18432   0.192E-04    0.466E-05
DAV:   6    -0.140386558222E+03   -0.10095E-09   -0.27660E-10 20112   0.611E-05
  22 F= -.14228640E+03 E0= -.14228502E+03  d E =-.102032E-05  mag=    -0.0000
       N       E                     dE             d eps       ncg     rms          rms(c)
DAV:   1    -0.140386570683E+03   -0.12460E-04   -0.11807E-05 16608   0.141E-02    0.758E-04
DAV:   2    -0.140386570667E+03    0.15885E-07   -0.14586E-07 17568   0.158E-03    0.453E-04
DAV:   3    -0.140386570677E+03   -0.99099E-08   -0.21114E-08 16704   0.543E-04
  23 F= -.14228640E+03 E0= -.14228502E+03  d E =0.229802E-06  mag=    -0.0000
       N       E                     dE             d eps       ncg     rms          rms(c)
DAV:   1    -0.140386563026E+03    0.76408E-05   -0.43514E-06 16416   0.851E-03    0.428E-04
DAV:   2    -0.140386563021E+03    0.47949E-08   -0.54052E-08 16320   0.958E-04
  24 F= -.14228640E+03 E0= -.14228502E+03  d E =-.143697E-06  mag=    -0.0000
       N       E                     dE             d eps       ncg     rms          rms(c)
DAV:   1    -0.140386533840E+03    0.29186E-04   -0.63653E-05 14208   0.324E-02    0.176E-03
DAV:   2    -0.140386533740E+03    0.99974E-07   -0.74214E-07 16416   0.361E-03    0.105E-03
DAV:   3    -0.140386533797E+03   -0.57377E-07   -0.10756E-07 15264   0.120E-03    0.257E-04
DAV:   4    -0.140386533809E+03   -0.11591E-07   -0.21201E-08 16416   0.502E-04    0.120E-04
DAV:   5    -0.140386533815E+03   -0.58262E-08   -0.65756E-10 19056   0.116E-04
  25 F= -.14228640E+03 E0= -.14228502E+03  d E =-.593621E-06  mag=    -0.0000
       N       E                     dE             d eps       ncg     rms          rms(c)
DAV:   1    -0.140386513681E+03    0.20127E-04   -0.34211E-05 14208   0.240E-02    0.129E-03
DAV:   2    -0.140386513631E+03    0.50237E-07   -0.43529E-07 16416   0.277E-03    0.781E-04
DAV:   3    -0.140386513658E+03   -0.26903E-07   -0.63431E-08 15024   0.950E-04    0.198E-04
DAV:   4    -0.140386513663E+03   -0.50031E-08   -0.12527E-08 16416   0.392E-04
  26 F= -.14228641E+03 E0= -.14228502E+03  d E =-.376984E-06  mag=     0.0000
       N       E                     dE             d eps       ncg     rms          rms(c)
DAV:   1    -0.140386501746E+03    0.11912E-04   -0.13657E-05 17088   0.153E-02    0.829E-04
DAV:   2    -0.140386501724E+03    0.21830E-07   -0.17039E-07 16320   0.174E-03    0.501E-04
DAV:   3    -0.140386501736E+03   -0.12136E-07   -0.25375E-08 15504   0.612E-04    0.124E-04
DAV:   4    -0.140386501738E+03   -0.20636E-08   -0.49021E-09 16704   0.252E-04
  27 F= -.14228641E+03 E0= -.14228502E+03  d E =-.277028E-06  mag=     0.0000
       N       E                     dE             d eps       ncg     rms          rms(c)
DAV:   1    -0.140386477631E+03    0.24105E-04   -0.42555E-05 14208   0.263E-02    0.141E-03
DAV:   2    -0.140386477560E+03    0.70412E-07   -0.49709E-07 16416   0.296E-03    0.837E-04
DAV:   3    -0.140386477601E+03   -0.40503E-07   -0.71510E-08 15216   0.973E-04    0.205E-04
DAV:   4    -0.140386477609E+03   -0.80991E-08   -0.13440E-08 16416   0.409E-04
  28 F= -.14228641E+03 E0= -.14228502E+03  d E =-.478202E-06  mag=     0.0000
