   7   7   0   4
  0.4064579E+02  0.4680000E-09  0.4680000E-09  0.1500000E-08  0.5000000E-15
  1.000000000000000E-004
  CAR 
 Borophene                               
     14.84396139    -21.39334866  301     -2.42538168      1.00000000
    -21.393  0.0000E+00  0.0000E+00
    -21.273  0.0000E+00  0.0000E+00
    -21.152  0.0000E+00  0.0000E+00
    -21.031  0.0000E+00  0.0000E+00
    -20.910  0.0000E+00  0.0000E+00
    -20.789  0.0000E+00  0.0000E+00
    -20.669  0.0000E+00  0.0000E+00
    -20.548  0.0000E+00  0.0000E+00
    -20.427  0.0000E+00  0.0000E+00
    -20.306  0.1723E-17  0.2082E-18
    -20.185  0.4042E-12  0.4882E-13
    -20.065  0.6572E-08  0.7938E-09
    -19.944  0.7405E-05  0.8952E-06
    -19.823  0.6717E-03  0.8203E-04
    -19.702  0.6984E-02  0.9257E-03
    -19.581  0.1571E-01  0.2823E-02
    -19.461  0.1870E-01  0.5082E-02
    -19.340  0.2151E-01  0.7680E-02
    -19.219  0.2758E-01  0.1101E-01
    -19.098  0.3975E-01  0.1581E-01
    -18.978  0.2948E-01  0.1937E-01
    -18.857  0.5065E-02  0.1998E-01
    -18.736  0.1247E-03  0.2000E-01
    -18.615  0.2875E-06  0.2000E-01
    -18.494  0.4956E-10  0.2000E-01
    -18.374  0.5722E-15  0.2000E-01
    -18.253  0.0000E+00  0.2000E-01
    -18.132  0.0000E+00  0.2000E-01
    -18.011  0.0000E+00  0.2000E-01
    -17.890  0.0000E+00  0.2000E-01
    -17.770  0.0000E+00  0.2000E-01
    -17.649  0.5584E-15  0.2000E-01
    -17.528  0.4366E-10  0.2000E-01
    -17.407  0.2128E-06  0.2000E-01
    -17.286  0.7745E-04  0.2001E-01
    -17.166  0.2897E-02  0.2036E-01
    -17.045  0.1619E-01  0.2231E-01
    -16.924  0.2739E-01  0.2562E-01
    -16.803  0.2949E-01  0.2919E-01
    -16.682  0.2091E-01  0.3171E-01
    -16.562  0.1388E-01  0.3339E-01
    -16.441  0.1926E-01  0.3572E-01
    -16.320  0.1572E-01  0.3761E-01
    -16.199  0.1801E-01  0.3979E-01
    -16.079  0.2450E-01  0.4275E-01
    -15.958  0.2223E-01  0.4543E-01
    -15.837  0.3630E-01  0.4982E-01
    -15.716  0.3478E-01  0.5402E-01
    -15.595  0.2624E-01  0.5719E-01
    -15.475  0.1816E-01  0.5938E-01
    -15.354  0.4847E-02  0.5997E-01
    -15.233  0.2472E-03  0.6000E-01
    -15.112  0.1304E-05  0.6000E-01
    -14.991  0.5096E-09  0.6000E-01
    -14.871  0.1292E-13  0.6000E-01
    -14.750  0.0000E+00  0.6000E-01
    -14.629  0.0000E+00  0.6000E-01
    -14.508  0.0000E+00  0.6000E-01
    -14.387  0.0000E+00  0.6000E-01
    -14.267  0.0000E+00  0.6000E-01
    -14.146  0.0000E+00  0.6000E-01
    -14.025  0.0000E+00  0.6000E-01
    -13.904  0.0000E+00  0.6000E-01
    -13.784  0.0000E+00  0.6000E-01
    -13.663  0.0000E+00  0.6000E-01
    -13.542  0.0000E+00  0.6000E-01
    -13.421  0.0000E+00  0.6000E-01
    -13.300  0.1417E-16  0.6000E-01
    -13.180  0.2484E-11  0.6000E-01
    -13.059  0.2583E-07  0.6000E-01
    -12.938  0.1787E-04  0.6000E-01
    -12.817  0.9956E-03  0.6012E-01
    -12.696  0.6554E-02  0.6091E-01
    -12.576  0.1594E-01  0.6284E-01
    -12.455  0.2342E-01  0.6567E-01
    -12.334  0.2004E-01  0.6809E-01
    -12.213  0.2273E-01  0.7084E-01
    -12.092  0.2779E-01  0.7419E-01
    -11.972  0.1878E-01  0.7646E-01
    -11.851  0.6740E-02  0.7727E-01
    -11.730  0.1553E-01  0.7915E-01
    -11.609  0.2952E-01  0.8272E-01
    -11.488  0.1203E-01  0.8417E-01
    -11.368  0.9395E-02  0.8531E-01
    -11.247  0.2393E-01  0.8820E-01
    -11.126  0.2230E-01  0.9089E-01
    -11.005  0.1002E-01  0.9210E-01
    -10.885  0.1474E-01  0.9388E-01
    -10.764  0.2305E-01  0.9666E-01
    -10.643  0.2677E-01  0.9990E-01
    -10.522  0.1263E-01  0.1014E+00
    -10.401  0.7688E-02  0.1024E+00
    -10.281  0.2011E-01  0.1048E+00
    -10.160  0.2281E-01  0.1075E+00
    -10.039  0.7719E-02  0.1085E+00
     -9.918  0.7818E-02  0.1094E+00
     -9.797  0.2571E-01  0.1125E+00
     -9.677  0.2592E-01  0.1157E+00
     -9.556  0.2635E-01  0.1188E+00
     -9.435  0.1445E-01  0.1206E+00
     -9.314  0.3055E-02  0.1209E+00
     -9.193  0.1064E-02  0.1211E+00
     -9.073  0.7104E-02  0.1219E+00
     -8.952  0.1270E-01  0.1235E+00
     -8.831  0.1380E-01  0.1251E+00
     -8.710  0.1166E-01  0.1265E+00
     -8.589  0.9927E-02  0.1277E+00
     -8.469  0.1600E-01  0.1297E+00
     -8.348  0.1953E-01  0.1320E+00
     -8.227  0.1306E-01  0.1336E+00
     -8.106  0.2099E-01  0.1361E+00
     -7.986  0.2036E-01  0.1386E+00
     -7.865  0.4143E-01  0.1436E+00
     -7.744  0.4980E-01  0.1496E+00
     -7.623  0.3872E-01  0.1543E+00
     -7.502  0.1956E-01  0.1567E+00
     -7.382  0.1781E-01  0.1588E+00
     -7.261  0.3767E-01  0.1634E+00
     -7.140  0.4805E-01  0.1692E+00
     -7.019  0.1870E-01  0.1714E+00
     -6.898  0.3973E-02  0.1719E+00
     -6.778  0.3449E-02  0.1723E+00
     -6.657  0.3666E-02  0.1728E+00
     -6.536  0.1102E-01  0.1741E+00
     -6.415  0.5852E-02  0.1748E+00
     -6.294  0.3821E-02  0.1753E+00
     -6.174  0.1832E-01  0.1775E+00
     -6.053  0.3717E-01  0.1820E+00
     -5.932  0.4785E-01  0.1878E+00
     -5.811  0.4247E-01  0.1929E+00
     -5.691  0.4034E-01  0.1978E+00
     -5.570  0.2369E-01  0.2006E+00
     -5.449  0.1928E-01  0.2029E+00
     -5.328  0.1400E-01  0.2046E+00
     -5.207  0.2732E-01  0.2079E+00
     -5.087  0.2156E-01  0.2105E+00
     -4.966  0.1211E-01  0.2120E+00
     -4.845  0.1871E-01  0.2143E+00
     -4.724  0.1738E-01  0.2164E+00
     -4.603  0.2310E-01  0.2192E+00
     -4.483  0.1505E-01  0.2210E+00
     -4.362  0.1171E-01  0.2224E+00
     -4.241  0.1071E-01  0.2237E+00
     -4.120  0.2368E-01  0.2265E+00
     -3.999  0.1983E-01  0.2289E+00
     -3.879  0.1625E-01  0.2309E+00
     -3.758  0.1310E-01  0.2325E+00
     -3.637  0.1070E-01  0.2338E+00
     -3.516  0.1605E-01  0.2357E+00
     -3.395  0.5796E-02  0.2364E+00
     -3.275  0.5892E-02  0.2371E+00
     -3.154  0.9093E-02  0.2382E+00
     -3.033  0.6486E-02  0.2390E+00
     -2.912  0.5263E-02  0.2396E+00
     -2.792  0.2425E-02  0.2399E+00
     -2.671  0.4934E-03  0.2400E+00
     -2.550  0.1389E-04  0.2400E+00
     -2.429  0.2833E-07  0.2400E+00
     -2.308  0.3562E-11  0.2400E+00
     -2.188  0.2604E-16  0.2400E+00
     -2.067  0.0000E+00  0.2400E+00
     -1.946  0.0000E+00  0.2400E+00
     -1.825  0.0000E+00  0.2400E+00
     -1.704  0.2023E-14  0.2400E+00
     -1.584  0.1325E-09  0.2400E+00
     -1.463  0.5392E-06  0.2400E+00
     -1.342  0.1498E-03  0.2400E+00
     -1.221  0.3505E-02  0.2404E+00
     -1.100  0.1085E-01  0.2418E+00
     -0.980  0.1486E-01  0.2435E+00
     -0.859  0.3284E-01  0.2475E+00
     -0.738  0.3197E-01  0.2514E+00
     -0.617  0.9836E-02  0.2526E+00
     -0.496  0.7174E-02  0.2534E+00
     -0.376  0.1401E-01  0.2551E+00
     -0.255  0.2747E-01  0.2584E+00
     -0.134  0.1229E-01  0.2599E+00
     -0.013  0.5214E-02  0.2606E+00
      0.107  0.7710E-02  0.2615E+00
      0.228  0.1703E-01  0.2635E+00
      0.349  0.1856E-01  0.2658E+00
      0.470  0.1080E-01  0.2671E+00
      0.591  0.5401E-02  0.2677E+00
      0.711  0.7899E-02  0.2687E+00
      0.832  0.1457E-01  0.2705E+00
      0.953  0.1606E-01  0.2724E+00
      1.074  0.1167E-01  0.2738E+00
      1.195  0.8831E-02  0.2749E+00
      1.315  0.1754E-01  0.2770E+00
      1.436  0.1964E-01  0.2794E+00
      1.557  0.1577E-01  0.2813E+00
      1.678  0.2271E-01  0.2840E+00
      1.799  0.2837E-01  0.2874E+00
      1.919  0.2466E-01  0.2904E+00
      2.040  0.4289E-01  0.2956E+00
      2.161  0.2988E-01  0.2992E+00
      2.282  0.1765E-01  0.3013E+00
      2.402  0.2706E-01  0.3046E+00
      2.523  0.2930E-01  0.3081E+00
      2.644  0.3466E-01  0.3123E+00
      2.765  0.3358E-01  0.3164E+00
      2.886  0.3323E-01  0.3204E+00
      3.006  0.5320E-01  0.3268E+00
      3.127  0.6777E-01  0.3350E+00
      3.248  0.6621E-01  0.3430E+00
      3.369  0.6386E-01  0.3507E+00
      3.490  0.5308E-01  0.3571E+00
      3.610  0.6206E-01  0.3646E+00
      3.731  0.5052E-01  0.3707E+00
      3.852  0.3338E-01  0.3748E+00
      3.973  0.3549E-01  0.3791E+00
      4.094  0.4410E-01  0.3844E+00
      4.214  0.4910E-01  0.3903E+00
      4.335  0.5352E-01  0.3968E+00
      4.456  0.5888E-01  0.4039E+00
      4.577  0.4986E-01  0.4099E+00
      4.698  0.5905E-01  0.4170E+00
      4.818  0.6984E-01  0.4255E+00
      4.939  0.6750E-01  0.4336E+00
      5.060  0.6501E-01  0.4415E+00
      5.181  0.5461E-01  0.4481E+00
      5.301  0.4625E-01  0.4537E+00
      5.422  0.4727E-01  0.4594E+00
      5.543  0.5921E-01  0.4665E+00
      5.664  0.4657E-01  0.4722E+00
      5.785  0.4640E-01  0.4778E+00
      5.905  0.7068E-01  0.4863E+00
      6.026  0.6572E-01  0.4942E+00
      6.147  0.6296E-01  0.5018E+00
      6.268  0.6107E-01  0.5092E+00
      6.389  0.6506E-01  0.5171E+00
      6.509  0.5432E-01  0.5236E+00
      6.630  0.5671E-01  0.5305E+00
      6.751  0.6383E-01  0.5382E+00
      6.872  0.6805E-01  0.5464E+00
      6.993  0.6418E-01  0.5542E+00
      7.113  0.4610E-01  0.5597E+00
      7.234  0.5380E-01  0.5662E+00
      7.355  0.7472E-01  0.5753E+00
      7.476  0.7119E-01  0.5839E+00
      7.596  0.5713E-01  0.5908E+00
      7.717  0.5550E-01  0.5975E+00
      7.838  0.5425E-01  0.6040E+00
      7.959  0.4044E-01  0.6089E+00
      8.080  0.4565E-01  0.6144E+00
      8.200  0.7077E-01  0.6230E+00
      8.321  0.6816E-01  0.6312E+00
      8.442  0.5032E-01  0.6373E+00
      8.563  0.4362E-01  0.6426E+00
      8.684  0.6138E-01  0.6500E+00
      8.804  0.6984E-01  0.6584E+00
      8.925  0.1135E+00  0.6721E+00
      9.046  0.9128E-01  0.6831E+00
      9.167  0.7300E-01  0.6920E+00
      9.288  0.7025E-01  0.7004E+00
      9.408  0.6604E-01  0.7084E+00
      9.529  0.8196E-01  0.7183E+00
      9.650  0.6762E-01  0.7265E+00
      9.771  0.5286E-01  0.7329E+00
      9.892  0.5766E-01  0.7398E+00
     10.012  0.7263E-01  0.7486E+00
     10.133  0.4852E-01  0.7545E+00
     10.254  0.4690E-01  0.7601E+00
     10.375  0.7401E-01  0.7691E+00
     10.495  0.9327E-01  0.7803E+00
     10.616  0.9102E-01  0.7913E+00
     10.737  0.6830E-01  0.7996E+00
     10.858  0.6307E-01  0.8072E+00
     10.979  0.7030E-01  0.8157E+00
     11.099  0.7036E-01  0.8242E+00
     11.220  0.5662E-01  0.8310E+00
     11.341  0.5763E-01  0.8380E+00
     11.462  0.6933E-01  0.8464E+00
     11.583  0.8582E-01  0.8567E+00
     11.703  0.7874E-01  0.8662E+00
     11.824  0.8504E-01  0.8765E+00
     11.945  0.7297E-01  0.8853E+00
     12.066  0.5567E-01  0.8921E+00
     12.187  0.6403E-01  0.8998E+00
     12.307  0.7696E-01  0.9091E+00
     12.428  0.6645E-01  0.9171E+00
     12.549  0.6384E-01  0.9248E+00
     12.670  0.6921E-01  0.9332E+00
     12.791  0.6417E-01  0.9409E+00
     12.911  0.5598E-01  0.9477E+00
     13.032  0.4182E-01  0.9527E+00
     13.153  0.3709E-01  0.9572E+00
     13.274  0.2052E-01  0.9597E+00
     13.394  0.2398E-02  0.9600E+00
     13.515  0.3210E-04  0.9600E+00
     13.636  0.3447E-07  0.9600E+00
     13.757  0.2456E-11  0.9600E+00
     13.878  0.9957E-17  0.9600E+00
     13.998  0.0000E+00  0.9600E+00
     14.119  0.0000E+00  0.9600E+00
     14.240  0.0000E+00  0.9600E+00
     14.361  0.0000E+00  0.9600E+00
     14.482  0.0000E+00  0.9600E+00
     14.602  0.0000E+00  0.9600E+00
     14.723  0.0000E+00  0.9600E+00
     14.844  0.0000E+00  0.9600E+00
