Borophene                               
           1
     4.052999    2.340000    0.000000
    -4.052999    2.340000    0.000000
     0.000000    0.000000   15.000000
   B    C 
     4     3
Direct configuration=     1
   0.01200000  0.00800000  0.11364600
   0.33503300  0.01900000  0.10000000
   0.01800000  0.32893300  0.10000000
   0.66466600  0.67000600  0.10000000
   0.32993300  0.32983300  0.10000000
   0.66566600  0.00400000  0.10000000
   0.00400000  0.65966600  0.10000000
Direct configuration=     2
  -0.02871664 -0.03520983  0.11708265
   0.39624508 -0.01659025  0.09798640
  -0.01631522  0.39520226  0.09789751
   0.63689462  0.63346380  0.09901618
   0.35380584  0.35099999  0.10042959
   0.68501614  0.00265114  0.10057971
   0.00236818  0.68892088  0.10065396
Direct configuration=     3
  -0.00293694 -0.00785156  0.11490674
   0.35748870  0.00594369  0.09926131
   0.00541143  0.35324394  0.09922870
   0.65447805  0.65660046  0.09963909
   0.33869077  0.33759813  0.10015759
   0.67276461  0.00350517  0.10021267
   0.00340137  0.67039818  0.10023991
Direct configuration=     4
  -0.00259171 -0.00748520  0.11487760
   0.35696970  0.00624545  0.09927838
   0.00570238  0.35268206  0.09924652
   0.65471351  0.65691029  0.09964743
   0.33848836  0.33741866  0.10015395
   0.67260055  0.00351661  0.10020775
   0.00341520  0.67015014  0.10023436
Direct configuration=     5
   0.00639944  0.00400952  0.11525234
   0.35931649  0.00270869  0.09868206
   0.00354757  0.35806409  0.09862464
   0.64295106  0.64178279  0.09877114
   0.31864139  0.31749743  0.10069482
   0.69233176  0.00569636  0.10079813
   0.00611028  0.68967912  0.10082287
Direct configuration=     6
   0.00164004 -0.00207512  0.11505398
   0.35807424  0.00458084  0.09899772
   0.00468820  0.35521515  0.09895383
   0.64917742  0.64979042  0.09923499
   0.32914724  0.32804258  0.10040851
   0.68188719  0.00454253  0.10048562
   0.00468366  0.67934160  0.10051135
Direct configuration=     7
   0.00578521  0.00441611  0.11548364
   0.36033926  0.00406862  0.09869864
   0.00527202  0.35821091  0.09866233
   0.64856059  0.64766372  0.09882565
   0.32574210  0.32470813  0.10064362
   0.67890011  0.00367197  0.10066373
   0.00469871  0.67669854  0.10066839
Direct configuration=     8
   0.00359481  0.00098600  0.11525659
   0.35914237  0.00433929  0.09885668
   0.00496352  0.35662789  0.09881636
   0.64888654  0.64878751  0.09904196
   0.32754145  0.32647013  0.10051939
   0.68047855  0.00413199  0.10056961
   0.00469076  0.67809519  0.10058541
Direct configuration=     9
   0.00401573  0.00229087  0.11556126
   0.35844419  0.00317389  0.09865398
   0.00447569  0.35673672  0.09861729
   0.64985543  0.64875714  0.09878728
   0.32862650  0.32736271  0.10063617
   0.67968952  0.00294089  0.10068881
   0.00419094  0.67817577  0.10070121
Direct configuration=    10
   0.00417446  0.00278294  0.11567615
   0.35818091  0.00273442  0.09857755
   0.00429172  0.35677776  0.09854221
   0.65022080  0.64874569  0.09869124
   0.32903567  0.32769930  0.10068021
   0.67939198  0.00249173  0.10073376
   0.00400245  0.67820616  0.10074488
Direct configuration=    11
   0.00454414  0.00363175  0.11611150
   0.35721855  0.00225012  0.09841270
   0.00394846  0.35637363  0.09838907
   0.65131208  0.64942371  0.09846809
   0.32842864  0.32689820  0.10072469
   0.67985297  0.00224512  0.10076758
   0.00399316  0.67861547  0.10077236
Direct configuration=    12
   0.00442486  0.00335787  0.11597103
   0.35752907  0.00240639  0.09846589
   0.00405922  0.35650403  0.09843849
   0.65095996  0.64920494  0.09854009
   0.32862451  0.32715669  0.10071034
   0.67970422  0.00232469  0.10075667
   0.00399616  0.67848339  0.10076349
Direct configuration=    13
   0.00453213  0.00354934  0.11655227
   0.35738911  0.00233936  0.09833404
   0.00389516  0.35630849  0.09832282
   0.65105946  0.64927835  0.09835492
   0.32852104  0.32695826  0.10067041
   0.67971551  0.00257000  0.10070345
   0.00418558  0.67843420  0.10070808
Direct configuration=    14
   0.00485395  0.00412376  0.11829600
   0.35696923  0.00213827  0.09793848
   0.00340296  0.35572187  0.09797582
   0.65135798  0.64949859  0.09779942
   0.32821064  0.32636295  0.10055063
   0.67974939  0.00330595  0.10054379
   0.00475384  0.67828661  0.10054186
Direct configuration=    15
   0.00477513  0.00401019  0.11853881
   0.35693011  0.00213251  0.09788629
   0.00339727  0.35566153  0.09792821
   0.65139193  0.64954559  0.09773208
   0.32826186  0.32641940  0.10052699
   0.67980197  0.00329752  0.10051794
   0.00473972  0.67837126  0.10051569
Direct configuration=    16
   0.00453868  0.00366948  0.11926725
   0.35681275  0.00211522  0.09772970
   0.00338022  0.35548051  0.09778537
   0.65149375  0.64968659  0.09753005
   0.32841552  0.32658873  0.10045605
   0.67995970  0.00327226  0.10044041
   0.00469738  0.67862523  0.10043718
Direct configuration=    17
   0.00406577  0.00298805  0.12072412
   0.35657804  0.00208063  0.09741652
   0.00334610  0.35511846  0.09749969
   0.65169741  0.64996858  0.09712600
   0.32872284  0.32692738  0.10031417
   0.68027516  0.00322172  0.10028534
   0.00461269  0.67913317  0.10028016
Direct configuration=    18
   0.00408626  0.00291847  0.12092191
   0.35659899  0.00228484  0.09737576
   0.00361693  0.35522025  0.09745532
   0.65179487  0.65014988  0.09709380
   0.32844279  0.32676482  0.10028993
   0.68030995  0.00302153  0.10025827
   0.00444820  0.67907820  0.10025101
Direct configuration=    19
   0.00410996  0.00283801  0.12115062
   0.35662322  0.00252098  0.09732863
   0.00393012  0.35533795  0.09740401
   0.65190757  0.65035953  0.09705656
   0.32811895  0.32657685  0.10026191
   0.68035018  0.00279004  0.10022697
   0.00425800  0.67901464  0.10021730
Direct configuration=    20
   0.00417609  0.00287014  0.12117323
   0.35667506  0.00261952  0.09732361
   0.00405261  0.35535254  0.09739158
   0.65177417  0.65026669  0.09707707
   0.32812530  0.32664706  0.10025319
   0.68027853  0.00275602  0.10021857
   0.00421623  0.67892604  0.10020875
Direct configuration=    21
   0.00422547  0.00289412  0.12119011
   0.35671376  0.00269308  0.09731986
   0.00414407  0.35536343  0.09738230
   0.65167458  0.65019737  0.09709237
   0.32813004  0.32669948  0.10024669
   0.68022503  0.00273063  0.10021230
   0.00418505  0.67885989  0.10020238
Direct configuration=    22
   0.00421361  0.00285107  0.12118588
   0.35671637  0.00272752  0.09731663
   0.00417370  0.35534872  0.09737042
   0.65166247  0.65020987  0.09712053
   0.32811577  0.32670268  0.10024312
   0.68024432  0.00273056  0.10020958
   0.00417177  0.67886757  0.10019984
Direct configuration=    23
   0.00418208  0.00273663  0.12117465
   0.35672330  0.00281908  0.09730804
   0.00425248  0.35530963  0.09733884
   0.65163027  0.65024308  0.09719539
   0.32807782  0.32671121  0.10023362
   0.68029559  0.00273039  0.10020236
   0.00413646  0.67888798  0.10019310
Direct configuration=    24
   0.00416655  0.00270061  0.12116637
   0.35675160  0.00283848  0.09730240
   0.00425233  0.35532580  0.09732154
   0.65161507  0.65024726  0.09723251
   0.32808153  0.32671320  0.10023054
   0.68028550  0.00275442  0.10020073
   0.00414542  0.67885823  0.10019191
Direct configuration=    25
   0.00414923  0.00266046  0.12115713
   0.35678315  0.00286010  0.09729611
   0.00425216  0.35534383  0.09730226
   0.65159813  0.65025193  0.09727388
   0.32808566  0.32671541  0.10022711
   0.68027426  0.00278121  0.10019892
   0.00415541  0.67882507  0.10019059
Direct configuration=    26
   0.00416058  0.00269451  0.12114730
   0.35677623  0.00283590  0.09729325
   0.00422287  0.35533391  0.09729633
   0.65159037  0.65022929  0.09728243
   0.32808799  0.32670167  0.10022881
   0.68028264  0.00279964  0.10020272
   0.00417732  0.67884306  0.10019516
