<?xml version="1.0" encoding="ISO-8859-1"?>
<modeling>
 <generator>
  <i name="program" type="string">vasp </i>
  <i name="version" type="string">6.3.2  </i>
  <i name="subversion" type="string">27Jun22 (build Dec 22 2022 13:13:19) complex                          parallel </i>
  <i name="platform" type="string">LinuxIFC </i>
  <i name="date" type="string">2023 08 22 </i>
  <i name="time" type="string">23:24:44 </i>
 </generator>
 <incar>
  <i type="string" name="SYSTEM">Lattice</i>
  <i type="int" name="ISTART">     0</i>
  <i type="string" name="PREC">Accurate</i>
  <i type="string" name="ALGO">Normal</i>
  <i type="int" name="ISPIN">     2</i>
  <i type="int" name="ICHARG">     2</i>
  <i type="int" name="NELM">    64</i>
  <i type="int" name="IBRION">     2</i>
  <i name="EDIFF">      0.00000100</i>
  <i name="EDIFFG">     -0.00100000</i>
  <i type="int" name="NSW">   128</i>
  <i type="int" name="ISIF">     2</i>
  <i name="ENCUT">    450.00000000</i>
  <i name="POTIM">      0.50000000</i>
  <i type="int" name="ISMEAR">     0</i>
  <i name="SIGMA">      0.10000000</i>
  <i type="logical" name="LWAVE"> F  </i>
  <i type="logical" name="LCHARG"> F  </i>
  <i type="string" name="GGA">PE</i>
  <i type="int" name="IVDW">    12</i>
 </incar>
 <primitive_cell>
  <structure name="primitive_cell" >
   <crystal>
    <varray name="basis" >
     <v>       4.20368731       2.42700000       0.00000000 </v>
     <v>      -4.20368731       2.42700000       0.00000000 </v>
     <v>       0.00000000       0.00000000      15.00000000 </v>
    </varray>
    <i name="volume">    306.07047304 </i>
    <varray name="rec_basis" >
     <v>       0.11894320       0.20601566       0.00000000 </v>
     <v>      -0.11894320       0.20601566       0.00000000 </v>
     <v>       0.00000000       0.00000000       0.06666667 </v>
    </varray>
   </crystal>
   <varray name="positions" >
    <v>       0.00415361       0.00267210       0.12034134 </v>
    <v>       0.35695335       0.00285503       0.09748893 </v>
    <v>       0.00423858       0.35550699       0.09749256 </v>
    <v>       0.65142295       0.65006557       0.09747688 </v>
    <v>       0.32808646       0.32671938       0.10030508 </v>
    <v>       0.68027775       0.00278085       0.10027562 </v>
    <v>       0.00416530       0.67883808       0.10026559 </v>
    <v>       0.99999933       0.49999967       0.33373333 </v>
    <v>       0.16666633       0.33333267       0.33373333 </v>
    <v>       0.99999933       0.99999967       0.33373333 </v>
    <v>       0.16666633       0.83333267       0.33373333 </v>
    <v>       0.49999933       0.49999967       0.33373333 </v>
    <v>       0.66666633       0.33333267       0.33373333 </v>
    <v>       0.49999933       0.99999967       0.33373333 </v>
    <v>       0.66666633       0.83333267       0.33373333 </v>
   </varray>
  </structure>
  <varray name="primitive_index" >
   <v type="int" >        1 </v>
   <v type="int" >        2 </v>
   <v type="int" >        3 </v>
   <v type="int" >        4 </v>
   <v type="int" >        5 </v>
   <v type="int" >        6 </v>
   <v type="int" >        7 </v>
   <v type="int" >        8 </v>
   <v type="int" >        9 </v>
   <v type="int" >       10 </v>
   <v type="int" >       11 </v>
   <v type="int" >       12 </v>
   <v type="int" >       13 </v>
   <v type="int" >       14 </v>
   <v type="int" >       15 </v>
  </varray>
 </primitive_cell>
 <kpoints>
  <generation param="Gamma">
   <v type="int" name="divisions">      12       12        1 </v>
   <v name="usershift">      0.00000000       0.00000000       0.00000000 </v>
   <v name="genvec1">      0.08333333       0.00000000       0.00000000 </v>
   <v name="genvec2">      0.00000000       0.08333333       0.00000000 </v>
   <v name="genvec3">      0.00000000       0.00000000       1.00000000 </v>
   <v name="shift">      0.00000000       0.00000000       0.00000000 </v>
  </generation>
  <varray name="kpointlist" >
   <v>       0.00000000       0.00000000       0.00000000 </v>
   <v>       0.08333333      -0.00000000       0.00000000 </v>
   <v>      -0.00000000       0.08333333       0.00000000 </v>
   <v>      -0.08333333       0.08333333       0.00000000 </v>
   <v>       0.16666667       0.00000000       0.00000000 </v>
   <v>       0.00000000       0.16666667       0.00000000 </v>
   <v>      -0.16666667       0.16666667       0.00000000 </v>
   <v>       0.25000000      -0.00000000       0.00000000 </v>
   <v>      -0.00000000       0.25000000       0.00000000 </v>
   <v>      -0.25000000       0.25000000       0.00000000 </v>
   <v>       0.33333333       0.00000000       0.00000000 </v>
   <v>      -0.00000000       0.33333333       0.00000000 </v>
   <v>      -0.33333333       0.33333333       0.00000000 </v>
   <v>       0.41666667       0.00000000       0.00000000 </v>
   <v>       0.00000000       0.41666667       0.00000000 </v>
   <v>      -0.41666667       0.41666667       0.00000000 </v>
   <v>       0.50000000      -0.00000000       0.00000000 </v>
   <v>      -0.00000000       0.50000000       0.00000000 </v>
   <v>       0.50000000       0.50000000       0.00000000 </v>
   <v>       0.08333333       0.08333333       0.00000000 </v>
   <v>      -0.08333333       0.16666667       0.00000000 </v>
   <v>      -0.16666667       0.08333333       0.00000000 </v>
   <v>       0.16666667       0.08333333       0.00000000 </v>
   <v>      -0.08333333       0.25000000       0.00000000 </v>
   <v>      -0.25000000       0.16666667       0.00000000 </v>
   <v>      -0.16666667       0.25000000       0.00000000 </v>
   <v>       0.08333333       0.16666667       0.00000000 </v>
   <v>       0.25000000      -0.08333333       0.00000000 </v>
   <v>       0.25000000       0.08333333       0.00000000 </v>
   <v>      -0.08333333       0.33333333       0.00000000 </v>
   <v>      -0.33333333       0.25000000       0.00000000 </v>
   <v>      -0.25000000       0.33333333       0.00000000 </v>
   <v>       0.08333333       0.25000000       0.00000000 </v>
   <v>       0.33333333      -0.08333333       0.00000000 </v>
   <v>       0.33333333       0.08333333       0.00000000 </v>
   <v>      -0.08333333       0.41666667       0.00000000 </v>
   <v>      -0.41666667       0.33333333       0.00000000 </v>
   <v>      -0.33333333       0.41666667       0.00000000 </v>
   <v>       0.08333333       0.33333333       0.00000000 </v>
   <v>       0.41666667      -0.08333333       0.00000000 </v>
   <v>       0.41666667       0.08333333       0.00000000 </v>
   <v>      -0.08333333       0.50000000       0.00000000 </v>
   <v>       0.50000000       0.41666667       0.00000000 </v>
   <v>      -0.41666667       0.50000000       0.00000000 </v>
   <v>       0.08333333       0.41666667       0.00000000 </v>
   <v>       0.50000000      -0.08333333       0.00000000 </v>
   <v>       0.16666667       0.16666667       0.00000000 </v>
   <v>      -0.16666667       0.33333333       0.00000000 </v>
   <v>      -0.33333333       0.16666667       0.00000000 </v>
   <v>       0.25000000       0.16666667       0.00000000 </v>
   <v>      -0.16666667       0.41666667       0.00000000 </v>
   <v>      -0.41666667       0.25000000       0.00000000 </v>
   <v>      -0.25000000       0.41666667       0.00000000 </v>
   <v>       0.16666667       0.25000000       0.00000000 </v>
   <v>       0.41666667      -0.16666667       0.00000000 </v>
   <v>       0.33333333       0.16666667       0.00000000 </v>
   <v>      -0.16666667       0.50000000       0.00000000 </v>
   <v>       0.50000000       0.33333333       0.00000000 </v>
   <v>      -0.33333333       0.50000000       0.00000000 </v>
   <v>       0.16666667       0.33333333       0.00000000 </v>
   <v>       0.50000000      -0.16666667       0.00000000 </v>
   <v>       0.41666667       0.16666667       0.00000000 </v>
   <v>      -0.16666667      -0.41666667       0.00000000 </v>
   <v>       0.41666667       0.41666667       0.00000000 </v>
   <v>       0.25000000       0.25000000       0.00000000 </v>
   <v>      -0.25000000       0.50000000       0.00000000 </v>
   <v>       0.50000000       0.25000000       0.00000000 </v>
   <v>       0.33333333       0.25000000       0.00000000 </v>
   <v>      -0.25000000      -0.41666667       0.00000000 </v>
   <v>       0.41666667       0.33333333       0.00000000 </v>
   <v>      -0.33333333      -0.41666667       0.00000000 </v>
   <v>       0.25000000       0.33333333       0.00000000 </v>
   <v>      -0.41666667      -0.25000000       0.00000000 </v>
   <v>       0.33333333       0.33333333       0.00000000 </v>
  </varray>
  <varray name="weights" >
   <v>       0.00694444 </v>
   <v>       0.01388889 </v>
   <v>       0.01388889 </v>
   <v>       0.01388889 </v>
   <v>       0.01388889 </v>
   <v>       0.01388889 </v>
   <v>       0.01388889 </v>
   <v>       0.01388889 </v>
   <v>       0.01388889 </v>
   <v>       0.01388889 </v>
   <v>       0.01388889 </v>
   <v>       0.01388889 </v>
   <v>       0.01388889 </v>
   <v>       0.01388889 </v>
   <v>       0.01388889 </v>
   <v>       0.01388889 </v>
   <v>       0.00694444 </v>
   <v>       0.00694444 </v>
   <v>       0.00694444 </v>
   <v>       0.01388889 </v>
   <v>       0.01388889 </v>
   <v>       0.01388889 </v>
   <v>       0.01388889 </v>
   <v>       0.01388889 </v>
   <v>       0.01388889 </v>
   <v>       0.01388889 </v>
   <v>       0.01388889 </v>
   <v>       0.01388889 </v>
   <v>       0.01388889 </v>
   <v>       0.01388889 </v>
   <v>       0.01388889 </v>
   <v>       0.01388889 </v>
   <v>       0.01388889 </v>
   <v>       0.01388889 </v>
   <v>       0.01388889 </v>
   <v>       0.01388889 </v>
   <v>       0.01388889 </v>
   <v>       0.01388889 </v>
   <v>       0.01388889 </v>
   <v>       0.01388889 </v>
   <v>       0.01388889 </v>
   <v>       0.01388889 </v>
   <v>       0.01388889 </v>
   <v>       0.01388889 </v>
   <v>       0.01388889 </v>
   <v>       0.01388889 </v>
   <v>       0.01388889 </v>
   <v>       0.01388889 </v>
   <v>       0.01388889 </v>
   <v>       0.01388889 </v>
   <v>       0.01388889 </v>
   <v>       0.01388889 </v>
   <v>       0.01388889 </v>
   <v>       0.01388889 </v>
   <v>       0.01388889 </v>
   <v>       0.01388889 </v>
   <v>       0.01388889 </v>
   <v>       0.01388889 </v>
   <v>       0.01388889 </v>
   <v>       0.01388889 </v>
   <v>       0.01388889 </v>
   <v>       0.01388889 </v>
   <v>       0.01388889 </v>
   <v>       0.01388889 </v>
   <v>       0.01388889 </v>
   <v>       0.01388889 </v>
   <v>       0.01388889 </v>
   <v>       0.01388889 </v>
   <v>       0.01388889 </v>
   <v>       0.01388889 </v>
   <v>       0.01388889 </v>
   <v>       0.01388889 </v>
   <v>       0.01388889 </v>
   <v>       0.01388889 </v>
  </varray>
 </kpoints>
 <parameters>
  <separator name="general" >
   <i type="string" name="SYSTEM">Lattice</i>
   <i type="logical" name="LCOMPAT"> F  </i>
  </separator>
  <separator name="electronic" >
   <i type="string" name="PREC">accura</i>
   <i name="ENMAX">    450.00000000</i>
   <i name="ENAUG">    644.87300000</i>
   <i name="EDIFF">      0.00000100</i>
   <i type="int" name="IALGO">    38</i>
   <i type="int" name="IWAVPR">    11</i>
   <i type="int" name="NBANDS">    48</i>
   <i type="int" name="NBANDSLOW">    -1</i>
   <i type="int" name="NBANDSHIGH">    -1</i>
   <i name="NELECT">     56.00000000</i>
   <i type="int" name="TURBO">     0</i>
   <i type="int" name="IRESTART">     0</i>
   <i type="int" name="NREBOOT">     0</i>
   <i type="int" name="NMIN">     0</i>
   <i name="EREF">      0.00000000</i>
   <separator name="electronic smearing" >
    <i type="int" name="ISMEAR">     0</i>
    <i name="SIGMA">      0.10000000</i>
    <i name="KSPACING">      0.50000000</i>
    <i type="logical" name="KGAMMA"> T  </i>
    <i type="logical" name="KBLOWUP"> T  </i>
   </separator>
   <separator name="electronic projectors" >
    <i type="logical" name="LREAL"> F  </i>
    <v name="ROPT">      0.00000000      0.00000000</v>
    <i type="int" name="LMAXPAW">  -100</i>
    <i type="int" name="LMAXMIX">     2</i>
    <i type="logical" name="NLSPLINE"> F  </i>
   </separator>
   <separator name="electronic startup" >
    <i type="int" name="ISTART">     0</i>
    <i type="int" name="ICHARG">     2</i>
    <i type="int" name="INIWAV">     1</i>
   </separator>
   <separator name="electronic spin" >
    <i type="int" name="ISPIN">     2</i>
    <i type="logical" name="LNONCOLLINEAR"> F  </i>
    <v name="MAGMOM">      1.00000000      1.00000000      1.00000000      1.00000000      1.00000000      1.00000000      1.00000000      1.00000000      1.00000000      1.00000000      1.00000000      1.00000000      1.00000000      1.00000000      1.00000000</v>
    <i name="NUPDOWN">     -1.00000000</i>
    <i type="logical" name="LSORBIT"> F  </i>
    <v name="SAXIS">      0.00000000      0.00000000      1.00000000</v>
    <i type="logical" name="LSPIRAL"> F  </i>
    <v name="QSPIRAL">      0.00000000      0.00000000      0.00000000</v>
    <i type="logical" name="LZEROZ"> F  </i>
   </separator>
   <separator name="electronic exchange-correlation" >
    <i type="logical" name="LASPH"> F  </i>
    <i type="logical" name="LMETAGGA"> F  </i>
   </separator>
   <separator name="electronic convergence" >
    <i type="int" name="NELM">    64</i>
    <i type="int" name="NELMDL">    -5</i>
    <i type="int" name="NELMIN">     2</i>
    <i name="ENINI">    450.00000000</i>
    <separator name="electronic convergence detail" >
     <i type="logical" name="LDIAG"> T  </i>
     <i type="logical" name="LSUBROT"> F  </i>
     <i name="WEIMIN">      0.00100000</i>
     <i name="EBREAK">      0.00000001</i>
     <i name="DEPER">      0.30000000</i>
     <i type="int" name="NRMM">     4</i>
     <i name="TIME">      0.40000000</i>
    </separator>
   </separator>
   <separator name="electronic mixer" >
    <i name="AMIX">      0.40000000</i>
    <i name="BMIX">      1.00000000</i>
    <i name="AMIN">      0.10000000</i>
    <i name="AMIX_MAG">      1.60000000</i>
    <i name="BMIX_MAG">      1.00000000</i>
    <separator name="electronic mixer details" >
     <i type="int" name="IMIX">     4</i>
     <i type="logical" name="MIXFIRST"> F  </i>
     <i type="int" name="MAXMIX">   -45</i>
     <i name="WC">    100.00000000</i>
     <i type="int" name="INIMIX">     1</i>
     <i type="int" name="MIXPRE">     1</i>
     <i type="int" name="MREMOVE">     5</i>
    </separator>
   </separator>
   <separator name="electronic dipolcorrection" >
    <i type="logical" name="LDIPOL"> F  </i>
    <i type="logical" name="LMONO"> F  </i>
    <i type="int" name="IDIPOL">     0</i>
    <i name="EPSILON">      1.00000000</i>
    <v name="DIPOL">   -100.00000000   -100.00000000   -100.00000000</v>
    <i name="EFIELD">      0.00000000</i>
   </separator>
  </separator>
  <separator name="grids" >
   <i type="int" name="NGX">    36</i>
   <i type="int" name="NGY">    36</i>
   <i type="int" name="NGZ">   108</i>
   <i type="int" name="NGXF">    72</i>
   <i type="int" name="NGYF">    72</i>
   <i type="int" name="NGZF">   216</i>
   <i type="logical" name="ADDGRID"> F  </i>
  </separator>
  <separator name="ionic" >
   <i type="int" name="NSW">   128</i>
   <i type="int" name="IBRION">     2</i>
   <i type="int" name="MDALGO">     0</i>
   <i type="int" name="ISIF">     2</i>
   <i name="PSTRESS">      0.00000000</i>
   <i name="EDIFFG">     -0.00100000</i>
   <i type="int" name="NFREE">     1</i>
   <i name="POTIM">      0.50000000</i>
   <i name="SMASS">     -3.00000000</i>
   <i name="SCALEE">      1.00000000</i>
  </separator>
  <separator name="ionic md" >
   <i name="TEBEG">      0.00010000</i>
   <i name="TEEND">      0.00010000</i>
   <i type="int" name="NBLOCK">     1</i>
   <i type="int" name="KBLOCK">   128</i>
   <i type="int" name="NPACO">   256</i>
   <i name="APACO">     10.00000000</i>
  </separator>
  <separator name="symmetry" >
   <i type="int" name="ISYM">     2</i>
   <i name="SYMPREC">      0.00001000</i>
  </separator>
  <separator name="dos" >
   <i type="int" name="LORBIT">     0</i>
   <v name="RWIGS">     -1.00000000     -1.00000000</v>
   <i type="int" name="NEDOS">   301</i>
   <i name="EMIN">     10.00000000</i>
   <i name="EMAX">    -10.00000000</i>
   <i name="EFERMI">      0.00000000</i>
  </separator>
  <separator name="writing" >
   <i type="int" name="NWRITE">     2</i>
   <i type="logical" name="LWAVE"> F  </i>
   <i type="logical" name="LDOWNSAMPLE"> F  </i>
   <i type="logical" name="LCHARG"> F  </i>
   <i type="logical" name="LPARD"> F  </i>
   <i type="logical" name="LVTOT"> F  </i>
   <i type="logical" name="LVHAR"> F  </i>
   <i type="logical" name="LELF"> F  </i>
   <i type="logical" name="LOPTICS"> F  </i>
   <v name="STM">      0.00000000      0.00000000      0.00000000      0.00000000      0.00000000      0.00000000      0.00000000</v>
  </separator>
  <separator name="performance" >
   <i type="int" name="NPAR">    48</i>
   <i type="int" name="NSIM">     4</i>
   <i type="int" name="NBLK">    -1</i>
   <i type="logical" name="LPLANE"> T  </i>
   <i type="logical" name="LSCALAPACK"> T  </i>
   <i type="logical" name="LSCAAWARE"> F  </i>
   <i type="logical" name="LSCALU"> F  </i>
   <i type="logical" name="LASYNC"> F  </i>
   <i type="logical" name="LORBITALREAL"> F  </i>
  </separator>
  <separator name="miscellaneous" >
   <i type="int" name="IDIOT">     3</i>
   <i type="int" name="PHON_NSTRUCT">    -1</i>
   <i type="logical" name="LMUSIC"> F  </i>
   <v name="POMASS">     10.81100000     12.01100000</v>
   <v name="DARWINR">      0.00000000      0.00000000</v>
   <v name="DARWINV">      1.00000000      1.00000000</v>
   <i type="logical" name="LCORR"> T  </i>
  </separator>
  <i type="logical" name="GGA_COMPAT"> T  </i>
  <i type="logical" name="LBERRY"> F  </i>
  <i type="int" name="ICORELEVEL">     0</i>
  <i type="logical" name="LDAU"> F  </i>
  <i type="int" name="I_CONSTRAINED_M">     0</i>
  <separator name="electronic exchange-correlation" >
   <i type="string" name="GGA">PE</i>
   <i type="int" name="VOSKOWN">     0</i>
   <i type="logical" name="LHFCALC"> F  </i>
   <i type="string" name="PRECFOCK"></i>
   <i type="logical" name="LSYMGRAD"> F  </i>
   <i type="logical" name="LHFONE"> F  </i>
   <i type="logical" name="LRHFCALC"> F  </i>
   <i type="logical" name="LTHOMAS"> F  </i>
   <i type="logical" name="LMODELHF"> F  </i>
   <i type="logical" name="LFOCKACE"> F  </i>
   <i name="ENCUT4O">     -1.00000000</i>
   <i type="int" name="EXXOEP">     0</i>
   <i type="int" name="FOURORBIT">     0</i>
   <i name="AEXX">      0.00000000</i>
   <i name="HFALPHA">      0.00000000</i>
   <i name="MCALPHA">      0.00000000</i>
   <i name="ALDAX">      1.00000000</i>
   <i name="AGGAX">      1.00000000</i>
   <i name="ALDAC">      1.00000000</i>
   <i name="AGGAC">      1.00000000</i>
   <i type="int" name="NKREDX">     1</i>
   <i type="int" name="NKREDY">     1</i>
   <i type="int" name="NKREDZ">     1</i>
   <i type="logical" name="SHIFTRED"> F  </i>
   <i type="logical" name="ODDONLY"> F  </i>
   <i type="logical" name="EVENONLY"> F  </i>
   <i type="int" name="LMAXFOCK">     0</i>
   <i type="int" name="NMAXFOCKAE">     0</i>
   <i type="logical" name="LFOCKAEDFT"> F  </i>
   <i name="HFSCREEN">      0.00000000</i>
   <i name="HFSCREENC">      0.00000000</i>
   <i type="int" name="NBANDSGWLOW">     0</i>
  </separator>
  <separator name="vdW DFT" >
   <i type="logical" name="LUSE_VDW"> F  </i>
   <i name="Zab_VDW">     -0.84910000</i>
   <i name="PARAM1">      0.12340000</i>
   <i name="PARAM2">      1.00000000</i>
   <i name="PARAM3">      0.00000000</i>
  </separator>
  <separator name="model GW" >
   <i type="int" name="MODEL_GW">     0</i>
   <i name="MODEL_EPS0">     12.24281892</i>
   <i name="MODEL_ALPHA">      1.00000000</i>
  </separator>
  <separator name="linear response parameters" >
   <i type="logical" name="LEPSILON"> F  </i>
   <i type="logical" name="LRPA"> F  </i>
   <i type="logical" name="LNABLA"> F  </i>
   <i type="logical" name="LVEL"> F  </i>
   <i name="CSHIFT">      0.10000000</i>
   <i name="OMEGAMAX">     -1.00000000</i>
   <i name="DEG_THRESHOLD">      0.00200000</i>
   <i name="RTIME">     -0.10000000</i>
   <i name="WPLASMAI">      0.00000000</i>
   <v name="DFIELD">      0.00000000      0.00000000      0.00000000</v>
   <v name="WPLASMA">      0.00000000      0.00000000      0.00000000      0.00000000      0.00000000      0.00000000      0.00000000      0.00000000      0.00000000</v>
  </separator>
  <separator name="orbital magnetization" >
   <i type="logical" name="NUCIND"> F  </i>
   <v name="MAGPOS">      0.00000000      0.00000000      0.00000000</v>
   <i type="logical" name="LNICSALL"> T  </i>
   <i type="logical" name="ORBITALMAG"> F  </i>
   <i type="logical" name="LMAGBLOCH"> F  </i>
   <i type="logical" name="LCHIMAG"> F  </i>
   <i type="logical" name="LGAUGE"> T  </i>
   <i type="int" name="MAGATOM">     0</i>
   <v name="MAGDIPOL">      0.00000000      0.00000000      0.00000000</v>
   <v name="AVECCONST">      0.00000000      0.00000000      0.00000000</v>
  </separator>
  <separator name="response functions" >
   <i type="logical" name="LFINITE_TEMPERATURE"> F  </i>
   <i type="logical" name="LADDER"> F  </i>
   <i type="logical" name="LRPAFORCE"> F  </i>
   <i type="logical" name="LFXC"> F  </i>
   <i type="logical" name="LHARTREE"> T  </i>
   <i type="int" name="IBSE">     0</i>
   <v type="int" name="KPOINT">    -1     0     0     0</v>
   <i type="logical" name="LTCTC"> F  </i>
   <i type="logical" name="LTCTE"> F  </i>
   <i type="logical" name="LTETE"> F  </i>
   <i type="logical" name="LTRIPLET"> F  </i>
   <i type="logical" name="LFXCEPS"> F  </i>
   <i type="logical" name="LFXHEG"> F  </i>
   <i type="int" name="NATURALO">     2</i>
   <i type="logical" name="LHOLEGF"> F  </i>
   <i type="logical" name="L2ORDER"> F  </i>
   <i type="logical" name="LDMP1"> F  </i>
   <i type="logical" name="LMP2LT"> F  </i>
   <i type="logical" name="LSMP2LT"> F  </i>
   <i type="logical" name="LGWLF"> F  </i>
   <i name="ENCUTGW">     -2.00000000</i>
   <i name="ENCUTGWSOFT">     -2.00000000</i>
   <i name="ENCUTLF">     -1.00000000</i>
   <i type="logical" name="LESF_SPLINES"> F  </i>
   <i type="int" name="LMAXMP2">    -1</i>
   <i name="SCISSOR">      0.00000000</i>
   <i type="int" name="NOMEGA">     0</i>
   <i type="int" name="NOMEGAR">     0</i>
   <i type="int" name="NBANDSGW">    -1</i>
   <i type="int" name="NBANDSO">    -1</i>
   <i type="int" name="NBANDSV">    -1</i>
   <i type="int" name="NELMGW">     1</i>
   <i type="int" name="NELMHF">     1</i>
   <i type="int" name="DIM">     3</i>
   <i type="int" name="IESPILON">     4</i>
   <i type="int" name="ANTIRES">     0</i>
   <i name="OMEGAMAX">    -30.00000000</i>
   <i name="OMEGAMIN">    -30.00000000</i>
   <i name="OMEGATL">   -200.00000000</i>
   <i type="int" name="OMEGAGRID">     0</i>
   <i name="CSHIFT">     -0.10000000</i>
   <i type="logical" name="LSELFENERGY"> F  </i>
   <i type="logical" name="LSPECTRAL"> F  </i>
   <i type="logical" name="LSPECTRALGW"> F  </i>
   <i type="logical" name="LSINGLES"> F  </i>
   <i type="logical" name="LFERMIGW"> F  </i>
   <i type="logical" name="ODDONLYGW"> F  </i>
   <i type="logical" name="EVENONLYGW"> F  </i>
   <i type="int" name="NKREDLFX">     1</i>
   <i type="int" name="NKREDLFY">     1</i>
   <i type="int" name="NKREDLFZ">     1</i>
   <i type="int" name="MAXMEM">  2800</i>
   <i type="int" name="TELESCOPE">     0</i>
   <i type="int" name="NTAUPAR">    -1</i>
   <i type="int" name="NOMEGAPAR">    -1</i>
   <i name="DAMP_NEWTON">      0.80000001</i>
   <i name="LAMBDA">      1.00000000</i>
  </separator>
  <separator name="External order field" >
   <i name="OFIELD_KAPPA">      0.00000000</i>
   <v name="OFIELD_K">      0.00000000      0.00000000      0.00000000</v>
   <i name="OFIELD_Q6_NEAR">      0.00000000</i>
   <i name="OFIELD_Q6_FAR">      0.00000000</i>
   <i name="OFIELD_A">      0.00000000</i>
  </separator>
  <separator name="optional k-points parameters" >
   <i type="int" name="KPOINTS_OPT_MODE">     1</i>
   <i type="logical" name="LKPOINTS_OPT"> F  </i>
  </separator>
  <separator name="solvation model" >
   <i type="logical" name="LSOL"> F  </i>
  </separator>
 </parameters>
 <atominfo>
  <atoms>      15 </atoms>
  <types>       2 </types>
  <array name="atoms" >
   <dimension dim="1">ion</dimension>
   <field type="string">element</field>
   <field type="int">atomtype</field>
   <set>
    <rc><c>B </c><c>   1</c></rc>
    <rc><c>B </c><c>   1</c></rc>
    <rc><c>B </c><c>   1</c></rc>
    <rc><c>B </c><c>   1</c></rc>
    <rc><c>C </c><c>   2</c></rc>
    <rc><c>C </c><c>   2</c></rc>
    <rc><c>C </c><c>   2</c></rc>
    <rc><c>C </c><c>   2</c></rc>
    <rc><c>C </c><c>   2</c></rc>
    <rc><c>C </c><c>   2</c></rc>
    <rc><c>C </c><c>   2</c></rc>
    <rc><c>C </c><c>   2</c></rc>
    <rc><c>C </c><c>   2</c></rc>
    <rc><c>C </c><c>   2</c></rc>
    <rc><c>C </c><c>   2</c></rc>
   </set>
  </array>
  <array name="atomtypes" >
   <dimension dim="1">type</dimension>
   <field type="int">atomspertype</field>
   <field type="string">element</field>
   <field>mass</field>
   <field>valence</field>
   <field type="string">pseudopotential</field>
   <set>
    <rc><c>   4</c><c>B </c><c>     10.81100000</c><c>      3.00000000</c><c>  PAW_PBE B 06Sep2000                   </c></rc>
    <rc><c>  11</c><c>C </c><c>     12.01100000</c><c>      4.00000000</c><c>  PAW_PBE C 08Apr2002                   </c></rc>
   </set>
  </array>
 </atominfo>
 <structure name="initialpos" >
  <crystal>
   <varray name="basis" >
    <v>       4.20368731       2.42700000       0.00000000 </v>
    <v>      -4.20368731       2.42700000       0.00000000 </v>
    <v>       0.00000000       0.00000000      15.00000000 </v>
   </varray>
   <i name="volume">    306.07047304 </i>
   <varray name="rec_basis" >
    <v>       0.11894320       0.20601566       0.00000000 </v>
    <v>      -0.11894320       0.20601566       0.00000000 </v>
    <v>       0.00000000       0.00000000       0.06666667 </v>
   </varray>
  </crystal>
  <varray name="positions" >
   <v>       0.00415361       0.00267210       0.12034134 </v>
   <v>       0.35695335       0.00285503       0.09748893 </v>
   <v>       0.00423858       0.35550699       0.09749256 </v>
   <v>       0.65142295       0.65006557       0.09747688 </v>
   <v>       0.32808646       0.32671938       0.10030508 </v>
   <v>       0.68027775       0.00278085       0.10027562 </v>
   <v>       0.00416530       0.67883808       0.10026559 </v>
   <v>       0.99999933       0.49999967       0.33373333 </v>
   <v>       0.16666633       0.33333267       0.33373333 </v>
   <v>       0.99999933       0.99999967       0.33373333 </v>
   <v>       0.16666633       0.83333267       0.33373333 </v>
   <v>       0.49999933       0.49999967       0.33373333 </v>
   <v>       0.66666633       0.33333267       0.33373333 </v>
   <v>       0.49999933       0.99999967       0.33373333 </v>
   <v>       0.66666633       0.83333267       0.33373333 </v>
  </varray>
 </structure>
 <calculation>
  <scstep>
   <time name="dav">    5.50    5.56</time>
   <time name="total">    5.55    5.61</time>
   <energy>
    <i name="alphaZ">     58.11503038 </i>
    <i name="ewald">   4760.87230239 </i>
    <i name="hartreedc">  -6318.26620186 </i>
    <i name="XCdc">    174.98257882 </i>
    <i name="pawpsdc">   1365.87943566 </i>
    <i name="pawaedc">  -1368.52100941 </i>
    <i name="eentropy">     -0.01682561 </i>
    <i name="bandstr">   -373.84483617 </i>
    <i name="atom">   1903.26342058 </i>
    <i name="e_fr_energy">    202.46389477 </i>
    <i name="e_wo_entrp">    202.48072039 </i>
    <i name="e_0_energy">    202.47230758 </i>
   </energy>
  </scstep>
  <scstep>
   <time name="dav">    8.05    8.13</time>
   <time name="total">    8.05    8.13</time>
   <energy>
    <i name="e_fr_energy">   -116.62056574 </i>
    <i name="e_wo_entrp">   -116.61904108 </i>
    <i name="e_0_energy">   -116.61980341 </i>
   </energy>
  </scstep>
  <scstep>
   <time name="dav">   11.10   11.18</time>
   <time name="total">   11.10   11.18</time>
   <energy>
    <i name="e_fr_energy">   -129.20047511 </i>
    <i name="e_wo_entrp">   -129.19724669 </i>
    <i name="e_0_energy">   -129.19886090 </i>
   </energy>
  </scstep>
  <scstep>
   <time name="dav">    7.87    7.94</time>
   <time name="total">    7.88    7.95</time>
   <energy>
    <i name="e_fr_energy">   -129.23017618 </i>
    <i name="e_wo_entrp">   -129.22694270 </i>
    <i name="e_0_energy">   -129.22855944 </i>
   </energy>
  </scstep>
  <scstep>
   <time name="dav">   10.65   10.71</time>
   <time name="total">   10.91   10.98</time>
   <energy>
    <i name="e_fr_energy">   -129.23023928 </i>
    <i name="e_wo_entrp">   -129.22700573 </i>
    <i name="e_0_energy">   -129.22862250 </i>
   </energy>
  </scstep>
  <scstep>
   <time name="dav">   10.59   10.67</time>
   <time name="total">   10.89   10.97</time>
   <energy>
    <i name="e_fr_energy">    -92.07550763 </i>
    <i name="e_wo_entrp">    -92.06927076 </i>
    <i name="e_0_energy">    -92.07238920 </i>
   </energy>
  </scstep>
  <scstep>
   <time name="dav">    9.04    9.11</time>
   <time name="total">    9.33    9.41</time>
   <energy>
    <i name="e_fr_energy">   -100.51642120 </i>
    <i name="e_wo_entrp">   -100.51072042 </i>
    <i name="e_0_energy">   -100.51357081 </i>
   </energy>
  </scstep>
  <scstep>
   <time name="dav">   10.24   10.31</time>
   <time name="total">   10.53   10.61</time>
   <energy>
    <i name="e_fr_energy">   -110.48603252 </i>
    <i name="e_wo_entrp">   -110.48601742 </i>
    <i name="e_0_energy">   -110.48602497 </i>
   </energy>
  </scstep>
  <scstep>
   <time name="dav">    7.17    7.23</time>
   <time name="total">    7.47    7.53</time>
   <energy>
    <i name="e_fr_energy">   -117.31782445 </i>
    <i name="e_wo_entrp">   -117.31781971 </i>
    <i name="e_0_energy">   -117.31782208 </i>
   </energy>
  </scstep>
  <scstep>
   <time name="dav">    9.83    9.90</time>
   <time name="total">   10.12   10.19</time>
   <energy>
    <i name="e_fr_energy">   -123.67656641 </i>
    <i name="e_wo_entrp">   -123.67587250 </i>
    <i name="e_0_energy">   -123.67621946 </i>
   </energy>
  </scstep>
  <scstep>
   <time name="dav">   10.76   10.82</time>
   <time name="total">   11.05   11.12</time>
   <energy>
    <i name="e_fr_energy">   -125.26982808 </i>
    <i name="e_wo_entrp">   -125.26865701 </i>
    <i name="e_0_energy">   -125.26924255 </i>
   </energy>
  </scstep>
  <scstep>
   <time name="dav">    7.82    7.87</time>
   <time name="total">    8.11    8.17</time>
   <energy>
    <i name="e_fr_energy">   -125.42565529 </i>
    <i name="e_wo_entrp">   -125.42417629 </i>
    <i name="e_0_energy">   -125.42491579 </i>
   </energy>
  </scstep>
  <scstep>
   <time name="dav">    7.59    7.63</time>
   <time name="total">    7.88    7.93</time>
   <energy>
    <i name="e_fr_energy">   -125.46081733 </i>
    <i name="e_wo_entrp">   -125.45928386 </i>
    <i name="e_0_energy">   -125.46005059 </i>
   </energy>
  </scstep>
  <scstep>
   <time name="dav">    8.20    8.25</time>
   <time name="total">    8.49    8.55</time>
   <energy>
    <i name="e_fr_energy">   -125.48398725 </i>
    <i name="e_wo_entrp">   -125.48244910 </i>
    <i name="e_0_energy">   -125.48321818 </i>
   </energy>
  </scstep>
  <scstep>
   <time name="dav">    7.34    7.40</time>
   <time name="total">    7.63    7.70</time>
   <energy>
    <i name="e_fr_energy">   -125.49064393 </i>
    <i name="e_wo_entrp">   -125.48910525 </i>
    <i name="e_0_energy">   -125.48987459 </i>
   </energy>
  </scstep>
  <scstep>
   <time name="dav">    6.70    6.74</time>
   <time name="total">    6.99    7.04</time>
   <energy>
    <i name="e_fr_energy">   -125.49264792 </i>
    <i name="e_wo_entrp">   -125.49110930 </i>
    <i name="e_0_energy">   -125.49187861 </i>
   </energy>
  </scstep>
  <scstep>
   <time name="dav">    6.70    6.74</time>
   <time name="total">    6.99    7.04</time>
   <energy>
    <i name="e_fr_energy">   -125.49389214 </i>
    <i name="e_wo_entrp">   -125.49235353 </i>
    <i name="e_0_energy">   -125.49312284 </i>
   </energy>
  </scstep>
  <scstep>
   <time name="dav">    6.77    6.81</time>
   <time name="total">    7.06    7.11</time>
   <energy>
    <i name="e_fr_energy">   -125.49465542 </i>
    <i name="e_wo_entrp">   -125.49311682 </i>
    <i name="e_0_energy">   -125.49388612 </i>
   </energy>
  </scstep>
  <scstep>
   <time name="dav">    8.50    8.56</time>
   <time name="total">    8.79    8.86</time>
   <energy>
    <i name="e_fr_energy">   -125.49507836 </i>
    <i name="e_wo_entrp">   -125.49353978 </i>
    <i name="e_0_energy">   -125.49430907 </i>
   </energy>
  </scstep>
  <scstep>
   <time name="dav">    8.85    8.90</time>
   <time name="total">    9.13    9.19</time>
   <energy>
    <i name="e_fr_energy">   -125.49511677 </i>
    <i name="e_wo_entrp">   -125.49357819 </i>
    <i name="e_0_energy">   -125.49434748 </i>
   </energy>
  </scstep>
  <scstep>
   <time name="dav">    8.58    8.63</time>
   <time name="total">    8.87    8.93</time>
   <energy>
    <i name="e_fr_energy">   -125.49514094 </i>
    <i name="e_wo_entrp">   -125.49360233 </i>
    <i name="e_0_energy">   -125.49437164 </i>
   </energy>
  </scstep>
  <scstep>
   <time name="dav">    9.18    9.24</time>
   <time name="total">    9.47    9.54</time>
   <energy>
    <i name="e_fr_energy">   -125.49516386 </i>
    <i name="e_wo_entrp">   -125.49362524 </i>
    <i name="e_0_energy">   -125.49439455 </i>
   </energy>
  </scstep>
  <scstep>
   <time name="dav">    8.34    8.39</time>
   <time name="total">    8.62    8.69</time>
   <energy>
    <i name="e_fr_energy">   -125.49517497 </i>
    <i name="e_wo_entrp">   -125.49363635 </i>
    <i name="e_0_energy">   -125.49440566 </i>
   </energy>
  </scstep>
  <scstep>
   <time name="dav">   10.07   10.13</time>
   <time name="total">   10.36   10.43</time>
   <energy>
    <i name="e_fr_energy">   -125.49517741 </i>
    <i name="e_wo_entrp">   -125.49363878 </i>
    <i name="e_0_energy">   -125.49440809 </i>
   </energy>
  </scstep>
  <scstep>
   <time name="dav">    8.46    8.51</time>
   <time name="total">    8.75    8.81</time>
   <energy>
    <i name="e_fr_energy">   -125.49517844 </i>
    <i name="e_wo_entrp">   -125.49363981 </i>
    <i name="e_0_energy">   -125.49440913 </i>
   </energy>
  </scstep>
  <scstep>
   <time name="dav">    9.50    9.57</time>
   <time name="total">    9.53    9.60</time>
   <energy>
    <i name="alphaZ">     58.11503038 </i>
    <i name="ewald">   4760.87230239 </i>
    <i name="hartreedc">  -6517.91190968 </i>
    <i name="XCdc">    180.29153849 </i>
    <i name="pawpsdc">   5691.64211116 </i>
    <i name="pawaedc">  -5696.03516915 </i>
    <i name="eentropy">     -0.00153862 </i>
    <i name="bandstr">   -505.73096449 </i>
    <i name="atom">   1903.26342058 </i>
    <i name="e_fr_energy">   -125.49517895 </i>
    <i name="e_wo_entrp">   -125.49364032 </i>
    <i name="e_0_energy">   -125.49440963 </i>
   </energy>
  </scstep>
  <structure>
   <crystal>
    <varray name="basis" >
     <v>       4.20368731       2.42700000       0.00000000 </v>
     <v>      -4.20368731       2.42700000       0.00000000 </v>
     <v>       0.00000000       0.00000000      15.00000000 </v>
    </varray>
    <i name="volume">    306.07047304 </i>
    <varray name="rec_basis" >
     <v>       0.11894320       0.20601566       0.00000000 </v>
     <v>      -0.11894320       0.20601566       0.00000000 </v>
     <v>       0.00000000       0.00000000       0.06666667 </v>
    </varray>
   </crystal>
   <varray name="positions" >
    <v>       0.00415361       0.00267210       0.12034134 </v>
    <v>       0.35695335       0.00285503       0.09748893 </v>
    <v>       0.00423858       0.35550699       0.09749256 </v>
    <v>       0.65142295       0.65006557       0.09747688 </v>
    <v>       0.32808646       0.32671938       0.10030508 </v>
    <v>       0.68027775       0.00278085       0.10027562 </v>
    <v>       0.00416530       0.67883808       0.10026559 </v>
    <v>       0.99999933       0.49999967       0.33373333 </v>
    <v>       0.16666633       0.33333267       0.33373333 </v>
    <v>       0.99999933       0.99999967       0.33373333 </v>
    <v>       0.16666633       0.83333267       0.33373333 </v>
    <v>       0.49999933       0.49999967       0.33373333 </v>
    <v>       0.66666633       0.33333267       0.33373333 </v>
    <v>       0.49999933       0.99999967       0.33373333 </v>
    <v>       0.66666633       0.83333267       0.33373333 </v>
   </varray>
  </structure>
  <varray name="forces" >
   <v>      -0.00456249       0.00528343      -0.36178610 </v>
   <v>      -0.11684707      -0.04928164       0.11109450 </v>
   <v>       0.09635761      -0.08387767       0.11060683 </v>
   <v>       0.02282044       0.12566045       0.11218503 </v>
   <v>       0.03016453      -0.37269899      -0.00247278 </v>
   <v>       0.30597759       0.20958208       0.00005058 </v>
   <v>      -0.33422212       0.16452997       0.00091881 </v>
   <v>       0.01333618       0.00512588       0.00292134 </v>
   <v>      -0.03536845       0.04087599       0.02163937 </v>
   <v>       0.00051253      -0.00029922      -0.03094613 </v>
   <v>       0.05255778       0.00975519       0.02253805 </v>
   <v>      -0.01079394       0.01043005       0.00381734 </v>
   <v>      -0.00045611       0.00026091      -0.01487501 </v>
   <v>      -0.00191706      -0.01403027       0.00277332 </v>
   <v>      -0.01755940      -0.05131616       0.02153486 </v>
  </varray>
  <varray name="stress" >
   <v>     -14.79017953       0.01688667      -0.00180010 </v>
   <v>       0.01688665     -14.76555448       0.02433773 </v>
   <v>      -0.00180009       0.02433774      -2.22667037 </v>
  </varray>
  <energy>
   <i name="e_fr_energy">   -127.09752199 </i>
   <i name="e_wo_entrp">   -127.09598337 </i>
   <i name="e_0_energy">   -127.09675268 </i>
  </energy>
  <time name="totalsc">  234.27  236.03</time>
 </calculation>
 <calculation>
  <scstep>
   <time name="dav">    5.49    5.53</time>
   <time name="total">    5.78    5.83</time>
   <energy>
    <i name="alphaZ">     58.11503038 </i>
    <i name="ewald">   4764.50552155 </i>
    <i name="hartreedc">  -6520.11567542 </i>
    <i name="XCdc">    180.37330752 </i>
    <i name="pawpsdc">   5691.64854201 </i>
    <i name="pawaedc">  -5696.04160298 </i>
    <i name="eentropy">     -0.00154342 </i>
    <i name="bandstr">   -507.25143121 </i>
    <i name="atom">   1903.26342058 </i>
    <i name="e_fr_energy">   -125.50443099 </i>
    <i name="e_wo_entrp">   -125.50288758 </i>
    <i name="e_0_energy">   -125.50365929 </i>
   </energy>
  </scstep>
  <scstep>
   <time name="dav">   11.01   11.07</time>
   <time name="total">   11.30   11.37</time>
   <energy>
    <i name="e_fr_energy">   -125.49509179 </i>
    <i name="e_wo_entrp">   -125.49354823 </i>
    <i name="e_0_energy">   -125.49432001 </i>
   </energy>
  </scstep>
  <scstep>
   <time name="dav">    8.51    8.57</time>
   <time name="total">    8.80    8.87</time>
   <energy>
    <i name="e_fr_energy">   -125.49399961 </i>
    <i name="e_wo_entrp">   -125.49245596 </i>
    <i name="e_0_energy">   -125.49322778 </i>
   </energy>
  </scstep>
  <scstep>
   <time name="dav">   11.58   11.64</time>
   <time name="total">   11.87   11.94</time>
   <energy>
    <i name="e_fr_energy">   -125.49395066 </i>
    <i name="e_wo_entrp">   -125.49240722 </i>
    <i name="e_0_energy">   -125.49317894 </i>
   </energy>
  </scstep>
  <scstep>
   <time name="dav">    9.78    9.83</time>
   <time name="total">   10.06   10.13</time>
   <energy>
    <i name="e_fr_energy">   -125.49395354 </i>
    <i name="e_wo_entrp">   -125.49241019 </i>
    <i name="e_0_energy">   -125.49318186 </i>
   </energy>
  </scstep>
  <scstep>
   <time name="dav">    9.36    9.41</time>
   <time name="total">    9.40    9.46</time>
   <energy>
    <i name="alphaZ">     58.11503038 </i>
    <i name="ewald">   4764.50552155 </i>
    <i name="hartreedc">  -6520.88918099 </i>
    <i name="XCdc">    180.39069846 </i>
    <i name="pawpsdc">   5718.64083180 </i>
    <i name="pawaedc">  -5723.04267693 </i>
    <i name="eentropy">     -0.00154337 </i>
    <i name="bandstr">   -506.47605511 </i>
    <i name="atom">   1903.26342058 </i>
    <i name="e_fr_energy">   -125.49395362 </i>
    <i name="e_wo_entrp">   -125.49241026 </i>
    <i name="e_0_energy">   -125.49318194 </i>
   </energy>
  </scstep>
  <structure>
   <crystal>
    <varray name="basis" >
     <v>       4.20368731       2.42700000       0.00000000 </v>
     <v>      -4.20368731       2.42700000       0.00000000 </v>
     <v>       0.00000000       0.00000000      15.00000000 </v>
    </varray>
    <i name="volume">    306.07047304 </i>
    <varray name="rec_basis" >
     <v>       0.11894320       0.20601566       0.00000000 </v>
     <v>      -0.11894320       0.20601566       0.00000000 </v>
     <v>       0.00000000       0.00000000       0.06666667 </v>
    </varray>
   </crystal>
   <varray name="positions" >
    <v>       0.00417994       0.00275079       0.11917777 </v>
    <v>       0.35579307       0.00303572       0.09784623 </v>
    <v>       0.00395785       0.35412044       0.09784829 </v>
    <v>       0.65280281       0.65118353       0.09783769 </v>
    <v>       0.32455539       0.32284213       0.10029712 </v>
    <v>       0.68411647       0.00310809       0.10027578 </v>
    <v>       0.00388271       0.68239111       0.10026854 </v>
    <v>       0.00012680       0.49997409       0.33374273 </v>
    <v>       0.16686964       0.33394187       0.33380293 </v>
    <v>       0.99999930       0.99999375       0.33363381 </v>
    <v>       0.16706487       0.83312804       0.33380582 </v>
    <v>       0.50004106       0.50016527       0.33374561 </v>
    <v>       0.66666631       0.33333788       0.33368549 </v>
    <v>       0.49984889       0.99987122       0.33374225 </v>
    <v>       0.66605556       0.83292341       0.33380259 </v>
   </varray>
  </structure>
  <varray name="forces" >
   <v>      -0.00117981      -0.00048534      -0.13885219 </v>
   <v>       0.24278065       0.13889568       0.05906257 </v>
   <v>      -0.24549552       0.13977266       0.05867669 </v>
   <v>       0.00211243      -0.27796191       0.05980242 </v>
   <v>      -0.00319925       0.58545266      -0.02384732 </v>
   <v>      -0.50178123      -0.29641808      -0.02194854 </v>
   <v>       0.50647776      -0.29005497      -0.02168224 </v>
   <v>      -0.05496766      -0.02181724       0.01054747 </v>
   <v>       0.12351824      -0.13639687      -0.00092948 </v>
   <v>      -0.00187170       0.00124690       0.00836490 </v>
   <v>      -0.17801245      -0.03568553      -0.00075763 </v>
   <v>       0.04524711      -0.04126256       0.01070377 </v>
   <v>       0.00194956      -0.00038135      -0.00858086 </v>
   <v>       0.00721094       0.05828705       0.01046396 </v>
   <v>       0.05721094       0.17680889      -0.00102353 </v>
  </varray>
  <varray name="stress" >
   <v>     -12.05808311       0.00188390       0.00366253 </v>
   <v>       0.00188394     -12.05612186       0.01650565 </v>
   <v>       0.00366253       0.01650563      -1.84178341 </v>
  </varray>
  <energy>
   <i name="e_fr_energy">   -127.09568767 </i>
   <i name="e_wo_entrp">   -127.09414430 </i>
   <i name="e_0_energy">   -127.09491598 </i>
  </energy>
  <time name="totalsc">   61.93   62.37</time>
 </calculation>
 <calculation>
  <scstep>
   <time name="dav">    5.50    5.53</time>
   <time name="total">    5.79    5.83</time>
   <energy>
    <i name="alphaZ">     58.11503038 </i>
    <i name="ewald">   4762.54041172 </i>
    <i name="hartreedc">  -6519.68619860 </i>
    <i name="XCdc">    180.34594509 </i>
    <i name="pawpsdc">   5718.60281611 </i>
    <i name="pawaedc">  -5723.00463477 </i>
    <i name="eentropy">     -0.00154099 </i>
    <i name="bandstr">   -505.68101482 </i>
    <i name="atom">   1903.26342058 </i>
    <i name="e_fr_energy">   -125.50576530 </i>
    <i name="e_wo_entrp">   -125.50422431 </i>
    <i name="e_0_energy">   -125.50499481 </i>
   </energy>
  </scstep>
  <scstep>
   <time name="dav">   11.06   11.12</time>
   <time name="total">   11.34   11.42</time>
   <energy>
    <i name="e_fr_energy">   -125.50310022 </i>
    <i name="e_wo_entrp">   -125.50155937 </i>
    <i name="e_0_energy">   -125.50232980 </i>
   </energy>
  </scstep>
  <scstep>
   <time name="dav">   10.06   10.12</time>
   <time name="total">   10.35   10.42</time>
   <energy>
    <i name="e_fr_energy">   -125.50280511 </i>
    <i name="e_wo_entrp">   -125.50126434 </i>
    <i name="e_0_energy">   -125.50203472 </i>
   </energy>
  </scstep>
  <scstep>
   <time name="dav">    9.14    9.19</time>
   <time name="total">    9.43    9.49</time>
   <energy>
    <i name="e_fr_energy">   -125.50279151 </i>
    <i name="e_wo_entrp">   -125.50125057 </i>
    <i name="e_0_energy">   -125.50202104 </i>
   </energy>
  </scstep>
  <scstep>
   <time name="dav">    9.92    9.98</time>
   <time name="total">    9.95   10.01</time>
   <energy>
    <i name="alphaZ">     58.11503038 </i>
    <i name="ewald">   4762.54041172 </i>
    <i name="hartreedc">  -6519.30415514 </i>
    <i name="XCdc">    180.33694305 </i>
    <i name="pawpsdc">   5703.61650921 </i>
    <i name="pawaedc">  -5708.01336295 </i>
    <i name="eentropy">     -0.00154095 </i>
    <i name="bandstr">   -506.05604828 </i>
    <i name="atom">   1903.26342058 </i>
    <i name="e_fr_energy">   -125.50279238 </i>
    <i name="e_wo_entrp">   -125.50125143 </i>
    <i name="e_0_energy">   -125.50202190 </i>
   </energy>
  </scstep>
  <structure>
   <crystal>
    <varray name="basis" >
     <v>       4.20368731       2.42700000       0.00000000 </v>
     <v>      -4.20368731       2.42700000       0.00000000 </v>
     <v>       0.00000000       0.00000000      15.00000000 </v>
    </varray>
    <i name="volume">    306.07047304 </i>
    <varray name="rec_basis" >
     <v>       0.11894320       0.20601566       0.00000000 </v>
     <v>      -0.11894320       0.20601566       0.00000000 </v>
     <v>       0.00000000       0.00000000       0.06666667 </v>
    </varray>
   </crystal>
   <varray name="positions" >
    <v>       0.00416603       0.00270922       0.11979246 </v>
    <v>       0.35640602       0.00294026       0.09765748 </v>
    <v>       0.00410615       0.35485293       0.09766037 </v>
    <v>       0.65207386       0.65059293       0.09764708 </v>
    <v>       0.32642079       0.32489040       0.10030133 </v>
    <v>       0.68208855       0.00293522       0.10027570 </v>
    <v>       0.00403200       0.68051411       0.10026698 </v>
    <v>       0.00005946       0.49998760       0.33373777 </v>
    <v>       0.16676224       0.33362004       0.33376616 </v>
    <v>       0.99999932       0.99999688       0.33368638 </v>
    <v>       0.16685433       0.83323614       0.33376753 </v>
    <v>       0.50001902       0.50007778       0.33373912 </v>
    <v>       0.66666632       0.33333512       0.33371077 </v>
    <v>       0.49992837       0.99993908       0.33373754 </v>
    <v>       0.66637822       0.83313961       0.33376600 </v>
   </varray>
  </structure>
  <varray name="forces" >
   <v>      -0.00308585       0.00277827      -0.25571570 </v>
   <v>       0.05592705       0.04191637       0.08651439 </v>
   <v>      -0.06868101       0.02299616       0.08607741 </v>
   <v>       0.01366496      -0.06878400       0.08744974 </v>
   <v>       0.01511470       0.07764440      -0.01278135 </v>
   <v>      -0.07407337      -0.02765105      -0.01058983 </v>
   <v>       0.06084047      -0.04968212      -0.01003167 </v>
   <v>      -0.01853584      -0.00746349       0.00652342 </v>
   <v>       0.03929131      -0.04278549       0.01103855 </v>
   <v>      -0.00061687       0.00042774      -0.01247942 </v>
   <v>      -0.05608920      -0.01142630       0.01159388 </v>
   <v>       0.01535949      -0.01370074       0.00707048 </v>
   <v>       0.00067490      -0.00004198      -0.01201275 </v>
   <v>       0.00232129       0.01972109       0.00640536 </v>
   <v>       0.01788798       0.05605114       0.01093749 </v>
  </varray>
  <varray name="stress" >
   <v>     -13.64198268       0.00980776       0.00065677 </v>
   <v>       0.00980775     -13.63073553       0.02109959 </v>
   <v>       0.00065681       0.02109959      -2.02959239 </v>
  </varray>
  <energy>
   <i name="e_fr_energy">   -127.10484555 </i>
   <i name="e_wo_entrp">   -127.10330460 </i>
   <i name="e_0_energy">   -127.10407508 </i>
  </energy>
  <time name="totalsc">   51.69   52.04</time>
 </calculation>
 <calculation>
  <scstep>
   <time name="dav">    5.49    5.52</time>
   <time name="total">    5.78    5.82</time>
   <energy>
    <i name="alphaZ">     58.11503038 </i>
    <i name="ewald">   4762.69809082 </i>
    <i name="hartreedc">  -6519.22496543 </i>
    <i name="XCdc">    180.35365844 </i>
    <i name="pawpsdc">   5703.62323333 </i>
    <i name="pawaedc">  -5708.02009727 </i>
    <i name="eentropy">     -0.00154377 </i>
    <i name="bandstr">   -506.31435854 </i>
    <i name="atom">   1903.26342058 </i>
    <i name="e_fr_energy">   -125.50753146 </i>
    <i name="e_wo_entrp">   -125.50598768 </i>
    <i name="e_0_energy">   -125.50675957 </i>
   </energy>
  </scstep>
  <scstep>
   <time name="dav">   11.87   11.94</time>
   <time name="total">   12.16   12.24</time>
   <energy>
    <i name="e_fr_energy">   -125.50755022 </i>
    <i name="e_wo_entrp">   -125.50600704 </i>
    <i name="e_0_energy">   -125.50677863 </i>
   </energy>
  </scstep>
  <scstep>
   <time name="dav">    9.29    9.35</time>
   <time name="total">    9.58    9.65</time>
   <energy>
    <i name="e_fr_energy">   -125.50753732 </i>
    <i name="e_wo_entrp">   -125.50599445 </i>
    <i name="e_0_energy">   -125.50676588 </i>
   </energy>
  </scstep>
  <scstep>
   <time name="dav">   11.06   11.12</time>
   <time name="total">   11.36   11.43</time>
   <energy>
    <i name="e_fr_energy">   -125.50753768 </i>
    <i name="e_wo_entrp">   -125.50599474 </i>
    <i name="e_0_energy">   -125.50676621 </i>
   </energy>
  </scstep>
  <scstep>
   <time name="dav">    9.29    9.35</time>
   <time name="total">    9.33    9.39</time>
   <energy>
    <i name="alphaZ">     58.11503038 </i>
    <i name="ewald">   4762.69809082 </i>
    <i name="hartreedc">  -6519.22484869 </i>
    <i name="XCdc">    180.35356937 </i>
    <i name="pawpsdc">   5708.39016841 </i>
    <i name="pawaedc">  -5712.78872428 </i>
    <i name="eentropy">     -0.00154294 </i>
    <i name="bandstr">   -506.31270205 </i>
    <i name="atom">   1903.26342058 </i>
    <i name="e_fr_energy">   -125.50753839 </i>
    <i name="e_wo_entrp">   -125.50599545 </i>
    <i name="e_0_energy">   -125.50676692 </i>
   </energy>
  </scstep>
  <structure>
   <crystal>
    <varray name="basis" >
     <v>       4.20368731       2.42700000       0.00000000 </v>
     <v>      -4.20368731       2.42700000       0.00000000 </v>
     <v>       0.00000000       0.00000000      15.00000000 </v>
    </varray>
    <i name="volume">    306.07047304 </i>
    <varray name="rec_basis" >
     <v>       0.11894320       0.20601566       0.00000000 </v>
     <v>      -0.11894320       0.20601566       0.00000000 </v>
     <v>       0.00000000       0.00000000       0.06666667 </v>
    </varray>
   </crystal>
   <varray name="positions" >
    <v>       0.00417973       0.00276421       0.11884312 </v>
    <v>       0.35685241       0.00305904       0.09797198 </v>
    <v>       0.00390651       0.35515501       0.09797333 </v>
    <v>       0.65178614       0.65011684       0.09796492 </v>
    <v>       0.32653966       0.32479053       0.10026310 </v>
    <v>       0.68216802       0.00312970       0.10024527 </v>
    <v>       0.00385069       0.68041317       0.10023867 </v>
    <v>      -0.00007858       0.50001168       0.33375826 </v>
    <v>       0.16662093       0.33315004       0.33381070 </v>
    <v>       0.99999995       0.00000276       0.33363220 </v>
    <v>       0.16653816       0.83338482       0.33381419 </v>
    <v>       0.49998372       0.49990761       0.33376172 </v>
    <v>       0.66666941       0.33333225       0.33366742 </v>
    <v>       0.50008793       0.00007886       0.33375760 </v>
    <v>       0.66685600       0.83347083       0.33381019 </v>
   </varray>
  </structure>
  <varray name="forces" >
   <v>      -0.00037362       0.00004843      -0.23564628 </v>
   <v>       0.04570157       0.02435995       0.04935732 </v>
   <v>      -0.04517484       0.02738075       0.04914350 </v>
   <v>      -0.00018792      -0.05117003       0.04979236 </v>
   <v>      -0.00541423       0.09224504       0.01808311 </v>
   <v>      -0.07576032      -0.05158736       0.01955214 </v>
   <v>       0.08090643      -0.04202733       0.01978372 </v>
   <v>       0.04937391       0.02125186       0.00701344 </v>
   <v>      -0.08824757       0.08498941       0.00043757 </v>
   <v>       0.00205536      -0.00007836       0.00919184 </v>
   <v>       0.11588118       0.03068189       0.00046514 </v>
   <v>      -0.04084818       0.03570757       0.00701801 </v>
   <v>      -0.00178473       0.00008760      -0.00151883 </v>
   <v>      -0.00496471      -0.05174755       0.00693984 </v>
   <v>      -0.03116231      -0.12014188       0.00038710 </v>
  </varray>
  <varray name="stress" >
   <v>     -13.28065264       0.01302660       0.00482510 </v>
   <v>       0.01302659     -13.25592873       0.01528183 </v>
   <v>       0.00482508       0.01528183      -1.96827814 </v>
  </varray>
  <energy>
   <i name="e_fr_energy">   -127.10947753 </i>
   <i name="e_wo_entrp">   -127.10793459 </i>
   <i name="e_0_energy">   -127.10870606 </i>
  </energy>
  <time name="totalsc">   52.91   53.27</time>
 </calculation>
 <calculation>
  <scstep>
   <time name="dav">    5.50    5.54</time>
   <time name="total">    5.79    5.84</time>
   <energy>
    <i name="alphaZ">     58.11503038 </i>
    <i name="ewald">   4762.83000608 </i>
    <i name="hartreedc">  -6519.02304763 </i>
    <i name="XCdc">    180.37625139 </i>
    <i name="pawpsdc">   5708.53906078 </i>
    <i name="pawaedc">  -5712.93762633 </i>
    <i name="eentropy">     -0.00154663 </i>
    <i name="bandstr">   -506.67187453 </i>
    <i name="atom">   1903.26342058 </i>
    <i name="e_fr_energy">   -125.51032591 </i>
    <i name="e_wo_entrp">   -125.50877928 </i>
    <i name="e_0_energy">   -125.50955260 </i>
   </energy>
  </scstep>
  <scstep>
   <time name="dav">   10.93   10.99</time>
   <time name="total">   11.21   11.30</time>
   <energy>
    <i name="e_fr_energy">   -125.51038474 </i>
    <i name="e_wo_entrp">   -125.50883897 </i>
    <i name="e_0_energy">   -125.50961185 </i>
   </energy>
  </scstep>
  <scstep>
   <time name="dav">    8.45    8.50</time>
   <time name="total">    8.74    8.80</time>
   <energy>
    <i name="e_fr_energy">   -125.51035758 </i>
    <i name="e_wo_entrp">   -125.50881225 </i>
    <i name="e_0_energy">   -125.50958491 </i>
   </energy>
  </scstep>
  <scstep>
   <time name="dav">   11.12   11.18</time>
   <time name="total">   11.40   11.48</time>
   <energy>
    <i name="e_fr_energy">   -125.51035816 </i>
    <i name="e_wo_entrp">   -125.50881269 </i>
    <i name="e_0_energy">   -125.50958543 </i>
   </energy>
  </scstep>
  <scstep>
   <time name="dav">    8.91    8.96</time>
   <time name="total">    9.20    9.26</time>
   <energy>
    <i name="e_fr_energy">   -125.51035971 </i>
    <i name="e_wo_entrp">   -125.50881424 </i>
    <i name="e_0_energy">   -125.50958697 </i>
   </energy>
  </scstep>
  <scstep>
   <time name="dav">    9.94   10.00</time>
   <time name="total">    9.97   10.03</time>
   <energy>
    <i name="alphaZ">     58.11503038 </i>
    <i name="ewald">   4762.83000608 </i>
    <i name="hartreedc">  -6519.00543686 </i>
    <i name="XCdc">    180.37599898 </i>
    <i name="pawpsdc">   5715.34359999 </i>
    <i name="pawaedc">  -5719.74456023 </i>
    <i name="eentropy">     -0.00154541 </i>
    <i name="bandstr">   -506.68687338 </i>
    <i name="atom">   1903.26342058 </i>
    <i name="e_fr_energy">   -125.51035988 </i>
    <i name="e_wo_entrp">   -125.50881447 </i>
    <i name="e_0_energy">   -125.50958717 </i>
   </energy>
  </scstep>
  <structure>
   <crystal>
    <varray name="basis" >
     <v>       4.20368731       2.42700000       0.00000000 </v>
     <v>      -4.20368731       2.42700000       0.00000000 </v>
     <v>       0.00000000       0.00000000      15.00000000 </v>
    </varray>
    <i name="volume">    306.07047304 </i>
    <varray name="rec_basis" >
     <v>       0.11894320       0.20601566       0.00000000 </v>
     <v>      -0.11894320       0.20601566       0.00000000 </v>
     <v>       0.00000000       0.00000000       0.06666667 </v>
    </varray>
   </crystal>
   <varray name="positions" >
    <v>       0.00420002       0.00284568       0.11743663 </v>
    <v>       0.35751374       0.00323500       0.09843793 </v>
    <v>       0.00361074       0.35560255       0.09843698 </v>
    <v>       0.65135988       0.64941149       0.09843580 </v>
    <v>       0.32671577       0.32464256       0.10020647 </v>
    <v>       0.68228575       0.00341784       0.10020018 </v>
    <v>       0.00358207       0.68026361       0.10019672 </v>
    <v>      -0.00028309       0.50004736       0.33378861 </v>
    <v>       0.16641157       0.33245372       0.33387669 </v>
    <v>       0.00000088       0.00001147       0.33355192 </v>
    <v>       0.16606974       0.83360508       0.33388333 </v>
    <v>       0.49993144       0.49965549       0.33379519 </v>
    <v>       0.66667398       0.33332798       0.33360321 </v>
    <v>       0.50032432       0.00028595       0.33378733 </v>
    <v>       0.66756386       0.83396154       0.33387566 </v>
   </varray>
  </structure>
  <varray name="forces" >
   <v>       0.00375484      -0.00418154      -0.21216355 </v>
   <v>       0.02588585      -0.00282151      -0.00357834 </v>
   <v>      -0.00743705       0.03026433      -0.00345171 </v>
   <v>      -0.01921520      -0.02060567      -0.00389731 </v>
   <v>      -0.03363513       0.11005491       0.06379204 </v>
   <v>      -0.07572991      -0.08329318       0.06423898 </v>
   <v>       0.10609059      -0.03013239       0.06401528 </v>
   <v>       0.14803881       0.06409234       0.00787510 </v>
   <v>      -0.27608356       0.27635039      -0.01497620 </v>
   <v>       0.00610910      -0.00083574       0.04021832 </v>
   <v>       0.37180255       0.09120721      -0.01573368 </v>
   <v>      -0.12337440       0.10698956       0.00706433 </v>
   <v>      -0.00545205       0.00028517       0.01368013 </v>
   <v>      -0.01459189      -0.15619678       0.00786406 </v>
   <v>      -0.10616256      -0.38117709      -0.01494745 </v>
  </varray>
  <varray name="stress" >
   <v>     -12.72876554       0.01765006       0.01048734 </v>
   <v>       0.01765009     -12.68755133       0.00783997 </v>
   <v>       0.01048734       0.00784000      -1.86529322 </v>
  </varray>
  <energy>
   <i name="e_fr_energy">   -127.11210541 </i>
   <i name="e_wo_entrp">   -127.11056000 </i>
   <i name="e_0_energy">   -127.11133270 </i>
  </energy>
  <time name="totalsc">   61.03   61.45</time>
 </calculation>
 <calculation>
  <scstep>
   <time name="dav">    5.57    5.61</time>
   <time name="total">    5.86    5.92</time>
   <energy>
    <i name="alphaZ">     58.11503038 </i>
    <i name="ewald">   4762.82713689 </i>
    <i name="hartreedc">  -6518.95449614 </i>
    <i name="XCdc">    180.37895872 </i>
    <i name="pawpsdc">   5715.41107292 </i>
    <i name="pawaedc">  -5719.81203310 </i>
    <i name="eentropy">     -0.00154574 </i>
    <i name="bandstr">   -506.73924886 </i>
    <i name="atom">   1903.26342058 </i>
    <i name="e_fr_energy">   -125.51170435 </i>
    <i name="e_wo_entrp">   -125.51015861 </i>
    <i name="e_0_energy">   -125.51093148 </i>
   </energy>
  </scstep>
  <scstep>
   <time name="dav">   10.89   10.95</time>
   <time name="total">   11.18   11.25</time>
   <energy>
    <i name="e_fr_energy">   -125.51170726 </i>
    <i name="e_wo_entrp">   -125.51016157 </i>
    <i name="e_0_energy">   -125.51093442 </i>
   </energy>
  </scstep>
  <scstep>
   <time name="dav">    7.99    8.04</time>
   <time name="total">    8.28    8.34</time>
   <energy>
    <i name="e_fr_energy">   -125.51170670 </i>
    <i name="e_wo_entrp">   -125.51016100 </i>
    <i name="e_0_energy">   -125.51093385 </i>
   </energy>
  </scstep>
  <scstep>
   <time name="dav">   10.30   10.36</time>
   <time name="total">   10.33   10.40</time>
   <energy>
    <i name="alphaZ">     58.11503038 </i>
    <i name="ewald">   4762.82713689 </i>
    <i name="hartreedc">  -6518.94052839 </i>
    <i name="XCdc">    180.37866145 </i>
    <i name="pawpsdc">   5716.31452133 </i>
    <i name="pawaedc">  -5720.71579196 </i>
    <i name="eentropy">     -0.00154566 </i>
    <i name="bandstr">   -506.75261157 </i>
    <i name="atom">   1903.26342058 </i>
    <i name="e_fr_energy">   -125.51170696 </i>
    <i name="e_wo_entrp">   -125.51016130 </i>
    <i name="e_0_energy">   -125.51093413 </i>
   </energy>
  </scstep>
  <structure>
   <crystal>
    <varray name="basis" >
     <v>       4.20368731       2.42700000       0.00000000 </v>
     <v>      -4.20368731       2.42700000       0.00000000 </v>
     <v>       0.00000000       0.00000000      15.00000000 </v>
    </varray>
    <i name="volume">    306.07047304 </i>
    <varray name="rec_basis" >
     <v>       0.11894320       0.20601566       0.00000000 </v>
     <v>      -0.11894320       0.20601566       0.00000000 </v>
     <v>       0.00000000       0.00000000       0.06666667 </v>
    </varray>
   </crystal>
   <varray name="positions" >
    <v>       0.00420232       0.00285569       0.11718596 </v>
    <v>       0.35762278       0.00325483       0.09851051 </v>
    <v>       0.00357570       0.35568788       0.09850923 </v>
    <v>       0.65127914       0.64929669       0.09850912 </v>
    <v>       0.32678305       0.32467600       0.10020662 </v>
    <v>       0.68224864       0.00344573       0.10020221 </v>
    <v>       0.00355355       0.68020016       0.10019921 </v>
    <v>      -0.00024972       0.50004360       0.33379449 </v>
    <v>       0.16642991       0.33253517       0.33388492 </v>
    <v>       0.00000221       0.00001093       0.33354503 </v>
    <v>       0.16613010       0.83358562       0.33389195 </v>
    <v>       0.49993889       0.49969393       0.33380144 </v>
    <v>       0.66667344       0.33332881       0.33359507 </v>
    <v>       0.50028937       0.00025377       0.33379310 </v>
    <v>       0.66748128       0.83389854       0.33388381 </v>
   </varray>
  </structure>
  <varray name="forces" >
   <v>       0.00421157      -0.00458132      -0.20875351 </v>
   <v>       0.02016049      -0.00788085      -0.00997671 </v>
   <v>       0.00042906       0.02854231      -0.00979010 </v>
   <v>      -0.02150870      -0.01326924      -0.01040788 </v>
   <v>      -0.03665421       0.10202420       0.06923959 </v>
   <v>      -0.06734461      -0.08164017       0.06950204 </v>
   <v>       0.10042601      -0.02391099       0.06921949 </v>
   <v>       0.13253481       0.05724102       0.00741151 </v>
   <v>      -0.25089975       0.25418805      -0.01636660 </v>
   <v>       0.00528086      -0.00098549       0.04342282 </v>
   <v>       0.34071331       0.08181004      -0.01721398 </v>
   <v>      -0.11069957       0.09598221       0.00650280 </v>
   <v>      -0.00475649       0.00041945       0.01612322 </v>
   <v>      -0.01327722      -0.14010078       0.00741017 </v>
   <v>      -0.09861556      -0.34783845      -0.01632286 </v>
  </varray>
  <varray name="stress" >
   <v>     -12.66524552       0.01463710       0.01101733 </v>
   <v>       0.01463714     -12.63170218       0.00721892 </v>
   <v>       0.01101732       0.00721891      -1.84830706 </v>
  </varray>
  <energy>
   <i name="e_fr_energy">   -127.11342629 </i>
   <i name="e_wo_entrp">   -127.11188062 </i>
   <i name="e_0_energy">   -127.11265346 </i>
  </energy>
  <time name="totalsc">   40.38   40.67</time>
 </calculation>
 <calculation>
  <scstep>
   <time name="dav">    5.53    5.57</time>
   <time name="total">    5.82    5.87</time>
   <energy>
    <i name="alphaZ">     58.11503038 </i>
    <i name="ewald">   4762.79597043 </i>
    <i name="hartreedc">  -6518.78391118 </i>
    <i name="XCdc">    180.38738988 </i>
    <i name="pawpsdc">   5716.32937121 </i>
    <i name="pawaedc">  -5720.73064883 </i>
    <i name="eentropy">     -0.00154662 </i>
    <i name="bandstr">   -506.89022577 </i>
    <i name="atom">   1903.26342058 </i>
    <i name="e_fr_energy">   -125.51514991 </i>
    <i name="e_wo_entrp">   -125.51360329 </i>
    <i name="e_0_energy">   -125.51437660 </i>
   </energy>
  </scstep>
  <scstep>
   <time name="dav">    9.98   10.04</time>
   <time name="total">   10.27   10.34</time>
   <energy>
    <i name="e_fr_energy">   -125.51517374 </i>
    <i name="e_wo_entrp">   -125.51362731 </i>
    <i name="e_0_energy">   -125.51440053 </i>
   </energy>
  </scstep>
  <scstep>
   <time name="dav">    8.33    8.39</time>
   <time name="total">    8.62    8.69</time>
   <energy>
    <i name="e_fr_energy">   -125.51516762 </i>
    <i name="e_wo_entrp">   -125.51362114 </i>
    <i name="e_0_energy">   -125.51439438 </i>
   </energy>
  </scstep>
  <scstep>
   <time name="dav">   11.18   11.23</time>
   <time name="total">   11.47   11.54</time>
   <energy>
    <i name="e_fr_energy">   -125.51516776 </i>
    <i name="e_wo_entrp">   -125.51362136 </i>
    <i name="e_0_energy">   -125.51439456 </i>
   </energy>
  </scstep>
  <scstep>
   <time name="dav">    8.00    8.05</time>
   <time name="total">    8.03    8.09</time>
   <energy>
    <i name="alphaZ">     58.11503038 </i>
    <i name="ewald">   4762.79597043 </i>
    <i name="hartreedc">  -6518.77191472 </i>
    <i name="XCdc">    180.38678236 </i>
    <i name="pawpsdc">   5718.97069835 </i>
    <i name="pawaedc">  -5723.37291373 </i>
    <i name="eentropy">     -0.00154637 </i>
    <i name="bandstr">   -506.90069543 </i>
    <i name="atom">   1903.26342058 </i>
    <i name="e_fr_energy">   -125.51516815 </i>
    <i name="e_wo_entrp">   -125.51362178 </i>
    <i name="e_0_energy">   -125.51439496 </i>
   </energy>
  </scstep>
  <structure>
   <crystal>
    <varray name="basis" >
     <v>       4.20368731       2.42700000       0.00000000 </v>
     <v>      -4.20368731       2.42700000       0.00000000 </v>
     <v>       0.00000000       0.00000000      15.00000000 </v>
    </varray>
    <i name="volume">    306.07047304 </i>
    <varray name="rec_basis" >
     <v>       0.11894320       0.20601566       0.00000000 </v>
     <v>      -0.11894320       0.20601566       0.00000000 </v>
     <v>       0.00000000       0.00000000       0.06666667 </v>
    </varray>
   </crystal>
   <varray name="positions" >
    <v>       0.00420923       0.00288569       0.11643395 </v>
    <v>       0.35794992       0.00331431       0.09872826 </v>
    <v>       0.00347061       0.35594386       0.09872595 </v>
    <v>       0.65103693       0.64895227       0.09872906 </v>
    <v>       0.32698491       0.32477634       0.10020707 </v>
    <v>       0.68213730       0.00352937       0.10020828 </v>
    <v>       0.00346800       0.68000982       0.10020666 </v>
    <v>      -0.00014963       0.50003233       0.33381212 </v>
    <v>       0.16648492       0.33277952       0.33390961 </v>
    <v>       0.00000618       0.00000930       0.33352433 </v>
    <v>       0.16631120       0.83352721       0.33391781 </v>
    <v>       0.49996122       0.49980924       0.33382019 </v>
    <v>       0.66667184       0.33333131       0.33357066 </v>
    <v>       0.50018451       0.00015723       0.33381043 </v>
    <v>       0.66723353       0.83370953       0.33390827 </v>
   </varray>
  </structure>
  <varray name="forces" >
   <v>       0.00560401      -0.00581237      -0.19955506 </v>
   <v>       0.00188752      -0.02334935      -0.02893424 </v>
   <v>       0.02482157       0.02261451      -0.02857505 </v>
   <v>      -0.02812031       0.00977982      -0.02969751 </v>
   <v>      -0.04524800       0.07715612       0.08565939 </v>
   <v>      -0.04168193      -0.07588122       0.08539114 </v>
   <v>       0.08245376      -0.00519816       0.08494824 </v>
   <v>       0.08635277       0.03700132       0.00601449 </v>
   <v>      -0.17590051       0.18847518      -0.02057442 </v>
   <v>       0.00283416      -0.00145051       0.05317115 </v>
   <v>       0.24837156       0.05370907      -0.02169086 </v>
   <v>      -0.07309022       0.06310342       0.00481200 </v>
   <v>      -0.00268861       0.00083167       0.02347557 </v>
   <v>      -0.00922750      -0.09228091       0.00604056 </v>
   <v>      -0.07636829      -0.24869859      -0.02048540 </v>
  </varray>
  <varray name="stress" >
   <v>     -12.47230050       0.00591998       0.01256837 </v>
   <v>       0.00591997     -12.46085200       0.00543727 </v>
   <v>       0.01256831       0.00543728      -1.82502466 </v>
  </varray>
  <energy>
   <i name="e_fr_energy">   -127.11680651 </i>
   <i name="e_wo_entrp">   -127.11526014 </i>
   <i name="e_0_energy">   -127.11603332 </i>
  </energy>
  <time name="totalsc">   48.94   49.27</time>
 </calculation>
 <calculation>
  <scstep>
   <time name="dav">    5.49    5.52</time>
   <time name="total">    5.77    5.82</time>
   <energy>
    <i name="alphaZ">     58.11503038 </i>
    <i name="ewald">   4762.63144973 </i>
    <i name="hartreedc">  -6518.38304486 </i>
    <i name="XCdc">    180.40257417 </i>
    <i name="pawpsdc">   5718.93878001 </i>
    <i name="pawaedc">  -5723.34099513 </i>
    <i name="eentropy">     -0.00154814 </i>
    <i name="bandstr">   -507.14513831 </i>
    <i name="atom">   1903.26342058 </i>
    <i name="e_fr_energy">   -125.51947157 </i>
    <i name="e_wo_entrp">   -125.51792343 </i>
    <i name="e_0_energy">   -125.51869750 </i>
   </energy>
  </scstep>
  <scstep>
   <time name="dav">   10.64   10.70</time>
   <time name="total">   10.93   11.00</time>
   <energy>
    <i name="e_fr_energy">   -125.51956766 </i>
    <i name="e_wo_entrp">   -125.51801992 </i>
    <i name="e_0_energy">   -125.51879379 </i>
   </energy>
  </scstep>
  <scstep>
   <time name="dav">    8.73    8.78</time>
   <time name="total">    9.02    9.08</time>
   <energy>
    <i name="e_fr_energy">   -125.51954013 </i>
    <i name="e_wo_entrp">   -125.51799228 </i>
    <i name="e_0_energy">   -125.51876621 </i>
   </energy>
  </scstep>
  <scstep>
   <time name="dav">   10.77   10.83</time>
   <time name="total">   11.06   11.13</time>
   <energy>
    <i name="e_fr_energy">   -125.51954053 </i>
    <i name="e_wo_entrp">   -125.51799280 </i>
    <i name="e_0_energy">   -125.51876666 </i>
   </energy>
  </scstep>
  <scstep>
   <time name="dav">    9.67    9.73</time>
   <time name="total">    9.96   10.03</time>
   <energy>
    <i name="e_fr_energy">   -125.51954158 </i>
    <i name="e_wo_entrp">   -125.51799393 </i>
    <i name="e_0_energy">   -125.51876775 </i>
   </energy>
  </scstep>
  <scstep>
   <time name="dav">    9.76    9.81</time>
   <time name="total">    9.80    9.85</time>
   <energy>
    <i name="alphaZ">     58.11503038 </i>
    <i name="ewald">   4762.63144973 </i>
    <i name="hartreedc">  -6518.36708100 </i>
    <i name="XCdc">    180.40149219 </i>
    <i name="pawpsdc">   5723.69103493 </i>
    <i name="pawaedc">  -5728.09499419 </i>
    <i name="eentropy">     -0.00154766 </i>
    <i name="bandstr">   -507.15834653 </i>
    <i name="atom">   1903.26342058 </i>
    <i name="e_fr_energy">   -125.51954157 </i>
    <i name="e_wo_entrp">   -125.51799391 </i>
    <i name="e_0_energy">   -125.51876774 </i>
   </energy>
  </scstep>
  <structure>
   <crystal>
    <varray name="basis" >
     <v>       4.20368731       2.42700000       0.00000000 </v>
     <v>      -4.20368731       2.42700000       0.00000000 </v>
     <v>       0.00000000       0.00000000      15.00000000 </v>
    </varray>
    <i name="volume">    306.07047304 </i>
    <varray name="rec_basis" >
     <v>       0.11894320       0.20601566       0.00000000 </v>
     <v>      -0.11894320       0.20601566       0.00000000 </v>
     <v>       0.00000000       0.00000000       0.06666667 </v>
    </varray>
   </crystal>
   <varray name="positions" >
    <v>       0.00422304       0.00294570       0.11492993 </v>
    <v>       0.35860418       0.00343328       0.09916376 </v>
    <v>       0.00326041       0.35645581       0.09915941 </v>
    <v>       0.65055252       0.64826343       0.09916894 </v>
    <v>       0.32738863       0.32497701       0.10020797 </v>
    <v>       0.68191463       0.00369667       0.10022043 </v>
    <v>       0.00329688       0.67962913       0.10022158 </v>
    <v>       0.00005057       0.50000978       0.33384738 </v>
    <v>       0.16659495       0.33326822       0.33395899 </v>
    <v>       0.00001412       0.00000605       0.33348295 </v>
    <v>       0.16667339       0.83341039       0.33396951 </v>
    <v>       0.50000590       0.50003987       0.33385770 </v>
    <v>       0.66666863       0.33333631       0.33352185 </v>
    <v>       0.49997478      -0.00003584       0.33384509 </v>
    <v>       0.66673804       0.83333151       0.33395718 </v>
   </varray>
  </structure>
  <varray name="forces" >
   <v>       0.00840555      -0.00832388      -0.18588018 </v>
   <v>      -0.03848398      -0.05576954      -0.06516022 </v>
   <v>       0.07655833       0.00805755      -0.06445607 </v>
   <v>      -0.04058288       0.05986048      -0.06657443 </v>
   <v>      -0.06148087       0.02425827       0.11844013 </v>
   <v>       0.01207946      -0.06200657       0.11712963 </v>
   <v>       0.04323343       0.03326262       0.11638117 </v>
   <v>      -0.00660183      -0.00354191       0.00321860 </v>
   <v>      -0.02570271       0.05784624      -0.02903836 </v>
   <v>      -0.00197190      -0.00234004       0.07251949 </v>
   <v>       0.06423670      -0.00298024      -0.03068560 </v>
   <v>       0.00253062      -0.00314888       0.00144057 </v>
   <v>       0.00141723       0.00164542       0.03822838 </v>
   <v>      -0.00092800       0.00384754       0.00330067 </v>
   <v>      -0.03270916      -0.05066705      -0.02886379 </v>
  </varray>
  <varray name="stress" >
   <v>     -12.09291596      -0.01115828       0.01512224 </v>
   <v>      -0.01115825     -12.12630417       0.00261067 </v>
   <v>       0.01512224       0.00261065      -1.79042763 </v>
  </varray>
  <energy>
   <i name="e_fr_energy">   -127.12100737 </i>
   <i name="e_wo_entrp">   -127.11945970 </i>
   <i name="e_0_energy">   -127.12023353 </i>
  </energy>
  <time name="totalsc">   61.25   61.66</time>
 </calculation>
 <calculation>
  <scstep>
   <time name="dav">    5.51    5.55</time>
   <time name="total">    5.80    5.85</time>
   <energy>
    <i name="alphaZ">     58.11503038 </i>
    <i name="ewald">   4761.88895651 </i>
    <i name="hartreedc">  -6517.27909200 </i>
    <i name="XCdc">    180.42619890 </i>
    <i name="pawpsdc">   5723.67241562 </i>
    <i name="pawaedc">  -5728.07637445 </i>
    <i name="eentropy">     -0.00155060 </i>
    <i name="bandstr">   -507.52708343 </i>
    <i name="atom">   1903.26342058 </i>
    <i name="e_fr_energy">   -125.51807850 </i>
    <i name="e_wo_entrp">   -125.51652790 </i>
    <i name="e_0_energy">   -125.51730320 </i>
   </energy>
  </scstep>
  <scstep>
   <time name="dav">   11.28   11.34</time>
   <time name="total">   11.57   11.64</time>
   <energy>
    <i name="e_fr_energy">   -125.51849628 </i>
    <i name="e_wo_entrp">   -125.51694655 </i>
    <i name="e_0_energy">   -125.51772141 </i>
   </energy>
  </scstep>
  <scstep>
   <time name="dav">    9.27    9.32</time>
   <time name="total">    9.56    9.62</time>
   <energy>
    <i name="e_fr_energy">   -125.51838133 </i>
    <i name="e_wo_entrp">   -125.51683136 </i>
    <i name="e_0_energy">   -125.51760635 </i>
   </energy>
  </scstep>
  <scstep>
   <time name="dav">   10.76   10.81</time>
   <time name="total">   11.05   11.12</time>
   <energy>
    <i name="e_fr_energy">   -125.51838635 </i>
    <i name="e_wo_entrp">   -125.51683651 </i>
    <i name="e_0_energy">   -125.51761143 </i>
   </energy>
  </scstep>
  <scstep>
   <time name="dav">   10.00   10.06</time>
   <time name="total">   10.29   10.35</time>
   <energy>
    <i name="e_fr_energy">   -125.51839116 </i>
    <i name="e_wo_entrp">   -125.51684147 </i>
    <i name="e_0_energy">   -125.51761632 </i>
   </energy>
  </scstep>
  <scstep>
   <time name="dav">    9.84    9.90</time>
   <time name="total">    9.87    9.94</time>
   <energy>
    <i name="alphaZ">     58.11503038 </i>
    <i name="ewald">   4761.88895651 </i>
    <i name="hartreedc">  -6517.26317027 </i>
    <i name="XCdc">    180.42472049 </i>
    <i name="pawpsdc">   5731.26353368 </i>
    <i name="pawaedc">  -5735.67046097 </i>
    <i name="eentropy">     -0.00154971 </i>
    <i name="bandstr">   -507.53887135 </i>
    <i name="atom">   1903.26342058 </i>
    <i name="e_fr_energy">   -125.51839065 </i>
    <i name="e_wo_entrp">   -125.51684094 </i>
    <i name="e_0_energy">   -125.51761580 </i>
   </energy>
  </scstep>
  <structure>
   <crystal>
    <varray name="basis" >
     <v>       4.20368731       2.42700000       0.00000000 </v>
     <v>      -4.20368731       2.42700000       0.00000000 </v>
     <v>       0.00000000       0.00000000      15.00000000 </v>
    </varray>
    <i name="volume">    306.07047304 </i>
    <varray name="rec_basis" >
     <v>       0.11894320       0.20601566       0.00000000 </v>
     <v>      -0.11894320       0.20601566       0.00000000 </v>
     <v>       0.00000000       0.00000000       0.06666667 </v>
    </varray>
   </crystal>
   <varray name="positions" >
    <v>       0.00425066       0.00306572       0.11192189 </v>
    <v>       0.35991271       0.00367122       0.10003477 </v>
    <v>       0.00284003       0.35747972       0.10002632 </v>
    <v>       0.64958368       0.64688576       0.10004870 </v>
    <v>       0.32819606       0.32537836       0.10020976 </v>
    <v>       0.68146929       0.00403127       0.10024472 </v>
    <v>       0.00295466       0.67886775       0.10025140 </v>
    <v>       0.00045096       0.49996469       0.33391791 </v>
    <v>       0.16681499       0.33424562       0.33405776 </v>
    <v>       0.00003001      -0.00000046       0.33340018 </v>
    <v>       0.16739777       0.83317676       0.33407292 </v>
    <v>       0.50009525       0.50050113       0.33393271 </v>
    <v>       0.66666220       0.33334631       0.33342421 </v>
    <v>       0.49955533      -0.00042198       0.33391441 </v>
    <v>       0.66574705       0.83257548       0.33405501 </v>
   </varray>
  </structure>
  <varray name="forces" >
   <v>       0.01413296      -0.01354523      -0.17269838 </v>
   <v>      -0.13639000      -0.12914458      -0.13177229 </v>
   <v>       0.19519746      -0.03212186      -0.13038788 </v>
   <v>      -0.06383974       0.17886322      -0.13440466 </v>
   <v>      -0.09235991      -0.09741736       0.18280413 </v>
   <v>       0.13321389      -0.02500269       0.17944325 </v>
   <v>      -0.05021692       0.11776258       0.17819005 </v>
   <v>      -0.19680336      -0.08433587      -0.00237539 </v>
[...]
       <r>     2.7380     0.8041    30.9023 </r>
       <r>     2.8446     0.5656    30.9626 </r>
       <r>     2.9512     1.1824    31.0886 </r>
       <r>     3.0578     1.5141    31.2500 </r>
       <r>     3.1644     1.2593    31.3843 </r>
       <r>     3.2710     1.2591    31.5185 </r>
       <r>     3.3776     1.3139    31.6586 </r>
       <r>     3.4843     1.4964    31.8181 </r>
       <r>     3.5909     2.2041    32.0530 </r>
       <r>     3.6975     2.9625    32.3689 </r>
       <r>     3.8041     3.1946    32.7094 </r>
       <r>     3.9107     2.9327    33.0220 </r>
       <r>     4.0173     3.0071    33.3426 </r>
       <r>     4.1239     3.2139    33.6852 </r>
       <r>     4.2305     3.2139    34.0278 </r>
       <r>     4.3371     3.0552    34.3535 </r>
       <r>     4.4437     2.8567    34.6580 </r>
       <r>     4.5503     2.7540    34.9516 </r>
       <r>     4.6569     2.7876    35.2488 </r>
       <r>     4.7635     3.5110    35.6231 </r>
       <r>     4.8701     3.0490    35.9481 </r>
       <r>     4.9767     2.7327    36.2394 </r>
       <r>     5.0833     3.2921    36.5904 </r>
       <r>     5.1899     3.4868    36.9621 </r>
       <r>     5.2965     3.1250    37.2952 </r>
       <r>     5.4031     2.6633    37.5791 </r>
       <r>     5.5097     2.5723    37.8533 </r>
       <r>     5.6163     3.3613    38.2117 </r>
       <r>     5.7229     3.1277    38.5451 </r>
       <r>     5.8295     3.0179    38.8668 </r>
       <r>     5.9361     2.4792    39.1311 </r>
       <r>     6.0427     2.5100    39.3987 </r>
       <r>     6.1493     1.9648    39.6081 </r>
       <r>     6.2559     2.5481    39.8798 </r>
       <r>     6.3625     2.9177    40.1908 </r>
       <r>     6.4691     3.0015    40.5108 </r>
       <r>     6.5757     3.2339    40.8555 </r>
       <r>     6.6823     3.6851    41.2484 </r>
       <r>     6.7889     4.0856    41.6839 </r>
       <r>     6.8955     3.1783    42.0227 </r>
       <r>     7.0022     3.3108    42.3757 </r>
       <r>     7.1088     3.4640    42.7449 </r>
       <r>     7.2154     2.7379    43.0368 </r>
       <r>     7.3220     2.4679    43.2999 </r>
       <r>     7.4286     2.5968    43.5767 </r>
       <r>     7.5352     3.1270    43.9101 </r>
       <r>     7.6418     3.2411    44.2556 </r>
       <r>     7.7484     4.1686    44.7000 </r>
       <r>     7.8550     4.1154    45.1387 </r>
       <r>     7.9616     3.1116    45.4704 </r>
       <r>     8.0682     4.2281    45.9211 </r>
       <r>     8.1748     4.4758    46.3982 </r>
       <r>     8.2814     4.4903    46.8769 </r>
       <r>     8.3880     4.7713    47.3856 </r>
       <r>     8.4946     2.9715    47.7023 </r>
       <r>     8.6012     1.4356    47.8554 </r>
       <r>     8.7078     0.5903    47.9183 </r>
       <r>     8.8144     0.3950    47.9604 </r>
       <r>     8.9210     0.3010    47.9925 </r>
       <r>     9.0276     0.0678    47.9997 </r>
       <r>     9.1342     0.0027    48.0000 </r>
       <r>     9.2408     0.0000    48.0000 </r>
       <r>     9.3474     0.0000    48.0000 </r>
       <r>     9.4540     0.0000    48.0000 </r>
       <r>     9.5606     0.0000    48.0000 </r>
       <r>     9.6672     0.0000    48.0000 </r>
       <r>     9.7738     0.0000    48.0000 </r>
       <r>     9.8804     0.0000    48.0000 </r>
       <r>     9.9870     0.0000    48.0000 </r>
       <r>    10.0936     0.0000    48.0000 </r>
       <r>    10.2002     0.0000    48.0000 </r>
       <r>    10.3068     0.0000    48.0000 </r>
      </set>
      <set comment="spin 2">
       <r>   -21.6741     0.0000     0.0000 </r>
       <r>   -21.5675     0.0000     0.0000 </r>
       <r>   -21.4609     0.0000     0.0000 </r>
       <r>   -21.3543     0.0000     0.0000 </r>
       <r>   -21.2477     0.0000     0.0000 </r>
       <r>   -21.1411     0.0000     0.0000 </r>
       <r>   -21.0345     0.0000     0.0000 </r>
       <r>   -20.9279     0.0000     0.0000 </r>
       <r>   -20.8212     0.0000     0.0000 </r>
       <r>   -20.7146     0.0000     0.0000 </r>
       <r>   -20.6080     0.0000     0.0000 </r>
       <r>   -20.5014     0.0000     0.0000 </r>
       <r>   -20.3948     0.0009     0.0001 </r>
       <r>   -20.2882     0.0348     0.0038 </r>
       <r>   -20.1816     0.2531     0.0308 </r>
       <r>   -20.0750     0.5322     0.0875 </r>
       <r>   -19.9684     0.5800     0.1494 </r>
       <r>   -19.8618     0.6327     0.2168 </r>
       <r>   -19.7552     0.5335     0.2737 </r>
       <r>   -19.6486     0.6903     0.3473 </r>
       <r>   -19.5420     0.5396     0.4048 </r>
       <r>   -19.4354     0.5480     0.4632 </r>
       <r>   -19.3288     0.7697     0.5453 </r>
       <r>   -19.2222     0.4865     0.5971 </r>
       <r>   -19.1156     0.5015     0.6506 </r>
       <r>   -19.0090     0.7847     0.7342 </r>
       <r>   -18.9024     0.6647     0.8051 </r>
       <r>   -18.7958     0.3773     0.8453 </r>
       <r>   -18.6892     0.5693     0.9060 </r>
       <r>   -18.5826     0.8845     1.0003 </r>
       <r>   -18.4760     0.5813     1.0623 </r>
       <r>   -18.3694     0.4845     1.1139 </r>
       <r>   -18.2628     0.3862     1.1551 </r>
       <r>   -18.1562     0.8589     1.2466 </r>
       <r>   -18.0496     0.8390     1.3361 </r>
       <r>   -17.9430     0.4465     1.3837 </r>
       <r>   -17.8364     0.4265     1.4291 </r>
       <r>   -17.7298     0.5288     1.4855 </r>
       <r>   -17.6232     0.8068     1.5715 </r>
       <r>   -17.5166     0.8612     1.6633 </r>
       <r>   -17.4100     0.7115     1.7392 </r>
       <r>   -17.3033     0.8386     1.8286 </r>
       <r>   -17.1967     1.3296     1.9703 </r>
       <r>   -17.0901     1.8830     2.1710 </r>
       <r>   -16.9835     2.0050     2.3848 </r>
       <r>   -16.8769     2.2051     2.6199 </r>
       <r>   -16.7703     2.6784     2.9054 </r>
       <r>   -16.6637     2.0432     3.1232 </r>
       <r>   -16.5571     0.6349     3.1909 </r>
       <r>   -16.4505     0.9620     3.2934 </r>
       <r>   -16.3439     1.0207     3.4022 </r>
       <r>   -16.2373     0.5804     3.4641 </r>
       <r>   -16.1307     0.5279     3.5204 </r>
       <r>   -16.0241     0.5012     3.5738 </r>
       <r>   -15.9175     0.4783     3.6248 </r>
       <r>   -15.8109     0.4916     3.6772 </r>
       <r>   -15.7043     1.0630     3.7905 </r>
       <r>   -15.5977     1.0036     3.8975 </r>
       <r>   -15.4911     0.4943     3.9502 </r>
       <r>   -15.3845     0.4945     4.0029 </r>
       <r>   -15.2779     0.4391     4.0497 </r>
       <r>   -15.1713     0.6043     4.1141 </r>
       <r>   -15.0647     0.8107     4.2006 </r>
       <r>   -14.9581     1.4156     4.3515 </r>
       <r>   -14.8515     2.1722     4.5830 </r>
       <r>   -14.7449     2.3507     4.8336 </r>
       <r>   -14.6383     2.2062     5.0688 </r>
       <r>   -14.5317     1.3562     5.2134 </r>
       <r>   -14.4251     1.0192     5.3220 </r>
       <r>   -14.3185     1.9861     5.5338 </r>
       <r>   -14.2119     1.9208     5.7385 </r>
       <r>   -14.1053     1.3889     5.8866 </r>
       <r>   -13.9987     1.3750     6.0332 </r>
       <r>   -13.8920     1.6377     6.2078 </r>
       <r>   -13.7854     2.5577     6.4804 </r>
       <r>   -13.6788     2.5361     6.7508 </r>
       <r>   -13.5722     2.2854     6.9944 </r>
       <r>   -13.4656     1.3514     7.1385 </r>
       <r>   -13.3590     0.8449     7.2285 </r>
       <r>   -13.2524     0.4230     7.2736 </r>
       <r>   -13.1458     0.5378     7.3310 </r>
       <r>   -13.0392     0.8987     7.4268 </r>
       <r>   -12.9326     0.8640     7.5189 </r>
       <r>   -12.8260     0.6223     7.5852 </r>
       <r>   -12.7194     0.8965     7.6808 </r>
       <r>   -12.6128     0.8928     7.7759 </r>
       <r>   -12.5062     0.7083     7.8515 </r>
       <r>   -12.3996     0.6821     7.9242 </r>
       <r>   -12.2930     0.4192     7.9689 </r>
       <r>   -12.1864     0.8614     8.0607 </r>
       <r>   -12.0798     1.0056     8.1679 </r>
       <r>   -11.9732     0.4015     8.2107 </r>
       <r>   -11.8666     0.4377     8.2573 </r>
       <r>   -11.7600     0.4411     8.3044 </r>
       <r>   -11.6534     0.8082     8.3905 </r>
       <r>   -11.5468     0.8378     8.4798 </r>
       <r>   -11.4402     0.4521     8.5280 </r>
       <r>   -11.3336     0.2536     8.5551 </r>
       <r>   -11.2270     0.6208     8.6212 </r>
       <r>   -11.1204     0.7433     8.7005 </r>
       <r>   -11.0138     0.6465     8.7694 </r>
       <r>   -10.9072     0.9971     8.8757 </r>
       <r>   -10.8006     0.7531     8.9560 </r>
       <r>   -10.6940     0.3202     8.9901 </r>
       <r>   -10.5874     1.0472     9.1017 </r>
       <r>   -10.4808     1.6607     9.2788 </r>
       <r>   -10.3741     1.9621     9.4880 </r>
       <r>   -10.2675     1.8530     9.6855 </r>
       <r>   -10.1609     1.8761     9.8855 </r>
       <r>   -10.0543     2.3581    10.1369 </r>
       <r>    -9.9477     2.3803    10.3906 </r>
       <r>    -9.8411     1.2138    10.5200 </r>
       <r>    -9.7345     0.8857    10.6144 </r>
       <r>    -9.6279     1.8457    10.8112 </r>
       <r>    -9.5213     1.9986    11.0243 </r>
       <r>    -9.4147     2.1009    11.2482 </r>
       <r>    -9.3081     1.9562    11.4568 </r>
       <r>    -9.2015     1.7930    11.6479 </r>
       <r>    -9.0949     1.3459    11.7914 </r>
       <r>    -8.9883     1.0392    11.9022 </r>
       <r>    -8.8817     2.0084    12.1163 </r>
       <r>    -8.7751     2.5869    12.3920 </r>
       <r>    -8.6685     1.9148    12.5961 </r>
       <r>    -8.5619     0.9724    12.6998 </r>
       <r>    -8.4553     1.4627    12.8557 </r>
       <r>    -8.3487     2.6670    13.1400 </r>
       <r>    -8.2421     2.2740    13.3824 </r>
       <r>    -8.1355     1.5162    13.5441 </r>
       <r>    -8.0289     2.1418    13.7724 </r>
       <r>    -7.9223     3.2456    14.1184 </r>
       <r>    -7.8157     3.1613    14.4554 </r>
       <r>    -7.7091     2.4598    14.7176 </r>
       <r>    -7.6025     1.2706    14.8531 </r>
       <r>    -7.4959     1.1219    14.9727 </r>
       <r>    -7.3893     2.4106    15.2296 </r>
       <r>    -7.2827     2.3047    15.4753 </r>
       <r>    -7.1761     1.4975    15.6350 </r>
       <r>    -7.0695     1.3944    15.7836 </r>
       <r>    -6.9629     2.1754    16.0155 </r>
       <r>    -6.8562     2.3590    16.2670 </r>
       <r>    -6.7496     2.6244    16.5468 </r>
       <r>    -6.6430     2.6015    16.8241 </r>
       <r>    -6.5364     2.2822    17.0674 </r>
       <r>    -6.4298     2.6151    17.3462 </r>
       <r>    -6.3232     2.2086    17.5816 </r>
       <r>    -6.2166     2.4590    17.8437 </r>
       <r>    -6.1100     3.3608    18.2020 </r>
       <r>    -6.0034     2.8512    18.5060 </r>
       <r>    -5.8968     4.0673    18.9396 </r>
       <r>    -5.7902     3.6930    19.3332 </r>
       <r>    -5.6836     2.0478    19.5515 </r>
       <r>    -5.5770     2.3379    19.8008 </r>
       <r>    -5.4704     4.2702    20.2560 </r>
       <r>    -5.3638     4.6755    20.7544 </r>
       <r>    -5.2572     2.9109    21.0647 </r>
       <r>    -5.1506     2.0824    21.2867 </r>
       <r>    -5.0440     1.3655    21.4323 </r>
       <r>    -4.9374     1.4408    21.5859 </r>
       <r>    -4.8308     1.8104    21.7789 </r>
       <r>    -4.7242     1.3337    21.9210 </r>
       <r>    -4.6176     0.9904    22.0266 </r>
       <r>    -4.5110     1.2307    22.1578 </r>
       <r>    -4.4044     2.2394    22.3965 </r>
       <r>    -4.2978     2.7991    22.6949 </r>
       <r>    -4.1912     2.3817    22.9488 </r>
       <r>    -4.0846     2.4117    23.2059 </r>
       <r>    -3.9780     2.8445    23.5092 </r>
       <r>    -3.8714     2.9835    23.8272 </r>
       <r>    -3.7648     2.3213    24.0747 </r>
       <r>    -3.6582     2.3446    24.3246 </r>
       <r>    -3.5516     2.6209    24.6040 </r>
       <r>    -3.4449     2.0070    24.8180 </r>
       <r>    -3.3383     1.7644    25.0061 </r>
       <r>    -3.2317     1.6567    25.1827 </r>
       <r>    -3.1251     2.2002    25.4172 </r>
       <r>    -3.0185     2.3446    25.6672 </r>
       <r>    -2.9119     1.5139    25.8285 </r>
       <r>    -2.8053     1.5087    25.9894 </r>
       <r>    -2.6987     0.9584    26.0916 </r>
       <r>    -2.5921     1.3043    26.2306 </r>
       <r>    -2.4855     2.5328    26.5006 </r>
       <r>    -2.3789     1.8100    26.6935 </r>
       <r>    -2.2723     0.5126    26.7482 </r>
       <r>    -2.1657     0.6092    26.8131 </r>
       <r>    -2.0591     1.3233    26.9542 </r>
       <r>    -1.9525     1.3272    27.0957 </r>
       <r>    -1.8459     1.4420    27.2494 </r>
       <r>    -1.7393     1.4853    27.4077 </r>
       <r>    -1.6327     1.2075    27.5365 </r>
       <r>    -1.5261     0.9082    27.6333 </r>
       <r>    -1.4195     0.5828    27.6954 </r>
       <r>    -1.3129     0.5051    27.7493 </r>
       <r>    -1.2063     0.5123    27.8039 </r>
       <r>    -1.0997     0.5235    27.8597 </r>
       <r>    -0.9931     0.7511    27.9397 </r>
       <r>    -0.8865     0.3521    27.9773 </r>
       <r>    -0.7799     0.0747    27.9852 </r>
       <r>    -0.6733     0.0080    27.9861 </r>
       <r>    -0.5667     0.0004    27.9861 </r>
       <r>    -0.4601     0.0126    27.9875 </r>
       <r>    -0.3535     0.1017    27.9983 </r>
       <r>    -0.2469     0.1230    28.0114 </r>
       <r>    -0.1403     0.0226    28.0138 </r>
       <r>    -0.0337     0.0006    28.0139 </r>
       <r>     0.0730     0.0001    28.0139 </r>
       <r>     0.1796     0.0087    28.0148 </r>
       <r>     0.2862     0.1628    28.0322 </r>
       <r>     0.3928     0.4293    28.0779 </r>
       <r>     0.4994     0.1858    28.0978 </r>
       <r>     0.6060     0.1666    28.1155 </r>
       <r>     0.7126     0.4299    28.1613 </r>
       <r>     0.8192     0.6741    28.2332 </r>
       <r>     0.9258     1.3272    28.3747 </r>
       <r>     1.0324     3.3436    28.7311 </r>
       <r>     1.1390     2.5219    29.0000 </r>
       <r>     1.2456     0.6102    29.0650 </r>
       <r>     1.3522     0.5574    29.1244 </r>
       <r>     1.4588     1.1125    29.2430 </r>
       <r>     1.5654     1.6554    29.4195 </r>
       <r>     1.6720     2.5076    29.6868 </r>
       <r>     1.7786     1.9059    29.8900 </r>
       <r>     1.8852     0.7921    29.9744 </r>
       <r>     1.9918     0.8956    30.0699 </r>
       <r>     2.0984     1.2707    30.2054 </r>
       <r>     2.2050     0.9314    30.3047 </r>
       <r>     2.3116     1.0684    30.4185 </r>
       <r>     2.4182     0.9354    30.5183 </r>
       <r>     2.5248     1.4122    30.6688 </r>
       <r>     2.6314     1.3860    30.8166 </r>
       <r>     2.7380     0.8041    30.9023 </r>
       <r>     2.8446     0.5656    30.9626 </r>
       <r>     2.9512     1.1824    31.0886 </r>
       <r>     3.0578     1.5141    31.2500 </r>
       <r>     3.1644     1.2593    31.3843 </r>
       <r>     3.2710     1.2591    31.5185 </r>
       <r>     3.3776     1.3139    31.6586 </r>
       <r>     3.4843     1.4964    31.8181 </r>
       <r>     3.5909     2.2041    32.0530 </r>
       <r>     3.6975     2.9625    32.3689 </r>
       <r>     3.8041     3.1946    32.7094 </r>
       <r>     3.9107     2.9327    33.0220 </r>
       <r>     4.0173     3.0071    33.3426 </r>
       <r>     4.1239     3.2139    33.6852 </r>
       <r>     4.2305     3.2139    34.0278 </r>
       <r>     4.3371     3.0552    34.3535 </r>
       <r>     4.4437     2.8567    34.6581 </r>
       <r>     4.5503     2.7540    34.9516 </r>
       <r>     4.6569     2.7876    35.2488 </r>
       <r>     4.7635     3.5110    35.6231 </r>
       <r>     4.8701     3.0490    35.9481 </r>
       <r>     4.9767     2.7327    36.2394 </r>
       <r>     5.0833     3.2921    36.5904 </r>
       <r>     5.1899     3.4868    36.9621 </r>
       <r>     5.2965     3.1250    37.2952 </r>
       <r>     5.4031     2.6634    37.5791 </r>
       <r>     5.5097     2.5724    37.8534 </r>
       <r>     5.6163     3.3614    38.2117 </r>
       <r>     5.7229     3.1277    38.5451 </r>
       <r>     5.8295     3.0178    38.8668 </r>
       <r>     5.9361     2.4792    39.1311 </r>
       <r>     6.0427     2.5099    39.3987 </r>
       <r>     6.1493     1.9648    39.6081 </r>
       <r>     6.2559     2.5482    39.8798 </r>
       <r>     6.3625     2.9176    40.1908 </r>
       <r>     6.4691     3.0015    40.5108 </r>
       <r>     6.5757     3.2339    40.8555 </r>
       <r>     6.6823     3.6852    41.2484 </r>
       <r>     6.7889     4.0856    41.6839 </r>
       <r>     6.8955     3.1783    42.0227 </r>
       <r>     7.0022     3.3108    42.3757 </r>
       <r>     7.1088     3.4641    42.7449 </r>
       <r>     7.2154     2.7379    43.0368 </r>
       <r>     7.3220     2.4679    43.2999 </r>
       <r>     7.4286     2.5969    43.5767 </r>
       <r>     7.5352     3.1269    43.9101 </r>
       <r>     7.6418     3.2412    44.2556 </r>
       <r>     7.7484     4.1688    44.7000 </r>
       <r>     7.8550     4.1155    45.1387 </r>
       <r>     7.9616     3.1115    45.4704 </r>
       <r>     8.0682     4.2280    45.9211 </r>
       <r>     8.1748     4.4756    46.3983 </r>
       <r>     8.2814     4.4901    46.8769 </r>
       <r>     8.3880     4.7713    47.3856 </r>
       <r>     8.4946     2.9715    47.7023 </r>
       <r>     8.6012     1.4356    47.8554 </r>
       <r>     8.7078     0.5903    47.9183 </r>
       <r>     8.8144     0.3950    47.9604 </r>
       <r>     8.9210     0.3010    47.9925 </r>
       <r>     9.0276     0.0678    47.9997 </r>
       <r>     9.1342     0.0027    48.0000 </r>
       <r>     9.2408     0.0000    48.0000 </r>
       <r>     9.3474     0.0000    48.0000 </r>
       <r>     9.4540     0.0000    48.0000 </r>
       <r>     9.5606     0.0000    48.0000 </r>
       <r>     9.6672     0.0000    48.0000 </r>
       <r>     9.7738     0.0000    48.0000 </r>
       <r>     9.8804     0.0000    48.0000 </r>
       <r>     9.9870     0.0000    48.0000 </r>
       <r>    10.0936     0.0000    48.0000 </r>
       <r>    10.2002     0.0000    48.0000 </r>
       <r>    10.3068     0.0000    48.0000 </r>
      </set>
     </set>
    </array>
   </total>
  </dos>
 </calculation>
 <structure name="finalpos" >
  <crystal>
   <varray name="basis" >
    <v>       4.20368731       2.42700000       0.00000000 </v>
    <v>      -4.20368731       2.42700000       0.00000000 </v>
    <v>       0.00000000       0.00000000      15.00000000 </v>
   </varray>
   <i name="volume">    306.07047304 </i>
   <varray name="rec_basis" >
    <v>       0.11894320       0.20601566       0.00000000 </v>
    <v>      -0.11894320       0.20601566       0.00000000 </v>
    <v>       0.00000000       0.00000000       0.06666667 </v>
   </varray>
  </crystal>
  <varray name="positions" >
   <v>       0.00403742       0.00268716       0.10099941 </v>
   <v>       0.35921998       0.00297069       0.10041789 </v>
   <v>       0.00374551       0.35757946       0.10041801 </v>
   <v>       0.64913753       0.64749991       0.10041616 </v>
   <v>       0.32768968       0.32605120       0.10041088 </v>
   <v>       0.68066336       0.00296902       0.10041375 </v>
   <v>       0.00374325       0.67902225       0.10041163 </v>
   <v>       0.00015000       0.50007176       0.33500592 </v>
   <v>       0.16679975       0.33346209       0.33504076 </v>
   <v>       0.00013240       0.00008101       0.33497191 </v>
   <v>       0.16684437       0.83341458       0.33504445 </v>
   <v>       0.50014402       0.50011141       0.33500844 </v>
   <v>       0.66679881       0.33341591       0.33490851 </v>
   <v>       0.50010292       0.00006340       0.33500418 </v>
   <v>       0.66675167       0.83336748       0.33504077 </v>
  </varray>
 </structure>
</modeling>
