Lattice                                 
           1
     3.983717    2.300000    0.000000
    -3.983717    2.300000    0.000000
     0.000000    0.000000   15.000000
   B    C 
     4    11
Direct configuration=     1
   0.00415361  0.00267210  0.12034134
   0.35695335  0.00285503  0.09748893
   0.00423858  0.35550699  0.09749256
   0.65142295  0.65006557  0.09747688
   0.32808646  0.32671938  0.10030508
   0.68027775  0.00278085  0.10027562
   0.00416530  0.67883808  0.10026559
   0.99999933  0.49999967  0.32000000
   0.16666633  0.33333267  0.32000000
   0.99999933  0.99999967  0.32000000
   0.16666633  0.83333267  0.32000000
   0.49999933  0.49999967  0.32000000
   0.66666633  0.33333267  0.32000000
   0.49999933  0.99999967  0.32000000
   0.66666633  0.83333267  0.32000000
Lattice                                 
           1
     4.654828    2.687465    0.000045
    -4.654786    2.687393    0.000070
    -0.000046    0.000374   15.031385
   B    C 
     4    11
Direct configuration=     2
   0.00419772  0.00281230  0.12138456
   0.35795054  0.00315410  0.09706361
   0.00377601  0.35613749  0.09706676
   0.65078693  0.64899865  0.09705231
   0.33093343  0.32899317  0.10008512
   0.67794467  0.00332786  0.10005793
   0.00369086  0.67600235  0.10004626
   0.00023181  0.49997634  0.32010251
   0.16699616  0.33431029  0.32020656
   0.99999972  0.99999110  0.31994994
   0.16730206  0.83300003  0.32021080
   0.50004919  0.50027597  0.32010692
   0.66666648  0.33334057  0.32000541
   0.49974869  0.99976723  0.32010173
   0.66568640  0.83267990  0.32020559
Lattice                                 
           1
     4.208159    2.429581    0.000015
    -4.208145    2.429557    0.000023
    -0.000015    0.000125   15.010496
   B    C 
     4    11
Direct configuration=     3
   0.00417264  0.00273249  0.12069168
   0.35738251  0.00298372  0.09734610
   0.00403947  0.35577833  0.09734957
   0.65114920  0.64960637  0.09733429
   0.32931175  0.32769796  0.10023122
   0.67927360  0.00301626  0.10020251
   0.00396111  0.67761762  0.10019192
   0.00009939  0.49998963  0.32003443
   0.16680829  0.33375343  0.32006937
   0.99999950  0.99999598  0.31998319
   0.16693996  0.83318952  0.32007079
   0.50002079  0.50011859  0.32003591
   0.66666640  0.33333607  0.32000182
   0.49989146  0.99989963  0.32003416
   0.66624459  0.83305174  0.32006904
Lattice                                 
           1
     4.189121    2.418590    0.000014
    -4.189108    2.418567    0.000021
    -0.000014    0.000115   15.009606
   B    C 
     4    11
Direct configuration=     4
   0.00417145  0.00272873  0.12066210
   0.35735573  0.00297569  0.09735816
   0.00405189  0.35576139  0.09736164
   0.65116628  0.64963502  0.09734633
   0.32923530  0.32763690  0.10023746
   0.67933625  0.00300157  0.10020868
   0.00397385  0.67769378  0.10019814
   0.00009315  0.49999026  0.32003152
   0.16679943  0.33372717  0.32006351
   0.99999949  0.99999621  0.31998461
   0.16692288  0.83319845  0.32006482
   0.50001946  0.50011117  0.32003287
   0.66666639  0.33333586  0.32000166
   0.49989819  0.99990588  0.32003128
   0.66627091  0.83306927  0.32006321
Lattice                                 
           1
     4.187230    2.417498    0.000014
    -4.187217    2.417476    0.000021
    -0.000014    0.000113   15.009517
   B    C 
     4    11
Direct configuration=     5
   0.00417134  0.00272835  0.12065916
   0.35735306  0.00297489  0.09735936
   0.00405313  0.35575970  0.09736284
   0.65116799  0.64963788  0.09734753
   0.32922767  0.32763081  0.10023808
   0.67934250  0.00300011  0.10020930
   0.00397512  0.67770138  0.10019876
   0.00009253  0.49999032  0.32003123
   0.16679855  0.33372455  0.32006293
   0.99999948  0.99999623  0.31998475
   0.16692118  0.83319934  0.32006422
   0.50001932  0.50011043  0.32003257
   0.66666639  0.33333583  0.32000165
   0.49989886  0.99990650  0.32003099
   0.66627353  0.83307102  0.32006263
Lattice                                 
           1
     4.190802    2.419601    0.000065
    -4.190779    2.419561    0.000042
     0.000040    0.000340   15.023735
   B    C 
     4    11
Direct configuration=     6
   0.00417102  0.00274889  0.11951245
   0.35537679  0.00320656  0.09753285
   0.00376735  0.35353698  0.09753469
   0.65341514  0.65160322  0.09752280
   0.32418742  0.32225813  0.10012425
   0.68470106  0.00330293  0.10010229
   0.00365656  0.68276610  0.10009240
  -0.00012861  0.49996376  0.32014194
   0.16653804  0.33303741  0.32025295
   0.00000260  0.00000568  0.32000411
   0.16651439  0.83347301  0.32025724
   0.50002781  0.49990550  0.32014625
   0.66667294  0.33333335  0.32002959
   0.50008832  0.00012601  0.32014077
   0.66696984  0.83349982  0.32025142
Lattice                                 
           1
     4.188962    2.418518    0.000039
    -4.188945    2.418487    0.000031
     0.000012    0.000224   15.016414
   B    C 
     4    11
Direct configuration=     7
   0.00417115  0.00273830  0.12010237
   0.35639357  0.00308736  0.09744359
   0.00391438  0.35468055  0.09744628
   0.65225901  0.65059208  0.09743264
   0.32678056  0.32502230  0.10018279
   0.68194413  0.00314715  0.10015735
   0.00382047  0.68016034  0.10014712
  -0.00001484  0.49997743  0.32008499
   0.16667207  0.33339094  0.32015520
   0.00000100  0.00000082  0.31999415
   0.16672369  0.83333221  0.32015794
   0.50002345  0.50001094  0.32008777
   0.66666957  0.33333463  0.32001522
   0.49999085  0.00001308  0.32008430
   0.66661160  0.83327921  0.32015430
Lattice                                 
           1
     4.188833    2.418469    0.000093
    -4.188803    2.418418    0.000055
     0.000066    0.000465   15.030944
   B    C 
     4    11
Direct configuration=     8
   0.00417463  0.00276074  0.11931488
   0.35678632  0.00322204  0.09756643
   0.00374346  0.35492998  0.09756781
   0.65202274  0.65018624  0.09755695
   0.32680310  0.32486791  0.10000864
   0.68208563  0.00330529  0.09998913
   0.00365045  0.68014443  0.09997944
   0.00017263  0.50000615  0.32020361
   0.16680543  0.33381272  0.32030800
   0.00000571 -0.00000175  0.32006685
   0.16699843  0.83319174  0.32031269
   0.50001578  0.50017735  0.32020837
   0.66666588  0.33333754  0.32005500
   0.49984336 -0.00016462  0.32020219
   0.66618712  0.83299157  0.32030602
Lattice                                 
           1
     4.188690    2.418415    0.000152
    -4.188647    2.418341    0.000082
     0.000125    0.000731   15.046990
   B    C 
     4    11
Direct configuration=     9
   0.00417852  0.00278556  0.11844607
   0.35722006  0.00337076  0.09770196
   0.00355469  0.35520542  0.09770188
   0.65176181  0.64973804  0.09769410
   0.32682800  0.32469741  0.09981649
   0.68224190  0.00347994  0.09980353
   0.00346269  0.68012687  0.09979444
   0.00037965  0.50003786  0.32033449
   0.16695269  0.33427851  0.32047658
   0.00001090 -0.00000458  0.32014706
   0.16730185  0.83303660  0.32048341
   0.50000731  0.50036112  0.32034142
   0.66666180  0.33334075  0.32009889
   0.49968046 -0.00036086  0.32033226
   0.66571834  0.83267391  0.32047341
Lattice                                 
           1
     4.188403    2.418307    0.000271
    -4.188335    2.418188    0.000135
     0.000243    0.001264   15.079082
   B    C 
     4    11
Direct configuration=    10
   0.00418642  0.00283530  0.11671029
   0.35808754  0.00366821  0.09797272
   0.00317713  0.35575633  0.09796976
   0.65123992  0.64884160  0.09796811
   0.32687783  0.32435642  0.09943262
   0.68255448  0.00382926  0.09943273
   0.00308718  0.68009178  0.09942484
   0.00079370  0.50010128  0.32059597
   0.16724719  0.33521010  0.32081338
   0.00002128 -0.00001026  0.32030731
   0.16790867  0.83272629  0.32082448
   0.49999034  0.50072867  0.32060725
   0.66665363  0.33334717  0.32018658
   0.49935465 -0.00075337  0.32059212
   0.66478071  0.83203856  0.32080784
Lattice                                 
           1
     4.188597    2.418380    0.000191
    -4.188546    2.418292    0.000099
     0.000163    0.000904   15.057404
   B    C 
     4    11
Direct configuration=    11
   0.00418094  0.00280159  0.11788030
   0.35750156  0.00346730  0.09779022
   0.00343221  0.35538419  0.09778920
   0.65159250  0.64944719  0.09778341
   0.32684413  0.32458675  0.09969137
   0.68234329  0.00359326  0.09968267
   0.00334081  0.68011546  0.09967397
   0.00051402  0.50005846  0.32041972
   0.16704828  0.33458080  0.32058636
   0.00001429 -0.00000641  0.32019930
   0.16749877  0.83293594  0.32059458
   0.50000183  0.50048039  0.32042807
   0.66665915  0.33334284  0.32012747
   0.49957477 -0.00048820  0.32041696
   0.66541413  0.83246778  0.32058241
Lattice                                 
           1
     4.188663    2.418414    0.000204
    -4.188616    2.418332    0.000105
     0.000178    0.000963   15.060923
   B    C 
     4    11
Direct configuration=    12
   0.00418163  0.00280610  0.11768431
   0.35758835  0.00348897  0.09781272
   0.00340358  0.35544777  0.09781142
   0.65153096  0.64935728  0.09780622
   0.32688165  0.32459870  0.09965560
   0.68232884  0.00361528  0.09964824
   0.00331618  0.68007878  0.09963966
   0.00048149  0.50005695  0.32044981
   0.16703456  0.33452163  0.32062145
   0.00001366 -0.00000570  0.32022264
   0.16745811  0.83295347  0.32063002
   0.50000049  0.50044894  0.32045850
   0.66666128  0.33334317  0.32014123
   0.49960352 -0.00045703  0.32044688
   0.66547636  0.83251305  0.32061729
Lattice                                 
           1
     4.188862    2.418515    0.000245
    -4.188826    2.418452    0.000121
     0.000222    0.001141   15.071480
   B    C 
     4    11
Direct configuration=    13
   0.00418373  0.00281963  0.11709650
   0.35784873  0.00355400  0.09788020
   0.00331771  0.35563851  0.09787807
   0.65134636  0.64908753  0.09787466
   0.32699418  0.32463455  0.09954830
   0.68228549  0.00368133  0.09954496
   0.00324227  0.67996873  0.09953676
   0.00038388  0.50005241  0.32054006
   0.16699342  0.33434410  0.32072669
   0.00001178 -0.00000358  0.32029266
   0.16733615  0.83300604  0.32073631
   0.49999646  0.50035456  0.32054978
   0.66666768  0.33334417  0.32018252
   0.49968976 -0.00036352  0.32053664
   0.66566306  0.83264887  0.32072189
Lattice                                 
           1
     4.189260    2.418717    0.000327
    -4.189246    2.418692    0.000154
     0.000310    0.001498   15.092595
   B    C 
     4    11
Direct configuration=    14
   0.00418796  0.00284673  0.11592171
   0.35836946  0.00368404  0.09801507
   0.00314597  0.35601997  0.09801127
   0.65097716  0.64854805  0.09801144
   0.32721926  0.32470625  0.09933384
   0.68219878  0.00381344  0.09933855
   0.00309447  0.67974867  0.09933110
   0.00018867  0.50004332  0.32072044
   0.16691113  0.33398906  0.32093701
   0.00000802  0.00000067  0.32043260
   0.16709222  0.83311116  0.32094875
   0.49998841  0.50016582  0.32073221
   0.66668047  0.33334617  0.32026504
   0.49986224 -0.00017652  0.32071601
   0.66603643  0.83292049  0.32093095
Lattice                                 
           1
     4.190057    2.419122    0.000491
    -4.190085    2.419172    0.000220
     0.000486    0.002210   15.134824
   B    C 
     4    11
Direct configuration=    15
   0.00419663  0.00290107  0.11357540
   0.35941079  0.00394409  0.09828444
   0.00280250  0.35678280  0.09827732
   0.65023882  0.64746918  0.09828461
   0.32766941  0.32484968  0.09890554
   0.68202543  0.00407765  0.09892632
   0.00279894  0.67930860  0.09892037
  -0.00020174  0.50002513  0.32108068
   0.16674653  0.33327902  0.32135708
   0.00000048  0.00000914  0.32071208
   0.16660437  0.83332136  0.32137304
   0.49997227  0.49978835  0.32109655
   0.66670602  0.33335016  0.32042984
   0.50020714  0.00019742  0.32107427
   0.66678306  0.83346366  0.32134848
Lattice                                 
           1
     4.190412    2.419350    0.000537
    -4.190417    2.419359    0.000231
     0.000548    0.002391   15.144546
   B    C 
     4    11
Direct configuration=    16
   0.00419519  0.00289940  0.11290256
   0.35937152  0.00389496  0.09826967
   0.00285153  0.35679420  0.09826237
   0.65022091  0.64750107  0.09827026
   0.32772248  0.32499784  0.09888163
   0.68187698  0.00398247  0.09890500
   0.00288988  0.67925373  0.09889937
  -0.00010105  0.50000738  0.32118169
   0.16665676  0.33325516  0.32144163
   0.00001951  0.00001581  0.32084306
   0.16663885  0.83338717  0.32145708
   0.50001758  0.49990149  0.32119680
   0.66669111  0.33334652  0.32052691
   0.50012266  0.00012444  0.32117493
   0.66678674  0.83340570  0.32143305
Lattice                                 
           1
     4.191478    2.420034    0.000676
    -4.191411    2.419919    0.000267
     0.000734    0.002932   15.173712
   B    C 
     4    11
Direct configuration=    17
   0.00419096  0.00289444  0.11088532
   0.35925373  0.00374760  0.09822541
   0.00299859  0.35682840  0.09821754
   0.65016722  0.64759672  0.09822721
   0.32788167  0.32544230  0.09880994
   0.68143164  0.00369693  0.09884109
   0.00316267  0.67908912  0.09883640
   0.00020098  0.49995411  0.32148454
   0.16638748  0.33318359  0.32169513
   0.00007659  0.00003578  0.32123578
   0.16674228  0.83358456  0.32170904
   0.50015349  0.50024086  0.32149735
   0.66664637  0.33333558  0.32081794
   0.49986923 -0.00009448  0.32147674
   0.66679775  0.83323183  0.32168658
Lattice                                 
           1
     4.193610    2.421403    0.000954
    -4.193400    2.421040    0.000337
     0.001106    0.004014   15.232045
   B    C 
     4    11
Direct configuration=    18
   0.00418303  0.00288487  0.10685861
   0.35901821  0.00345295  0.09813706
   0.00329264  0.35689678  0.09812806
   0.65005986  0.64778800  0.09814129
   0.32819999  0.32633101  0.09866685
   0.68054123  0.00312602  0.09871353
   0.00370813  0.67875997  0.09871069
   0.00080481  0.49984752  0.32208905
   0.16584900  0.33304045  0.32220115
   0.00019061  0.00007564  0.32201969
   0.16694902  0.83397922  0.32221200
   0.50042516  0.50091939  0.32209728
   0.66655684  0.33331365  0.32139889
   0.49936243 -0.00053226  0.32207919
   0.66681971  0.83288412  0.32219266
Lattice                                 
           1
     4.193410    2.421143    0.001010
    -4.193301    2.420954    0.000350
     0.001185    0.004228   15.242331
   B    C 
     4    11
Direct configuration=    19
   0.00417699  0.00287268  0.10601442
   0.35895216  0.00336737  0.09809982
   0.00338767  0.35691955  0.09809097
   0.65003117  0.64785666  0.09810430
   0.32817764  0.32643181  0.09865149
   0.68043720  0.00300830  0.09869997
   0.00382286  0.67877159  0.09869744
   0.00060328  0.49992232  0.32220712
   0.16613830  0.33317147  0.32230851
   0.00012816  0.00005451  0.32218617
   0.16691030  0.83378574  0.32231824
   0.50027049  0.50066608  0.32221405
   0.66662020  0.33333497  0.32155581
   0.49952833 -0.00041532  0.32219732
   0.66677591  0.83301959  0.32230037
Lattice                                 
           1
     4.193222    2.420897    0.001064
    -4.193208    2.420872    0.000362
     0.001260    0.004431   15.252067
   B    C 
     4    11
Direct configuration=    20
   0.00417132  0.00286117  0.10521582
   0.35888963  0.00328636  0.09806460
   0.00347764  0.35694110  0.09805588
   0.65000400  0.64792166  0.09806931
   0.32815649  0.32652724  0.09863696
   0.68033871  0.00289686  0.09868715
   0.00393149  0.67878258  0.09868490
   0.00041249  0.49999312  0.32231881
   0.16641218  0.33329552  0.32241007
   0.00006903  0.00003450  0.32234366
   0.16687364  0.83360259  0.32241875
   0.50012406  0.50042627  0.32232452
   0.66668016  0.33335515  0.32170426
   0.49968537 -0.00030463  0.32230906
   0.66673445  0.83314783  0.32240226
Lattice                                 
           1
     4.192845    2.420404    0.001171
    -4.193020    2.420708    0.000385
     0.001411    0.004837   15.271540
   B    C 
     4    11
Direct configuration=    21
   0.00416005  0.00283820  0.10361964
   0.35876456  0.00312434  0.09799419
   0.00365760  0.35698422  0.09798575
   0.64994968  0.64805167  0.09799938
   0.32811419  0.32671809  0.09860792
   0.68014172  0.00267397  0.09866151
   0.00414876  0.67880458  0.09865983
   0.00003087  0.50013471  0.32254204
   0.16695998  0.33354362  0.32261307
  -0.00004926 -0.00000553  0.32265843
   0.16680031  0.83323625  0.32261964
   0.49983116  0.49994663  0.32254530
   0.66680009  0.33339551  0.32200098
   0.49999948 -0.00008322  0.32253240
   0.66665150  0.83340430  0.32260591
Lattice                                 
           1
     4.192895    2.420470    0.001157
    -4.193046    2.420730    0.000382
     0.001391    0.004783   15.268931
   B    C 
     4    11
Direct configuration=    22
   0.00416153  0.00284127  0.10383323
   0.35878132  0.00314605  0.09800361
   0.00363348  0.35697844  0.09799513
   0.64995696  0.64803425  0.09800874
   0.32811986  0.32669252  0.09861181
   0.68016812  0.00270384  0.09866494
   0.00411964  0.67880163  0.09866319
   0.00008201  0.50011574  0.32251217
   0.16688658  0.33351037  0.32258591
  -0.00003340 -0.00000017  0.32261631
   0.16681014  0.83328534  0.32259276
   0.49987042  0.50001091  0.32251576
   0.66678402  0.33339010  0.32196127
   0.49995739 -0.00011289  0.32250251
   0.66666262  0.83336993  0.32257866
Lattice                                 
           1
     4.192323    2.420289    0.001168
    -4.192384    2.420395    0.000382
     0.001410    0.004818   15.267509
   B    C 
     4    11
Direct configuration=    23
   0.00415544  0.00282816  0.10365025
   0.35883349  0.00312373  0.09799294
   0.00366616  0.35705159  0.09798508
   0.64988110  0.64799412  0.09799768
   0.32803133  0.32657680  0.09860061
   0.68028090  0.00273892  0.09865177
   0.00408826  0.67888191  0.09865001
   0.00004834  0.50006792  0.32252796
   0.16681162  0.33348071  0.32262026
   0.00002002  0.00001889  0.32264075
   0.16676954  0.83329507  0.32262651
   0.49998139  0.50000683  0.32253088
   0.66673470  0.33337268  0.32203904
   0.50003397 -0.00000883  0.32251872
   0.66662441  0.83333883  0.32261352
Lattice                                 
           1
     4.191660    2.420079    0.001180
    -4.191618    2.420007    0.000383
     0.001432    0.004859   15.265862
   B    C 
     4    11
Direct configuration=    24
   0.00414839  0.00281297  0.10343833
   0.35889391  0.00309788  0.09798058
   0.00370402  0.35713632  0.09797344
   0.64979323  0.64794764  0.09798487
   0.32792880  0.32644277  0.09858764
   0.68041152  0.00277954  0.09863652
   0.00405192  0.67897490  0.09863475
   0.00000934  0.50001254  0.32254625
   0.16672480  0.33344636  0.32266004
   0.00008190  0.00004095  0.32266905
   0.16672253  0.83330634  0.32266560
   0.50010992  0.50000211  0.32254840
   0.66667756  0.33335250  0.32212912
   0.50012266  0.00011170  0.32253749
   0.66658016  0.83330280  0.32265390
Lattice                                 
           1
     4.190334    2.419659    0.001205
    -4.190087    2.419231    0.000384
     0.001477    0.004940   15.262569
   B    C 
     4    11
Direct configuration=    25
   0.00413428  0.00278261  0.10301444
   0.35901478  0.00304615  0.09795587
   0.00377974  0.35730580  0.09795016
   0.64961749  0.64785467  0.09795926
   0.32772371  0.32617468  0.09856171
   0.68067280  0.00286080  0.09860602
   0.00397922  0.67916091  0.09860422
  -0.00006866  0.49990176  0.32258283
   0.16655114  0.33337764  0.32273962
   0.00020566  0.00008509  0.32272566
   0.16662848  0.83332889  0.32274379
   0.50036700  0.49999265  0.32258344
   0.66656328  0.33331215  0.32230929
   0.50030007  0.00035279  0.32257504
   0.66649166  0.83323074  0.32273467
Lattice                                 
           1
     4.190923    2.419845    0.001194
    -4.190768    2.419576    0.000383
     0.001457    0.004904   15.264033
   B    C 
     4    11
Direct configuration=    26
   0.00414055  0.00279611  0.10320298
   0.35896102  0.00306916  0.09796686
   0.00374606  0.35723041  0.09796052
   0.64969566  0.64789602  0.09797065
   0.32781493  0.32629393  0.09857324
   0.68055658  0.00282466  0.09861958
   0.00401156  0.67907816  0.09861780
  -0.00003397  0.49995104  0.32256656
   0.16662838  0.33340820  0.32270423
   0.00015061  0.00006546  0.32270048
   0.16667031  0.83331886  0.32270902
   0.50025265  0.49999687  0.32256785
   0.66661412  0.33333010  0.32222915
   0.50022117  0.00024555  0.32255834
   0.66653103  0.83326279  0.32269874
Lattice                                 
           1
     4.190892    2.419739    0.001206
    -4.190820    2.419614    0.000381
     0.001481    0.004936   15.257113
   B    C 
     4    11
Direct configuration=    27
   0.00413137  0.00277190  0.10296052
   0.35910739  0.00304819  0.09795433
   0.00378826  0.35740014  0.09794936
   0.64951510  0.64776548  0.09795715
   0.32775280  0.32614285  0.09854020
   0.68070843  0.00293006  0.09858117
   0.00391666  0.67912569  0.09857922
  -0.00001154  0.49994195  0.32259244
   0.16665050  0.33341143  0.32275449
   0.00008834  0.00004565  0.32272699
   0.16675446  0.83337686  0.32275839
   0.50018329  0.50004977  0.32259298
   0.66667685  0.33335228  0.32236305
   0.50008643  0.00014261  0.32258550
   0.66661234  0.83326248  0.32275020
Lattice                                 
           1
     4.190818    2.419487    0.001232
    -4.190943    2.419702    0.000377
     0.001539    0.005013   15.240797
   B    C 
     4    11
Direct configuration=    28
   0.00410972  0.00271482  0.10238860
   0.35945252  0.00299876  0.09792477
   0.00388775  0.35780031  0.09792303
   0.64908938  0.64745769  0.09792531
   0.32760630  0.32578664  0.09846227
   0.68106644  0.00317857  0.09849056
   0.00369290  0.67923775  0.09848824
   0.00004134  0.49992051  0.32265350
   0.16670265  0.33341905  0.32287306
  -0.00005849 -0.00000107  0.32278954
   0.16695286  0.83351360  0.32287486
   0.50001974  0.50017449  0.32265224
   0.66682477  0.33340457  0.32267889
   0.49976875 -0.00010011  0.32264956
   0.66680405  0.83326176  0.32287158
Lattice                                 
           1
     4.191344    2.419871    0.001241
    -4.191416    2.419994    0.000375
     0.001560    0.005037   15.230947
   B    C 
     4    11
Direct configuration=    29
   0.00410457  0.00269650  0.10215447
   0.35955983  0.00299307  0.09791417
   0.00391093  0.35791616  0.09791384
   0.64895397  0.64735318  0.09791359
   0.32765816  0.32576367  0.09841708
   0.68109667  0.00326774  0.09843912
   0.00361414  0.67917979  0.09843661
   0.00010671  0.49999178  0.32270134
   0.16671835  0.33341900  0.32291325
  -0.00002452  0.00000975  0.32282390
   0.16688446  0.83345476  0.32291450
   0.49999783  0.50015898  0.32269974
   0.66679059  0.33339331  0.32279280
   0.49982862 -0.00011968  0.32269870
   0.66676036  0.83328934  0.32291290
Lattice                                 
           1
     4.192922    2.421022    0.001266
    -4.192834    2.420870    0.000369
     0.001621    0.005110   15.201397
   B    C 
     4    11
Direct configuration=    30
   0.00408914  0.00264155  0.10145163
   0.35988170  0.00297600  0.09788236
   0.00398045  0.35826367  0.09788626
   0.64854783  0.64703971  0.09787841
   0.32781373  0.32569477  0.09828140
   0.68118733  0.00353523  0.09828469
   0.00337789  0.67900594  0.09828163
   0.00030281  0.50020556  0.32284494
   0.16676546  0.33341884  0.32303388
   0.00007738  0.00004221  0.32292706
   0.16667932  0.83327825  0.32303348
   0.49993207  0.50011243  0.32284232
   0.66668807  0.33335952  0.32313476
   0.50000818 -0.00017840  0.32284620
   0.66662929  0.83337206  0.32303697
Lattice                                 
           1
     4.192953    2.420980    0.001274
    -4.192875    2.420845    0.000366
     0.001642    0.005132   15.184108
   B    C 
     4    11
Direct configuration=    31
   0.00408860  0.00263413  0.10114088
   0.35981195  0.00300058  0.09786516
   0.00396466  0.35817235  0.09787048
   0.64861965  0.64710189  0.09785990
   0.32791873  0.32579035  0.09820617
   0.68109855  0.00355131  0.09820137
   0.00336628  0.67889986  0.09819802
   0.00014091  0.50008918  0.32295500
   0.16673651  0.33342435  0.32307331
   0.00008319  0.00004376  0.32299367
   0.16671198  0.83331267  0.32307326
   0.50004531  0.50006500  0.32295302
   0.66668836  0.33335777  0.32322070
   0.50006353 -0.00001245  0.32295754
   0.66662244  0.83333659  0.32307750
Lattice                                 
           1
     4.193044    2.420855    0.001298
    -4.192996    2.420772    0.000358
     0.001705    0.005196   15.132239
   B    C 
     4    11
Direct configuration=    32
   0.00408701  0.00261184  0.10020756
   0.35960270  0.00307431  0.09781352
   0.00391730  0.35789838  0.09782309
   0.64883514  0.64728845  0.09780430
   0.32823372  0.32607713  0.09798021
   0.68083219  0.00359956  0.09795112
   0.00333147  0.67858159  0.09794693
  -0.00034480  0.49974002  0.32328555
   0.16664965  0.33344089  0.32319173
   0.00010062  0.00004841  0.32319374
   0.16680997  0.83341594  0.32319271
   0.50038503  0.49992271  0.32328551
   0.66668921  0.33335254  0.32347882
   0.50022956  0.00048540  0.32329195
   0.66660189  0.83323016  0.32319926
Lattice                                 
           1
     4.193078    2.420808    0.001306
    -4.193041    2.420744    0.000355
     0.001729    0.005221   15.112763
   B    C 
     4    11
Direct configuration=    33
   0.00408642  0.00260348  0.09985592
   0.35952413  0.00310199  0.09779407
   0.00389951  0.35779551  0.09780523
   0.64891605  0.64735850  0.09778335
   0.32835200  0.32618481  0.09789507
   0.68073217  0.00361768  0.09785684
   0.00331839  0.67846209  0.09785232
  -0.00052718  0.49960891  0.32341010
   0.16661704  0.33344710  0.32323635
   0.00010716  0.00005015  0.32326912
   0.16684677  0.83345472  0.32323771
   0.50051258  0.49986928  0.32341078
   0.66668953  0.33335057  0.32357607
   0.50029191  0.00067234  0.32341794
   0.66659417  0.83319020  0.32324513
Lattice                                 
           1
     4.192943    2.420685    0.001310
    -4.192926    2.420656    0.000353
     0.001740    0.005231   15.101035
   B    C 
     4    11
Direct configuration=    34
   0.00408573  0.00260199  0.09965391
   0.35945748  0.00311987  0.09777820
   0.00388189  0.35771082  0.09779003
   0.64899757  0.64742443  0.09776680
   0.32836950  0.32621837  0.09784613
   0.68069709  0.00360153  0.09780337
   0.00333309  0.67844284  0.09779867
  -0.00048608  0.49963601  0.32347984
   0.16663252  0.33345373  0.32327135
   0.00009621  0.00004728  0.32331036
   0.16685589  0.83345225  0.32327314
   0.50047472  0.49988637  0.32348112
   0.66670071  0.33335631  0.32362420
   0.50026040  0.00061804  0.32348825
   0.66660393  0.83319751  0.32328061
Lattice                                 
           1
     4.192538    2.420318    0.001322
    -4.192581    2.420393    0.000348
     0.001775    0.005263   15.065851
   B    C 
     4    11
Direct configuration=    35
   0.00408368  0.00259752  0.09904744
   0.35925753  0.00317350  0.09773058
   0.00382902  0.35745675  0.09774441
   0.64924214  0.64762223  0.09771712
   0.32842199  0.32631904  0.09769922
   0.68059186  0.00355307  0.09764284
   0.00337720  0.67838507  0.09763761
  -0.00036278  0.49971731  0.32368922
   0.16667895  0.33347364  0.32337644
   0.00006335  0.00003868  0.32343416
   0.16688326  0.83344483  0.32337949
   0.50036113  0.49993763  0.32369231
   0.66673425  0.33337352  0.32376871
   0.50016586  0.00045513  0.32369932
   0.66663322  0.83321943  0.32338714
Lattice                                 
           1
     4.191729    2.419584    0.001346
    -4.191891    2.419865    0.000337
     0.001844    0.005328   14.995483
   B    C 
     4    11
Direct configuration=    36
   0.00407960  0.00258859  0.09783165
   0.35885758  0.00328077  0.09763511
   0.00372326  0.35694854  0.09765295
   0.64973134  0.64801789  0.09761751
   0.32852699  0.32652041  0.09740470
   0.68038136  0.00345615  0.09732104
   0.00346543  0.67826952  0.09731473
  -0.00011613  0.49987993  0.32410897
   0.16677182  0.33351345  0.32358709
  -0.00000239  0.00002147  0.32368233
   0.16693801  0.83342999  0.32359269
   0.50013393  0.50004014  0.32411568
   0.66680133  0.33340793  0.32405840
   0.49997675  0.00012928  0.32412245
   0.66669180  0.83326327  0.32360069
Lattice                                 
           1
     4.191419    2.419304    0.001355
    -4.191627    2.419663    0.000333
     0.001871    0.005352   14.968594
   B    C 
     4    11
Direct configuration=    37
   0.00407805  0.00258518  0.09736488
   0.35870471  0.00332176  0.09759846
   0.00368283  0.35675430  0.09761783
   0.64991833  0.64816912  0.09757927
   0.32856713  0.32659737  0.09729163
   0.68030090  0.00341911  0.09719749
   0.00349916  0.67822536  0.09719076
  -0.00002186  0.49994209  0.32427013
   0.16680731  0.33352866  0.32366797
  -0.00002752  0.00001489  0.32377761
   0.16695893  0.83342432  0.32367454
   0.50004708  0.50007932  0.32427822
   0.66682697  0.33342109  0.32416962
   0.49990446  0.00000474  0.32428490
   0.66671418  0.83328003  0.32368268
Lattice                                 
           1
     4.191686    2.419749    0.001364
    -4.191746    2.419853    0.000329
     0.001897    0.005377   14.944412
   B    C 
     4    11
Direct configuration=    38
   0.00407570  0.00259452  0.09694799
   0.35873457  0.00333175  0.09753515
   0.00365137  0.35676547  0.09755449
   0.64993218  0.64814828  0.09751553
   0.32842019  0.32651804  0.09720222
   0.68035996  0.00333736  0.09710410
   0.00356417  0.67836802  0.09709710
   0.00017357  0.50007406  0.32435859
   0.16675326  0.33346074  0.32381548
   0.00005483  0.00004072  0.32383887
   0.16681715  0.83337733  0.32382286
   0.50002639  0.50012149  0.32436806
   0.66674832  0.33339173  0.32428238
   0.49997090 -0.00008008  0.32437320