Lattice                                 
           1
     4.368232    2.522000    0.000000
    -4.368232    2.522000    0.000000
     0.000000    0.000000   15.000000
   B    C 
     2    14
Direct configuration=     1
   0.33833034  0.66916432  0.10000000
   0.67165522  0.33584146  0.10000000
   0.16373946  0.31999962  0.10000000
   0.32250218  0.16126397  0.10000000
   0.16376430  0.84376384  0.10000000
   0.84623863  0.16123684  0.10000000
   0.68749850  0.84373000  0.10000000
   0.84626736  0.68499594  0.10000000
   0.24999933  0.24999967  0.34446667
   0.41666633  0.08333267  0.34446667
   0.24999933  0.74999967  0.34446667
   0.41666633  0.58333267  0.34446667
   0.74999933  0.24999967  0.34446667
   0.91666633  0.08333267  0.34446667
   0.74999933  0.74999967  0.34446667
   0.91666633  0.58333267  0.34446667
Direct configuration=     2
   0.33837993  0.66912274  0.10011656
   0.67173006  0.33577053  0.10009203
   0.16700202  0.32650536  0.10005324
   0.32887771  0.16446260  0.10006512
   0.16695111  0.84056889  0.10005809
   0.84296728  0.16449433  0.10005962
   0.68100432  0.84048883  0.10005332
   0.84304148  0.67862584  0.10006525
   0.24990860  0.24979777  0.34442711
   0.41647602  0.08330835  0.34442191
   0.24989861  0.75010514  0.34436667
   0.41673246  0.58326403  0.34435069
   0.75002777  0.24996541  0.34434342
   0.91676892  0.08322827  0.34441288
   0.75020139  0.75009398  0.34442787
   0.91669101  0.58352326  0.34441956
Direct configuration=     3
   0.33834380  0.66915304  0.10003163
   0.67167552  0.33582221  0.10002497
   0.16462466  0.32176476  0.10001444
   0.32423200  0.16213182  0.10001767
   0.16462895  0.84289699  0.10001576
   0.84535105  0.16212067  0.10001618
   0.68573650  0.84285061  0.10001447
   0.84539211  0.68326760  0.10001770
   0.24997471  0.24994489  0.34445593
   0.41661470  0.08332607  0.34445452
   0.24997200  0.75002828  0.34443954
   0.41668427  0.58331404  0.34443520
   0.75000705  0.24999037  0.34443323
   0.91669417  0.08330434  0.34445207
   0.75005416  0.75002526  0.34445614
   0.91667303  0.58338438  0.34445389
Direct configuration=     4
   0.33834732  0.66915450  0.10011929
   0.67167766  0.33582000  0.10009651
   0.16460405  0.32176748  0.10006517
   0.32423745  0.16214396  0.10007433
   0.16461550  0.84289513  0.10007073
   0.84536695  0.16212095  0.10006909
   0.68572753  0.84287676  0.10006522
   0.84537361  0.68326519  0.10007455
   0.24996851  0.24992078  0.34441648
   0.41659973  0.08331457  0.34440957
   0.24996233  0.75003765  0.34436018
   0.41669478  0.58330374  0.34434510
   0.75000909  0.24998731  0.34433992
   0.91671184  0.08328665  0.34440269
   0.75007758  0.75003103  0.34441713
   0.91668473  0.58339963  0.34440739
Direct configuration=     5
   0.33835789  0.66915888  0.10038229
   0.67168406  0.33581336  0.10031113
   0.16454221  0.32177564  0.10021734
   0.32425383  0.16218038  0.10024430
   0.16457516  0.84288955  0.10023562
   0.84541464  0.16212182  0.10022783
   0.68570062  0.84295521  0.10021747
   0.84531813  0.68325795  0.10024507
   0.24994990  0.24984845  0.34429813
   0.41655483  0.08328008  0.34427469
   0.24993330  0.75006575  0.34412212
   0.41672630  0.58327283  0.34407480
   0.75001523  0.24997813  0.34406000
   0.91676486  0.08323357  0.34425453
   0.75014783  0.75004835  0.34430010
   0.91671985  0.58344539  0.34426791
Direct configuration=     6
   0.33837903  0.66916764  0.10090828
   0.67169688  0.33580009  0.10074038
   0.16441854  0.32179195  0.10052169
   0.32428659  0.16225323  0.10058424
   0.16449448  0.84287839  0.10056541
   0.84551003  0.16212355  0.10054532
   0.68564680  0.84311210  0.10052196
   0.84520717  0.68324346  0.10058613
   0.24991268  0.24970379  0.34406143
   0.41646504  0.08321109  0.34400495
   0.24987525  0.75012194  0.34364601
   0.41678934  0.58321100  0.34353419
   0.75002750  0.24995976  0.34350016
   0.91687091  0.08312742  0.34395821
   0.75028835  0.75008300  0.34406604
   0.91679009  0.58353692  0.34398894
Direct configuration=     7
   0.33838940  0.66917194  0.10116620
   0.67170316  0.33579357  0.10095087
   0.16435789  0.32179995  0.10067093
   0.32430265  0.16228895  0.10075093
   0.16445491  0.84287291  0.10072713
   0.84555681  0.16212439  0.10070100
   0.68562041  0.84318904  0.10067128
   0.84515275  0.68323636  0.10075337
   0.24989442  0.24963286  0.34394536
   0.41642101  0.08317726  0.34387268
   0.24984678  0.75014950  0.34341253
   0.41682025  0.58318068  0.34326910
   0.75003352  0.24995076  0.34322563
   0.91692291  0.08307537  0.34381291
   0.75035725  0.75009999  0.34395127
   0.91682453  0.58358180  0.34385214
Direct configuration=     8
   0.33838570  0.66917383  0.10118148
   0.67170367  0.33579399  0.10096439
   0.16436621  0.32180212  0.10068189
   0.32429817  0.16228740  0.10076209
   0.16445407  0.84287475  0.10073891
   0.84555190  0.16212793  0.10071142
   0.68562074  0.84318467  0.10068224
   0.84515072  0.68323959  0.10076456
   0.24989755  0.24963540  0.34393582
   0.41642521  0.08317785  0.34386167
   0.24985040  0.75014592  0.34339853
   0.41681969  0.58318107  0.34325425
   0.75003500  0.24994943  0.34321101
   0.91692109  0.08307705  0.34380236
   0.75035480  0.75009690  0.34394175
   0.91682375  0.58357741  0.34384097
Direct configuration=     9
   0.33837461  0.66917949  0.10122732
   0.67170520  0.33579522  0.10100494
   0.16439117  0.32180865  0.10071475
   0.32428471  0.16228277  0.10079556
   0.16445153  0.84288027  0.10077426
   0.84553715  0.16213853  0.10074267
   0.68562171  0.84317157  0.10071513
   0.84514461  0.68324930  0.10079814
   0.24990694  0.24964304  0.34390722
   0.41643782  0.08317964  0.34382865
   0.24986124  0.75013517  0.34335651
   0.41681802  0.58318223  0.34320970
   0.75003946  0.24994545  0.34316714
   0.91691563  0.08308210  0.34377070
   0.75034743  0.75008764  0.34391319
   0.91682143  0.58356426  0.34380745
Direct configuration=    10
   0.33835242  0.66919081  0.10131899
   0.67170825  0.33579770  0.10108605
   0.16444108  0.32182171  0.10078049
   0.32425781  0.16227350  0.10086250
   0.16444646  0.84289130  0.10084496
   0.84550766  0.16215973  0.10080516
   0.68562366  0.84314538  0.10078091
   0.84513239  0.68326872  0.10086528
   0.24992571  0.24965830  0.34385001
   0.41646304  0.08318321  0.34376260
   0.24988294  0.75011368  0.34327247
   0.41681468  0.58318454  0.34312061
   0.75004837  0.24993750  0.34307941
   0.91690470  0.08309219  0.34370739
   0.75033270  0.75006912  0.34385606
   0.91681679  0.58353794  0.34374042
Direct configuration=    11
   0.33830805  0.66921346  0.10150233
   0.67171436  0.33580265  0.10124827
   0.16454090  0.32184783  0.10091196
   0.32420401  0.16225497  0.10099639
   0.16443631  0.84291336  0.10098636
   0.84544868  0.16220215  0.10093016
   0.68562756  0.84309298  0.10091247
   0.84510795  0.68330754  0.10099957
   0.24996326  0.24968883  0.34373560
   0.41651349  0.08319035  0.34363052
   0.24992633  0.75007069  0.34310438
   0.41680800  0.58318917  0.34294243
   0.75006619  0.24992159  0.34290394
   0.91688285  0.08311238  0.34358077
   0.75030323  0.75003208  0.34374182
   0.91680751  0.58348532  0.34360637
Direct configuration=    12
   0.33821930  0.66925876  0.10186900
   0.67172659  0.33581254  0.10157272
   0.16474054  0.32190006  0.10117491
   0.32409640  0.16221790  0.10126416
   0.16441602  0.84295747  0.10126916
   0.84533071  0.16228697  0.10118015
   0.68563535  0.84298820  0.10117560
   0.84505907  0.68338520  0.10126816
   0.25003836  0.24974988  0.34350677
   0.41661437  0.08320462  0.34336634
   0.25001312  0.74998471  0.34276822
   0.41679463  0.58319844  0.34258606
   0.75010184  0.24988977  0.34255299
   0.91683914  0.08315275  0.34332753
   0.75024429  0.74995799  0.34351333
   0.91678894  0.58338007  0.34333825
Direct configuration=    13
   0.33804180  0.66934936  0.10260236
   0.67175103  0.33583234  0.10222160
   0.16513983  0.32200453  0.10170080
   0.32388117  0.16214377  0.10179970
   0.16437544  0.84304571  0.10183477
   0.84509479  0.16245662  0.10168013
   0.68565094  0.84277862  0.10170184
   0.84496130  0.68354050  0.10180532
   0.25018855  0.24987200  0.34304911
   0.41681615  0.08323317  0.34283800
   0.25018669  0.74981275  0.34209589
   0.41676788  0.58321696  0.34187332
   0.75017314  0.24982613  0.34185110
   0.91675173  0.08323350  0.34282105
   0.75012641  0.74980981  0.34305635
   0.91675180  0.58316958  0.34280202
Direct configuration=    14
   0.33810312  0.66931806  0.10234900
   0.67174259  0.33582550  0.10199742
   0.16500189  0.32196843  0.10151912
   0.32395553  0.16216938  0.10161468
   0.16438946  0.84301523  0.10163936
   0.84517630  0.16239801  0.10150739
   0.68564556  0.84285103  0.10152003
   0.84499508  0.68348685  0.10161974
   0.25013666  0.24982981  0.34320722
   0.41674644  0.08322331  0.34302053
   0.25012673  0.74987216  0.34232816
   0.41677712  0.58321056  0.34211955
   0.75014851  0.24984811  0.34209359
   0.91678193  0.08320560  0.34299603
   0.75016714  0.74986100  0.34321422
   0.91676463  0.58324230  0.34298727
Direct configuration=    15
   0.33808935  0.66933629  0.10248291
   0.67171008  0.33584961  0.10212546
   0.16498145  0.32198262  0.10163647
   0.32396933  0.16215343  0.10172890
   0.16435672  0.84302295  0.10176476
   0.84519407  0.16240899  0.10161394
   0.68562023  0.84286560  0.10163756
   0.84501931  0.68348554  0.10173421
   0.25015804  0.24985060  0.34309375
   0.41678504  0.08322302  0.34289300
   0.25015266  0.74984548  0.34220215
   0.41677956  0.58320747  0.34199827
   0.75015849  0.24983834  0.34197903
   0.91677391  0.08321332  0.34288323
   0.75014607  0.74983904  0.34310029
   0.91676437  0.58320303  0.34285940
Direct configuration=    16
   0.33804803  0.66939098  0.10288464
   0.67161254  0.33592194  0.10250958
   0.16492016  0.32202516  0.10198853
   0.32401073  0.16210556  0.10207155
   0.16425851  0.84304614  0.10214096
   0.84524740  0.16244196  0.10193356
   0.68554426  0.84290931  0.10199015
   0.84509200  0.68348161  0.10207760
   0.25022218  0.24991299  0.34275335
   0.41690083  0.08322215  0.34251042
   0.25023045  0.74976544  0.34182411
   0.41678686  0.58319818  0.34163443
   0.75018842  0.24980903  0.34163533
   0.91674984  0.08323649  0.34254485
   0.75008288  0.74977317  0.34275848
   0.91676359  0.58308522  0.34247578
Direct configuration=    17
   0.33796538  0.66950035  0.10368811
   0.67141748  0.33606660  0.10327782
   0.16479757  0.32211025  0.10269265
   0.32409353  0.16200984  0.10275685
   0.16406208  0.84309250  0.10289336
   0.84535405  0.16250788  0.10257281
   0.68539231  0.84299674  0.10269534
   0.84523739  0.68347375  0.10276439
   0.25035046  0.25003777  0.34207254
   0.41713242  0.08322040  0.34174525
   0.25038603  0.74960537  0.34106804
   0.41680147  0.58317961  0.34090674
   0.75024829  0.24975041  0.34094794
   0.91670170  0.08328284  0.34186808
   0.74995649  0.74964143  0.34207487
   0.91676202  0.58284960  0.34170854
Direct configuration=    18
   0.33780008  0.66971911  0.10529504
   0.67102736  0.33635593  0.10481430
   0.16455239  0.32228043  0.10410089
   0.32425914  0.16181839  0.10412746
   0.16366923  0.84318523  0.10439815
   0.84556736  0.16263973  0.10385130
   0.68508840  0.84317159  0.10410570
   0.84552816  0.68345802  0.10413797
   0.25060702  0.25028732  0.34071093
   0.41759559  0.08321691  0.34021491
   0.25069720  0.74928523  0.33955590
   0.41683069  0.58314246  0.33945138
   0.75036804  0.24963316  0.33957316
   0.91660542  0.08337552  0.34051453
   0.74970371  0.74937794  0.34070765
   0.91675888  0.58237835  0.34017406
Direct configuration=    19
   0.33778211  0.66973662  0.10546946
   0.67101556  0.33637090  0.10498374
   0.16454226  0.32228464  0.10426256
   0.32424775  0.16184029  0.10428763
   0.16366722  0.84318786  0.10457077
   0.84556103  0.16265004  0.10400104
   0.68508599  0.84319328  0.10426762
   0.84549507  0.68346484  0.10429849
   0.25061421  0.25027089  0.34054717
   0.41760375  0.08320179  0.34003795
   0.25070375  0.74927775  0.33938841
   0.41684645  0.58312650  0.33929610
   0.75037816  0.24962181  0.33942443
   0.91662243  0.08335829  0.34035768
   0.74971909  0.74936976  0.34054316
   0.91677384  0.58237007  0.33999712
Direct configuration=    20
   0.33772822  0.66978918  0.10599271
   0.67098017  0.33641581  0.10549207
   0.16451184  0.32229729  0.10474759
   0.32421358  0.16190597  0.10476816
   0.16366122  0.84319576  0.10508864
   0.84554205  0.16268095  0.10445028
   0.68507873  0.84325834  0.10475337
   0.84539580  0.68348531  0.10478002
   0.25063580  0.25022157  0.34005588
   0.41762822  0.08315642  0.33950705
   0.25072339  0.74925534  0.33888594
   0.41689373  0.58307862  0.33883029
   0.75040852  0.24958775  0.33897822
   0.91667345  0.08330662  0.33988713
   0.74976523  0.74934521  0.34004969
   0.91681871  0.58234521  0.33946631
Direct configuration=    21
   0.33762043  0.66989429  0.10703921
   0.67090938  0.33650562  0.10650872
   0.16445102  0.32232259  0.10571764
   0.32414525  0.16203733  0.10572922
   0.16364920  0.84321155  0.10612437
   0.84550409  0.16274277  0.10534874
   0.68506421  0.84338847  0.10572488
   0.84519726  0.68352625  0.10574309
   0.25067898  0.25012294  0.33907330
   0.41767717  0.08306567  0.33844524
   0.25076267  0.74921051  0.33788100
   0.41698830  0.58298285  0.33789865
   0.75046926  0.24951963  0.33808580
   0.91677550  0.08320326  0.33894603
   0.74985750  0.74929611  0.33906275
   0.91690846  0.58229549  0.33840468
Direct configuration=    22
   0.33740485  0.67010450  0.10913222
   0.67076780  0.33668525  0.10854202
   0.16432938  0.32237319  0.10765775
   0.32400858  0.16230005  0.10765134
   0.16362517  0.84324314  0.10819584
   0.84542816  0.16286642  0.10714567
   0.68503518  0.84364873  0.10766791
   0.84480017  0.68360813  0.10766923
   0.25076533  0.24992569  0.33710815
   0.41777507  0.08288418  0.33632164
   0.25084123  0.74912084  0.33587111
   0.41717744  0.58279130  0.33603538
   0.75059072  0.24938340  0.33630097
   0.91697958  0.08299655  0.33706382
   0.75004206  0.74919792  0.33708888
   0.91708796  0.58219606  0.33628141
Direct configuration=    23
   0.33732583  0.67018155  0.10989940
   0.67071590  0.33675109  0.10928732
   0.16428479  0.32239173  0.10836889
   0.32395848  0.16239635  0.10835588
   0.16361636  0.84325472  0.10895513
   0.84540034  0.16291175  0.10780433
   0.68502454  0.84374412  0.10838011
   0.84465462  0.68363814  0.10837524
   0.25079698  0.24985338  0.33638783
   0.41781095  0.08281766  0.33554324
   0.25087003  0.74908798  0.33513440
   0.41724676  0.58272109  0.33535241
   0.75063524  0.24933346  0.33564674
   0.91705439  0.08292078  0.33637390
   0.75010971  0.74916193  0.33636537
   0.91715375  0.58215961  0.33550314
Direct configuration=    24
   0.33743239  0.67005918  0.10982243
   0.67090487  0.33660327  0.10921836
   0.16438909  0.32242875  0.10834348
   0.32377957  0.16246123  0.10838308
   0.16365476  0.84331403  0.10892583
   0.84520602  0.16295362  0.10783342
   0.68505830  0.84367368  0.10835478
   0.84455392  0.68377786  0.10840219
   0.25071649  0.24960392  0.33635559
   0.41756027  0.08276121  0.33559030
   0.25075342  0.74921026  0.33517442
   0.41727397  0.58269223  0.33541112
   0.75063874  0.24932895  0.33565801
   0.91716831  0.08280205  0.33637340
   0.75036126  0.74924685  0.33633443
   0.91720729  0.58240824  0.33555251
Direct configuration=    25
   0.33761259  0.66985223  0.10969225
   0.67122446  0.33635329  0.10910173
   0.16456547  0.32249136  0.10830050
   0.32347702  0.16257095  0.10842907
   0.16371971  0.84341432  0.10887629
   0.84487739  0.16302444  0.10788261
   0.68511538  0.84355454  0.10831193
   0.84438361  0.68401416  0.10844778
   0.25058038  0.24918204  0.33630108
   0.41713632  0.08266576  0.33566987
   0.25055623  0.74941706  0.33524209
   0.41731997  0.58264343  0.33551041
   0.75064466  0.24932133  0.33567705
   0.91736097  0.08260124  0.33637255
   0.75078668  0.74939047  0.33628212
   0.91729784  0.58282871  0.33563599
Direct configuration=    26
   0.33770519  0.66980132  0.10959762
   0.67120827  0.33634694  0.10903345
   0.16435793  0.32249562  0.10829340
   0.32354264  0.16259697  0.10847792
   0.16368395  0.84343211  0.10886490
   0.84493663  0.16298341  0.10793253
   0.68505916  0.84364759  0.10830536
   0.84446517  0.68398906  0.10849612
   0.25055600  0.24911960  0.33624539
   0.41707993  0.08264316  0.33570685
   0.25052193  0.74945112  0.33528851
   0.41733404  0.58263012  0.33556321
   0.75063973  0.24932478  0.33568190
   0.91739878  0.08256323  0.33634165
   0.75084827  0.74941481  0.33622824
   0.91732105  0.58288551  0.33567627
Direct configuration=    27
   0.33785840  0.66971707  0.10944104
   0.67118148  0.33633643  0.10892048
   0.16401453  0.32250268  0.10828166
   0.32365124  0.16264002  0.10855877
   0.16362479  0.84346154  0.10884605
   0.84503466  0.16291553  0.10801513
   0.68496613  0.84380154  0.10829449
   0.84460011  0.68394752  0.10857612
   0.25051566  0.24901630  0.33615325
   0.41698664  0.08260575  0.33576803
   0.25046519  0.74950748  0.33536531
   0.41735732  0.58260810  0.33565056
   0.75063157  0.24933047  0.33568992
   0.91746134  0.08250032  0.33629051
   0.75095016  0.74945509  0.33613909
   0.91735945  0.58297950  0.33574292
Direct configuration=    28
   0.33780504  0.66975299  0.10928449
   0.67114583  0.33638458  0.10883103
   0.16400548  0.32246184  0.10828983
   0.32362637  0.16271516  0.10862451
   0.16374771  0.84346909  0.10884805
   0.84495527  0.16288351  0.10808336
   0.68502970  0.84375594  0.10830329
   0.84457893  0.68393830  0.10864118
   0.25054765  0.24909942  0.33607683
   0.41708054  0.08261782  0.33581070
   0.25051039  0.74945985  0.33545102
   0.41735263  0.58261367  0.33571020
   0.75063257  0.24932919  0.33570309
   0.91742656  0.08253687  0.33621919
   0.75086583  0.74942087  0.33606580
   0.91734816  0.58288623  0.33579076
Direct configuration=    29
   0.33771836  0.66981134  0.10903019
   0.67108792  0.33646281  0.10868573
   0.16399078  0.32239550  0.10830311
   0.32358599  0.16283722  0.10873131
   0.16394740  0.84348135  0.10885131
   0.84482630  0.16283150  0.10819420
   0.68513296  0.84368185  0.10831758
   0.84454453  0.68392331  0.10874686
   0.25059960  0.24923445  0.33595268
   0.41723308  0.08263743  0.33588002
   0.25058383  0.74938249  0.33559024
   0.41734500  0.58262272  0.33580708
   0.75063418  0.24932710  0.33572447
   0.91737007  0.08259623  0.33610334
   0.75072883  0.74936530  0.33594675
   0.91732982  0.58273473  0.33586847
Direct configuration=    30
   0.33771211  0.66981413  0.10894290
   0.67105121  0.33647870  0.10867476
   0.16404661  0.32245546  0.10833315
   0.32354391  0.16273847  0.10873471
   0.16388967  0.84355591  0.10887661
   0.84476069  0.16285668  0.10820123
   0.68508013  0.84357521  0.10834784
   0.84470838  0.68399416  0.10874988
   0.25061793  0.24922666  0.33594521
   0.41723155  0.08264579  0.33588213
   0.25060553  0.74936305  0.33565500
   0.41733936  0.58262523  0.33579612
   0.75065507  0.24930840  0.33574043
   0.91735879  0.08260473  0.33603936
   0.75073908  0.74934933  0.33594124
   0.91731866  0.58273343  0.33587276
Direct configuration=    31
   0.33770934  0.66981536  0.10890417
   0.67103492  0.33648576  0.10866990
   0.16407138  0.32248206  0.10834648
   0.32352524  0.16269465  0.10873622
   0.16386406  0.84358899  0.10888784
   0.84473158  0.16286786  0.10820434
   0.68505669  0.84352790  0.10836127
   0.84478107  0.68402559  0.10875122
   0.25062606  0.24922320  0.33594189
   0.41723087  0.08264950  0.33588307
   0.25061515  0.74935443  0.33568374
   0.41733686  0.58262635  0.33579126
   0.75066434  0.24930010  0.33574750
   0.91735378  0.08260850  0.33601097
   0.75074363  0.74934225  0.33593880
   0.91731371  0.58273285  0.33587466
Direct configuration=    32
   0.33769792  0.66982951  0.10885483
   0.67103005  0.33649712  0.10868227
   0.16401888  0.32246074  0.10837165
   0.32353081  0.16275778  0.10872658
   0.16390486  0.84358755  0.10890867
   0.84473037  0.16284014  0.10819909
   0.68507500  0.84355706  0.10838653
   0.84473811  0.68400902  0.10874135
   0.25061757  0.24919312  0.33594943
   0.41721347  0.08263259  0.33588052
   0.25060275  0.74936609  0.33572713
   0.41735138  0.58261233  0.33576641
   0.75066572  0.24929718  0.33575406
   0.91737812  0.08258437  0.33596397
   0.75077256  0.74934990  0.33594777
   0.91733111  0.58275084  0.33587307
Direct configuration=    33
   0.33769332  0.66983520  0.10883494
   0.67102808  0.33650170  0.10868725
   0.16399772  0.32245215  0.10838180
   0.32353305  0.16278322  0.10872269
   0.16392130  0.84358696  0.10891706
   0.84472988  0.16282897  0.10819698
   0.68508238  0.84356881  0.10839671
   0.84472080  0.68400235  0.10873737
   0.25061416  0.24918100  0.33595247
   0.41720645  0.08262577  0.33587950
   0.25059775  0.74937080  0.33574462
   0.41735722  0.58260668  0.33575640
   0.75066627  0.24929600  0.33575670
   0.91738793  0.08257465  0.33594503
   0.75078422  0.74935298  0.33595138
   0.91733813  0.58275809  0.33587243
Direct configuration=    34
   0.33769282  0.66983582  0.10883281
   0.67102787  0.33650219  0.10868779
   0.16399545  0.32245122  0.10838289
   0.32353329  0.16278595  0.10872227
   0.16392307  0.84358690  0.10891796
   0.84472983  0.16282777  0.10819675
   0.68508317  0.84357008  0.10839780
   0.84471894  0.68400163  0.10873694
   0.25061379  0.24917970  0.33595280
   0.41720570  0.08262504  0.33587939
   0.25059721  0.74937130  0.33574650
   0.41735785  0.58260608  0.33575532
   0.75066633  0.24929587  0.33575698
   0.91738898  0.08257361  0.33594300
   0.75078547  0.74935332  0.33595177
   0.91733888  0.58275886  0.33587236
Direct configuration=    35
   0.33770014  0.66983091  0.10883038
   0.67103606  0.33649556  0.10869819
   0.16397662  0.32246359  0.10838409
   0.32353405  0.16280180  0.10872198
   0.16391391  0.84359839  0.10891602
   0.84472164  0.16283299  0.10820014
   0.68506876  0.84357718  0.10839893
   0.84471302  0.68400368  0.10873655
   0.25062118  0.24918403  0.33595193
   0.41722113  0.08261908  0.33588472
   0.25060489  0.74936281  0.33575071
   0.41736175  0.58260238  0.33574757
   0.75066848  0.24929335  0.33574797
   0.91739176  0.08257100  0.33593502
   0.75078040  0.74934511  0.33595137
   0.91734489  0.58274347  0.33587775
Direct configuration=    36
   0.33770844  0.66982535  0.10882763
   0.67104534  0.33648803  0.10870999
   0.16395525  0.32247763  0.10838546
   0.32353491  0.16281978  0.10872165
   0.16390351  0.84361141  0.10891382
   0.84471235  0.16283891  0.10820399
   0.68505242  0.84358523  0.10840021
   0.84470629  0.68400602  0.10873610
   0.25062957  0.24918895  0.33595094
   0.41723863  0.08261231  0.33589078
   0.25061359  0.74935318  0.33575549
   0.41736617  0.58259819  0.33573877
   0.75067092  0.24929049  0.33573774
   0.91739490  0.08256803  0.33592598
   0.75077465  0.74933580  0.33595092
   0.91735171  0.58272601  0.33588386
Direct configuration=    37
   0.33769642  0.66983519  0.10882856
   0.67104190  0.33649364  0.10872048
   0.16395573  0.32248384  0.10838531
   0.32352424  0.16283108  0.10872262
   0.16390356  0.84362295  0.10890974
   0.84469961  0.16284022  0.10820949
   0.68504998  0.84358389  0.10839996
   0.84469739  0.68401404  0.10873697
   0.25063693  0.24918108  0.33594852
   0.41724323  0.08260762  0.33589547
   0.25062125  0.74934554  0.33575708
   0.41737129  0.58259236  0.33573296
   0.75067926  0.24928207  0.33572870
   0.91739968  0.08256260  0.33592000
   0.75078248  0.74932842  0.33594889
   0.91735574  0.58272078  0.33588860
Direct configuration=    38
   0.33766835  0.66985818  0.10883072
   0.67103385  0.33650674  0.10874498
   0.16395684  0.32249835  0.10838498
   0.32349931  0.16285746  0.10872488
   0.16390366  0.84364988  0.10890020
   0.84466986  0.16284328  0.10822233
   0.68504429  0.84358077  0.10839936
   0.84467659  0.68403278  0.10873898
   0.25065413  0.24916270  0.33594287
   0.41725395  0.08259667  0.33590644
   0.25063912  0.74932772  0.33576079
   0.41738325  0.58257875  0.33571938
   0.75069874  0.24926239  0.33570760
   0.91741083  0.08254992  0.33590604
   0.75080077  0.74931117  0.33594413
   0.91736513  0.58270857  0.33589965
Direct configuration=    39
   0.33765702  0.66987148  0.10883281
   0.67101927  0.33651879  0.10875420
   0.16394405  0.32250541  0.10838540
   0.32349779  0.16286347  0.10872601
   0.16389414  0.84365986  0.10889623
   0.84466899  0.16284540  0.10822828
   0.68503370  0.84358548  0.10839966
   0.84468025  0.68403834  0.10873998
   0.25065955  0.24915164  0.33593994
   0.41725744  0.08258852  0.33590834
   0.25064412  0.74932235  0.33576125
   0.41739166  0.58256988  0.33571553
   0.75070628  0.24925434  0.33570155
   0.91742007  0.08254024  0.33590112
   0.75081143  0.74930541  0.33594143
   0.91737293  0.58270473  0.33590160
Direct configuration=    40
   0.33763354  0.66989907  0.10883713
   0.67098904  0.33654377  0.10877331
   0.16391752  0.32252004  0.10838629
   0.32349463  0.16287594  0.10872835
   0.16387439  0.84368056  0.10888801
   0.84466720  0.16284979  0.10824061
   0.68501173  0.84359523  0.10840029
   0.84468784  0.68404986  0.10874205
   0.25067079  0.24912869  0.33593386
   0.41726466  0.08257162  0.33591226
   0.25065447  0.74931123  0.33576220
   0.41740911  0.58255148  0.33570753
   0.75072190  0.24923763  0.33568902
   0.91743923  0.08252018  0.33589092
   0.75083353  0.74929348  0.33593584
   0.91738910  0.58269676  0.33590564
Direct configuration=    41
   0.33762320  0.66990975  0.10884020
   0.67097955  0.33655408  0.10878051
   0.16390908  0.32253173  0.10838914
   0.32348656  0.16288794  0.10872918
   0.16386688  0.84369193  0.10888529
   0.84465561  0.16285963  0.10824721
   0.68500082  0.84360216  0.10840295
   0.84467755  0.68405804  0.10874272
   0.25067865  0.24911932  0.33593030
   0.41727529  0.08255913  0.33590887
   0.25066175  0.74930299  0.33576116
   0.41742015  0.58254030  0.33570616
   0.75072906  0.24922959  0.33568815
   0.91745112  0.08250811  0.33588687
   0.75084198  0.74928467  0.33593228
   0.91740141  0.58268596  0.33590234
Direct configuration=    42
   0.33759219  0.66994180  0.10884941
   0.67095106  0.33658501  0.10880209
   0.16388378  0.32256681  0.10839769
   0.32346234  0.16292394  0.10873167
   0.16384433  0.84372606  0.10887712
   0.84462085  0.16288915  0.10826701
   0.68496809  0.84362295  0.10841096
   0.84464668  0.68408259  0.10874471
   0.25070224  0.24909118  0.33591962
   0.41730718  0.08252167  0.33589871
   0.25068357  0.74927827  0.33575803
   0.41745330  0.58250677  0.33570202
   0.75075055  0.24920546  0.33568553
   0.91748681  0.08247188  0.33587473
   0.75086731  0.74925824  0.33592159
   0.91743837  0.58265355  0.33589244
Direct configuration=    43
   0.33753017  0.67000591  0.10886784
   0.67089409  0.33664686  0.10884525
   0.16383318  0.32263698  0.10841478
   0.32341392  0.16299594  0.10873665
   0.16379924  0.84379431  0.10886077
   0.84455133  0.16294819  0.10830660
   0.68490264  0.84366452  0.10842698
   0.84458493  0.68413169  0.10874871
   0.25074943  0.24903492  0.33589826
   0.41737097  0.08244674  0.33587837
   0.25072721  0.74922883  0.33575177
   0.41751960  0.58243970  0.33569375
   0.75079352  0.24915720  0.33568029
   0.91755818  0.08239942  0.33585045
   0.75091799  0.74920539  0.33590022
   0.91751227  0.58258874  0.33587264
Direct configuration=    44
   0.33752356  0.67001289  0.10886995
   0.67088803  0.33665360  0.10884914
   0.16382417  0.32264419  0.10841787
   0.32340492  0.16300456  0.10873709
   0.16379124  0.84380271  0.10885960
   0.84454338  0.16295549  0.10831130
   0.68489609  0.84367369  0.10842993
   0.84457765  0.68414115  0.10874902
   0.25075900  0.24902658  0.33589571
   0.41737789  0.08244081  0.33587535
   0.25073723  0.74921876  0.33575012
   0.41752540  0.58243309  0.33569292
   0.75080309  0.24914755  0.33567987
   0.91756334  0.08239348  0.33584817
   0.75092626  0.74919575  0.33589764
   0.91751740  0.58258102  0.33586966
Direct configuration=    45
   0.33750373  0.67003382  0.10887626
   0.67086987  0.33667381  0.10886079
   0.16379715  0.32266583  0.10842713
   0.32337794  0.16303043  0.10873840
   0.16376726  0.84382789  0.10885610
   0.84451953  0.16297740  0.10832541
   0.68487645  0.84370121  0.10843878
   0.84455580  0.68416953  0.10874995
   0.25078770  0.24900156  0.33588806
   0.41739864  0.08242302  0.33586629
   0.25076731  0.74918855  0.33574519
   0.41754282  0.58241327  0.33569042
   0.75083179  0.24911862  0.33567862
   0.91757881  0.08237567  0.33584135
   0.75095108  0.74916685  0.33588987
   0.91753278  0.58255787  0.33586072
Direct configuration=    46
   0.33746407  0.67007570  0.10888889
   0.67083354  0.33671424  0.10888411
   0.16374310  0.32270911  0.10844565
   0.32332399  0.16308218  0.10874102
   0.16371930  0.84387827  0.10884910
   0.84447184  0.16302121  0.10835362
   0.68483716  0.84375626  0.10845648
   0.84451212  0.68422629  0.10875181
   0.25084510  0.24895151  0.33587277
   0.41744014  0.08238745  0.33584815
   0.25082746  0.74912812  0.33573532
   0.41757766  0.58237361  0.33568541
   0.75088918  0.24906076  0.33567611
   0.91760976  0.08234004  0.33582771
   0.75100073  0.74910903  0.33587433
   0.91756354  0.58251156  0.33584285
Direct configuration=    47
   0.33738475  0.67015945  0.10891416
   0.67076087  0.33679509  0.10893074
   0.16363501  0.32279566  0.10848268
   0.32321607  0.16318566  0.10874627
   0.16362337  0.84397902  0.10883509
   0.84437644  0.16310884  0.10841005
   0.68475858  0.84386635  0.10849188
   0.84442474  0.68433981  0.10875554
   0.25095989  0.24885143  0.33584218
   0.41752314  0.08231629  0.33581189
   0.25094776  0.74900726  0.33571558
   0.41764734  0.58229431  0.33567541
   0.75100398  0.24894503  0.33567110