  16  16   0   4
  0.2065628E+02  0.5044000E-09  0.5044000E-09  0.1500000E-08  0.5000000E-15
  1.000000000000000E-004
  CAR 
 SC                                      
      9.79080854    -21.26513981  301     -1.11806304      1.00000000
    -21.265  0.0000E+00  0.0000E+00
    -21.162  0.0000E+00  0.0000E+00
    -21.058  0.0000E+00  0.0000E+00
    -20.955  0.0000E+00  0.0000E+00
    -20.851  0.0000E+00  0.0000E+00
    -20.748  0.0000E+00  0.0000E+00
    -20.644  0.0000E+00  0.0000E+00
    -20.541  0.0000E+00  0.0000E+00
    -20.437  0.8863E-17  0.9175E-18
    -20.333  0.9544E-12  0.9880E-13
    -20.230  0.9141E-08  0.9463E-09
    -20.126  0.1197E-04  0.1240E-05
    -20.023  0.2380E-02  0.2476E-03
    -19.919  0.8046E-01  0.8577E-02
    -19.816  0.5438E+00  0.6488E-01
    -19.712  0.1134E+01  0.1823E+00
    -19.609  0.1236E+01  0.3102E+00
    -19.505  0.1343E+01  0.4492E+00
    -19.402  0.1255E+01  0.5791E+00
    -19.298  0.1169E+01  0.7001E+00
    -19.195  0.1585E+01  0.8642E+00
    -19.091  0.1037E+01  0.9716E+00
    -18.988  0.1143E+01  0.1090E+01
    -18.884  0.1740E+01  0.1270E+01
    -18.781  0.1213E+01  0.1396E+01
    -18.677  0.8169E+00  0.1480E+01
    -18.574  0.1512E+01  0.1637E+01
    -18.470  0.1704E+01  0.1813E+01
    -18.367  0.1302E+01  0.1948E+01
    -18.263  0.6647E+00  0.2017E+01
    -18.160  0.1268E+01  0.2148E+01
    -18.056  0.2245E+01  0.2380E+01
    -17.953  0.2372E+01  0.2626E+01
    -17.849  0.2806E+01  0.2916E+01
    -17.745  0.2778E+01  0.3204E+01
    -17.642  0.3292E+01  0.3545E+01
    -17.538  0.4717E+01  0.4033E+01
    -17.435  0.4976E+01  0.4548E+01
    -17.331  0.4794E+01  0.5045E+01
    -17.228  0.2984E+01  0.5353E+01
    -17.124  0.1432E+01  0.5502E+01
    -17.021  0.1538E+01  0.5661E+01
    -16.917  0.2089E+01  0.5877E+01
    -16.814  0.1544E+01  0.6037E+01
    -16.710  0.1107E+01  0.6152E+01
    -16.607  0.4908E+00  0.6202E+01
    -16.503  0.1162E+01  0.6323E+01
    -16.400  0.1955E+01  0.6525E+01
    -16.296  0.1838E+01  0.6715E+01
    -16.193  0.1602E+01  0.6881E+01
    -16.089  0.1274E+01  0.7013E+01
    -15.986  0.1150E+01  0.7132E+01
    -15.882  0.4874E+00  0.7183E+01
    -15.779  0.1318E+01  0.7319E+01
    -15.675  0.3443E+01  0.7676E+01
    -15.572  0.3877E+01  0.8077E+01
    -15.468  0.4349E+01  0.8527E+01
    -15.365  0.4031E+01  0.8944E+01
    -15.261  0.3169E+01  0.9272E+01
    -15.157  0.2631E+01  0.9545E+01
    -15.054  0.3363E+01  0.9893E+01
    -14.950  0.4629E+01  0.1037E+02
    -14.847  0.4266E+01  0.1081E+02
    -14.743  0.4476E+01  0.1128E+02
    -14.640  0.2812E+01  0.1157E+02
    -14.536  0.2053E+01  0.1178E+02
    -14.433  0.3706E+01  0.1216E+02
    -14.329  0.4789E+01  0.1266E+02
    -14.226  0.4690E+01  0.1315E+02
    -14.122  0.2321E+01  0.1339E+02
    -14.019  0.1723E+01  0.1356E+02
    -13.915  0.1471E+01  0.1372E+02
    -13.812  0.1104E+01  0.1383E+02
    -13.708  0.8591E+00  0.1392E+02
    -13.605  0.1126E+01  0.1404E+02
    -13.501  0.1542E+01  0.1420E+02
    -13.398  0.1268E+01  0.1433E+02
    -13.294  0.1152E+01  0.1445E+02
    -13.191  0.1633E+01  0.1462E+02
    -13.087  0.1271E+01  0.1475E+02
    -12.984  0.2359E+01  0.1499E+02
    -12.880  0.2594E+01  0.1526E+02
    -12.777  0.1205E+01  0.1538E+02
    -12.673  0.1501E+01  0.1554E+02
    -12.569  0.1854E+01  0.1573E+02
    -12.466  0.2007E+01  0.1594E+02
    -12.362  0.1508E+01  0.1610E+02
    -12.259  0.7155E+00  0.1617E+02
    -12.155  0.2122E+01  0.1639E+02
    -12.052  0.3392E+01  0.1674E+02
    -11.948  0.3740E+01  0.1713E+02
    -11.845  0.4076E+01  0.1755E+02
    -11.741  0.4060E+01  0.1797E+02
    -11.638  0.2959E+01  0.1828E+02
    -11.534  0.3782E+01  0.1867E+02
    -11.431  0.4331E+01  0.1912E+02
    -11.327  0.2790E+01  0.1940E+02
    -11.224  0.1492E+01  0.1956E+02
    -11.120  0.1703E+01  0.1974E+02
    -11.017  0.3241E+01  0.2007E+02
    -10.913  0.3305E+01  0.2041E+02
    -10.810  0.2266E+01  0.2065E+02
    -10.706  0.1382E+01  0.2079E+02
    -10.603  0.2788E+01  0.2108E+02
    -10.499  0.4942E+01  0.2159E+02
    -10.396  0.4701E+01  0.2208E+02
    -10.292  0.2255E+01  0.2231E+02
    -10.189  0.1330E+01  0.2245E+02
    -10.085  0.2780E+01  0.2274E+02
     -9.981  0.3316E+01  0.2308E+02
     -9.878  0.4080E+01  0.2350E+02
     -9.774  0.3545E+01  0.2387E+02
     -9.671  0.2381E+01  0.2412E+02
     -9.567  0.1076E+01  0.2423E+02
     -9.464  0.1333E+01  0.2436E+02
     -9.360  0.3107E+01  0.2469E+02
     -9.257  0.3184E+01  0.2502E+02
     -9.153  0.1272E+01  0.2515E+02
     -9.050  0.1900E+01  0.2534E+02
     -8.946  0.2320E+01  0.2558E+02
     -8.843  0.3277E+01  0.2592E+02
     -8.739  0.4187E+01  0.2636E+02
     -8.636  0.3132E+01  0.2668E+02
     -8.532  0.3320E+01  0.2703E+02
     -8.429  0.2869E+01  0.2732E+02
     -8.325  0.2902E+01  0.2762E+02
     -8.222  0.4244E+01  0.2806E+02
     -8.118  0.5733E+01  0.2866E+02
     -8.015  0.5036E+01  0.2918E+02
     -7.911  0.3870E+01  0.2958E+02
     -7.808  0.3972E+01  0.2999E+02
     -7.704  0.6327E+01  0.3064E+02
     -7.601  0.6058E+01  0.3127E+02
     -7.497  0.4861E+01  0.3177E+02
     -7.393  0.5058E+01  0.3230E+02
     -7.290  0.5841E+01  0.3290E+02
     -7.186  0.6553E+01  0.3358E+02
     -7.083  0.6912E+01  0.3430E+02
     -6.979  0.6353E+01  0.3495E+02
     -6.876  0.5955E+01  0.3557E+02
     -6.772  0.5551E+01  0.3614E+02
     -6.669  0.5781E+01  0.3674E+02
     -6.565  0.7102E+01  0.3748E+02
     -6.462  0.6674E+01  0.3817E+02
     -6.358  0.5517E+01  0.3874E+02
     -6.255  0.5116E+01  0.3927E+02
     -6.151  0.4689E+01  0.3976E+02
     -6.048  0.6131E+01  0.4039E+02
     -5.944  0.6732E+01  0.4109E+02
     -5.841  0.5469E+01  0.4165E+02
     -5.737  0.3462E+01  0.4201E+02
     -5.634  0.4142E+01  0.4244E+02
     -5.530  0.8063E+01  0.4327E+02
     -5.427  0.8450E+01  0.4415E+02
     -5.323  0.5054E+01  0.4467E+02
     -5.220  0.3729E+01  0.4506E+02
     -5.116  0.4484E+01  0.4552E+02
     -5.013  0.4438E+01  0.4598E+02
     -4.909  0.4406E+01  0.4644E+02
     -4.805  0.4517E+01  0.4691E+02
     -4.702  0.4312E+01  0.4735E+02
     -4.598  0.4580E+01  0.4783E+02
     -4.495  0.4199E+01  0.4826E+02
     -4.391  0.4952E+01  0.4877E+02
     -4.288  0.5581E+01  0.4935E+02
     -4.184  0.9881E+01  0.5037E+02
     -4.081  0.1072E+02  0.5148E+02
     -3.977  0.7136E+01  0.5222E+02
     -3.874  0.5376E+01  0.5278E+02
     -3.770  0.3904E+01  0.5318E+02
     -3.667  0.4499E+01  0.5365E+02
     -3.563  0.3949E+01  0.5406E+02
     -3.460  0.3750E+01  0.5445E+02
     -3.356  0.4391E+01  0.5490E+02
     -3.253  0.4889E+01  0.5541E+02
     -3.149  0.5822E+01  0.5601E+02
     -3.046  0.4150E+01  0.5644E+02
     -2.942  0.3267E+01  0.5678E+02
     -2.839  0.5964E+01  0.5739E+02
     -2.735  0.5589E+01  0.5797E+02
     -2.632  0.4401E+01  0.5843E+02
     -2.528  0.4570E+01  0.5890E+02
     -2.425  0.5789E+01  0.5950E+02
     -2.321  0.6151E+01  0.6014E+02
     -2.217  0.3319E+01  0.6048E+02
     -2.114  0.2073E+01  0.6070E+02
     -2.010  0.2838E+01  0.6099E+02
     -1.907  0.2506E+01  0.6125E+02
     -1.803  0.1084E+01  0.6136E+02
     -1.700  0.9683E+00  0.6146E+02
     -1.596  0.1634E+01  0.6163E+02
     -1.493  0.1387E+01  0.6177E+02
     -1.389  0.1025E+01  0.6188E+02
     -1.286  0.8219E+00  0.6197E+02
     -1.182  0.3086E+00  0.6200E+02
     -1.079  0.3353E-01  0.6200E+02
     -0.975  0.1948E+00  0.6202E+02
     -0.872  0.7513E+00  0.6210E+02
     -0.768  0.8717E+00  0.6219E+02
     -0.665  0.1544E+01  0.6235E+02
     -0.561  0.3320E+01  0.6269E+02
     -0.458  0.3119E+01  0.6302E+02
     -0.354  0.2422E+01  0.6327E+02
     -0.251  0.2332E+01  0.6351E+02
     -0.147  0.2135E+01  0.6373E+02
     -0.044  0.1743E+01  0.6391E+02
      0.060  0.7284E+00  0.6398E+02
      0.163  0.2966E+00  0.6402E+02
      0.267  0.9921E+00  0.6412E+02
      0.371  0.1921E+01  0.6432E+02
      0.474  0.1658E+01  0.6449E+02
      0.578  0.1102E+01  0.6460E+02
      0.681  0.1208E+01  0.6473E+02
      0.785  0.2395E+01  0.6498E+02
      0.888  0.3660E+01  0.6535E+02
      0.992  0.3119E+01  0.6568E+02
      1.095  0.2054E+01  0.6589E+02
      1.199  0.1219E+01  0.6602E+02
      1.302  0.1025E+01  0.6612E+02
      1.406  0.1861E+01  0.6631E+02
      1.509  0.1890E+01  0.6651E+02
      1.613  0.1912E+01  0.6671E+02
      1.716  0.1750E+01  0.6689E+02
      1.820  0.1723E+01  0.6707E+02
      1.923  0.1862E+01  0.6726E+02
      2.027  0.2163E+01  0.6748E+02
      2.130  0.2555E+01  0.6775E+02
      2.234  0.2774E+01  0.6804E+02
      2.337  0.3023E+01  0.6835E+02
      2.441  0.3183E+01  0.6868E+02
      2.544  0.3913E+01  0.6908E+02
      2.648  0.3069E+01  0.6940E+02
      2.751  0.2342E+01  0.6964E+02
      2.855  0.1734E+01  0.6982E+02
      2.958  0.2581E+01  0.7009E+02
      3.062  0.3204E+01  0.7042E+02
      3.166  0.2941E+01  0.7073E+02
      3.269  0.2696E+01  0.7101E+02
      3.373  0.2881E+01  0.7130E+02
      3.476  0.2762E+01  0.7159E+02
      3.580  0.3410E+01  0.7194E+02
      3.683  0.3573E+01  0.7231E+02
      3.787  0.3002E+01  0.7262E+02
      3.890  0.2050E+01  0.7284E+02
      3.994  0.3250E+01  0.7317E+02
      4.097  0.5354E+01  0.7373E+02
      4.201  0.4697E+01  0.7421E+02
      4.304  0.2686E+01  0.7449E+02
      4.408  0.2978E+01  0.7480E+02
      4.511  0.4567E+01  0.7527E+02
      4.615  0.4290E+01  0.7572E+02
      4.718  0.4640E+01  0.7620E+02
      4.822  0.3640E+01  0.7657E+02
      4.925  0.3861E+01  0.7697E+02
      5.029  0.3306E+01  0.7732E+02
      5.132  0.3556E+01  0.7768E+02
      5.236  0.5737E+01  0.7828E+02
      5.339  0.5557E+01  0.7885E+02
      5.443  0.4804E+01  0.7935E+02
      5.546  0.4640E+01  0.7983E+02
      5.650  0.3977E+01  0.8024E+02
      5.754  0.1980E+01  0.8045E+02
      5.857  0.4049E+01  0.8087E+02
      5.961  0.6986E+01  0.8159E+02
      6.064  0.7487E+01  0.8236E+02
      6.168  0.7010E+01  0.8309E+02
      6.271  0.6612E+01  0.8377E+02
      6.375  0.5378E+01  0.8433E+02
      6.478  0.5082E+01  0.8486E+02
      6.582  0.5974E+01  0.8548E+02
      6.685  0.6400E+01  0.8614E+02
      6.789  0.7855E+01  0.8695E+02
      6.892  0.7718E+01  0.8775E+02
      6.996  0.7608E+01  0.8854E+02
      7.099  0.9626E+01  0.8953E+02
      7.203  0.9445E+01  0.9051E+02
      7.306  0.5793E+01  0.9111E+02
      7.410  0.6445E+01  0.9178E+02
      7.513  0.8410E+01  0.9265E+02
      7.617  0.9266E+01  0.9361E+02
      7.720  0.8597E+01  0.9450E+02
      7.824  0.6721E+01  0.9519E+02
      7.927  0.3941E+01  0.9560E+02
      8.031  0.1915E+01  0.9580E+02
      8.134  0.7677E+00  0.9588E+02
      8.238  0.2135E+00  0.9590E+02
      8.342  0.2838E+00  0.9593E+02
      8.445  0.5012E+00  0.9598E+02
      8.549  0.1518E+00  0.9600E+02
      8.652  0.7112E-02  0.9600E+02
      8.756  0.4659E-04  0.9600E+02
      8.859  0.3975E-07  0.9600E+02
      8.963  0.4244E-11  0.9600E+02
      9.066  0.0000E+00  0.9600E+02
      9.170  0.0000E+00  0.9600E+02
      9.273  0.0000E+00  0.9600E+02
      9.377  0.0000E+00  0.9600E+02
      9.480  0.0000E+00  0.9600E+02
      9.584  0.0000E+00  0.9600E+02
      9.687  0.0000E+00  0.9600E+02
      9.791  0.0000E+00  0.9600E+02
