   8   8   1   4
  0.4142730E+02  0.5051000E-09  0.5051000E-09  0.1500000E-08  0.5000000E-15
  1.000000000000000E-004
  CAR 
 PDOS                                    
     13.15374908    -19.36961326 4000     -2.15174896      1.00000000
    -19.370  0.0000E+00  0.0000E+00
    -19.361  0.0000E+00  0.0000E+00
    -19.353  0.0000E+00  0.0000E+00
    -19.345  0.0000E+00  0.0000E+00
    -19.337  0.0000E+00  0.0000E+00
    -19.329  0.0000E+00  0.0000E+00
    -19.321  0.0000E+00  0.0000E+00
    -19.313  0.0000E+00  0.0000E+00
    -19.305  0.0000E+00  0.0000E+00
    -19.296  0.0000E+00  0.0000E+00
    -19.288  0.0000E+00  0.0000E+00
    -19.280  0.0000E+00  0.0000E+00
    -19.272  0.0000E+00  0.0000E+00
    -19.264  0.0000E+00  0.0000E+00
    -19.256  0.0000E+00  0.0000E+00
    -19.248  0.0000E+00  0.0000E+00
    -19.239  0.0000E+00  0.0000E+00
    -19.231  0.0000E+00  0.0000E+00
    -19.223  0.0000E+00  0.0000E+00
    -19.215  0.0000E+00  0.0000E+00
    -19.207  0.0000E+00  0.0000E+00
    -19.199  0.0000E+00  0.0000E+00
    -19.191  0.0000E+00  0.0000E+00
    -19.183  0.0000E+00  0.0000E+00
    -19.174  0.0000E+00  0.0000E+00
    -19.166  0.0000E+00  0.0000E+00
    -19.158  0.0000E+00  0.0000E+00
    -19.150  0.0000E+00  0.0000E+00
    -19.142  0.0000E+00  0.0000E+00
    -19.134  0.0000E+00  0.0000E+00
    -19.126  0.0000E+00  0.0000E+00
    -19.117  0.0000E+00  0.0000E+00
    -19.109  0.0000E+00  0.0000E+00
    -19.101  0.0000E+00  0.0000E+00
    -19.093  0.0000E+00  0.0000E+00
    -19.085  0.0000E+00  0.0000E+00
    -19.077  0.0000E+00  0.0000E+00
    -19.069  0.0000E+00  0.0000E+00
    -19.061  0.0000E+00  0.0000E+00
    -19.052  0.0000E+00  0.0000E+00
    -19.044  0.0000E+00  0.0000E+00
    -19.036  0.0000E+00  0.0000E+00
    -19.028  0.0000E+00  0.0000E+00
    -19.020  0.0000E+00  0.0000E+00
    -19.012  0.0000E+00  0.0000E+00
    -19.004  0.0000E+00  0.0000E+00
    -18.996  0.0000E+00  0.0000E+00
    -18.987  0.0000E+00  0.0000E+00
    -18.979  0.0000E+00  0.0000E+00
    -18.971  0.0000E+00  0.0000E+00
    -18.963  0.0000E+00  0.0000E+00
    -18.955  0.0000E+00  0.0000E+00
    -18.947  0.0000E+00  0.0000E+00
    -18.939  0.0000E+00  0.0000E+00
    -18.930  0.0000E+00  0.0000E+00
    -18.922  0.0000E+00  0.0000E+00
    -18.914  0.0000E+00  0.0000E+00
    -18.906  0.0000E+00  0.0000E+00
    -18.898  0.0000E+00  0.0000E+00
    -18.890  0.0000E+00  0.0000E+00
    -18.882  0.0000E+00  0.0000E+00
    -18.874  0.0000E+00  0.0000E+00
    -18.865  0.0000E+00  0.0000E+00
    -18.857  0.0000E+00  0.0000E+00
    -18.849  0.0000E+00  0.0000E+00
    -18.841  0.0000E+00  0.0000E+00
    -18.833  0.0000E+00  0.0000E+00
    -18.825  0.0000E+00  0.0000E+00
    -18.817  0.0000E+00  0.0000E+00
    -18.808  0.0000E+00  0.0000E+00
    -18.800  0.0000E+00  0.0000E+00
    -18.792  0.0000E+00  0.0000E+00
    -18.784  0.0000E+00  0.0000E+00
    -18.776  0.0000E+00  0.0000E+00
    -18.768  0.0000E+00  0.0000E+00
    -18.760  0.0000E+00  0.0000E+00
    -18.752  0.0000E+00  0.0000E+00
    -18.743  0.0000E+00  0.0000E+00
    -18.735  0.0000E+00  0.0000E+00
    -18.727  0.0000E+00  0.0000E+00
    -18.719  0.0000E+00  0.0000E+00
    -18.711  0.0000E+00  0.0000E+00
    -18.703  0.0000E+00  0.0000E+00
    -18.695  0.0000E+00  0.0000E+00
    -18.686  0.0000E+00  0.0000E+00
    -18.678  0.0000E+00  0.0000E+00
    -18.670  0.0000E+00  0.0000E+00
    -18.662  0.0000E+00  0.0000E+00
    -18.654  0.0000E+00  0.0000E+00
    -18.646  0.0000E+00  0.0000E+00
    -18.638  0.0000E+00  0.0000E+00
    -18.630  0.0000E+00  0.0000E+00
    -18.621  0.0000E+00  0.0000E+00
    -18.613  0.0000E+00  0.0000E+00
    -18.605  0.0000E+00  0.0000E+00
    -18.597  0.0000E+00  0.0000E+00
    -18.589  0.0000E+00  0.0000E+00
    -18.581  0.0000E+00  0.0000E+00
    -18.573  0.0000E+00  0.0000E+00
    -18.564  0.0000E+00  0.0000E+00
    -18.556  0.0000E+00  0.0000E+00
    -18.548  0.0000E+00  0.0000E+00
    -18.540  0.0000E+00  0.0000E+00
    -18.532  0.0000E+00  0.0000E+00
    -18.524  0.0000E+00  0.0000E+00
    -18.516  0.0000E+00  0.0000E+00
    -18.508  0.0000E+00  0.0000E+00
    -18.499  0.0000E+00  0.0000E+00
    -18.491  0.0000E+00  0.0000E+00
    -18.483  0.0000E+00  0.0000E+00
    -18.475  0.0000E+00  0.0000E+00
    -18.467  0.0000E+00  0.0000E+00
    -18.459  0.0000E+00  0.0000E+00
    -18.451  0.0000E+00  0.0000E+00
    -18.442  0.0000E+00  0.0000E+00
    -18.434  0.0000E+00  0.0000E+00
    -18.426  0.0000E+00  0.0000E+00
    -18.418  0.0000E+00  0.0000E+00
    -18.410  0.0000E+00  0.0000E+00
    -18.402  0.0000E+00  0.0000E+00
    -18.394  0.0000E+00  0.0000E+00
    -18.386  0.0000E+00  0.0000E+00
    -18.377  0.0000E+00  0.0000E+00
    -18.369  0.0000E+00  0.0000E+00
    -18.361  0.0000E+00  0.0000E+00
    -18.353  0.0000E+00  0.0000E+00
    -18.345  0.0000E+00  0.0000E+00
    -18.337  0.0000E+00  0.0000E+00
    -18.329  0.0000E+00  0.0000E+00
    -18.320  0.0000E+00  0.0000E+00
    -18.312  0.0000E+00  0.0000E+00
    -18.304  0.0000E+00  0.0000E+00
    -18.296  0.0000E+00  0.0000E+00
    -18.288  0.0000E+00  0.0000E+00
    -18.280  0.0000E+00  0.0000E+00
    -18.272  0.0000E+00  0.0000E+00
    -18.264  0.0000E+00  0.0000E+00
    -18.255  0.0000E+00  0.0000E+00
    -18.247  0.0000E+00  0.0000E+00
    -18.239  0.0000E+00  0.0000E+00
    -18.231  0.0000E+00  0.0000E+00
    -18.223  0.0000E+00  0.0000E+00
    -18.215  0.0000E+00  0.0000E+00
    -18.207  0.0000E+00  0.0000E+00
    -18.198  0.0000E+00  0.0000E+00
    -18.190  0.0000E+00  0.0000E+00
    -18.182  0.0000E+00  0.0000E+00
    -18.174  0.0000E+00  0.0000E+00
    -18.166  0.0000E+00  0.0000E+00
    -18.158  0.0000E+00  0.0000E+00
    -18.150  0.0000E+00  0.0000E+00
    -18.142  0.0000E+00  0.0000E+00
    -18.133  0.0000E+00  0.0000E+00
    -18.125  0.0000E+00  0.0000E+00
    -18.117  0.0000E+00  0.0000E+00
    -18.109  0.0000E+00  0.0000E+00
    -18.101  0.0000E+00  0.0000E+00
    -18.093  0.0000E+00  0.0000E+00
    -18.085  0.0000E+00  0.0000E+00
    -18.076  0.0000E+00  0.0000E+00
    -18.068  0.0000E+00  0.0000E+00
    -18.060  0.0000E+00  0.0000E+00
    -18.052  0.0000E+00  0.0000E+00
    -18.044  0.0000E+00  0.0000E+00
    -18.036  0.0000E+00  0.0000E+00
    -18.028  0.0000E+00  0.0000E+00
    -18.020  0.0000E+00  0.0000E+00
    -18.011  0.0000E+00  0.0000E+00
    -18.003  0.0000E+00  0.0000E+00
    -17.995  0.0000E+00  0.0000E+00
    -17.987  0.0000E+00  0.0000E+00
    -17.979  0.0000E+00  0.0000E+00
    -17.971  0.0000E+00  0.0000E+00
    -17.963  0.0000E+00  0.0000E+00
    -17.954  0.0000E+00  0.0000E+00
    -17.946  0.0000E+00  0.0000E+00
    -17.938  0.0000E+00  0.0000E+00
    -17.930  0.0000E+00  0.0000E+00
    -17.922  0.0000E+00  0.0000E+00
    -17.914  0.0000E+00  0.0000E+00
    -17.906  0.0000E+00  0.0000E+00
    -17.898  0.0000E+00  0.0000E+00
    -17.889  0.1296E+00  0.1198E-03
    -17.881  0.6998E+00  0.3492E-02
    -17.873  0.1270E+01  0.1150E-01
    -17.865  0.1840E+01  0.2415E-01
    -17.857  0.2410E+01  0.4143E-01
    -17.849  0.1358E+01  0.5617E-01
    -17.841  0.1407E+01  0.6742E-01
    -17.833  0.1456E+01  0.7907E-01
    -17.824  0.1505E+01  0.9111E-01
    -17.816  0.1554E+01  0.1036E+00
    -17.808  0.1603E+01  0.1164E+00
    -17.800  0.1652E+01  0.1296E+00
    -17.792  0.1701E+01  0.1433E+00
    -17.784  0.1750E+01  0.1573E+00
    -17.776  0.1755E+01  0.1717E+00
    -17.767  0.1699E+01  0.1857E+00
    -17.759  0.1643E+01  0.1993E+00
    -17.751  0.1587E+01  0.2124E+00
    -17.743  0.1532E+01  0.2251E+00
    -17.735  0.1542E+01  0.2376E+00
    -17.727  0.1561E+01  0.2502E+00
    -17.719  0.1580E+01  0.2630E+00
    -17.711  0.1598E+01  0.2759E+00
    -17.702  0.1617E+01  0.2890E+00
    -17.694  0.1636E+01  0.3022E+00
    -17.686  0.1654E+01  0.3156E+00
    -17.678  0.1673E+01  0.3291E+00
    -17.670  0.1692E+01  0.3428E+00
    -17.662  0.1710E+01  0.3566E+00
    -17.654  0.1729E+01  0.3706E+00
    -17.645  0.1748E+01  0.3847E+00
    -17.637  0.1767E+01  0.3990E+00
    -17.629  0.1659E+01  0.4131E+00
    -17.621  0.1659E+01  0.4265E+00
    -17.613  0.1659E+01  0.4400E+00
    -17.605  0.1659E+01  0.4535E+00
    -17.597  0.1659E+01  0.4670E+00
    -17.589  0.1658E+01  0.4805E+00
    -17.580  0.1658E+01  0.4940E+00
    -17.572  0.1658E+01  0.5075E+00
    -17.564  0.1658E+01  0.5210E+00
    -17.556  0.1667E+01  0.5345E+00
    -17.548  0.1679E+01  0.5481E+00
    -17.540  0.1691E+01  0.5618E+00
    -17.532  0.1703E+01  0.5756E+00
    -17.523  0.1715E+01  0.5895E+00
    -17.515  0.1727E+01  0.6035E+00
    -17.507  0.1739E+01  0.6176E+00
    -17.499  0.1752E+01  0.6318E+00
    -17.491  0.1764E+01  0.6461E+00
    -17.483  0.1776E+01  0.6605E+00
    -17.475  0.1788E+01  0.6750E+00
    -17.467  0.1800E+01  0.6896E+00
    -17.458  0.1812E+01  0.7042E+00
    -17.450  0.1808E+01  0.7190E+00
    -17.442  0.1794E+01  0.7336E+00
    -17.434  0.1779E+01  0.7482E+00
    -17.426  0.1765E+01  0.7626E+00
    -17.418  0.1766E+01  0.7769E+00
    -17.410  0.1776E+01  0.7913E+00
    -17.401  0.1786E+01  0.8058E+00
    -17.393  0.1795E+01  0.8204E+00
    -17.385  0.1805E+01  0.8350E+00
    -17.377  0.1815E+01  0.8497E+00
    -17.369  0.1825E+01  0.8645E+00
    -17.361  0.1835E+01  0.8794E+00
    -17.353  0.1845E+01  0.8944E+00
    -17.345  0.1855E+01  0.9094E+00
    -17.336  0.1864E+01  0.9245E+00
    -17.328  0.1874E+01  0.9397E+00
    -17.320  0.1891E+01  0.9551E+00
    -17.312  0.1908E+01  0.9705E+00
    -17.304  0.1926E+01  0.9861E+00
    -17.296  0.1943E+01  0.1002E+01
    -17.288  0.1960E+01  0.1018E+01
    -17.279  0.1977E+01  0.1034E+01
    -17.271  0.1994E+01  0.1050E+01
    -17.263  0.2011E+01  0.1066E+01
    -17.255  0.2028E+01  0.1083E+01
    -17.247  0.2045E+01  0.1099E+01
    -17.239  0.2063E+01  0.1116E+01
    -17.231  0.2080E+01  0.1133E+01
    -17.223  0.2097E+01  0.1150E+01
    -17.214  0.2097E+01  0.1167E+01
    -17.206  0.2121E+01  0.1184E+01
    -17.198  0.2145E+01  0.1201E+01
    -17.190  0.2169E+01  0.1219E+01
    -17.182  0.2193E+01  0.1236E+01
    -17.174  0.2248E+01  0.1254E+01
    -17.166  0.2332E+01  0.1273E+01
    -17.157  0.2417E+01  0.1292E+01
    -17.149  0.2501E+01  0.1312E+01
    -17.141  0.2585E+01  0.1333E+01
    -17.133  0.2670E+01  0.1354E+01
    -17.125  0.2754E+01  0.1376E+01
    -17.117  0.2838E+01  0.1399E+01
    -17.109  0.2923E+01  0.1423E+01
    -17.101  0.4218E+01  0.1450E+01
    -17.092  0.3962E+01  0.1484E+01
    -17.084  0.3706E+01  0.1515E+01
    -17.076  0.3451E+01  0.1544E+01
    -17.068  0.3195E+01  0.1571E+01
    -17.060  0.2939E+01  0.1596E+01
    -17.052  0.2683E+01  0.1619E+01
    -17.044  0.2427E+01  0.1640E+01
    -17.035  0.2171E+01  0.1658E+01
    -17.027  0.2015E+01  0.1675E+01
    -17.019  0.2239E+01  0.1692E+01
    -17.011  0.2463E+01  0.1711E+01
    -17.003  0.2687E+01  0.1732E+01
    -16.995  0.2911E+01  0.1755E+01
    -16.987  0.3135E+01  0.1780E+01
    -16.979  0.1400E+01  0.1791E+01
    -16.970  0.1409E+01  0.1803E+01
    -16.962  0.1370E+01  0.1814E+01
    -16.954  0.1332E+01  0.1825E+01
    -16.946  0.1293E+01  0.1836E+01
    -16.938  0.1254E+01  0.1846E+01
    -16.930  0.1215E+01  0.1856E+01
    -16.922  0.1177E+01  0.1866E+01
    -16.913  0.1138E+01  0.1875E+01
    -16.905  0.1099E+01  0.1884E+01
    -16.897  0.1060E+01  0.1893E+01
    -16.889  0.1021E+01  0.1902E+01
    -16.881  0.9827E+00  0.1910E+01
    -16.873  0.9440E+00  0.1918E+01
    -16.865  0.9052E+00  0.1925E+01
    -16.857  0.8665E+00  0.1932E+01
    -16.848  0.8277E+00  0.1939E+01
    -16.840  0.7890E+00  0.1946E+01
    -16.832  0.7502E+00  0.1952E+01
    -16.824  0.7114E+00  0.1958E+01
    -16.816  0.6727E+00  0.1964E+01
    -16.808  0.6339E+00  0.1969E+01
    -16.800  0.5952E+00  0.1974E+01
    -16.791  0.5564E+00  0.1979E+01
    -16.783  0.5177E+00  0.1983E+01
    -16.775  0.2032E+01  0.2000E+01
    -16.767  0.0000E+00  0.2000E+01
    -16.759  0.0000E+00  0.2000E+01
    -16.751  0.0000E+00  0.2000E+01
    -16.743  0.0000E+00  0.2000E+01
    -16.735  0.0000E+00  0.2000E+01
    -16.726  0.0000E+00  0.2000E+01
    -16.718  0.0000E+00  0.2000E+01
    -16.710  0.0000E+00  0.2000E+01
    -16.702  0.0000E+00  0.2000E+01
    -16.694  0.0000E+00  0.2000E+01
    -16.686  0.0000E+00  0.2000E+01
    -16.678  0.0000E+00  0.2000E+01
    -16.669  0.0000E+00  0.2000E+01
    -16.661  0.0000E+00  0.2000E+01
    -16.653  0.0000E+00  0.2000E+01
    -16.645  0.0000E+00  0.2000E+01
    -16.637  0.0000E+00  0.2000E+01
    -16.629  0.0000E+00  0.2000E+01
    -16.621  0.0000E+00  0.2000E+01
    -16.613  0.0000E+00  0.2000E+01
    -16.604  0.0000E+00  0.2000E+01
    -16.596  0.0000E+00  0.2000E+01
    -16.588  0.0000E+00  0.2000E+01
    -16.580  0.0000E+00  0.2000E+01
    -16.572  0.0000E+00  0.2000E+01
    -16.564  0.0000E+00  0.2000E+01
    -16.556  0.0000E+00  0.2000E+01
    -16.548  0.0000E+00  0.2000E+01
    -16.539  0.0000E+00  0.2000E+01
    -16.531  0.0000E+00  0.2000E+01
    -16.523  0.0000E+00  0.2000E+01
    -16.515  0.0000E+00  0.2000E+01
    -16.507  0.2516E+01  0.2019E+01
    -16.499  0.5229E+00  0.2023E+01
    -16.491  0.5625E+00  0.2027E+01
    -16.482  0.6021E+00  0.2032E+01
    -16.474  0.6417E+00  0.2037E+01
    -16.466  0.6813E+00  0.2042E+01
    -16.458  0.7210E+00  0.2048E+01
    -16.450  0.7606E+00  0.2054E+01
    -16.442  0.8002E+00  0.2060E+01
    -16.434  0.8398E+00  0.2067E+01
    -16.426  0.8794E+00  0.2074E+01
    -16.417  0.9191E+00  0.2081E+01
    -16.409  0.9587E+00  0.2089E+01
    -16.401  0.9983E+00  0.2097E+01
    -16.393  0.1038E+01  0.2105E+01
    -16.385  0.1078E+01  0.2114E+01
    -16.377  0.1117E+01  0.2123E+01
    -16.369  0.1157E+01  0.2132E+01
    -16.360  0.1196E+01  0.2142E+01
    -16.352  0.1236E+01  0.2151E+01
    -16.344  0.1276E+01  0.2162E+01
    -16.336  0.1315E+01  0.2172E+01
    -16.328  0.1355E+01  0.2183E+01
    -16.320  0.1394E+01  0.2194E+01
    -16.312  0.1434E+01  0.2206E+01
    -16.304  0.2930E+01  0.2266E+01
    -16.295  0.1759E+01  0.2280E+01
    -16.287  0.1971E+01  0.2295E+01
    -16.279  0.2182E+01  0.2312E+01
    -16.271  0.2394E+01  0.2331E+01
    -16.263  0.2606E+01  0.2351E+01
    -16.255  0.2817E+01  0.2373E+01
    -16.247  0.3029E+01  0.2397E+01
    -16.238  0.3241E+01  0.2423E+01
    -16.230  0.3453E+01  0.2450E+01
    -16.222  0.2302E+01  0.2475E+01
    -16.214  0.2257E+01  0.2493E+01
    -16.206  0.2213E+01  0.2512E+01
    -16.198  0.2168E+01  0.2529E+01
    -16.190  0.2123E+01  0.2547E+01
    -16.182  0.2078E+01  0.2564E+01
    -16.173  0.2033E+01  0.2581E+01
    -16.165  0.1988E+01  0.2597E+01
    -16.157  0.1943E+01  0.2613E+01
    -16.149  0.1898E+01  0.2629E+01
    -16.141  0.1853E+01  0.2644E+01
    -16.133  0.1808E+01  0.2659E+01
    -16.125  0.1763E+01  0.2673E+01
    -16.116  0.1718E+01  0.2688E+01
    -16.108  0.1673E+01  0.2701E+01
    -16.100  0.1628E+01  0.2715E+01
    -16.092  0.1592E+01  0.2728E+01
    -16.084  0.1571E+01  0.2741E+01
    -16.076  0.1550E+01  0.2753E+01
    -16.068  0.1528E+01  0.2766E+01
    -16.060  0.1507E+01  0.2778E+01
    -16.051  0.1486E+01  0.2790E+01
    -16.043  0.1464E+01  0.2802E+01
    -16.035  0.1443E+01  0.2814E+01
    -16.027  0.1422E+01  0.2826E+01
    -16.019  0.1401E+01  0.2837E+01
    -16.011  0.1379E+01  0.2849E+01
    -16.003  0.1358E+01  0.2860E+01
    -15.994  0.1337E+01  0.2871E+01
    -15.986  0.1315E+01  0.2881E+01
    -15.978  0.1237E+01  0.2892E+01
    -15.970  0.1229E+01  0.2902E+01
    -15.962  0.1221E+01  0.2912E+01
    -15.954  0.1214E+01  0.2922E+01
    -15.946  0.1206E+01  0.2931E+01
    -15.938  0.1198E+01  0.2941E+01
    -15.929  0.1190E+01  0.2951E+01
    -15.921  0.1182E+01  0.2961E+01
    -15.913  0.1175E+01  0.2970E+01
    -15.905  0.1167E+01  0.2980E+01
    -15.897  0.1159E+01  0.2989E+01
    -15.889  0.1151E+01  0.2998E+01
    -15.881  0.1143E+01  0.3008E+01
    -15.872  0.1136E+01  0.3017E+01
    -15.864  0.1129E+01  0.3026E+01
    -15.856  0.1122E+01  0.3035E+01
    -15.848  0.1115E+01  0.3045E+01
    -15.840  0.1108E+01  0.3054E+01
    -15.832  0.1101E+01  0.3063E+01
    -15.824  0.1094E+01  0.3071E+01
    -15.816  0.1087E+01  0.3080E+01
    -15.807  0.1080E+01  0.3089E+01
    -15.799  0.1072E+01  0.3098E+01
    -15.791  0.1065E+01  0.3107E+01
    -15.783  0.1058E+01  0.3115E+01
    -15.775  0.1051E+01  0.3124E+01
    -15.767  0.1044E+01  0.3132E+01
    -15.759  0.1037E+01  0.3141E+01
    -15.750  0.1030E+01  0.3149E+01
    -15.742  0.1023E+01  0.3158E+01
    -15.734  0.1016E+01  0.3166E+01
    -15.726  0.1009E+01  0.3174E+01
    -15.718  0.1002E+01  0.3182E+01
    -15.710  0.9951E+00  0.3190E+01
    -15.702  0.9881E+00  0.3198E+01
    -15.694  0.9810E+00  0.3206E+01
    -15.685  0.9740E+00  0.3214E+01
    -15.677  0.9670E+00  0.3222E+01
    -15.669  0.9538E+00  0.3230E+01
    -15.661  0.9402E+00  0.3238E+01
    -15.653  0.9267E+00  0.3245E+01
    -15.645  0.9132E+00  0.3253E+01
    -15.637  0.8997E+00  0.3260E+01
    -15.628  0.8862E+00  0.3267E+01
    -15.620  0.8727E+00  0.3275E+01
    -15.612  0.8592E+00  0.3282E+01
    -15.604  0.8456E+00  0.3289E+01
    -15.596  0.8321E+00  0.3295E+01
    -15.588  0.8192E+00  0.3302E+01
    -15.580  0.8158E+00  0.3309E+01
    -15.572  0.8125E+00  0.3315E+01
    -15.563  0.8092E+00  0.3322E+01
    -15.555  0.8058E+00  0.3329E+01
    -15.547  0.8025E+00  0.3335E+01
    -15.539  0.7991E+00  0.3342E+01
    -15.531  0.7958E+00  0.3348E+01
    -15.523  0.7924E+00  0.3355E+01
    -15.515  0.7891E+00  0.3361E+01
    -15.506  0.7857E+00  0.3367E+01
    -15.498  0.7824E+00  0.3374E+01
    -15.490  0.7791E+00  0.3380E+01
    -15.482  0.7757E+00  0.3386E+01
    -15.474  0.7724E+00  0.3393E+01
    -15.466  0.7690E+00  0.3399E+01
    -15.458  0.7657E+00  0.3405E+01
    -15.450  0.7623E+00  0.3411E+01
    -15.441  0.7590E+00  0.3418E+01
    -15.433  0.7557E+00  0.3424E+01
    -15.425  0.7523E+00  0.3430E+01
    -15.417  0.7490E+00  0.3436E+01
    -15.409  0.7456E+00  0.3442E+01
    -15.401  0.7423E+00  0.3448E+01
    -15.393  0.7389E+00  0.3454E+01
    -15.385  0.7340E+00  0.3460E+01
    -15.376  0.7290E+00  0.3466E+01
    -15.368  0.7241E+00  0.3472E+01
    -15.360  0.7191E+00  0.3478E+01
    -15.352  0.7141E+00  0.3484E+01
    -15.344  0.7091E+00  0.3490E+01
    -15.336  0.7042E+00  0.3495E+01
    -15.328  0.6992E+00  0.3501E+01
    -15.319  0.6942E+00  0.3507E+01
    -15.311  0.6893E+00  0.3512E+01
    -15.303  0.6843E+00  0.3518E+01
    -15.295  0.6793E+00  0.3523E+01
    -15.287  0.6744E+00  0.3529E+01
    -15.279  0.6694E+00  0.3534E+01
    -15.271  0.6644E+00  0.3540E+01
    -15.263  0.6595E+00  0.3545E+01
    -15.254  0.6545E+00  0.3551E+01
    -15.246  0.6495E+00  0.3556E+01
    -15.238  0.6446E+00  0.3561E+01
    -15.230  0.6396E+00  0.3566E+01
    -15.222  0.6346E+00  0.3572E+01
    -15.214  0.6297E+00  0.3577E+01
    -15.206  0.6247E+00  0.3582E+01
    -15.197  0.6197E+00  0.3587E+01
    -15.189  0.5646E+00  0.3592E+01
    -15.181  0.5621E+00  0.3596E+01
    -15.173  0.5596E+00  0.3601E+01
    -15.165  0.5572E+00  0.3605E+01
    -15.157  0.5547E+00  0.3610E+01
    -15.149  0.5522E+00  0.3614E+01
    -15.141  0.5497E+00  0.3619E+01
    -15.132  0.5472E+00  0.3623E+01
    -15.124  0.5447E+00  0.3628E+01
    -15.116  0.5422E+00  0.3632E+01
    -15.108  0.5398E+00  0.3637E+01
    -15.100  0.5373E+00  0.3641E+01
    -15.092  0.5348E+00  0.3645E+01
    -15.084  0.5323E+00  0.3650E+01
    -15.075  0.5298E+00  0.3654E+01
    -15.067  0.5273E+00  0.3658E+01
    -15.059  0.5248E+00  0.3663E+01
    -15.051  0.5224E+00  0.3667E+01
    -15.043  0.5199E+00  0.3671E+01
    -15.035  0.5174E+00  0.3675E+01
    -15.027  0.5149E+00  0.3680E+01
    -15.019  0.5124E+00  0.3684E+01
    -15.010  0.5099E+00  0.3688E+01
    -15.002  0.5074E+00  0.3692E+01
    -14.994  0.5050E+00  0.3696E+01
    -14.986  0.5025E+00  0.3700E+01
    -14.978  0.5000E+00  0.3704E+01
    -14.970  0.4975E+00  0.3708E+01
    -14.962  0.4950E+00  0.3712E+01
    -14.953  0.4925E+00  0.3716E+01
    -14.945  0.4900E+00  0.3720E+01
    -14.937  0.4876E+00  0.3724E+01
    -14.929  0.4851E+00  0.3728E+01
    -14.921  0.4826E+00  0.3732E+01
    -14.913  0.4801E+00  0.3736E+01
    -14.905  0.4776E+00  0.3740E+01
    -14.897  0.4751E+00  0.3744E+01
    -14.888  0.4726E+00  0.3748E+01
    -14.880  0.4702E+00  0.3752E+01
    -14.872  0.4677E+00  0.3755E+01
    -14.864  0.4652E+00  0.3759E+01
    -14.856  0.4627E+00  0.3763E+01
    -14.848  0.4589E+00  0.3767E+01
    -14.840  0.4529E+00  0.3770E+01
    -14.831  0.4470E+00  0.3774E+01
    -14.823  0.4410E+00  0.3778E+01
    -14.815  0.4350E+00  0.3781E+01
    -14.807  0.4291E+00  0.3785E+01
    -14.799  0.4231E+00  0.3788E+01
    -14.791  0.4172E+00  0.3792E+01
    -14.783  0.4112E+00  0.3795E+01
    -14.775  0.4052E+00  0.3798E+01
    -14.766  0.3993E+00  0.3802E+01
    -14.758  0.3933E+00  0.3805E+01
    -14.750  0.3874E+00  0.3808E+01
    -14.742  0.3814E+00  0.3811E+01
    -14.734  0.3754E+00  0.3814E+01
    -14.726  0.3695E+00  0.3817E+01
    -14.718  0.3635E+00  0.3820E+01
    -14.709  0.3576E+00  0.3823E+01
    -14.701  0.3516E+00  0.3826E+01
    -14.693  0.3457E+00  0.3829E+01
    -14.685  0.3436E+00  0.3832E+01
    -14.677  0.3415E+00  0.3835E+01
    -14.669  0.3394E+00  0.3837E+01
    -14.661  0.3373E+00  0.3840E+01
    -14.653  0.3352E+00  0.3843E+01
    -14.644  0.3331E+00  0.3845E+01
    -14.636  0.3310E+00  0.3848E+01
    -14.628  0.3289E+00  0.3851E+01
    -14.620  0.3268E+00  0.3854E+01
    -14.612  0.3247E+00  0.3856E+01
    -14.604  0.3707E+01  0.3886E+01
    -14.596  0.1669E+01  0.3899E+01
    -14.587  0.1662E+01  0.3913E+01
    -14.579  0.1655E+01  0.3926E+01
    -14.571  0.1649E+01  0.3940E+01
    -14.563  0.1642E+01  0.3953E+01
    -14.555  0.1636E+01  0.3966E+01
    -14.547  0.1629E+01  0.3980E+01
    -14.539  0.1623E+01  0.3993E+01
    -14.531  0.1653E+01  0.4006E+01
    -14.522  0.1684E+01  0.4020E+01
    -14.514  0.1716E+01  0.4034E+01
    -14.506  0.1748E+01  0.4048E+01
    -14.498  0.1780E+01  0.4062E+01
    -14.490  0.1812E+01  0.4077E+01
    -14.482  0.1844E+01  0.4092E+01
    -14.474  0.1875E+01  0.4107E+01
    -14.465  0.1907E+01  0.4122E+01
    -14.457  0.1939E+01  0.4138E+01
    -14.449  0.1971E+01  0.4154E+01
    -14.441  0.2003E+01  0.4170E+01
    -14.433  0.2035E+01  0.4186E+01
    -14.425  0.1894E+01  0.4202E+01
    -14.417  0.1899E+01  0.4217E+01
    -14.409  0.1904E+01  0.4233E+01
    -14.400  0.1908E+01  0.4248E+01
    -14.392  0.1913E+01  0.4264E+01
    -14.384  0.1918E+01  0.4279E+01
    -14.376  0.1923E+01  0.4295E+01
    -14.368  0.1928E+01  0.4311E+01
    -14.360  0.1932E+01  0.4326E+01
    -14.352  0.1937E+01  0.4342E+01
    -14.343  0.1942E+01  0.4358E+01
    -14.335  0.1947E+01  0.4374E+01
    -14.327  0.2016E+01  0.4390E+01
    -14.319  0.2033E+01  0.4406E+01
    -14.311  0.2050E+01  0.4423E+01
    -14.303  0.2067E+01  0.4440E+01
    -14.295  0.2083E+01  0.4457E+01
    -14.287  0.2100E+01  0.4474E+01
    -14.278  0.2117E+01  0.4491E+01
    -14.270  0.2077E+01  0.4508E+01
    -14.262  0.2093E+01  0.4525E+01
    -14.254  0.2109E+01  0.4542E+01
    -14.246  0.2125E+01  0.4559E+01
    -14.238  0.2141E+01  0.4576E+01
    -14.230  0.2157E+01  0.4594E+01
    -14.222  0.2173E+01  0.4611E+01
    -14.213  0.2189E+01  0.4629E+01
    -14.205  0.2205E+01  0.4647E+01
    -14.197  0.2222E+01  0.4665E+01
    -14.189  0.2238E+01  0.4683E+01
    -14.181  0.2254E+01  0.4701E+01
    -14.173  0.2370E+01  0.4720E+01
    -14.165  0.2532E+01  0.4740E+01
    -14.156  0.2694E+01  0.4761E+01
    -14.148  0.2858E+01  0.4784E+01
    -14.140  0.2957E+01  0.4807E+01
    -14.132  0.3042E+01  0.4832E+01
    -14.124  0.3127E+01  0.4857E+01
    -14.116  0.3212E+01  0.4883E+01
    -14.108  0.3297E+01  0.4909E+01
    -14.100  0.3383E+01  0.4936E+01
    -14.091  0.3468E+01  0.4964E+01
    -14.083  0.3553E+01  0.4993E+01
    -14.075  0.3638E+01  0.5022E+01
    -14.067  0.3723E+01  0.5052E+01
    -14.059  0.3808E+01  0.5083E+01
    -14.051  0.3869E+01  0.5114E+01
    -14.043  0.3926E+01  0.5146E+01
    -14.034  0.3982E+01  0.5178E+01
    -14.026  0.4039E+01  0.5210E+01
    -14.018  0.4095E+01  0.5243E+01
    -14.010  0.3530E+01  0.5276E+01
    -14.002  0.3364E+01  0.5304E+01
    -13.994  0.3198E+01  0.5331E+01
    -13.986  0.3031E+01  0.5356E+01
    -13.978  0.2865E+01  0.5380E+01
    -13.969  0.2699E+01  0.5403E+01
    -13.961  0.2584E+01  0.5424E+01
    -13.953  0.2501E+01  0.5445E+01
    -13.945  0.2417E+01  0.5465E+01
    -13.937  0.2333E+01  0.5484E+01
    -13.929  0.2250E+01  0.5503E+01
    -13.921  0.2435E+01  0.5522E+01
    -13.912  0.2409E+01  0.5541E+01
    -13.904  0.2384E+01  0.5561E+01
    -13.896  0.2359E+01  0.5580E+01
    -13.888  0.2333E+01  0.5599E+01
    -13.880  0.2285E+01  0.5618E+01
    -13.872  0.2211E+01  0.5636E+01
    -13.864  0.2138E+01  0.5654E+01
    -13.856  0.2065E+01  0.5671E+01
    -13.847  0.1992E+01  0.5688E+01
    -13.839  0.1919E+01  0.5704E+01
    -13.831  0.1846E+01  0.5719E+01
    -13.823  0.1773E+01  0.5734E+01
    -13.815  0.1700E+01  0.5748E+01
    -13.807  0.1626E+01  0.5761E+01
    -13.799  0.1553E+01  0.5774E+01
    -13.790  0.1480E+01  0.5787E+01
    -13.782  0.1407E+01  0.5798E+01
    -13.774  0.2124E+01  0.5814E+01
    -13.766  0.2025E+01  0.5831E+01
    -13.758  0.1926E+01  0.5847E+01
    -13.750  0.1827E+01  0.5862E+01
    -13.742  0.1727E+01  0.5877E+01
    -13.734  0.1628E+01  0.5890E+01
    -13.725  0.1532E+01  0.5903E+01
    -13.717  0.1435E+01  0.5915E+01
    -13.709  0.1339E+01  0.5927E+01
    -13.701  0.1242E+01  0.5937E+01
    -13.693  0.1146E+01  0.5947E+01
    -13.685  0.2267E+01  0.5963E+01
    -13.677  0.1707E+01  0.5979E+01
    -13.668  0.1148E+01  0.5990E+01
    -13.660  0.5894E+00  0.5997E+01
    -13.652  0.3030E-01  0.6000E+01
    -13.644  0.2897E-02  0.6000E+01
    -13.636  0.5963E-02  0.6000E+01
    -13.628  0.9029E-02  0.6000E+01
    -13.620  0.1209E-01  0.6000E+01
    -13.612  0.1516E-01  0.6000E+01
    -13.603  0.1823E-01  0.6000E+01
    -13.595  0.2129E-01  0.6001E+01
    -13.587  0.2436E-01  0.6001E+01
    -13.579  0.2742E-01  0.6001E+01
    -13.571  0.3049E-01  0.6001E+01
    -13.563  0.3355E-01  0.6001E+01
    -13.555  0.3662E-01  0.6002E+01
    -13.546  0.3969E-01  0.6002E+01
    -13.538  0.4275E-01  0.6002E+01
    -13.530  0.4582E-01  0.6003E+01
    -13.522  0.4888E-01  0.6003E+01
    -13.514  0.5195E-01  0.6004E+01
    -13.506  0.5501E-01  0.6004E+01
    -13.498  0.5808E-01  0.6004E+01
    -13.490  0.6115E-01  0.6005E+01
    -13.481  0.6421E-01  0.6005E+01
    -13.473  0.6728E-01  0.6006E+01
    -13.465  0.7034E-01  0.6007E+01
    -13.457  0.7341E-01  0.6007E+01
    -13.449  0.7647E-01  0.6008E+01
    -13.441  0.7954E-01  0.6008E+01
    -13.433  0.8261E-01  0.6009E+01
    -13.424  0.8567E-01  0.6010E+01
    -13.416  0.8874E-01  0.6010E+01
    -13.408  0.9180E-01  0.6011E+01
    -13.400  0.9487E-01  0.6012E+01
    -13.392  0.9793E-01  0.6013E+01
    -13.384  0.1010E+00  0.6014E+01
    -13.376  0.1041E+00  0.6014E+01
    -13.368  0.1071E+00  0.6015E+01
    -13.359  0.1102E+00  0.6016E+01
    -13.351  0.1133E+00  0.6017E+01
    -13.343  0.1163E+00  0.6018E+01
    -13.335  0.1194E+00  0.6019E+01
    -13.327  0.1225E+00  0.6020E+01
    -13.319  0.1255E+00  0.6021E+01
    -13.311  0.1286E+00  0.6022E+01
    -13.302  0.1317E+00  0.6023E+01
    -13.294  0.1347E+00  0.6024E+01
    -13.286  0.1378E+00  0.6025E+01
    -13.278  0.1409E+00  0.6026E+01
    -13.270  0.1439E+00  0.6027E+01
    -13.262  0.1470E+00  0.6029E+01
    -13.254  0.1501E+00  0.6030E+01
    -13.246  0.1531E+00  0.6031E+01
    -13.237  0.1562E+00  0.6032E+01
    -13.229  0.1592E+00  0.6034E+01
    -13.221  0.1623E+00  0.6035E+01
    -13.213  0.1654E+00  0.6036E+01
    -13.205  0.1684E+00  0.6038E+01
    -13.197  0.1715E+00  0.6039E+01
    -13.189  0.1746E+00  0.6040E+01
    -13.180  0.1776E+00  0.6042E+01
    -13.172  0.1807E+00  0.6043E+01
    -13.164  0.1838E+00  0.6045E+01
    -13.156  0.1868E+00  0.6046E+01
    -13.148  0.1899E+00  0.6048E+01
    -13.140  0.1930E+00  0.6049E+01
    -13.132  0.2784E+00  0.6052E+01
    -13.124  0.2833E+00  0.6054E+01
    -13.115  0.2881E+00  0.6056E+01
    -13.107  0.2929E+00  0.6059E+01
    -13.099  0.2977E+00  0.6061E+01
    -13.091  0.3025E+00  0.6063E+01
    -13.083  0.3073E+00  0.6066E+01
    -13.075  0.3122E+00  0.6068E+01
    -13.067  0.3170E+00  0.6071E+01
    -13.059  0.3218E+00  0.6074E+01
    -13.050  0.3266E+00  0.6076E+01
    -13.042  0.3314E+00  0.6079E+01
    -13.034  0.3362E+00  0.6082E+01
    -13.026  0.3411E+00  0.6084E+01
    -13.018  0.3459E+00  0.6087E+01
    -13.010  0.3507E+00  0.6090E+01
    -13.002  0.3555E+00  0.6093E+01
    -12.993  0.3603E+00  0.6096E+01
    -12.985  0.3651E+00  0.6099E+01
    -12.977  0.3700E+00  0.6102E+01
    -12.969  0.3748E+00  0.6105E+01
    -12.961  0.3796E+00  0.6108E+01
    -12.953  0.3844E+00  0.6111E+01
    -12.945  0.3892E+00  0.6114E+01
    -12.937  0.3940E+00  0.6117E+01
    -12.928  0.3989E+00  0.6120E+01
    -12.920  0.4037E+00  0.6124E+01
    -12.912  0.4085E+00  0.6127E+01
    -12.904  0.4133E+00  0.6130E+01
    -12.896  0.4181E+00  0.6134E+01
    -12.888  0.4229E+00  0.6137E+01
    -12.880  0.4278E+00  0.6141E+01
    -12.871  0.4326E+00  0.6144E+01
    -12.863  0.4374E+00  0.6148E+01
    -12.855  0.4422E+00  0.6151E+01
    -12.847  0.4470E+00  0.6155E+01
    -12.839  0.4518E+00  0.6158E+01
    -12.831  0.4567E+00  0.6162E+01
    -12.823  0.4615E+00  0.6166E+01
    -12.815  0.4663E+00  0.6170E+01
    -12.806  0.4711E+00  0.6173E+01
    -12.798  0.4759E+00  0.6177E+01
    -12.790  0.4807E+00  0.6181E+01
    -12.782  0.4856E+00  0.6185E+01
    -12.774  0.5041E+00  0.6189E+01
    -12.766  0.5427E+00  0.6193E+01
    -12.758  0.5813E+00  0.6198E+01
    -12.749  0.6199E+00  0.6203E+01
    -12.741  0.6585E+00  0.6208E+01
    -12.733  0.1165E+01  0.6215E+01
    -12.725  0.1336E+01  0.6225E+01
    -12.717  0.1508E+01  0.6237E+01
    -12.709  0.1679E+01  0.6250E+01
    -12.701  0.1851E+01  0.6264E+01
    -12.693  0.2023E+01  0.6280E+01
    -12.684  0.2195E+01  0.6297E+01
    -12.676  0.2364E+01  0.6316E+01
    -12.668  0.2533E+01  0.6336E+01
    -12.660  0.2701E+01  0.6357E+01