       N       E                     dE             d eps       ncg     rms          rms(c)
DAV:   1     0.365173362088E+02    0.36517E+02   -0.86551E+03  1536   0.320E+02
DAV:   2    -0.494333450169E+02   -0.85951E+02   -0.84840E+02  2304   0.546E+01
DAV:   3    -0.504680995937E+02   -0.10348E+01   -0.10347E+01  2208   0.874E+00
DAV:   4    -0.504693948180E+02   -0.12952E-02   -0.12952E-02  2448   0.292E-01
DAV:   5    -0.504693951953E+02   -0.37735E-06   -0.37739E-06  2160   0.486E-03
DAV:   6    -0.504693951973E+02   -0.19638E-08   -0.18795E-08  2352   0.199E-04
   1 F= -.50469395E+02 E0= -.50466337E+02  d E =-.611610E-02
