       N       E                     dE             d eps       ncg     rms          rms(c)
DAV:   1     0.200546922395E+03    0.20055E+03   -0.25457E+04 14208   0.856E+02
DAV:   2    -0.115602355007E+03   -0.31615E+03   -0.31464E+03 20496   0.160E+02
DAV:   3    -0.128410855117E+03   -0.12809E+02   -0.12796E+02 27024   0.426E+01
DAV:   4    -0.128429647583E+03   -0.18792E-01   -0.18792E-01 20256   0.167E+00
DAV:   5    -0.128429703145E+03   -0.55561E-04   -0.55561E-04 26160   0.855E-02    0.239E+01
DAV:   6    -0.915726100312E+02    0.36857E+02   -0.74227E+01 25536   0.256E+01    0.135E+01
DAV:   7    -0.100034328592E+03   -0.84617E+01   -0.92441E+00 21744   0.978E+00    0.798E+00
DAV:   8    -0.110269579046E+03   -0.10235E+02   -0.89646E+00 24144   0.898E+00    0.427E+00
DAV:   9    -0.117059216282E+03   -0.67896E+01   -0.39676E+00 17424   0.615E+00    0.274E+00
DAV:  10    -0.123423072287E+03   -0.63639E+01   -0.83488E+00 25008   0.709E+00    0.159E+00
DAV:  11    -0.125160320621E+03   -0.17372E+01   -0.27317E+00 24912   0.380E+00    0.976E-01
DAV:  12    -0.125312656145E+03   -0.15234E+00   -0.20998E-01 19824   0.134E+00    0.459E-01
DAV:  13    -0.125340910387E+03   -0.28254E-01   -0.23551E-02 18624   0.550E-01    0.183E-01
DAV:  14    -0.125363701999E+03   -0.22792E-01   -0.59516E-03 19248   0.280E-01    0.815E-02
DAV:  15    -0.125370727452E+03   -0.70255E-02   -0.28302E-03 20400   0.151E-01    0.425E-02
DAV:  16    -0.125372717187E+03   -0.19897E-02   -0.61771E-04 16944   0.790E-02    0.212E-02
DAV:  17    -0.125373908213E+03   -0.11910E-02   -0.15701E-04 16320   0.504E-02    0.157E-02
DAV:  18    -0.125374625277E+03   -0.71706E-03   -0.76454E-05 16656   0.371E-02    0.114E-02
DAV:  19    -0.125375031102E+03   -0.40583E-03   -0.36596E-05 19632   0.241E-02    0.679E-03
DAV:  20    -0.125375097420E+03   -0.66318E-04   -0.18982E-05 22800   0.165E-02    0.410E-03
DAV:  21    -0.125375113183E+03   -0.15763E-04   -0.53461E-06 22224   0.880E-03    0.210E-03
DAV:  22    -0.125375133259E+03   -0.20076E-04   -0.20415E-06 20352   0.513E-03    0.132E-03
DAV:  23    -0.125375146993E+03   -0.13733E-04   -0.15144E-06 21696   0.363E-03    0.696E-04
DAV:  24    -0.125375149798E+03   -0.28057E-05   -0.27544E-07 21552   0.188E-03    0.366E-04
DAV:  25    -0.125375150738E+03   -0.93957E-06   -0.10775E-07 22992   0.105E-03
   1 F= -.12695450E+03 E0= -.12695372E+03  d E =-.126955E+03  mag=    -0.0000
       N       E                     dE             d eps       ncg     rms          rms(c)
DAV:   1    -0.125393607589E+03   -0.18458E-01   -0.51582E+00 14208   0.689E+00    0.601E-01
DAV:   2    -0.125380592275E+03    0.13015E-01   -0.10182E-01 26208   0.888E-01    0.264E-01
DAV:   3    -0.125379149901E+03    0.14424E-02   -0.79296E-03 20304   0.245E-01    0.105E-01
DAV:   4    -0.125379083463E+03    0.66437E-04   -0.95905E-04 26112   0.860E-02    0.266E-02
DAV:   5    -0.125379088102E+03   -0.46384E-05   -0.27550E-05 25440   0.161E-02    0.888E-03
DAV:   6    -0.125379088037E+03    0.65096E-07   -0.60054E-06 22608   0.699E-03
   2 F= -.12695755E+03 E0= -.12695677E+03  d E =-.305031E-02  mag=    -0.0000
       N       E                     dE             d eps       ncg     rms          rms(c)
DAV:   1    -0.125391422133E+03   -0.12334E-01   -0.11206E+00 14208   0.321E+00    0.280E-01
DAV:   2    -0.125388517344E+03    0.29048E-02   -0.22025E-02 26112   0.410E-01    0.123E-01
DAV:   3    -0.125388215178E+03    0.30217E-03   -0.16735E-03 22128   0.114E-01    0.495E-02
DAV:   4    -0.125388201575E+03    0.13603E-04   -0.20429E-04 24672   0.396E-02    0.122E-02
DAV:   5    -0.125388202495E+03   -0.91977E-06   -0.60522E-06 22272   0.759E-03
   3 F= -.12696707E+03 E0= -.12696629E+03  d E =-.125626E-01  mag=    -0.0000
       N       E                     dE             d eps       ncg     rms          rms(c)
DAV:   1    -0.125396718212E+03   -0.85166E-02   -0.39851E-01 14208   0.219E+00    0.128E-01
DAV:   2    -0.125396813958E+03   -0.95746E-04   -0.24861E-03 27312   0.200E-01    0.749E-02
DAV:   3    -0.125396814001E+03   -0.42999E-07   -0.23807E-04 21696   0.550E-02    0.178E-02
DAV:   4    -0.125396815164E+03   -0.11628E-05   -0.35934E-05 25920   0.221E-02    0.704E-03
DAV:   5    -0.125396815640E+03   -0.47669E-06   -0.14336E-06 21360   0.502E-03
   4 F= -.12697550E+03 E0= -.12697472E+03  d E =-.843943E-02  mag=    -0.0000
       N       E                     dE             d eps       ncg     rms          rms(c)
DAV:   1    -0.125408580753E+03   -0.11766E-01   -0.36080E+00 14208   0.658E+00    0.381E-01
DAV:   2    -0.125409617472E+03   -0.10367E-02   -0.23063E-02 26928   0.608E-01    0.223E-01
DAV:   3    -0.125409614936E+03    0.25363E-05   -0.21745E-03 22176   0.166E-01    0.533E-02
DAV:   4    -0.125409628626E+03   -0.13690E-04   -0.31746E-04 27648   0.655E-02    0.212E-02
DAV:   5    -0.125409633549E+03   -0.49234E-05   -0.11328E-05 21888   0.142E-02    0.955E-03
DAV:   6    -0.125409633789E+03   -0.23969E-06   -0.73892E-06 25104   0.952E-03
   5 F= -.12698781E+03 E0= -.12698703E+03  d E =-.207423E-01  mag=    -0.0000
       N       E                     dE             d eps       ncg     rms          rms(c)
DAV:   1    -0.125412775554E+03   -0.31420E-02   -0.56979E-02 14208   0.909E-01    0.518E-02
DAV:   2    -0.125412783616E+03   -0.80621E-05   -0.50447E-04 27504   0.966E-02    0.288E-02
DAV:   3    -0.125412779435E+03    0.41806E-05   -0.46770E-05 21984   0.258E-02    0.938E-03
DAV:   4    -0.125412779947E+03   -0.51171E-06   -0.81629E-06 24576   0.105E-02
   6 F= -.12699090E+03 E0= -.12699012E+03  d E =-.309316E-02  mag=    -0.0000
       N       E                     dE             d eps       ncg     rms          rms(c)
DAV:   1    -0.125419341716E+03   -0.65623E-02   -0.51371E-01 14208   0.273E+00    0.155E-01
DAV:   2    -0.125419407487E+03   -0.65771E-04   -0.44269E-03 27168   0.286E-01    0.860E-02
DAV:   3    -0.125419371648E+03    0.35839E-04   -0.40865E-04 21264   0.763E-02    0.278E-02
DAV:   4    -0.125419373538E+03   -0.18892E-05   -0.70315E-05 25824   0.303E-02    0.112E-02
DAV:   5    -0.125419375044E+03   -0.15062E-05   -0.25718E-06 20304   0.674E-03    0.452E-03
DAV:   6    -0.125419375034E+03    0.95688E-08   -0.12158E-06 25200   0.423E-03
   7 F= -.12699732E+03 E0= -.12699654E+03  d E =-.951605E-02  mag=    -0.0000
       N       E                     dE             d eps       ncg     rms          rms(c)
DAV:   1    -0.125419808639E+03   -0.43359E-03   -0.20629E+00 14208   0.546E+00    0.309E-01
DAV:   2    -0.125420066711E+03   -0.25807E-03   -0.18147E-02 27744   0.578E-01    0.171E-01
DAV:   3    -0.125419915937E+03    0.15077E-03   -0.16193E-03 20016   0.152E-01    0.552E-02
DAV:   4    -0.125419924593E+03   -0.86561E-05   -0.28195E-04 26688   0.607E-02    0.221E-02
DAV:   5    -0.125419930058E+03   -0.54657E-05   -0.90965E-06 21360   0.129E-02    0.874E-03
DAV:   6    -0.125419929003E+03    0.10555E-05   -0.51275E-06 25296   0.875E-03    0.185E-03
DAV:   7    -0.125419928856E+03    0.14706E-06   -0.82734E-07 24480   0.344E-03
   8 F= -.12699748E+03 E0= -.12699673E+03  d E =-.966735E-02  mag=     0.0000
       N       E                     dE             d eps       ncg     rms          rms(c)
DAV:   1    -0.125421723805E+03   -0.17948E-02   -0.49645E-01 14208   0.268E+00    0.151E-01
DAV:   2    -0.125421784636E+03   -0.60831E-04   -0.44079E-03 27648   0.285E-01    0.840E-02
DAV:   3    -0.125421751284E+03    0.33352E-04   -0.39429E-04 20880   0.753E-02    0.274E-02
DAV:   4    -0.125421754149E+03   -0.28647E-05   -0.67611E-05 25488   0.297E-02    0.109E-02
DAV:   5    -0.125421755925E+03   -0.17763E-05   -0.21753E-06 22752   0.624E-03    0.426E-03
DAV:   6    -0.125421756006E+03   -0.81593E-07   -0.10139E-06 19104   0.391E-03
   9 F= -.12699951E+03 E0= -.12699874E+03  d E =-.117015E-01  mag=     0.0000
       N       E                     dE             d eps       ncg     rms          rms(c)
DAV:   1    -0.125424108310E+03   -0.23524E-02   -0.10128E-01 14208   0.105E+00    0.591E-02
DAV:   2    -0.125424128741E+03   -0.20430E-04   -0.54827E-04 22128   0.850E-02    0.355E-02
DAV:   3    -0.125424126510E+03    0.22308E-05   -0.65405E-05 17232   0.248E-02    0.567E-03
DAV:   4    -0.125424126898E+03   -0.38799E-06   -0.48470E-06 24048   0.805E-03
  10 F= -.12700174E+03 E0= -.12700096E+03  d E =-.222738E-02  mag=    -0.0000
       N       E                     dE             d eps       ncg     rms          rms(c)
DAV:   1    -0.125429265737E+03   -0.51392E-02   -0.91280E-01 14208   0.315E+00    0.176E-01
DAV:   2    -0.125429472409E+03   -0.20667E-03   -0.47994E-03 27504   0.252E-01    0.106E-01
DAV:   3    -0.125429440266E+03    0.32143E-04   -0.60491E-04 20592   0.742E-02    0.161E-02
DAV:   4    -0.125429440220E+03    0.45632E-07   -0.37345E-05 24192   0.233E-02    0.862E-03
DAV:   5    -0.125429438074E+03    0.21459E-05   -0.46412E-06 22656   0.817E-03    0.292E-03
DAV:   6    -0.125429437334E+03    0.74056E-06   -0.15245E-06 26736   0.449E-03
  11 F= -.12700663E+03 E0= -.12700584E+03  d E =-.711617E-02  mag=     0.0000
       N       E                     dE             d eps       ncg     rms          rms(c)
DAV:   1    -0.125431825602E+03   -0.23875E-02   -0.36494E+00 14208   0.628E+00    0.348E-01
DAV:   2    -0.125432682239E+03   -0.85664E-03   -0.18321E-02 26208   0.498E-01    0.210E-01
DAV:   3    -0.125432561241E+03    0.12100E-03   -0.24928E-03 22224   0.150E-01    0.296E-02
DAV:   4    -0.125432556433E+03    0.48080E-05   -0.14612E-04 21792   0.463E-02    0.169E-02
DAV:   5    -0.125432550376E+03    0.60578E-05   -0.18290E-05 23376   0.164E-02    0.524E-03
DAV:   6    -0.125432549234E+03    0.11414E-05   -0.55559E-06 24816   0.845E-03    0.251E-03
DAV:   7    -0.125432551475E+03   -0.22414E-05   -0.21393E-06 21888   0.506E-03    0.203E-03
DAV:   8    -0.125432556572E+03   -0.50970E-05   -0.28777E-06 20016   0.527E-03    0.104E-03
DAV:   9    -0.125432562096E+03   -0.55236E-05   -0.62558E-07 18864   0.238E-03    0.506E-04
DAV:  10    -0.125432565699E+03   -0.36028E-05   -0.19797E-07 21168   0.119E-03    0.305E-04
DAV:  11    -0.125432568011E+03   -0.23119E-05   -0.91548E-08 21216   0.862E-04    0.204E-04
DAV:  12    -0.125432569147E+03   -0.11361E-05   -0.45110E-08 22656   0.631E-04    0.106E-04
DAV:  13    -0.125432569686E+03   -0.53894E-06   -0.16490E-08 22608   0.297E-04
  12 F= -.12700895E+03 E0= -.12700822E+03  d E =-.944478E-02  mag=    -0.0000
       N       E                     dE             d eps       ncg     rms          rms(c)
DAV:   1    -0.125434723870E+03   -0.21547E-02   -0.15792E-01 14208   0.142E+00    0.740E-02
DAV:   2    -0.125434766309E+03   -0.42440E-04   -0.10077E-03 26880   0.129E-01    0.447E-02
DAV:   3    -0.125434759921E+03    0.63889E-05   -0.11730E-04 18864   0.379E-02    0.897E-03
DAV:   4    -0.125434759912E+03    0.81363E-08   -0.13728E-05 22656   0.141E-02    0.447E-03
DAV:   5    -0.125434759902E+03    0.10105E-07   -0.59894E-07 25248   0.327E-03
  13 F= -.12701098E+03 E0= -.12701022E+03  d E =-.202711E-02  mag=     0.0000
       N       E                     dE             d eps       ncg     rms          rms(c)
DAV:   1    -0.125436841249E+03   -0.20813E-02   -0.80542E-01 14208   0.322E+00    0.167E-01
DAV:   2    -0.125437049710E+03   -0.20846E-03   -0.49370E-03 24960   0.286E-01    0.101E-01
DAV:   3    -0.125437011293E+03    0.38417E-04   -0.61105E-04 21984   0.864E-02    0.200E-02
DAV:   4    -0.125437010348E+03    0.94404E-06   -0.70121E-05 23184   0.318E-02    0.101E-02
DAV:   5    -0.125437010596E+03   -0.24779E-06   -0.29118E-06 25008   0.729E-03
  14 F= -.12701286E+03 E0= -.12701208E+03  d E =-.391038E-02  mag=    -0.0000
       N       E                     dE             d eps       ncg     rms          rms(c)
DAV:   1    -0.125437392919E+03   -0.38257E-03   -0.83965E-03 15264   0.358E-01    0.204E-02
DAV:   2    -0.125437388225E+03    0.46940E-05   -0.10178E-04 27984   0.390E-02    0.109E-02
DAV:   3    -0.125437387314E+03    0.91094E-06   -0.97716E-06 18528   0.114E-02
  15 F= -.12701324E+03 E0= -.12701246E+03  d E =-.378688E-03  mag=    -0.0000
       N       E                     dE             d eps       ncg     rms          rms(c)
DAV:   1    -0.125437885532E+03   -0.49731E-03   -0.63882E-02 14592   0.986E-01    0.571E-02
DAV:   2    -0.125437841827E+03    0.43705E-04   -0.75225E-04 26976   0.106E-01    0.305E-02
DAV:   3    -0.125437826028E+03    0.15799E-04   -0.79039E-05 22368   0.322E-02    0.927E-03
DAV:   4    -0.125437826726E+03   -0.69788E-06   -0.99689E-06 24192   0.121E-02
  16 F= -.12701369E+03 E0= -.12701291E+03  d E =-.823464E-03  mag=    -0.0000
       N       E                     dE             d eps       ncg     rms          rms(c)
DAV:   1    -0.125437960566E+03   -0.13454E-03   -0.40002E-03 17328   0.261E-01    0.139E-02
DAV:   2    -0.125437958257E+03    0.23090E-05   -0.38314E-05 27264   0.264E-02    0.777E-03
DAV:   3    -0.125437957143E+03    0.11140E-05   -0.60919E-06 22800   0.986E-03    0.193E-03
DAV:   4    -0.125437957189E+03   -0.46506E-07   -0.91743E-07 24096   0.464E-03
  17 F= -.12701381E+03 E0= -.12701303E+03  d E =-.120688E-03  mag=    -0.0000
       N       E                     dE             d eps       ncg     rms          rms(c)
DAV:   1    -0.125438029393E+03   -0.72250E-04   -0.63777E-03 17280   0.329E-01    0.175E-02
DAV:   2    -0.125438025655E+03    0.37374E-05   -0.60623E-05 23616   0.333E-02    0.971E-03
DAV:   3    -0.125438023652E+03    0.20032E-05   -0.97178E-06 22704   0.125E-02    0.246E-03
DAV:   4    -0.125438023504E+03    0.14840E-06   -0.15294E-06 22080   0.603E-03
  18 F= -.12701386E+03 E0= -.12701308E+03  d E =-.174553E-03  mag=    -0.0000
       N       E                     dE             d eps       ncg     rms          rms(c)
DAV:   1    -0.125438082991E+03   -0.59339E-04   -0.15721E-03 20832   0.153E-01    0.779E-03
DAV:   2    -0.125438081518E+03    0.14737E-05   -0.14434E-05 17040   0.149E-02    0.389E-03
DAV:   3    -0.125438081228E+03    0.28981E-06   -0.22432E-06 19008   0.614E-03
  19 F= -.12701390E+03 E0= -.12701312E+03  d E =-.420584E-04  mag=     0.0000
       N       E                     dE             d eps       ncg     rms          rms(c)
DAV:   1    -0.125438134033E+03   -0.52515E-04   -0.37893E-03 14208   0.238E-01    0.122E-02
DAV:   2    -0.125438131361E+03    0.26712E-05   -0.38275E-05 15792   0.245E-02    0.635E-03
DAV:   3    -0.125438130714E+03    0.64734E-06   -0.56329E-06 18288   0.928E-03
  20 F= -.12701393E+03 E0= -.12701315E+03  d E =-.671572E-04  mag=    -0.0000
       N       E                     dE             d eps       ncg     rms          rms(c)
DAV:   1    -0.125438176022E+03   -0.44661E-04   -0.58985E-04 19536   0.100E-01    0.429E-03
DAV:   2    -0.125438175969E+03    0.53660E-07   -0.55086E-06 15888   0.111E-02
  21 F= -.12701394E+03 E0= -.12701316E+03  d E =-.136041E-04  mag=    -0.0000
       N       E                     dE             d eps       ncg     rms          rms(c)
DAV:   1    -0.125438240032E+03   -0.64010E-04   -0.17895E-03 14736   0.175E-01    0.760E-03
DAV:   2    -0.125438240186E+03   -0.15370E-06   -0.16826E-05 16320   0.186E-02    0.470E-03
DAV:   3    -0.125438240301E+03   -0.11550E-06   -0.33005E-06 16464   0.868E-03
  22 F= -.12701395E+03 E0= -.12701317E+03  d E =-.222985E-04  mag=     0.0000
       N       E                     dE             d eps       ncg     rms          rms(c)
DAV:   1    -0.125438278181E+03   -0.37996E-04   -0.28010E-04 14784   0.662E-02    0.296E-03
DAV:   2    -0.125438278272E+03   -0.90734E-07   -0.27376E-06 19200   0.777E-03
  23 F= -.12701396E+03 E0= -.12701318E+03  d E =-.838609E-05  mag=     0.0000
       N       E                     dE             d eps       ncg     rms          rms(c)
DAV:   1    -0.125438386561E+03   -0.10838E-03   -0.24776E-03 14208   0.196E-01    0.823E-03
DAV:   2    -0.125438386727E+03   -0.16567E-06   -0.20278E-05 20112   0.194E-02    0.509E-03
DAV:   3    -0.125438386853E+03   -0.12589E-06   -0.28420E-06 14208   0.762E-03
  24 F= -.12701398E+03 E0= -.12701320E+03  d E =-.282305E-04  mag=    -0.0000
       N       E                     dE             d eps       ncg     rms          rms(c)
DAV:   1    -0.125438576396E+03   -0.18967E-03   -0.10008E-02 14208   0.394E-01    0.161E-02
DAV:   2    -0.125438576724E+03   -0.32761E-06   -0.78770E-05 21408   0.375E-02    0.985E-03
DAV:   3    -0.125438576507E+03    0.21603E-06   -0.88034E-06 17088   0.122E-02
  25 F= -.12701399E+03 E0= -.12701321E+03  d E =-.404810E-04  mag=     0.0000
       N       E                     dE             d eps       ncg     rms          rms(c)
DAV:   1    -0.125438674739E+03   -0.98015E-04   -0.15150E-03 14784   0.161E-01    0.743E-03
DAV:   2    -0.125438674810E+03   -0.70901E-07   -0.17331E-05 15840   0.194E-02    0.476E-03
DAV:   3    -0.125438675580E+03   -0.77028E-06   -0.38581E-06 14208   0.104E-02
  26 F= -.12701401E+03 E0= -.12701323E+03  d E =-.155130E-04  mag=    -0.0000
       N       E                     dE             d eps       ncg     rms          rms(c)
DAV:   1    -0.125438757701E+03   -0.82892E-04   -0.13255E-03 15264   0.151E-01    0.671E-03
DAV:   2    -0.125438757785E+03   -0.83509E-07   -0.14684E-05 20400   0.176E-02    0.430E-03
DAV:   3    -0.125438758262E+03   -0.47708E-06   -0.28178E-06 14544   0.876E-03
  27 F= -.12701401E+03 E0= -.12701323E+03  d E =-.198525E-04  mag=    -0.0000
       N       E                     dE             d eps       ncg     rms          rms(c)
DAV:   1    -0.125438858530E+03   -0.10074E-03   -0.11223E-03 14208   0.137E-01    0.596E-03
DAV:   2    -0.125438858782E+03   -0.25257E-06   -0.13753E-05 18720   0.166E-02    0.396E-03
DAV:   3    -0.125438859192E+03   -0.40955E-06   -0.20511E-06 14304   0.739E-03
  28 F= -.12701403E+03 E0= -.12701325E+03  d E =-.166156E-04  mag=     0.0000
       N       E                     dE             d eps       ncg     rms          rms(c)
DAV:   1    -0.125439137906E+03   -0.27912E-03   -0.10071E-02 14208   0.411E-01    0.176E-02
DAV:   2    -0.125439141420E+03   -0.35131E-05   -0.10941E-04 18288   0.445E-02    0.115E-02
DAV:   3    -0.125439141449E+03   -0.29067E-07   -0.91910E-06 14496   0.136E-02
  29 F= -.12701406E+03 E0= -.12701328E+03  d E =-.460045E-04  mag=    -0.0000
       N       E                     dE             d eps       ncg     rms          rms(c)
DAV:   1    -0.125439229762E+03   -0.88342E-04   -0.11823E-03 14400   0.141E-01    0.663E-03
DAV:   2    -0.125439229701E+03    0.60661E-07   -0.14828E-05 18096   0.181E-02    0.439E-03
DAV:   3    -0.125439230819E+03   -0.11184E-05   -0.34982E-06 14400   0.975E-03    0.153E-03
DAV:   4    -0.125439229898E+03    0.92149E-06   -0.30742E-06 14352   0.883E-03
  30 F= -.12701406E+03 E0= -.12701328E+03  d E =-.484638E-04  mag=    -0.0000
       N       E                     dE             d eps       ncg     rms          rms(c)
DAV:   1    -0.125439367830E+03   -0.13701E-03   -0.21328E-03 20352   0.187E-01    0.834E-03
DAV:   2    -0.125439368054E+03   -0.22366E-06   -0.19780E-05 21408   0.184E-02    0.528E-03
DAV:   3    -0.125439367992E+03    0.61678E-07   -0.19354E-06 22800   0.532E-03
  31 F= -.12701408E+03 E0= -.12701330E+03  d E =-.180100E-04  mag=    -0.0000
       N       E                     dE             d eps       ncg     rms          rms(c)
DAV:   1    -0.125439751364E+03   -0.38331E-03   -0.19147E-02 14208   0.561E-01    0.246E-02
DAV:   2    -0.125439757698E+03   -0.63343E-05   -0.20957E-04 19488   0.603E-02    0.160E-02
DAV:   3    -0.125439756301E+03    0.13971E-05   -0.16453E-05 25200   0.153E-02    0.400E-03
DAV:   4    -0.125439756496E+03   -0.19554E-06   -0.21394E-06 15504   0.597E-03
  32 F= -.12701411E+03 E0= -.12701332E+03  d E =-.465065E-04  mag=    -0.0000
       N       E                     dE             d eps       ncg     rms          rms(c)
DAV:   1    -0.125439873788E+03   -0.11749E-03   -0.15575E-03 14208   0.160E-01    0.676E-03
DAV:   2    -0.125439874260E+03   -0.47176E-06   -0.17802E-05 15552   0.179E-02    0.443E-03
DAV:   3    -0.125439874409E+03   -0.14915E-06   -0.15749E-06 15024   0.568E-03
  33 F= -.12701412E+03 E0= -.12701334E+03  d E =-.177887E-04  mag=    -0.0000
       N       E                     dE             d eps       ncg     rms          rms(c)
DAV:   1    -0.125440214362E+03   -0.34010E-03   -0.13958E-02 14208   0.480E-01    0.203E-02
DAV:   2    -0.125440218493E+03   -0.41311E-05   -0.15089E-04 14784   0.515E-02    0.132E-02
DAV:   3    -0.125440218116E+03    0.37726E-06   -0.12536E-05 16704   0.143E-02    0.366E-03
DAV:   4    -0.125440218517E+03   -0.40114E-06   -0.27716E-06 14352   0.784E-03
  34 F= -.12701417E+03 E0= -.12701339E+03  d E =-.616272E-04  mag=     0.0000
       N       E                     dE             d eps       ncg     rms          rms(c)
DAV:   1    -0.125440848771E+03   -0.63066E-03   -0.55781E-02 14208   0.960E-01    0.403E-02
DAV:   2    -0.125440867030E+03   -0.18259E-04   -0.60350E-04 14832   0.103E-01    0.262E-02
DAV:   3    -0.125440863448E+03    0.35820E-05   -0.50109E-05 25536   0.276E-02    0.727E-03
DAV:   4    -0.125440864336E+03   -0.88790E-06   -0.75544E-06 14304   0.128E-02
  35 F= -.12701421E+03 E0= -.12701343E+03  d E =-.107529E-03  mag=     0.0000
       N       E                     dE             d eps       ncg     rms          rms(c)
DAV:   1    -0.125441109895E+03   -0.24645E-03   -0.78630E-03 14208   0.362E-01    0.148E-02
DAV:   2    -0.125441111882E+03   -0.19869E-05   -0.89913E-05 14208   0.409E-02    0.975E-03
DAV:   3    -0.125441112953E+03   -0.10710E-05   -0.93166E-06 14208   0.145E-02    0.308E-03
DAV:   4    -0.125441113343E+03   -0.38986E-06   -0.58911E-06 15360   0.124E-02
  36 F= -.12701425E+03 E0= -.12701347E+03  d E =-.353181E-04  mag=     0.0000
       N       E                     dE             d eps       ncg     rms          rms(c)
DAV:   1    -0.125441800801E+03   -0.68785E-03   -0.70509E-02 14208   0.108E+00    0.440E-02
DAV:   2    -0.125441825458E+03   -0.24658E-04   -0.77947E-04 17472   0.115E-01    0.289E-02
DAV:   3    -0.125441820024E+03    0.54341E-05   -0.61380E-05 26400   0.294E-02    0.819E-03
DAV:   4    -0.125441821097E+03   -0.10729E-05   -0.72547E-06 14880   0.116E-02    0.320E-03
DAV:   5    -0.125441821745E+03   -0.64785E-06   -0.17889E-06 18432   0.660E-03
  37 F= -.12701432E+03 E0= -.12701354E+03  d E =-.103233E-03  mag=     0.0000
       N       E                     dE             d eps       ncg     rms          rms(c)
DAV:   1    -0.125443024504E+03   -0.12034E-02   -0.28208E-01 14208   0.217E+00    0.880E-02
DAV:   2    -0.125443108138E+03   -0.83634E-04   -0.29578E-03 18480   0.225E-01    0.571E-02
DAV:   3    -0.125443082587E+03    0.25550E-04   -0.23925E-04 27024   0.570E-02    0.156E-02
DAV:   4    -0.125443084934E+03   -0.23465E-05   -0.26115E-05 16080   0.201E-02    0.604E-03
DAV:   5    -0.125443086021E+03   -0.10874E-05   -0.30712E-06 15456   0.791E-03    0.164E-03
DAV:   6    -0.125443086119E+03   -0.97800E-07   -0.15376E-06 18288   0.625E-03
  38 F= -.12701430E+03 E0= -.12701352E+03  d E =-.892670E-04  mag=    -0.0000
       N       E                     dE             d eps       ncg     rms          rms(c)
DAV:   1    -0.125442375645E+03    0.71038E-03   -0.90196E-02 14208   0.122E+00    0.498E-02
DAV:   2    -0.125442403086E+03   -0.27442E-04   -0.95944E-04 22704   0.127E-01    0.325E-02
DAV:   3    -0.125442395356E+03    0.77307E-05   -0.69722E-05 21168   0.302E-02    0.875E-03
DAV:   4    -0.125442396170E+03   -0.81443E-06   -0.93413E-06 16896   0.113E-02
  39 F= -.12701434E+03 E0= -.12701355E+03  d E =-.121922E-03  mag=     0.0000
       N       E                     dE             d eps       ncg     rms          rms(c)
DAV:   1    -0.125442759633E+03   -0.36428E-03   -0.19323E-02 14208   0.569E-01    0.224E-02
DAV:   2    -0.125442764609E+03   -0.49755E-05   -0.20713E-04 15600   0.593E-02    0.147E-02
DAV:   3    -0.125442763482E+03    0.11270E-05   -0.16602E-05 20880   0.154E-02    0.425E-03
DAV:   4    -0.125442763912E+03   -0.43043E-06   -0.20963E-06 18288   0.583E-03
  40 F= -.12701437E+03 E0= -.12701359E+03  d E =-.312241E-04  mag=     0.0000
       N       E                     dE             d eps       ncg     rms          rms(c)
DAV:   1    -0.125443385307E+03   -0.62183E-03   -0.64380E-02 14208   0.104E+00    0.415E-02
DAV:   2    -0.125443404516E+03   -0.19209E-04   -0.67484E-04 14928   0.107E-01    0.271E-02
DAV:   3    -0.125443399942E+03    0.45737E-05   -0.54799E-05 25104   0.279E-02    0.769E-03
DAV:   4    -0.125443400875E+03   -0.93271E-06   -0.61786E-06 15264   0.103E-02
  41 F= -.12701439E+03 E0= -.12701361E+03  d E =-.557276E-04  mag=    -0.0000
       N       E                     dE             d eps       ncg     rms          rms(c)
DAV:   1    -0.125443608120E+03   -0.20818E-03   -0.53725E-03 14208   0.302E-01    0.125E-02
DAV:   2    -0.125443609759E+03   -0.16388E-05   -0.62998E-05 14208   0.336E-02    0.817E-03
DAV:   3    -0.125443609860E+03   -0.10063E-06   -0.51584E-06 14208   0.103E-02
  42 F= -.12701442E+03 E0= -.12701364E+03  d E =-.275937E-04  mag=    -0.0000
       N       E                     dE             d eps       ncg     rms          rms(c)
DAV:   1    -0.125444036948E+03   -0.42719E-03   -0.26626E-02 14208   0.672E-01    0.282E-02
DAV:   2    -0.125444044205E+03   -0.72570E-05   -0.29319E-04 14832   0.717E-02    0.183E-02
DAV:   3    -0.125444043065E+03    0.11399E-05   -0.23255E-05 16848   0.201E-02    0.554E-03
DAV:   4    -0.125444043809E+03   -0.74336E-06   -0.55139E-06 14208   0.116E-02
  43 F= -.12701445E+03 E0= -.12701367E+03  d E =-.571904E-04  mag=    -0.0000
       N       E                     dE             d eps       ncg     rms          rms(c)
DAV:   1    -0.125444313142E+03   -0.27008E-03   -0.10028E-02 14208   0.415E-01    0.174E-02
DAV:   2    -0.125444317176E+03   -0.40344E-05   -0.11648E-04 16800   0.453E-02    0.116E-02
DAV:   3    -0.125444317107E+03    0.68979E-07   -0.87163E-06 14880   0.132E-02
  44 F= -.12701448E+03 E0= -.12701370E+03  d E =-.326027E-04  mag=     0.0000
       N       E                     dE             d eps       ncg     rms          rms(c)
DAV:   1    -0.125444482536E+03   -0.16536E-03   -0.44065E-03 14208   0.275E-01    0.120E-02
DAV:   2    -0.125444483901E+03   -0.13649E-05   -0.50325E-05 14400   0.312E-02    0.796E-03
DAV:   3    -0.125444484625E+03   -0.72390E-06   -0.51978E-06 14208   0.114E-02
  45 F= -.12701449E+03 E0= -.12701371E+03  d E =-.408502E-04  mag=     0.0000
       N       E                     dE             d eps       ncg     rms          rms(c)
DAV:   1    -0.125444718357E+03   -0.23446E-03   -0.87853E-03 14208   0.390E-01    0.163E-02
DAV:   2    -0.125444721183E+03   -0.28263E-05   -0.96995E-05 14400   0.423E-02    0.108E-02
DAV:   3    -0.125444721734E+03   -0.55044E-06   -0.82639E-06 14208   0.137E-02
  46 F= -.12701452E+03 E0= -.12701373E+03  d E =-.255916E-04  mag=     0.0000
       N       E                     dE             d eps       ncg     rms          rms(c)
DAV:   1    -0.125444870900E+03   -0.14972E-03   -0.41158E-03 14592   0.267E-01    0.115E-02
DAV:   2    -0.125444871776E+03   -0.87631E-06   -0.46695E-05 14208   0.306E-02    0.761E-03
DAV:   3    -0.125444872892E+03   -0.11158E-05   -0.58340E-06 15936   0.124E-02    0.269E-03
DAV:   4    -0.125444872506E+03    0.38535E-06   -0.44570E-06 14208   0.108E-02
  47 F= -.12701452E+03 E0= -.12701374E+03  d E =-.317865E-04  mag=     0.0000
       N       E                     dE             d eps       ncg     rms          rms(c)
DAV:   1    -0.125444978739E+03   -0.10585E-03   -0.24207E-03 20592   0.207E-01    0.892E-03
DAV:   2    -0.125444978987E+03   -0.24851E-06   -0.19886E-05 21216   0.188E-02    0.564E-03
DAV:   3    -0.125444978967E+03    0.20659E-07   -0.20071E-06 18288   0.576E-03
  48 F= -.12701453E+03 E0= -.12701375E+03  d E =-.935190E-05  mag=     0.0000
       N       E                     dE             d eps       ncg     rms          rms(c)
DAV:   1    -0.125445023355E+03   -0.44368E-04   -0.48054E-04 17424   0.920E-02    0.417E-03
DAV:   2    -0.125445023446E+03   -0.90718E-07   -0.45271E-06 18144   0.949E-03
  49 F= -.12701453E+03 E0= -.12701375E+03  d E =-.107500E-04  mag=     0.0000
       N       E                     dE             d eps       ncg     rms          rms(c)
DAV:   1    -0.125445108934E+03   -0.85579E-04   -0.15995E-03 14880   0.168E-01    0.719E-03
DAV:   2    -0.125445109203E+03   -0.26900E-06   -0.15164E-05 14688   0.168E-02    0.474E-03
DAV:   3    -0.125445109363E+03   -0.16034E-06   -0.16162E-06 19824   0.586E-03
  50 F= -.12701454E+03 E0= -.12701376E+03  d E =-.109316E-04  mag=    -0.0000
       N       E                     dE             d eps       ncg     rms          rms(c)
DAV:   1    -0.125445347791E+03   -0.23859E-03   -0.14544E-02 14208   0.504E-01    0.206E-02
DAV:   2    -0.125445351480E+03   -0.36893E-05   -0.14096E-04 14208   0.503E-02    0.136E-02
DAV:   3    -0.125445350765E+03    0.71484E-06   -0.11407E-05 14592   0.139E-02    0.411E-03
DAV:   4    -0.125445351045E+03   -0.27947E-06   -0.26627E-06 15696   0.790E-03
  51 F= -.12701456E+03 E0= -.12701378E+03  d E =-.277320E-04  mag=     0.0000
       N       E                     dE             d eps       ncg     rms          rms(c)
DAV:   1    -0.125445469654E+03   -0.11889E-03   -0.39154E-03 14208   0.263E-01    0.106E-02
DAV:   2    -0.125445470569E+03   -0.91489E-06   -0.38058E-05 14208   0.269E-02    0.710E-03
DAV:   3    -0.125445470696E+03   -0.12682E-06   -0.40856E-06 15408   0.931E-03
  52 F= -.12701458E+03 E0= -.12701380E+03  d E =-.171480E-04  mag=    -0.0000
       N       E                     dE             d eps       ncg     rms          rms(c)
DAV:   1    -0.125445717734E+03   -0.24716E-03   -0.20045E-02 14208   0.595E-01    0.241E-02
DAV:   2    -0.125445722602E+03   -0.48681E-05   -0.18617E-04 14256   0.584E-02    0.160E-02
DAV:   3    -0.125445721551E+03    0.10511E-05   -0.17577E-05 14448   0.176E-02    0.449E-03
DAV:   4    -0.125445721731E+03   -0.17979E-06   -0.47529E-06 16368   0.107E-02
  53 F= -.12701460E+03 E0= -.12701381E+03  d E =-.362693E-04  mag=    -0.0000
       N       E                     dE             d eps       ncg     rms          rms(c)
DAV:   1    -0.125445790026E+03   -0.68476E-04   -0.13517E-03 14208   0.155E-01    0.635E-03
DAV:   2    -0.125445790304E+03   -0.27807E-06   -0.13968E-05 14976   0.170E-02    0.433E-03
DAV:   3    -0.125445790654E+03   -0.34917E-06   -0.22544E-06 16416   0.758E-03
  54 F= -.12701461E+03 E0= -.12701382E+03  d E =-.968135E-05  mag=     0.0000
       N       E                     dE             d eps       ncg     rms          rms(c)
DAV:   1    -0.125445986291E+03   -0.19599E-03   -0.12110E-02 14208   0.464E-01    0.184E-02
DAV:   2    -0.125445989731E+03   -0.34399E-05   -0.11148E-04 16992   0.449E-02    0.124E-02
DAV:   3    -0.125445989232E+03    0.49870E-06   -0.98737E-06 14976   0.133E-02
  55 F= -.12701463E+03 E0= -.12701385E+03  d E =-.305418E-04  mag=    -0.0000
       N       E                     dE             d eps       ncg     rms          rms(c)
DAV:   1    -0.125446339384E+03   -0.34965E-03   -0.48506E-02 14208   0.928E-01    0.372E-02
DAV:   2    -0.125446352982E+03   -0.13598E-04   -0.43373E-04 14976   0.887E-02    0.250E-02
DAV:   3    -0.125446349623E+03    0.33588E-05   -0.37907E-05 14832   0.250E-02    0.672E-03
DAV:   4    -0.125446349978E+03   -0.35516E-06   -0.82913E-06 14928   0.137E-02
  56 F= -.12701463E+03 E0= -.12701385E+03  d E =-.360713E-04  mag=    -0.0000
       N       E                     dE             d eps       ncg     rms          rms(c)
DAV:   1    -0.125446183279E+03    0.16634E-03   -0.10886E-02 14208   0.440E-01    0.170E-02
DAV:   2    -0.125446185750E+03   -0.24707E-05   -0.10274E-04 20880   0.436E-02    0.115E-02
DAV:   3    -0.125446185309E+03    0.44054E-06   -0.98625E-06 20256   0.140E-02
  57 F= -.12701464E+03 E0= -.12701385E+03  d E =-.399608E-04  mag=     0.0000
       N       E                     dE             d eps       ncg     rms          rms(c)
DAV:   1    -0.125446331867E+03   -0.14612E-03   -0.62513E-03 14208   0.334E-01    0.123E-02
DAV:   2    -0.125446333508E+03   -0.16406E-05   -0.62540E-05 19536   0.348E-02    0.848E-03
DAV:   3    -0.125446333863E+03   -0.35546E-06   -0.67778E-06 15456   0.127E-02
  58 F= -.12701466E+03 E0= -.12701387E+03  d E =-.186094E-04  mag=    -0.0000
       N       E                     dE             d eps       ncg     rms          rms(c)
DAV:   1    -0.125446745585E+03   -0.41208E-03   -0.56331E-02 14208   0.100E+00    0.395E-02
DAV:   2    -0.125446764418E+03   -0.18833E-04   -0.50565E-04 18144   0.956E-02    0.270E-02
DAV:   3    -0.125446761658E+03    0.27596E-05   -0.40176E-05 15648   0.268E-02    0.710E-03
DAV:   4    -0.125446762083E+03   -0.42450E-06   -0.12671E-05 14448   0.178E-02    0.293E-03
DAV:   5    -0.125446760504E+03    0.15787E-05   -0.53723E-06 14208   0.115E-02    0.150E-03
DAV:   6    -0.125446759838E+03    0.66604E-06   -0.10825E-06 21408   0.512E-03
  59 F= -.12701469E+03 E0= -.12701391E+03  d E =-.549763E-04  mag=     0.0000
       N       E                     dE             d eps       ncg     rms          rms(c)
DAV:   1    -0.125447487407E+03   -0.72690E-03   -0.22544E-01 14208   0.200E+00    0.784E-02
DAV:   2    -0.125447558386E+03   -0.70979E-04   -0.19596E-03 18144   0.185E-01    0.531E-02
DAV:   3    -0.125447537730E+03    0.20656E-04   -0.15026E-04 27600   0.455E-02    0.137E-02
DAV:   4    -0.125447538525E+03   -0.79502E-06   -0.14444E-05 16032   0.144E-02    0.500E-03
DAV:   5    -0.125447538807E+03   -0.28195E-06   -0.12873E-06 23136   0.414E-03
  60 F= -.12701469E+03 E0= -.12701391E+03  d E =-.556930E-04  mag=    -0.0000
       N       E                     dE             d eps       ncg     rms          rms(c)
DAV:   1    -0.125447151489E+03    0.38704E-03   -0.55741E-02 14208   0.997E-01    0.390E-02
DAV:   2    -0.125447169120E+03   -0.17631E-04   -0.49170E-04 22512   0.921E-02    0.267E-02
DAV:   3    -0.125447163897E+03    0.52230E-05   -0.33473E-05 17904   0.211E-02    0.647E-03
DAV:   4    -0.125447164203E+03   -0.30611E-06   -0.46480E-06 17616   0.800E-03
  61 F= -.12701470E+03 E0= -.12701392E+03  d E =-.680520E-04  mag=     0.0000
       N       E                     dE             d eps       ncg     rms          rms(c)
DAV:   1    -0.125447270925E+03   -0.10703E-03   -0.33976E-03 15120   0.247E-01    0.932E-03
DAV:   2    -0.125447271820E+03   -0.89467E-06   -0.29240E-05 19104   0.225E-02    0.636E-03
DAV:   3    -0.125447271597E+03    0.22334E-06   -0.22358E-06 15648   0.577E-03
  62 F= -.12701472E+03 E0= -.12701394E+03  d E =-.133408E-04  mag=    -0.0000
       N       E                     dE             d eps       ncg     rms          rms(c)
DAV:   1    -0.125447578338E+03   -0.30652E-03   -0.30700E-02 14208   0.742E-01    0.289E-02
DAV:   2    -0.125447588983E+03   -0.10645E-04   -0.26558E-04 14208   0.687E-02    0.198E-02
DAV:   3    -0.125447587161E+03    0.18216E-05   -0.19933E-05 22608   0.173E-02    0.523E-03
DAV:   4    -0.125447587388E+03   -0.22701E-06   -0.21570E-06 15744   0.605E-03
  63 F= -.12701475E+03 E0= -.12701397E+03  d E =-.470749E-04  mag=    -0.0000
       N       E                     dE             d eps       ncg     rms          rms(c)
DAV:   1    -0.125448153458E+03   -0.56630E-03   -0.12280E-01 14208   0.148E+00    0.574E-02
DAV:   2    -0.125448197652E+03   -0.44195E-04   -0.10642E-03 14688   0.137E-01    0.392E-02
DAV:   3    -0.125448188377E+03    0.92754E-05   -0.79713E-05 26352   0.343E-02    0.104E-02
DAV:   4    -0.125448188971E+03   -0.59452E-06   -0.76834E-06 15120   0.114E-02
  64 F= -.12701479E+03 E0= -.12701401E+03  d E =-.849895E-04  mag=    -0.0000
       N       E                     dE             d eps       ncg     rms          rms(c)
DAV:   1    -0.125448396404E+03   -0.20803E-03   -0.16979E-02 14208   0.552E-01    0.214E-02
DAV:   2    -0.125448403101E+03   -0.66970E-05   -0.15288E-04 14304   0.525E-02    0.147E-02
DAV:   3    -0.125448402403E+03    0.69894E-06   -0.11121E-05 14208   0.140E-02    0.412E-03
DAV:   4    -0.125448402583E+03   -0.18091E-06   -0.23394E-06 14208   0.744E-03
  65 F= -.12701479E+03 E0= -.12701401E+03  d E =-.894329E-04  mag=     0.0000
       N       E                     dE             d eps       ncg     rms          rms(c)
DAV:   1    -0.125448621243E+03   -0.21884E-03   -0.15747E-02 14208   0.533E-01    0.208E-02
DAV:   2    -0.125448627228E+03   -0.59846E-05   -0.14056E-04 14496   0.502E-02    0.143E-02
DAV:   3    -0.125448626530E+03    0.69775E-06   -0.97187E-06 14208   0.129E-02
  66 F= -.12701483E+03 E0= -.12701405E+03  d E =-.332697E-04  mag=    -0.0000
       N       E                     dE             d eps       ncg     rms          rms(c)
DAV:   1    -0.125449222647E+03   -0.59542E-03   -0.14161E-01 14208   0.160E+00    0.624E-02
DAV:   2    -0.125449275670E+03   -0.53023E-04   -0.12263E-03 15360   0.148E-01    0.426E-02
DAV:   3    -0.125449265429E+03    0.10242E-04   -0.84343E-05 22368   0.360E-02    0.115E-02
DAV:   4    -0.125449266228E+03   -0.79946E-06   -0.95588E-06 15024   0.133E-02
  67 F= -.12701490E+03 E0= -.12701411E+03  d E =-.101669E-03  mag=     0.0000
       N       E                     dE             d eps       ncg     rms          rms(c)
DAV:   1    -0.125450223140E+03   -0.95771E-03   -0.56659E-01 14208   0.320E+00    0.124E-01
DAV:   2    -0.125450435627E+03   -0.21249E-03   -0.49105E-03 14880   0.295E-01    0.844E-02
DAV:   3    -0.125450390344E+03    0.45283E-04   -0.34125E-04 25248   0.718E-02    0.232E-02
DAV:   4    -0.125450392329E+03   -0.19854E-05   -0.34774E-05 14496   0.249E-02    0.764E-03
DAV:   5    -0.125450393288E+03   -0.95884E-06   -0.74730E-06 18720   0.130E-02
  68 F= -.12701488E+03 E0= -.12701410E+03  d E =-.886897E-04  mag=     0.0000
       N       E                     dE             d eps       ncg     rms          rms(c)
DAV:   1    -0.125449677155E+03    0.71517E-03   -0.20614E-01 14208   0.193E+00    0.746E-02
DAV:   2    -0.125449755987E+03   -0.78832E-04   -0.18348E-03 23376   0.179E-01    0.515E-02
DAV:   3    -0.125449737011E+03    0.18976E-04   -0.10819E-04 20640   0.391E-02    0.131E-02
DAV:   4    -0.125449737805E+03   -0.79343E-06   -0.16927E-05 16032   0.183E-02    0.445E-03
DAV:   5    -0.125449737791E+03    0.13983E-07   -0.41304E-06 16848   0.101E-02
  69 F= -.12701492E+03 E0= -.12701413E+03  d E =-.120875E-03  mag=     0.0000
       N       E                     dE             d eps       ncg     rms          rms(c)
DAV:   1    -0.125450043361E+03   -0.30556E-03   -0.35210E-02 14208   0.802E-01    0.304E-02
DAV:   2    -0.125450056835E+03   -0.13474E-04   -0.30766E-04 19104   0.736E-02    0.211E-02
DAV:   3    -0.125450054546E+03    0.22884E-05   -0.18742E-05 15312   0.175E-02    0.588E-03
DAV:   4    -0.125450054844E+03   -0.29768E-06   -0.33743E-06 15792   0.872E-03
  70 F= -.12701496E+03 E0= -.12701417E+03  d E =-.404375E-04  mag=     0.0000
       N       E                     dE             d eps       ncg     rms          rms(c)
DAV:   1    -0.125450394506E+03   -0.33996E-03   -0.52306E-02 14208   0.978E-01    0.375E-02
DAV:   2    -0.125450414742E+03   -0.20236E-04   -0.44515E-04 14832   0.895E-02    0.258E-02
DAV:   3    -0.125450411804E+03    0.29386E-05   -0.28854E-05 14544   0.222E-02    0.727E-03
DAV:   4    -0.125450412193E+03   -0.38965E-06   -0.49636E-06 14208   0.106E-02
  71 F= -.12701498E+03 E0= -.12701419E+03  d E =-.611166E-04  mag=     0.0000
       N       E                     dE             d eps       ncg     rms          rms(c)
DAV:   1    -0.125450658091E+03   -0.24629E-03   -0.29848E-02 14208   0.740E-01    0.286E-02
DAV:   2    -0.125450668914E+03   -0.10823E-04   -0.25049E-04 14496   0.681E-02    0.195E-02
DAV:   3    -0.125450667496E+03    0.14176E-05   -0.18262E-05 14208   0.189E-02    0.566E-03
DAV:   4    -0.125450667647E+03   -0.15133E-06   -0.49695E-06 14208   0.114E-02
  72 F= -.12701501E+03 E0= -.12701423E+03  d E =-.314774E-04  mag=     0.0000
       N       E                     dE             d eps       ncg     rms          rms(c)
DAV:   1    -0.125450744417E+03   -0.76921E-04   -0.34329E-03 14208   0.251E-01    0.991E-03
DAV:   2    -0.125450745653E+03   -0.12360E-05   -0.30881E-05 17040   0.247E-02    0.682E-03
DAV:   3    -0.125450745962E+03   -0.30924E-06   -0.32070E-06 16656   0.909E-03
  73 F= -.12701501E+03 E0= -.12701423E+03  d E =-.339291E-04  mag=    -0.0000
       N       E                     dE             d eps       ncg     rms          rms(c)
DAV:   1    -0.125450940858E+03   -0.19520E-03   -0.26365E-02 14208   0.697E-01    0.265E-02
DAV:   2    -0.125450949106E+03   -0.82482E-05   -0.19564E-04 14976   0.602E-02    0.181E-02
DAV:   3    -0.125450947918E+03    0.11878E-05   -0.14772E-05 14496   0.168E-02    0.478E-03
DAV:   4    -0.125450947959E+03   -0.40871E-07   -0.41563E-06 14208   0.104E-02
  74 F= -.12701504E+03 E0= -.12701426E+03  d E =-.308885E-04  mag=    -0.0000
       N       E                     dE             d eps       ncg     rms          rms(c)
DAV:   1    -0.125451128959E+03   -0.18104E-03   -0.28300E-02 14208   0.722E-01    0.274E-02
DAV:   2    -0.125451138311E+03   -0.93520E-05   -0.21280E-04 16080   0.624E-02    0.188E-02
DAV:   3    -0.125451136784E+03    0.15270E-05   -0.15156E-05 14400   0.164E-02    0.485E-03
DAV:   4    -0.125451136884E+03   -0.10032E-06   -0.34398E-06 14400   0.926E-03
  75 F= -.12701505E+03 E0= -.12701427E+03  d E =-.427971E-04  mag=     0.0000
       N       E                     dE             d eps       ncg     rms          rms(c)
DAV:   1    -0.125451246071E+03   -0.10929E-03   -0.20150E-02 14208   0.609E-01    0.241E-02
DAV:   2    -0.125451252339E+03   -0.62675E-05   -0.15390E-04 18528   0.536E-02    0.163E-02
DAV:   3    -0.125451250681E+03    0.16580E-05   -0.12450E-05 14928   0.149E-02    0.416E-03
DAV:   4    -0.125451250666E+03    0.14345E-07   -0.26215E-06 14208   0.798E-03
  76 F= -.12701506E+03 E0= -.12701428E+03  d E =-.110683E-04  mag=     0.0000
       N       E                     dE             d eps       ncg     rms          rms(c)
DAV:   1    -0.125451223299E+03    0.27382E-04   -0.16029E-03 14208   0.172E-01    0.657E-03
DAV:   2    -0.125451223634E+03   -0.33493E-06   -0.12760E-05 16128   0.159E-02    0.444E-03
DAV:   3    -0.125451223542E+03    0.92036E-07   -0.14530E-06 20736   0.588E-03
  77 F= -.12701507E+03 E0= -.12701428E+03  d E =-.129733E-04  mag=     0.0000
       N       E                     dE             d eps       ncg     rms          rms(c)
DAV:   1    -0.125451273697E+03   -0.50063E-04   -0.85837E-03 14208   0.395E-01    0.154E-02
DAV:   2    -0.125451275879E+03   -0.21824E-05   -0.58860E-05 15552   0.327E-02    0.104E-02
DAV:   3    -0.125451275142E+03    0.73728E-06   -0.50761E-06 15120   0.933E-03
  78 F= -.12701508E+03 E0= -.12701430E+03  d E =-.182277E-04  mag=     0.0000
       N       E                     dE             d eps       ncg     rms          rms(c)
DAV:   1    -0.125451353081E+03   -0.77202E-04   -0.33153E-02 14208   0.776E-01    0.311E-02
DAV:   2    -0.125451362283E+03   -0.92026E-05   -0.22230E-04 15936   0.634E-02    0.210E-02
DAV:   3    -0.125451359256E+03    0.30276E-05   -0.18359E-05 15360   0.168E-02    0.507E-03
DAV:   4    -0.125451359221E+03    0.34766E-07   -0.30056E-06 14208   0.771E-03
  79 F= -.12701510E+03 E0= -.12701432E+03  d E =-.367138E-04  mag=     0.0000
       N       E                     dE             d eps       ncg     rms          rms(c)
DAV:   1    -0.125451387276E+03   -0.28021E-04   -0.86905E-03 14208   0.398E-01    0.161E-02
DAV:   2    -0.125451390044E+03   -0.27680E-05   -0.60933E-05 15264   0.337E-02    0.110E-02
DAV:   3    -0.125451389382E+03    0.66228E-06   -0.52347E-06 17952   0.103E-02
  80 F= -.12701512E+03 E0= -.12701434E+03  d E =-.182978E-04  mag=    -0.0000
       N       E                     dE             d eps       ncg     rms          rms(c)
DAV:   1    -0.125451400238E+03   -0.10193E-04   -0.38715E-03 14208   0.266E-01    0.110E-02
DAV:   2    -0.125451401545E+03   -0.13075E-05   -0.27423E-05 14304   0.230E-02    0.745E-03
DAV:   3    -0.125451401363E+03    0.18214E-06   -0.27559E-06 14400   0.806E-03
  81 F= -.12701512E+03 E0= -.12701434E+03  d E =-.223344E-04  mag=     0.0000
       N       E                     dE             d eps       ncg     rms          rms(c)
DAV:   1    -0.125451412385E+03   -0.10840E-04   -0.49915E-03 14208   0.303E-01    0.119E-02
DAV:   2    -0.125451413999E+03   -0.16144E-05   -0.32209E-05 14208   0.245E-02    0.823E-03
DAV:   3    -0.125451413796E+03    0.20363E-06   -0.27702E-06 15120   0.799E-03
  82 F= -.12701514E+03 E0= -.12701436E+03  d E =-.147957E-04  mag=    -0.0000
       N       E                     dE             d eps       ncg     rms          rms(c)
DAV:   1    -0.125451431177E+03   -0.17178E-04   -0.44948E-02 14208   0.907E-01    0.353E-02
DAV:   2    -0.125451445775E+03   -0.14598E-04   -0.28392E-04 14976   0.709E-02    0.244E-02
DAV:   3    -0.125451442221E+03    0.35546E-05   -0.18768E-05 14832   0.180E-02    0.562E-03
DAV:   4    -0.125451442253E+03   -0.31994E-07   -0.32365E-06 14400   0.870E-03
  83 F= -.12701518E+03 E0= -.12701439E+03  d E =-.504288E-04  mag=     0.0000
       N       E                     dE             d eps       ncg     rms          rms(c)
DAV:   1    -0.125451416573E+03    0.25648E-04   -0.17997E-01 14208   0.182E+00    0.708E-02
DAV:   2    -0.125451474106E+03   -0.57533E-04   -0.11273E-03 16080   0.141E-01    0.488E-02
DAV:   3    -0.125451458225E+03    0.15881E-04   -0.73072E-05 14736   0.339E-02    0.108E-02
DAV:   4    -0.125451458348E+03   -0.12243E-06   -0.94169E-06 14592   0.136E-02
  84 F= -.12701521E+03 E0= -.12701442E+03  d E =-.808672E-04  mag=     0.0000
       N       E                     dE             d eps       ncg     rms          rms(c)
DAV:   1    -0.125451465751E+03   -0.75254E-05   -0.55972E-03 14208   0.321E-01    0.127E-02
DAV:   2    -0.125451467749E+03   -0.19979E-05   -0.38479E-05 14400   0.277E-02    0.883E-03
DAV:   3    -0.125451468143E+03   -0.39442E-06   -0.46615E-06 14400   0.109E-02
  85 F= -.12701522E+03 E0= -.12701444E+03  d E =-.187419E-04  mag=     0.0000
       N       E                     dE             d eps       ncg     rms          rms(c)
DAV:   1    -0.125451475616E+03   -0.78678E-05   -0.50073E-02 14208   0.960E-01    0.369E-02
DAV:   2    -0.125451492481E+03   -0.16865E-04   -0.32147E-04 14208   0.764E-02    0.254E-02
DAV:   3    -0.125451488826E+03    0.36547E-05   -0.22887E-05 16032   0.207E-02    0.645E-03
DAV:   4    -0.125451488628E+03    0.19828E-06   -0.53312E-06 15072   0.115E-02
  86 F= -.12701527E+03 E0= -.12701449E+03  d E =-.660200E-04  mag=     0.0000
       N       E                     dE             d eps       ncg     rms          rms(c)
DAV:   1    -0.125451452908E+03    0.35918E-04   -0.20048E-01 14208   0.192E+00    0.740E-02
DAV:   2    -0.125451519370E+03   -0.66463E-04   -0.12699E-03 14784   0.151E-01    0.509E-02
DAV:   3    -0.125451501902E+03    0.17469E-04   -0.86799E-05 18144   0.375E-02    0.124E-02
DAV:   4    -0.125451501667E+03    0.23471E-06   -0.12594E-05 16032   0.161E-02    0.403E-03
DAV:   5    -0.125451501727E+03   -0.60470E-07   -0.37580E-06 14208   0.965E-03
  87 F= -.12701534E+03 E0= -.12701456E+03  d E =-.132629E-03  mag=    -0.0000
       N       E                     dE             d eps       ncg     rms          rms(c)
DAV:   1    -0.125451225549E+03    0.27612E-03   -0.80153E-01 14208   0.384E+00    0.148E-01
DAV:   2    -0.125451488692E+03   -0.26314E-03   -0.50589E-03 18192   0.301E-01    0.102E-01
DAV:   3    -0.125451410746E+03    0.77946E-04   -0.33152E-04 17376   0.693E-02    0.229E-02
DAV:   4    -0.125451410158E+03    0.58709E-06   -0.42168E-05 14400   0.261E-02    0.763E-03
DAV:   5    -0.125451410120E+03    0.38447E-07   -0.63848E-06 15216   0.119E-02
  88 F= -.12701535E+03 E0= -.12701457E+03  d E =-.147865E-03  mag=     0.0000
       N       E                     dE             d eps       ncg     rms          rms(c)
DAV:   1    -0.125451437396E+03   -0.27237E-04   -0.12988E-01 14208   0.155E+00    0.592E-02
DAV:   2    -0.125451478925E+03   -0.41529E-04   -0.83671E-04 17712   0.123E-01    0.409E-02
DAV:   3    -0.125451468607E+03    0.10318E-04   -0.61741E-05 17712   0.333E-02    0.970E-03
DAV:   4    -0.125451467521E+03    0.10855E-05   -0.15602E-05 14208   0.195E-02    0.340E-03
DAV:   5    -0.125451466819E+03    0.70244E-06   -0.67079E-06 14208   0.129E-02
  89 F= -.12701537E+03 E0= -.12701459E+03  d E =-.161592E-03  mag=    -0.0000
       N       E                     dE             d eps       ncg     rms          rms(c)
DAV:   1    -0.125451473526E+03   -0.60048E-05   -0.12307E-02 14784   0.477E-01    0.181E-02
DAV:   2    -0.125451476956E+03   -0.34301E-05   -0.74238E-05 14208   0.367E-02    0.124E-02
DAV:   3    -0.125451476084E+03    0.87164E-06   -0.59708E-06 14784   0.110E-02
  90 F= -.12701539E+03 E0= -.12701461E+03  d E =-.254026E-04  mag=    -0.0000
       N       E                     dE             d eps       ncg     rms          rms(c)
DAV:   1    -0.125451469611E+03    0.73452E-05   -0.11073E-01 14208   0.143E+00    0.547E-02
DAV:   2    -0.125451508225E+03   -0.38614E-04   -0.69155E-04 14352   0.111E-01    0.378E-02
DAV:   3    -0.125451499193E+03    0.90327E-05   -0.43170E-05 16320   0.269E-02    0.917E-03
DAV:   4    -0.125451499272E+03   -0.79501E-07   -0.61880E-06 15072   0.114E-02
  91 F= -.12701546E+03 E0= -.12701468E+03  d E =-.971083E-04  mag=    -0.0000
       N       E                     dE             d eps       ncg     rms          rms(c)
DAV:   1    -0.125451402469E+03    0.96723E-04   -0.44329E-01 14208   0.286E+00    0.109E-01
DAV:   2    -0.125451555181E+03   -0.15271E-03   -0.27530E-03 15456   0.222E-01    0.757E-02
DAV:   3    -0.125451516052E+03    0.39129E-04   -0.17182E-04 17472   0.517E-02    0.176E-02
DAV:   4    -0.125451516130E+03   -0.78554E-07   -0.21235E-05 14304   0.197E-02    0.547E-03
DAV:   5    -0.125451516111E+03    0.18794E-07   -0.45880E-06 14208   0.104E-02
  92 F= -.12701558E+03 E0= -.12701480E+03  d E =-.210978E-03  mag=    -0.0000
       N       E                     dE             d eps       ncg     rms          rms(c)
DAV:   1    -0.125450988300E+03    0.52783E-03   -0.17722E+00 14208   0.572E+00    0.218E-01
DAV:   2    -0.125451599327E+03   -0.61103E-03   -0.11036E-02 19824   0.443E-01    0.152E-01
DAV:   3    -0.125451428088E+03    0.17124E-03   -0.66600E-04 19392   0.969E-02    0.321E-02
DAV:   4    -0.125451426981E+03    0.11068E-05   -0.81708E-05 14496   0.359E-02    0.103E-02
DAV:   5    -0.125451426705E+03    0.27652E-06   -0.11314E-05 14592   0.155E-02    0.466E-03
DAV:   6    -0.125451428083E+03   -0.13787E-05   -0.83677E-06 14208   0.143E-02    0.187E-03
DAV:   7    -0.125451425981E+03    0.21023E-05   -0.36699E-06 21648   0.941E-03    0.593E-04
DAV:   8    -0.125451425972E+03    0.94287E-08   -0.13924E-07 24912   0.175E-03
  93 F= -.12701568E+03 E0= -.12701490E+03  d E =-.314761E-03  mag=     0.0000
       N       E                     dE             d eps       ncg     rms          rms(c)
DAV:   1    -0.125451426933E+03   -0.95186E-06   -0.18430E-01 14208   0.185E+00    0.703E-02
DAV:   2    -0.125451490182E+03   -0.63249E-04   -0.11192E-03 19776   0.140E-01    0.490E-02
DAV:   3    -0.125451474197E+03    0.15985E-04   -0.60015E-05 14784   0.296E-02    0.104E-02
DAV:   4    -0.125451474534E+03   -0.33699E-06   -0.64283E-06 19152   0.955E-03
  94 F= -.12701580E+03 E0= -.12701502E+03  d E =-.116821E-03  mag=     0.0000
       N       E                     dE             d eps       ncg     rms          rms(c)
DAV:   1    -0.125451119374E+03    0.35482E-03   -0.16591E+00 14208   0.554E+00    0.211E-01
DAV:   2    -0.125451693865E+03   -0.57449E-03   -0.10016E-02 15168   0.420E-01    0.146E-01
DAV:   3    -0.125451551202E+03    0.14266E-03   -0.54421E-04 16032   0.915E-02    0.342E-02
DAV:   4    -0.125451553410E+03   -0.22085E-05   -0.55224E-05 17280   0.284E-02    0.967E-03
DAV:   5    -0.125451552492E+03    0.91822E-06   -0.64635E-06 19920   0.923E-03
  95 F= -.12701608E+03 E0= -.12701530E+03  d E =-.400138E-03  mag=    -0.0000
       N       E                     dE             d eps       ncg     rms          rms(c)
DAV:   1    -0.125449670262E+03    0.18831E-02   -0.66319E+00 14208   0.111E+01    0.422E-01
DAV:   2    -0.125451992339E+03   -0.23221E-02   -0.40279E-02 16656   0.843E-01    0.293E-01
DAV:   3    -0.125451397714E+03    0.59462E-03   -0.21554E-03 16752   0.179E-01    0.680E-02
DAV:   4    -0.125451403735E+03   -0.60203E-05   -0.22299E-04 23232   0.566E-02    0.189E-02
DAV:   5    -0.125451400042E+03    0.36928E-05   -0.20745E-05 19872   0.165E-02    0.776E-03
DAV:   6    -0.125451400155E+03   -0.11310E-06   -0.36887E-06 16032   0.725E-03
  96 F= -.12701634E+03 E0= -.12701556E+03  d E =-.659093E-03  mag=    -0.0000
       N       E                     dE             d eps       ncg     rms          rms(c)
DAV:   1    -0.125451290059E+03    0.10998E-03   -0.59225E-01 14208   0.331E+00    0.126E-01
DAV:   2    -0.125451496524E+03   -0.20646E-03   -0.36036E-03 16176   0.253E-01    0.873E-02
DAV:   3    -0.125451444865E+03    0.51659E-04   -0.19802E-04 15984   0.548E-02    0.199E-02
DAV:   4    -0.125451445756E+03   -0.89139E-06   -0.20945E-05 14688   0.177E-02    0.583E-03
DAV:   5    -0.125451445463E+03    0.29368E-06   -0.25447E-06 14400   0.632E-03
  97 F= -.12701653E+03 E0= -.12701574E+03  d E =-.184136E-03  mag=    -0.0000
       N       E                     dE             d eps       ncg     rms          rms(c)
DAV:   1    -0.125449914817E+03    0.15309E-02   -0.53281E+00 14208   0.993E+00    0.378E-01
DAV:   2    -0.125451793213E+03   -0.18784E-02   -0.32468E-02 18720   0.759E-01    0.263E-01
DAV:   3    -0.125451296549E+03    0.49666E-03   -0.17620E-03 17952   0.159E-01    0.575E-02
DAV:   4    -0.125451299773E+03   -0.32242E-05   -0.19118E-04 23472   0.522E-02    0.169E-02
DAV:   5    -0.125451297355E+03    0.24177E-05   -0.15068E-05 16032   0.151E-02    0.727E-03
DAV:   6    -0.125451297224E+03    0.13068E-06   -0.36372E-06 15456   0.853E-03
  98 F= -.12701679E+03 E0= -.12701601E+03  d E =-.451898E-03  mag=     0.0000
       N       E                     dE             d eps       ncg     rms          rms(c)
DAV:   1    -0.125451096646E+03    0.20071E-03   -0.94148E-01 14208   0.417E+00    0.159E-01
DAV:   2    -0.125451423143E+03   -0.32650E-03   -0.58416E-03 20304   0.322E-01    0.110E-01
DAV:   3    -0.125451334085E+03    0.89058E-04   -0.34011E-04 19488   0.689E-02    0.235E-02
DAV:   4    -0.125451334276E+03   -0.19048E-06   -0.38272E-05 15264   0.230E-02    0.725E-03
DAV:   5    -0.125451334094E+03    0.18113E-06   -0.36024E-06 14880   0.752E-03
  99 F= -.12701703E+03 E0= -.12701625E+03  d E =-.234672E-03  mag=     0.0000
       N       E                     dE             d eps       ncg     rms          rms(c)
DAV:   1    -0.125449813501E+03    0.15208E-02   -0.52130E+00 14208   0.982E+00    0.374E-01
DAV:   2    -0.125451621421E+03   -0.18079E-02   -0.32232E-02 20112   0.757E-01    0.260E-01
DAV:   3    -0.125451111289E+03    0.51013E-03   -0.18283E-03 19248   0.159E-01    0.562E-02
DAV:   4    -0.125451110908E+03    0.38101E-06   -0.21371E-04 23472   0.536E-02    0.169E-02
DAV:   5    -0.125451109050E+03    0.18573E-05   -0.14190E-05 15552   0.149E-02    0.757E-03
DAV:   6    -0.125451108840E+03    0.21013E-06   -0.46054E-06 19344   0.990E-03
 100 F= -.12701727E+03 E0= -.12701649E+03  d E =-.475945E-03  mag=    -0.0000
       N       E                     dE             d eps       ncg     rms          rms(c)
DAV:   1    -0.125450790242E+03    0.31881E-03   -0.11025E+00 14208   0.451E+00    0.172E-01
DAV:   2    -0.125451180184E+03   -0.38994E-03   -0.68731E-03 20640   0.349E-01    0.120E-01
DAV:   3    -0.125451075638E+03    0.10455E-03   -0.40013E-04 19488   0.751E-02    0.252E-02
DAV:   4    -0.125451075795E+03   -0.15717E-06   -0.44698E-05 14688   0.253E-02    0.790E-03
DAV:   5    -0.125451075603E+03    0.19239E-06   -0.45674E-06 14880   0.883E-03
 101 F= -.12701746E+03 E0= -.12701668E+03  d E =-.187381E-03  mag=    -0.0000
       N       E                     dE             d eps       ncg     rms          rms(c)
DAV:   1    -0.125450330208E+03    0.74559E-03   -0.20989E+00 14208   0.623E+00    0.237E-01
DAV:   2    -0.125451068267E+03   -0.73806E-03   -0.13007E-02 20016   0.481E-01    0.165E-01
DAV:   3    -0.125450866996E+03    0.20127E-03   -0.75185E-04 19536   0.103E-01    0.348E-02
DAV:   4    -0.125450867104E+03   -0.10851E-06   -0.85085E-05 15648   0.355E-02    0.109E-02
DAV:   5    -0.125450866607E+03    0.49754E-06   -0.91854E-06 15936   0.131E-02
 102 F= -.12701755E+03 E0= -.12701677E+03  d E =-.282718E-03  mag=     0.0000
       N       E                     dE             d eps       ncg     rms          rms(c)
DAV:   1    -0.125450728873E+03    0.13823E-03   -0.46177E-01 14208   0.292E+00    0.111E-01
DAV:   2    -0.125450896090E+03   -0.16722E-03   -0.28981E-03 19488   0.227E-01    0.778E-02
DAV:   3    -0.125450854644E+03    0.41446E-04   -0.16515E-04 19632   0.508E-02    0.165E-02
DAV:   4    -0.125450854542E+03    0.10185E-06   -0.24458E-05 14208   0.231E-02    0.518E-03
DAV:   5    -0.125450854457E+03    0.85115E-07   -0.73730E-06 14208   0.137E-02
 103 F= -.12701769E+03 E0= -.12701691E+03  d E =-.133986E-03  mag=     0.0000
       N       E                     dE             d eps       ncg     rms          rms(c)
DAV:   1    -0.125449621612E+03    0.12329E-02   -0.41537E+00 14208   0.875E+00    0.334E-01
DAV:   2    -0.125451105386E+03   -0.14838E-02   -0.25902E-02 21072   0.676E-01    0.233E-01
DAV:   3    -0.125450703747E+03    0.40164E-03   -0.14385E-03 19584   0.142E-01    0.487E-02
DAV:   4    -0.125450703490E+03    0.25750E-06   -0.16124E-04 15168   0.486E-02    0.148E-02
DAV:   5    -0.125450702534E+03    0.95546E-06   -0.17368E-05 15120   0.178E-02    0.667E-03
DAV:   6    -0.125450703402E+03   -0.86711E-06   -0.85060E-06 14304   0.144E-02
 104 F= -.12701797E+03 E0= -.12701719E+03  d E =-.422343E-03  mag=     0.0000
       N       E                     dE             d eps       ncg     rms          rms(c)
DAV:   1    -0.125445514163E+03    0.51884E-02   -0.16597E+01 14208   0.175E+01    0.669E-01
DAV:   2    -0.125451526175E+03   -0.60120E-02   -0.10449E-01 19728   0.136E+00    0.465E-01
DAV:   3    -0.125449915258E+03    0.16109E-02   -0.56199E-03 18336   0.280E-01    0.106E-01
DAV:   4    -0.125449916685E+03   -0.14274E-05   -0.64204E-04 25392   0.939E-02    0.298E-02
DAV:   5    -0.125449908767E+03    0.79181E-05   -0.44623E-05 15936   0.254E-02    0.131E-02
DAV:   6    -0.125449908860E+03   -0.92868E-07   -0.11017E-05 17664   0.146E-02    0.231E-03
DAV:   7    -0.125449909187E+03   -0.32724E-06   -0.30272E-06 14784   0.900E-03
 105 F= -.12701806E+03 E0= -.12701728E+03  d E =-.510647E-03  mag=    -0.0000
       N       E                     dE             d eps       ncg     rms          rms(c)
DAV:   1    -0.125449737754E+03    0.17111E-03   -0.20837E+00 14208   0.621E+00    0.236E-01
DAV:   2    -0.125450460546E+03   -0.72279E-03   -0.12820E-02 20448   0.476E-01    0.165E-01
DAV:   3    -0.125450262398E+03    0.19815E-03   -0.73005E-04 16224   0.101E-01    0.336E-02
DAV:   4    -0.125450263683E+03   -0.12854E-05   -0.82426E-05 22944   0.335E-02    0.107E-02
DAV:   5    -0.125450263011E+03    0.67213E-06   -0.55624E-06 19296   0.899E-03
 106 F= -.12701810E+03 E0= -.12701732E+03  d E =-.551483E-03  mag=    -0.0000
       N       E                     dE             d eps       ncg     rms          rms(c)
DAV:   1    -0.125450235051E+03    0.28632E-04   -0.17806E-01 14208   0.181E+00    0.704E-02
DAV:   2    -0.125450289567E+03   -0.54516E-04   -0.11486E-03 14688   0.144E-01    0.481E-02
DAV:   3    -0.125450272054E+03    0.17513E-04   -0.77345E-05 21120   0.346E-02    0.120E-02
DAV:   4    -0.125450272183E+03   -0.12879E-06   -0.81277E-06 14592   0.122E-02
 107 F= -.12701823E+03 E0= -.12701745E+03  d E =-.129630E-03  mag=     0.0000
       N       E                     dE             d eps       ncg     rms          rms(c)
DAV:   1    -0.125450167529E+03    0.10452E-03   -0.16526E-01 14208   0.174E+00    0.680E-02
DAV:   2    -0.125450221890E+03   -0.54361E-04   -0.10751E-03 17280   0.139E-01    0.467E-02
DAV:   3    -0.125450206054E+03    0.15836E-04   -0.70529E-05 19488   0.332E-02    0.110E-02
DAV:   4    -0.125450206214E+03   -0.16059E-06   -0.86849E-06 14208   0.132E-02
 108 F= -.12701828E+03 E0= -.12701750E+03  d E =-.179288E-03  mag=     0.0000
       N       E                     dE             d eps       ncg     rms          rms(c)
DAV:   1    -0.125450190222E+03    0.15832E-04   -0.11486E-01 14208   0.145E+00    0.572E-02
DAV:   2    -0.125450226705E+03   -0.36483E-04   -0.76869E-04 20256   0.118E-01    0.393E-02
DAV:   3    -0.125450214775E+03    0.11930E-04   -0.53805E-05 19968   0.283E-02    0.837E-03
DAV:   4    -0.125450214845E+03   -0.70613E-07   -0.78098E-06 14208   0.126E-02
 109 F= -.12701841E+03 E0= -.12701763E+03  d E =-.125540E-03  mag=     0.0000
       N       E                     dE             d eps       ncg     rms          rms(c)
DAV:   1    -0.125450065276E+03    0.14950E-03   -0.23998E-01 14208   0.210E+00    0.828E-02
DAV:   2    -0.125450139428E+03   -0.74153E-04   -0.15975E-03 20160   0.170E-01    0.567E-02
DAV:   3    -0.125450113802E+03    0.25626E-04   -0.11213E-04 20016   0.400E-02    0.119E-02
DAV:   4    -0.125450113797E+03    0.51550E-08   -0.14308E-05 15168   0.160E-02    0.440E-03
DAV:   5    -0.125450113846E+03   -0.48709E-07   -0.25408E-06 15168   0.790E-03
 110 F= -.12701848E+03 E0= -.12701770E+03  d E =-.193718E-03  mag=     0.0000
       N       E                     dE             d eps       ncg     rms          rms(c)
DAV:   1    -0.125450036949E+03    0.76848E-04   -0.18051E-01 14208   0.182E+00    0.707E-02
DAV:   2    -0.125450097776E+03   -0.60827E-04   -0.12188E-03 20256   0.148E-01    0.488E-02
DAV:   3    -0.125450079996E+03    0.17780E-04   -0.86902E-05 20112   0.358E-02    0.105E-02
DAV:   4    -0.125450079737E+03    0.25860E-06   -0.13736E-05 14688   0.162E-02    0.384E-03
DAV:   5    -0.125450079784E+03   -0.47253E-07   -0.30713E-06 14304   0.865E-03
 111 F= -.12701859E+03 E0= -.12701781E+03  d E =-.116522E-03  mag=    -0.0000
       N       E                     dE             d eps       ncg     rms          rms(c)
DAV:   1    -0.125449955956E+03    0.12378E-03   -0.12276E-01 14208   0.150E+00    0.583E-02
DAV:   2    -0.125449997623E+03   -0.41667E-04   -0.83183E-04 20640   0.122E-01    0.403E-02
DAV:   3    -0.125449985773E+03    0.11850E-04   -0.60005E-05 20448   0.302E-02    0.866E-03
DAV:   4    -0.125449985573E+03    0.20066E-06   -0.10521E-05 14976   0.147E-02    0.320E-03
DAV:   5    -0.125449985600E+03   -0.27103E-07   -0.28580E-06 14208   0.838E-03
 112 F= -.12701862E+03 E0= -.12701784E+03  d E =-.146761E-03  mag=    -0.0000
       N       E                     dE             d eps       ncg     rms          rms(c)
DAV:   1    -0.125449857443E+03    0.12813E-03   -0.22848E-01 14208   0.205E+00    0.797E-02
DAV:   2    -0.125449938991E+03   -0.81548E-04   -0.15972E-03 20832   0.170E-01    0.550E-02
DAV:   3    -0.125449916935E+03    0.22056E-04   -0.10668E-04 20256   0.397E-02    0.126E-02
DAV:   4    -0.125449916607E+03    0.32831E-06   -0.15871E-05 14688   0.170E-02    0.434E-03
DAV:   5    -0.125449916671E+03   -0.64714E-07   -0.29599E-06 14208   0.851E-03
 113 F= -.12701874E+03 E0= -.12701796E+03  d E =-.113803E-03  mag=    -0.0000
       N       E                     dE             d eps       ncg     rms          rms(c)
DAV:   1    -0.125449870586E+03    0.46021E-04   -0.14869E-02 14208   0.523E-01    0.203E-02
DAV:   2    -0.125449876420E+03   -0.58338E-05   -0.10828E-04 17664   0.454E-02    0.141E-02
DAV:   3    -0.125449875468E+03    0.95141E-06   -0.94683E-06 18720   0.146E-02
 114 F= -.12701874E+03 E0= -.12701796E+03  d E =-.119234E-03  mag=    -0.0000
       N       E                     dE             d eps       ncg     rms          rms(c)
DAV:   1    -0.125449775574E+03    0.10085E-03   -0.14549E-01 14208   0.164E+00    0.633E-02
DAV:   2    -0.125449830807E+03   -0.55232E-04   -0.98128E-04 20448   0.133E-01    0.439E-02
DAV:   3    -0.125449818672E+03    0.12134E-04   -0.55113E-05 20496   0.306E-02    0.100E-02
DAV:   4    -0.125449818571E+03    0.10162E-06   -0.11210E-05 14208   0.166E-02    0.304E-03
DAV:   5    -0.125449818401E+03    0.16964E-06   -0.47698E-06 14208   0.110E-02
 115 F= -.12701886E+03 E0= -.12701808E+03  d E =-.121859E-03  mag=     0.0000
       N       E                     dE             d eps       ncg     rms          rms(c)
DAV:   1    -0.125449455082E+03    0.36349E-03   -0.45831E-01 14208   0.291E+00    0.112E-01
DAV:   2    -0.125449622833E+03   -0.16775E-03   -0.30381E-03 20352   0.234E-01    0.774E-02
DAV:   3    -0.125449581350E+03    0.41483E-04   -0.16354E-04 20160   0.489E-02    0.172E-02
DAV:   4    -0.125449581599E+03   -0.24902E-06   -0.19076E-05 18768   0.180E-02    0.512E-03
DAV:   5    -0.125449581479E+03    0.11934E-06   -0.26778E-06 15936   0.797E-03
 116 F= -.12701895E+03 E0= -.12701816E+03  d E =-.202948E-03  mag=     0.0000
       N       E                     dE             d eps       ncg     rms          rms(c)
DAV:   1    -0.125449454486E+03    0.12711E-03   -0.13735E-01 14208   0.160E+00    0.612E-02
DAV:   2    -0.125449507546E+03   -0.53060E-04   -0.94025E-04 19776   0.131E-01    0.423E-02
DAV:   3    -0.125449494965E+03    0.12581E-04   -0.54083E-05 20352   0.306E-02    0.944E-03
DAV:   4    -0.125449494992E+03   -0.26793E-07   -0.10240E-05 14304   0.160E-02    0.303E-03
DAV:   5    -0.125449494970E+03    0.22355E-07   -0.44604E-06 14208   0.108E-02
 117 F= -.12701906E+03 E0= -.12701827E+03  d E =-.109821E-03  mag=     0.0000
       N       E                     dE             d eps       ncg     rms          rms(c)
DAV:   1    -0.125449249536E+03    0.24546E-03   -0.19685E-01 14208   0.191E+00    0.734E-02
DAV:   2    -0.125449324601E+03   -0.75065E-04   -0.13390E-03 21312   0.156E-01    0.508E-02
DAV:   3    -0.125449305993E+03    0.18608E-04   -0.74992E-05 20448   0.339E-02    0.109E-02
DAV:   4    -0.125449306164E+03   -0.17105E-06   -0.95728E-06 15840   0.139E-02
 118 F= -.12701910E+03 E0= -.12701832E+03  d E =-.156236E-03  mag=    -0.0000
       N       E                     dE             d eps       ncg     rms          rms(c)
DAV:   1    -0.125449218504E+03    0.87489E-04   -0.91191E-02 14208   0.130E+00    0.496E-02
DAV:   2    -0.125449256954E+03   -0.38450E-04   -0.61544E-04 20256   0.106E-01    0.347E-02
DAV:   3    -0.125449249495E+03    0.74582E-05   -0.33713E-05 20208   0.240E-02    0.734E-03
DAV:   4    -0.125449249556E+03   -0.60253E-07   -0.64662E-06 14592   0.125E-02
 119 F= -.12701921E+03 E0= -.12701843E+03  d E =-.112253E-03  mag=    -0.0000
       N       E                     dE             d eps       ncg     rms          rms(c)
DAV:   1    -0.125448751083E+03    0.49841E-03   -0.82014E-01 14208   0.391E+00    0.148E-01
DAV:   2    -0.125449078139E+03   -0.32706E-03   -0.54204E-03 20448   0.314E-01    0.103E-01
DAV:   3    -0.125449006849E+03    0.71290E-04   -0.28907E-04 20448   0.655E-02    0.217E-02
DAV:   4    -0.125449006982E+03   -0.13232E-06   -0.34387E-05 20736   0.247E-02    0.660E-03
DAV:   5    -0.125449006665E+03    0.31606E-06   -0.57291E-06 17328   0.117E-02
 120 F= -.12701948E+03 E0= -.12701870E+03  d E =-.376779E-03  mag=     0.0000
       N       E                     dE             d eps       ncg     rms          rms(c)
DAV:   1    -0.125447195426E+03    0.18116E-02   -0.32796E+00 14208   0.781E+00    0.296E-01
DAV:   2    -0.125448492868E+03   -0.12974E-02   -0.21593E-02 21696   0.626E-01    0.206E-01
DAV:   3    -0.125448194478E+03    0.29839E-03   -0.11421E-03 21456   0.128E-01    0.428E-02
DAV:   4    -0.125448193988E+03    0.49047E-06   -0.13280E-04 23904   0.465E-02    0.130E-02
DAV:   5    -0.125448192642E+03    0.13459E-05   -0.16100E-05 16320   0.192E-02    0.594E-03
DAV:   6    -0.125448194500E+03   -0.18580E-05   -0.13233E-05 18528   0.185E-02    0.227E-03
DAV:   7    -0.125448193041E+03    0.14586E-05   -0.52942E-06 21744   0.114E-02    0.742E-04
DAV:   8    -0.125448193352E+03   -0.31084E-06   -0.16788E-07 26112   0.192E-03
 121 F= -.12701968E+03 E0= -.12701890E+03  d E =-.582032E-03  mag=    -0.0000
       N       E                     dE             d eps       ncg     rms          rms(c)
DAV:   1    -0.125447700561E+03    0.49248E-03   -0.62563E-01 14208   0.340E+00    0.131E-01
DAV:   2    -0.125447948105E+03   -0.24754E-03   -0.42631E-03 22560   0.276E-01    0.907E-02
DAV:   3    -0.125447890980E+03    0.57125E-04   -0.22359E-04 19968   0.564E-02    0.191E-02
DAV:   4    -0.125447891250E+03   -0.26964E-06   -0.26642E-05 25968   0.191E-02    0.585E-03
DAV:   5    -0.125447891182E+03    0.67679E-07   -0.15508E-06 17424   0.480E-03
 122 F= -.12701983E+03 E0= -.12701905E+03  d E =-.145804E-03  mag=     0.0000
       N       E                     dE             d eps       ncg     rms          rms(c)
DAV:   1    -0.125447899395E+03   -0.81448E-05   -0.19514E-04 20592   0.600E-02    0.254E-03
DAV:   2    -0.125447899547E+03   -0.15249E-06   -0.87347E-07 21456   0.415E-03
 123 F= -.12701983E+03 E0= -.12701905E+03  d E =-.146204E-03  mag=     0.0000
       N       E                     dE             d eps       ncg     rms          rms(c)
DAV:   1    -0.125447663773E+03    0.23562E-03   -0.26972E-01 14208   0.223E+00    0.862E-02
DAV:   2    -0.125447766359E+03   -0.10259E-03   -0.18842E-03 20784   0.183E-01    0.595E-02
DAV:   3    -0.125447742101E+03    0.24258E-04   -0.10957E-04 19488   0.395E-02    0.129E-02
DAV:   4    -0.125447742148E+03   -0.46819E-07   -0.13258E-05 21936   0.137E-02    0.418E-03
DAV:   5    -0.125447742168E+03   -0.20276E-07   -0.10256E-06 16176   0.432E-03
 124 F= -.12701997E+03 E0= -.12701919E+03  d E =-.139805E-03  mag=    -0.0000
       N       E                     dE             d eps       ncg     rms          rms(c)
DAV:   1    -0.125447549459E+03    0.19269E-03   -0.10430E-01 14208   0.139E+00    0.537E-02
DAV:   2    -0.125447590420E+03   -0.40961E-04   -0.73900E-04 20640   0.115E-01    0.372E-02
DAV:   3    -0.125447581479E+03    0.89412E-05   -0.42709E-05 19584   0.251E-02    0.816E-03
DAV:   4    -0.125447581524E+03   -0.44831E-07   -0.56859E-06 15840   0.999E-03
 125 F= -.12701999E+03 E0= -.12701921E+03  d E =-.164289E-03  mag=    -0.0000
       N       E                     dE             d eps       ncg     rms          rms(c)
DAV:   1    -0.125447341111E+03    0.24037E-03   -0.25669E-01 14208   0.217E+00    0.857E-02
DAV:   2    -0.125447426657E+03   -0.85546E-04   -0.18090E-03 19776   0.181E-01    0.582E-02
DAV:   3    -0.125447400322E+03    0.26335E-04   -0.13025E-04 19632   0.421E-02    0.123E-02
DAV:   4    -0.125447400086E+03    0.23588E-06   -0.16275E-05 17952   0.155E-02    0.475E-03
DAV:   5    -0.125447400113E+03   -0.26844E-07   -0.17583E-06 15744   0.611E-03
 126 F= -.12702011E+03 E0= -.12701933E+03  d E =-.116798E-03  mag=     0.0000
       N       E                     dE             d eps       ncg     rms          rms(c)
DAV:   1    -0.125447264327E+03    0.13576E-03   -0.52740E-02 14208   0.982E-01    0.387E-02
DAV:   2    -0.125447282626E+03   -0.18299E-04   -0.37816E-04 19920   0.828E-02    0.264E-02
DAV:   3    -0.125447277420E+03    0.52058E-05   -0.27715E-05 20160   0.207E-02    0.573E-03
DAV:   4    -0.125447277386E+03    0.34288E-07   -0.52413E-06 14688   0.107E-02
 127 F= -.12702012E+03 E0= -.12701934E+03  d E =-.129325E-03  mag=    -0.0000
       N       E                     dE             d eps       ncg     rms          rms(c)
DAV:   1    -0.125447184300E+03    0.93121E-04   -0.31120E-02 14208   0.751E-01    0.316E-02
DAV:   2    -0.125447193104E+03   -0.88042E-05   -0.26127E-04 20976   0.697E-02    0.208E-02
DAV:   3    -0.125447188997E+03    0.41065E-05   -0.22570E-05 20400   0.189E-02    0.572E-03
DAV:   4    -0.125447188950E+03    0.47441E-07   -0.48658E-06 14400   0.103E-02
 128 F= -.12702014E+03 E0= -.12701936E+03  d E =-.215099E-04  mag=    -0.0000
