Lattice                                 
           1
     4.190697    2.419500    0.000000
    -4.190697    2.419500    0.000000
     0.000000    0.000000   15.000000
   B    C 
     4    11
Direct configuration=     1
   0.00415361  0.00267210  0.12034134
   0.35695335  0.00285503  0.09748893
   0.00423858  0.35550699  0.09749256
   0.65142295  0.65006557  0.09747688
   0.32808646  0.32671938  0.10030508
   0.68027775  0.00278085  0.10027562
   0.00416530  0.67883808  0.10026559
   0.08333267  0.41666633  0.33646667
   0.24999967  0.24999933  0.33646667
   0.08333267  0.91666633  0.33646667
   0.24999967  0.74999933  0.33646667
   0.58333267  0.41666633  0.33646667
   0.74999967  0.24999933  0.33646667
   0.58333267  0.91666633  0.33646667
   0.74999967  0.74999933  0.33646667
Direct configuration=     2
   0.00414333  0.00267235  0.11916734
   0.35574091  0.00282899  0.09780252
   0.00413861  0.35449894  0.09786346
   0.65255433  0.65103727  0.09783432
   0.32491846  0.32331853  0.10029967
   0.68382196  0.00285621  0.10032432
   0.00417291  0.68205140  0.10027590
   0.08331752  0.41677934  0.33646279
   0.25017841  0.25026489  0.33655914
   0.08349795  0.91679419  0.33645070
   0.25029775  0.74995639  0.33643592
   0.58328431  0.41664521  0.33642123
   0.74993298  0.25000199  0.33646110
   0.58309145  0.91661693  0.33653621
   0.74953645  0.74977805  0.33648472
Direct configuration=     3
   0.00414864  0.00267222  0.11977321
   0.35636662  0.00284243  0.09764068
   0.00419020  0.35501917  0.09767205
   0.65197045  0.65053580  0.09764985
   0.32655340  0.32507363  0.10030246
   0.68199287  0.00281732  0.10029919
   0.00416898  0.68039308  0.10027058
   0.08332533  0.41672102  0.33646479
   0.25008617  0.25012784  0.33651142
   0.08341265  0.91672821  0.33645894
   0.25014392  0.74997855  0.33645179
   0.58330926  0.41665611  0.33644468
   0.74996740  0.25000062  0.33646397
   0.58321593  0.91664242  0.33650032
   0.74977550  0.74989225  0.33647540
Direct configuration=     4
   0.00414903  0.00269801  0.11874584
   0.35683276  0.00280714  0.09793377
   0.00415766  0.35545332  0.09802258
   0.65160447  0.64999870  0.09798603
   0.32669232  0.32504243  0.10026674
   0.68198884  0.00285318  0.10031485
   0.00418205  0.68030398  0.10024975
   0.08328494  0.41665729  0.33646721
   0.24988866  0.24998682  0.33658515
   0.08321692  0.91664328  0.33645585
   0.24983764  0.75006139  0.33642671
   0.58331776  0.41667875  0.33641514
   0.74996882  0.25002927  0.33645836
   0.58339967  0.91675255  0.33656106
   0.75010578  0.75013455  0.33649030
Direct configuration=     5
   0.00415004  0.00276329  0.11614591
   0.35801240  0.00271783  0.09867545
   0.00407532  0.35655200  0.09890966
   0.65067830  0.64863950  0.09883678
   0.32704390  0.32496347  0.10017634
   0.68197865  0.00294392  0.10035449
   0.00421511  0.68007852  0.10019704
   0.08318270  0.41649602  0.33647334
   0.24938885  0.24962994  0.33677174
   0.08272158  0.91642838  0.33644803
   0.24906255  0.75027104  0.33636326
   0.58333927  0.41673605  0.33634037
   0.74997243  0.25010176  0.33644417
   0.58386464  0.91703125  0.33671475
   0.75094159  0.75074771  0.33652801
Direct configuration=     6
   0.00415369  0.00276752  0.11585347
   0.35812259  0.00270740  0.09874658
   0.00407764  0.35664502  0.09899393
   0.65059660  0.64851972  0.09891771
   0.32711547  0.32500326  0.10018105
   0.68192832  0.00294110  0.10037164
   0.00422186  0.68001748  0.10020550
   0.08318255  0.41654520  0.33647514
   0.24944724  0.24968580  0.33678510
   0.08278367  0.91649598  0.33645012
   0.24916918  0.75025732  0.33636000
   0.58331260  0.41675358  0.33633751
   0.74995973  0.25010624  0.33644368
   0.58376381  0.91699657  0.33672653
   0.75079240  0.75065848  0.33653137
Direct configuration=     7
   0.00416464  0.00278024  0.11497614
   0.35845316  0.00267610  0.09895996
   0.00408461  0.35692409  0.09924674
   0.65035151  0.64816040  0.09916053
   0.32733020  0.32512265  0.10019519
   0.68177731  0.00293264  0.10042310
   0.00424212  0.67983434  0.10023088
   0.08318210  0.41669273  0.33648054
   0.24962238  0.24985339  0.33682518
   0.08296991  0.91669877  0.33645639
   0.24948905  0.75021614  0.33635020
   0.58323257  0.41680620  0.33632895
   0.74992161  0.25011968  0.33644223
   0.58346132  0.91689252  0.33676188
   0.75034485  0.75039079  0.33654143
Direct configuration=     8
   0.00418653  0.00280566  0.11322148
   0.35911429  0.00261351  0.09938672
   0.00409855  0.35748223  0.09975237
   0.64986133  0.64744175  0.09964615
   0.32775965  0.32536141  0.10022346
   0.68147529  0.00291572  0.10052601
   0.00428263  0.67946806  0.10028164
   0.08318120  0.41698781  0.33649134
   0.24997268  0.25018857  0.33690534
   0.08334241  0.91710436  0.33646893
   0.25012881  0.75013378  0.33633062
   0.58307250  0.41691143  0.33631182
   0.74984539  0.25014656  0.33643934
   0.58285634  0.91668442  0.33683256
   0.74944973  0.74985541  0.33656156
Direct configuration=     9
   0.00420508  0.00279283  0.11277707
   0.35910945  0.00259715  0.09945091
   0.00413728  0.35744661  0.09982247
   0.64989217  0.64745809  0.09971456
   0.32782076  0.32542933  0.10028671
   0.68140677  0.00286906  0.10059820
   0.00430441  0.67940521  0.10034774
   0.08317523  0.41696604  0.33649746
   0.24997070  0.25029266  0.33689731
   0.08332300  0.91704039  0.33648141
   0.25010580  0.75015629  0.33634136
   0.58307722  0.41685857  0.33632751
   0.74979801  0.25016247  0.33644385
   0.58288158  0.91671384  0.33682853
   0.74941988  0.74991212  0.33656423
Direct configuration=    10
   0.00426072  0.00275433  0.11144383
   0.35909490  0.00254806  0.09964348
   0.00425347  0.35733977  0.10003277
   0.64998469  0.64750713  0.09991980
   0.32800409  0.32563309  0.10047646
   0.68120121  0.00272909  0.10081479
   0.00436972  0.67921666  0.10054605
   0.08315732  0.41690073  0.33651582
   0.24996476  0.25060494  0.33687322
   0.08326477  0.91684849  0.33651885
   0.25003679  0.75022383  0.33637359
   0.58309135  0.41670001  0.33637459
   0.74965589  0.25021021  0.33645739
   0.58295733  0.91680212  0.33681643
   0.74933033  0.75008223  0.33657225
Direct configuration=    11
   0.00437200  0.00267732  0.10877735
   0.35906581  0.00244988  0.10002861
   0.00448585  0.35712608  0.10045338
   0.65016973  0.64760519  0.10033026
   0.32837074  0.32604059  0.10085597
   0.68079009  0.00244915  0.10124796
   0.00450036  0.67883955  0.10094268
   0.08312149  0.41677011  0.33655254
   0.24995288  0.25122949  0.33682504
   0.08314832  0.91646469  0.33659373
   0.24989876  0.75035890  0.33643804
   0.58311961  0.41638288  0.33646875
   0.74937165  0.25030569  0.33648448
   0.58310882  0.91697867  0.33679224
   0.74915123  0.75042247  0.33658829
Direct configuration=    12
   0.00439620  0.00265378  0.10828056
   0.35906015  0.00243278  0.10009931
   0.00452898  0.35709720  0.10052406
   0.65019394  0.64762600  0.10040093
   0.32841465  0.32609274  0.10093308
   0.68074801  0.00239973  0.10132990
   0.00452605  0.67878061  0.10102174
   0.08307393  0.41681337  0.33655874
   0.24989522  0.25108589  0.33681167
   0.08309813  0.91655113  0.33660797
   0.24984665  0.75034555  0.33645548
   0.58309551  0.41648707  0.33648903
   0.74941194  0.25029479  0.33649273
   0.58309815  0.91702352  0.33678171
   0.74923983  0.75041650  0.33659244
Direct configuration=    13
   0.00446882  0.00258316  0.10679016
   0.35904316  0.00238147  0.10031140
   0.00465837  0.35701054  0.10073608
   0.65026655  0.64768846  0.10061294
   0.32854640  0.32624919  0.10116438
   0.68062177  0.00225147  0.10157570
   0.00460313  0.67860378  0.10125893
   0.08293125  0.41694316  0.33657732
   0.24972224  0.25065511  0.33677154
   0.08294758  0.91681042  0.33665070
   0.24969030  0.75030548  0.33650780
   0.58302322  0.41679966  0.33654987
   0.74953281  0.25026208  0.33651748
   0.58306612  0.91715808  0.33675011
   0.74950562  0.75039861  0.33660491
Direct configuration=    14
   0.00461404  0.00244191  0.10380938
   0.35900919  0.00227885  0.10073557
   0.00491716  0.35683723  0.10116013
   0.65041179  0.64781336  0.10103697
   0.32880990  0.32656209  0.10162700
   0.68036928  0.00195496  0.10206730
   0.00475728  0.67825013  0.10173331
   0.08264589  0.41720273  0.33661449
   0.24937627  0.24979353  0.33669129
   0.08264647  0.91732902  0.33673615
   0.24937761  0.75022535  0.33661245
   0.58287865  0.41742484  0.33667154
   0.74977454  0.25019666  0.33656699
   0.58300206  0.91742719  0.33668691
   0.75003720  0.75036282  0.33662984
Direct configuration=    15
   0.00450756  0.00254548  0.10599499
   0.35903410  0.00235410  0.10042455
   0.00472741  0.35696431  0.10084921
   0.65030530  0.64772178  0.10072606
   0.32861669  0.32633266  0.10128779
   0.68055441  0.00217237  0.10170684
   0.00464425  0.67850944  0.10138548
   0.08285512  0.41701240  0.33658724
   0.24962994  0.25042527  0.33675013
   0.08286725  0.91694877  0.33667350
   0.24960689  0.75028410  0.33653572
   0.58298466  0.41696644  0.33658233
   0.74959729  0.25024463  0.33653069
   0.58304903  0.91722987  0.33673325
   0.74964743  0.75038906  0.33661156
Direct configuration=    16
   0.00451395  0.00252779  0.10591663
   0.35909662  0.00235438  0.10045471
   0.00471810  0.35703159  0.10086687
   0.65023609  0.64766409  0.10074741
   0.32857451  0.32626893  0.10129087
   0.68063421  0.00219255  0.10169988
   0.00464519  0.67853399  0.10138668
   0.08289061  0.41702069  0.33658603
   0.24961482  0.25037493  0.33674899
   0.08291795  0.91701602  0.33667199
   0.24963141  0.75032753  0.33654497
   0.58295932  0.41700340  0.33658394
   0.74960587  0.25029937  0.33653764
   0.58297848  0.91712401  0.33672651
   0.74961020  0.75036140  0.33661623
Direct configuration=    17
   0.00453193  0.00247802  0.10569612
   0.35927257  0.00235519  0.10053957
   0.00469191  0.35722091  0.10091656
   0.65004133  0.64750175  0.10080750
   0.32845579  0.32608960  0.10129951
   0.68085877  0.00224933  0.10168030
   0.00464785  0.67860308  0.10139008
   0.08299045  0.41704399  0.33658263
   0.24957228  0.25023327  0.33674576
   0.08306060  0.91720526  0.33666774
   0.24970043  0.75044975  0.33657099
   0.58288803  0.41710742  0.33658845
   0.74963000  0.25045340  0.33655722
   0.58277993  0.91682612  0.33670753
   0.74950545  0.75028358  0.33662936
Direct configuration=    18
   0.00454094  0.00244901  0.10561738
   0.35940243  0.00235718  0.10059237
   0.00466851  0.35732400  0.10094167
   0.64991323  0.64739008  0.10084063
   0.32840284  0.32599382  0.10129234
   0.68097265  0.00229578  0.10164876
   0.00464475  0.67864624  0.10137828
   0.08299054  0.41704737  0.33658145
   0.24958877  0.25030488  0.33674531
   0.08302458  0.91715258  0.33666374
   0.24967533  0.75043865  0.33658419
   0.58288072  0.41707446  0.33658949
   0.74959629  0.25042752  0.33656810
   0.58281261  0.91688420  0.33669931
   0.74951315  0.75031489  0.33663629
Direct configuration=    19
   0.00455917  0.00239026  0.10545791
   0.35966542  0.00236121  0.10069929
   0.00462110  0.35753280  0.10099253
   0.64965379  0.64716392  0.10090774
   0.32829559  0.32579986  0.10127782
   0.68120329  0.00238987  0.10158489
   0.00463848  0.67873366  0.10135439
   0.08299072  0.41705421  0.33657907
   0.24962216  0.25044991  0.33674440
   0.08295161  0.91704588  0.33665563
   0.24962450  0.75041617  0.33661093
   0.58286592  0.41700770  0.33659160
   0.74952801  0.25037511  0.33659014
   0.58287880  0.91700182  0.33668267
   0.74952876  0.75037829  0.33665032
Direct configuration=    20
   0.00456791  0.00237630  0.10541400
   0.35971652  0.00236199  0.10073683
   0.00461354  0.35750899  0.10100510
   0.64963298  0.64713911  0.10092735
   0.32833240  0.32581614  0.10127363
   0.68118046  0.00240826  0.10155541
   0.00463581  0.67872121  0.10134559
   0.08290839  0.41705967  0.33658389
   0.24959379  0.25040488  0.33674301
   0.08293047  0.91708000  0.33665681
   0.24962650  0.75038846  0.33661330
   0.58290015  0.41703930  0.33659525
   0.74956293  0.25036127  0.33659283
   0.58289174  0.91706903  0.33668617
   0.74953374  0.75036606  0.33665017
Direct configuration=    21
   0.00457222  0.00236940  0.10539231
   0.35974177  0.00236237  0.10075537
   0.00460980  0.35749722  0.10101130
   0.64962269  0.64712685  0.10093704
   0.32835059  0.32582418  0.10127156
   0.68116918  0.00241735  0.10154085
   0.00463449  0.67871506  0.10134125
   0.08286771  0.41706237  0.33658627
   0.24957977  0.25038264  0.33674232
   0.08292003  0.91709685  0.33665740
   0.24962748  0.75037476  0.33661447
   0.58291706  0.41705492  0.33659705
   0.74958018  0.25035444  0.33659415
   0.58289814  0.91710224  0.33668790
   0.74953621  0.75036002  0.33665010
Direct configuration=    22
   0.00458414  0.00235728  0.10534782
   0.35973954  0.00236392  0.10079021
   0.00460973  0.35742761  0.10101878
   0.64965901  0.64715006  0.10095218
   0.32840525  0.32586469  0.10127210
   0.68112370  0.00242073  0.10151088
   0.00463362  0.67867805  0.10133635
   0.08286770  0.41705667  0.33659400
   0.24956373  0.25038368  0.33674142
   0.08292876  0.91710859  0.33666076
   0.24962459  0.75040242  0.33661352
   0.58291250  0.41705860  0.33660201
   0.74957652  0.25038501  0.33659477
   0.58288011  0.91707277  0.33669664
   0.74951843  0.75037060  0.33664790
Direct configuration=    23
   0.00460313  0.00233798  0.10527696
   0.35973598  0.00236639  0.10084569
   0.00460962  0.35731675  0.10103068
   0.64971686  0.64718702  0.10097629
   0.32849230  0.32592920  0.10127295
   0.68105126  0.00242611  0.10146315
   0.00463224  0.67861910  0.10132855
   0.08286767  0.41704758  0.33660633
   0.24953818  0.25038534  0.33673998
   0.08294267  0.91712728  0.33666611
   0.24961997  0.75044646  0.33661201
   0.58290524  0.41706446  0.33660990
   0.74957070  0.25043370  0.33659576
   0.58285140  0.91702584  0.33671055
   0.74949011  0.75038747  0.33664441
Direct configuration=    24
   0.00462121  0.00232074  0.10520887
   0.35968297  0.00236722  0.10088101
   0.00461803  0.35726130  0.10103319
   0.64978899  0.64723986  0.10098792
   0.32850102  0.32592250  0.10128403
   0.68107694  0.00240974  0.10143344
   0.00463978  0.67857996  0.10133240
   0.08290784  0.41709018  0.33661431
   0.24956514  0.25043527  0.33674330
   0.08291139  0.91711309  0.33666907
   0.24959550  0.75043718  0.33661297
   0.58285378  0.41706644  0.33661402
   0.74952397  0.25040413  0.33659929
   0.58284374  0.91705811  0.33672096
   0.74949705  0.75039497  0.33664458
Direct configuration=    25
   0.00463232  0.00231014  0.10516701
   0.35965038  0.00236773  0.10090272
   0.00462320  0.35722722  0.10103472
   0.64983331  0.64727233  0.10099506
   0.32850637  0.32591838  0.10129083
   0.68109272  0.00239968  0.10141517
   0.00464442  0.67855590  0.10133476
   0.08293253  0.41711636  0.33661921
   0.24958171  0.25046595  0.33674533
   0.08289216  0.91710437  0.33667090
   0.24958045  0.75043147  0.33661356
   0.58282215  0.41706765  0.33661655
   0.74949526  0.25038596  0.33660146
   0.58283903  0.91707794  0.33672736
   0.74950132  0.75039958  0.33664468
Direct configuration=    26
   0.00465237  0.00229302  0.10507977
   0.35962572  0.00235964  0.10092767
   0.00464174  0.35722297  0.10103152
   0.64987544  0.64728591  0.10099956
   0.32848932  0.32588164  0.10131291
   0.68115065  0.00236665  0.10139552
   0.00466320  0.67853357  0.10134958
   0.08287368  0.41711528  0.33662432
   0.24954616  0.25045346  0.33675427
   0.08288070  0.91713346  0.33667222
   0.24957252  0.75044185  0.33661918
   0.58283640  0.41708893  0.33661830
   0.74950686  0.25041059  0.33660965
   0.58283072  0.91710373  0.33673504
   0.74948185  0.75040996  0.33664984
Direct configuration=    27
   0.00467783  0.00227129  0.10496897
   0.35959439  0.00234936  0.10095936
   0.00466529  0.35721757  0.10102744
   0.64992895  0.64730315  0.10100528
   0.32846766  0.32583498  0.10134095
   0.68122424  0.00232471  0.10137055
   0.00468706  0.67850522  0.10136840
   0.08279892  0.41711391  0.33663082
   0.24950102  0.25043759  0.33676562
   0.08286615  0.91717041  0.33667389
   0.24956245  0.75045502  0.33662631
   0.58285450  0.41711596  0.33662051
   0.74952161  0.25044188  0.33662006
   0.58282015  0.91713648  0.33674479
   0.74945712  0.75042315  0.33665639
Direct configuration=    28
   0.00469103  0.00226221  0.10490314
   0.35962601  0.00233628  0.10097184
   0.00468145  0.35722331  0.10102580
   0.64992524  0.64727257  0.10100740
   0.32847877  0.32582742  0.10135715
   0.68122991  0.00230281  0.10136151
   0.00470311  0.67849753  0.10138037
   0.08279229  0.41711875  0.33663400
   0.24948759  0.25045182  0.33677239
   0.08285988  0.91717792  0.33667548
   0.24955226  0.75047442  0.33663146
   0.58284395  0.41712230  0.33662222
   0.74950809  0.25046064  0.33662638
   0.58280656  0.91713425  0.33674900
   0.74944120  0.75043844  0.33666121
Direct configuration=    29
   0.00473062  0.00223498  0.10470564
   0.35972089  0.00229706  0.10100931
   0.00472993  0.35724052  0.10102089
   0.64991411  0.64718081  0.10101378
   0.32851210  0.32580474  0.10140576
   0.68124693  0.00223714  0.10133437
   0.00475126  0.67847445  0.10141629
   0.08277240  0.41713328  0.33664354
   0.24944729  0.25049452  0.33679272
   0.08284108  0.91720046  0.33668023
   0.24952166  0.75053260  0.33664690
   0.58281229  0.41714129  0.33662732
   0.74946753  0.25051693  0.33664534
   0.58276579  0.91712758  0.33676161
   0.74939344  0.75048431  0.33667565
Direct configuration=    30
   0.00480979  0.00218052  0.10431064
   0.35991064  0.00221860  0.10108423
   0.00482688  0.35727495  0.10101105
   0.64989186  0.64699731  0.10102652
   0.32857876  0.32575938  0.10150299
   0.68128097  0.00210580  0.10128008
   0.00484756  0.67842829  0.10148813
   0.08273261  0.41716234  0.33666262
   0.24936671  0.25057991  0.33683337
   0.08280349  0.91724554  0.33668974
   0.24946048  0.75064897  0.33667777
   0.58274899  0.41717929  0.33663753
   0.74938642  0.25062949  0.33668327
   0.58268424  0.91711422  0.33678684
   0.74929793  0.75057605  0.33670454
Direct configuration=    31
   0.00478428  0.00219807  0.10443789
   0.35984951  0.00224388  0.10106010
   0.00479565  0.35726386  0.10101422
   0.64989903  0.64705643  0.10102242
   0.32855728  0.32577399  0.10147167
   0.68127001  0.00214811  0.10129757
   0.00481653  0.67844316  0.10146498
   0.08274543  0.41715298  0.33665647
   0.24939267  0.25055240  0.33682028
   0.08281560  0.91723102  0.33668668
   0.24948019  0.75061148  0.33666783
   0.58276938  0.41716705  0.33663424
   0.74941255  0.25059323  0.33667105
   0.58271051  0.91711852  0.33677871
   0.74932870  0.75054649  0.33669523
Direct configuration=    32
   0.00479883  0.00218776  0.10436209
   0.35989174  0.00222558  0.10107258
   0.00481330  0.35726221  0.10101687
   0.64989287  0.64701763  0.10102756
   0.32857909  0.32576778  0.10148558
   0.68126927  0.00212991  0.10128901
   0.00483439  0.67843635  0.10147525
   0.08274069  0.41718223  0.33666137
   0.24939063  0.25056411  0.33682614
   0.08279276  0.91724595  0.33669074
   0.24946364  0.75060905  0.33667312
   0.58274301  0.41718726  0.33663849
   0.74939414  0.25058661  0.33667686
   0.58269696  0.91714791  0.33678373
   0.74932601  0.75055034  0.33669995
Direct configuration=    33
   0.00484246  0.00215684  0.10413467
   0.36001844  0.00217068  0.10111005
   0.00486626  0.35725727  0.10102481
   0.64987438  0.64690124  0.10104298
   0.32864453  0.32574912  0.10152732
   0.68126705  0.00207531  0.10126331
   0.00488797  0.67841593  0.10150605
   0.08272647  0.41726996  0.33667606
   0.24938451  0.25059926  0.33684374
   0.08272425  0.91729073  0.33670292
   0.24941398  0.75060176  0.33668899
   0.58266390  0.41724788  0.33665125
   0.74933890  0.25056677  0.33669429
   0.58265630  0.91723606  0.33679877
   0.74931793  0.75056186  0.33671411
Direct configuration=    34
   0.00484833  0.00215269  0.10410409
   0.36003547  0.00216330  0.10111509
   0.00487339  0.35725660  0.10102588
   0.64987189  0.64688560  0.10104505
   0.32865333  0.32574661  0.10153293
   0.68126675  0.00206797  0.10125985
   0.00489517  0.67841318  0.10151019
   0.08272456  0.41728176  0.33667804
   0.24938368  0.25060398  0.33684611
   0.08271504  0.91729675  0.33670456
   0.24940731  0.75060078  0.33669113
   0.58265326  0.41725603  0.33665296
   0.74933147  0.25056410  0.33669664
   0.58265083  0.91724791  0.33680080
   0.74931685  0.75056341  0.33671601
Direct configuration=    35
   0.00485839  0.00214255  0.10405019
   0.36004542  0.00214781  0.10112188
   0.00488254  0.35723872  0.10103797
   0.64988482  0.64687534  0.10105544
   0.32867006  0.32573078  0.10153166
   0.68128058  0.00206798  0.10125669
   0.00490553  0.67840472  0.10150886
   0.08270371  0.41728786  0.33668389
   0.24936952  0.25061157  0.33684663
   0.08270254  0.91730617  0.33671160
   0.24939432  0.75060711  0.33669364
   0.58264907  0.41726486  0.33666031
   0.74932618  0.25057479  0.33669792
   0.58264599  0.91726630  0.33680481
   0.74930866  0.75057410  0.33671784
Direct configuration=    36
   0.00488859  0.00211214  0.10388848
   0.36007528  0.00210134  0.10114224
   0.00491000  0.35718509  0.10107425
   0.64992360  0.64684456  0.10108662
   0.32872025  0.32568330  0.10152783
   0.68132204  0.00206804  0.10124721
   0.00493662  0.67837933  0.10150488
   0.08264116  0.41730615  0.33670145
   0.24932703  0.25063435  0.33684817
   0.08266505  0.91733444  0.33673273
   0.24935537  0.75062610  0.33670118
   0.58263651  0.41729134  0.33668235
   0.74931030  0.25060685  0.33670178
   0.58263146  0.91732147  0.33681686
   0.74928409  0.75060618  0.33672331
Direct configuration=    37
   0.00494897  0.00205132  0.10356505
   0.36013501  0.00200840  0.10118296
   0.00496491  0.35707782  0.10114681
   0.65000116  0.64678300  0.10114899
   0.32882062  0.32558833  0.10152018
   0.68140497  0.00206814  0.10122824
   0.00499879  0.67832856  0.10149690
   0.08251607  0.41734272  0.33673656
   0.24924205  0.25067991  0.33685127
   0.08259005  0.91739096  0.33677499
   0.24927746  0.75066409  0.33671625
   0.58261137  0.41734430  0.33672644
   0.74927855  0.25067097  0.33670949
   0.58260240  0.91743180  0.33684097
   0.74923496  0.75067033  0.33673425
Direct configuration=    38
   0.00506974  0.00192968  0.10291819
   0.36025446  0.00182253  0.10126439
   0.00507474  0.35686329  0.10129192
   0.65015628  0.64665989  0.10127371
   0.32902138  0.32539839  0.10150488
   0.68157082  0.00206834  0.10119031
   0.00512313  0.67822702  0.10148095
   0.08226588  0.41741587  0.33680679
   0.24907208  0.25077102  0.33685745
   0.08244007  0.91750401  0.33685950
   0.24912164  0.75074007  0.33674640
   0.58256111  0.41745023  0.33681461
   0.74921504  0.25079922  0.33672492
   0.58254427  0.91765247  0.33688918
   0.74913669  0.75079863  0.33675613
Direct configuration=    39
   0.00501102  0.00198882  0.10323271
   0.36019638  0.00191291  0.10122480
   0.00502134  0.35696760  0.10122136
   0.65008086  0.64671975  0.10121307
   0.32892377  0.32549075  0.10151232
   0.68149018  0.00206824  0.10120875
   0.00506267  0.67827639  0.10148871
   0.08238753  0.41738031  0.33677264
   0.24915472  0.25072672  0.33685444
   0.08251300  0.91744904  0.33681840
   0.24919740  0.75070312  0.33673174
   0.58258555  0.41739873  0.33677174
   0.74924592  0.25073687  0.33671742
   0.58257253  0.91754517  0.33686574
   0.74918447  0.75073625  0.33674549
Direct configuration=    40
   0.00502184  0.00197682  0.10317846
   0.36020261  0.00189929  0.10123077
   0.00503141  0.35695530  0.10123435
   0.65009601  0.64671180  0.10122393
   0.32893977  0.32547590  0.10150942
   0.68150678  0.00206460  0.10120750
   0.00507312  0.67826052  0.10148635
   0.08238777  0.41739110  0.33677716
   0.24914664  0.25074070  0.33685653
   0.08250667  0.91745833  0.33682419
   0.24919061  0.75072004  0.33673552
   0.58256993  0.41740754  0.33677773
   0.74922967  0.25074941  0.33671998
   0.58255557  0.91754217  0.33686865
   0.74916893  0.75074716  0.33674880
Direct configuration=    41
   0.00505431  0.00194082  0.10301571
   0.36022130  0.00185845  0.10124869
   0.00506162  0.35691838  0.10127329
   0.65014146  0.64668795  0.10125651
   0.32898780  0.32543134  0.10150071
   0.68155658  0.00205366  0.10120373
   0.00510448  0.67821291  0.10147929
   0.08238851  0.41742349  0.33679070
   0.24912241  0.25078264  0.33686280
   0.08248770  0.91748618  0.33684157
   0.24917024  0.75077078  0.33674684
   0.58252306  0.41743396  0.33679570
   0.74918089  0.25078703  0.33672767
   0.58250468  0.91753317  0.33687739
   0.74912229  0.75077990  0.33675873
Direct configuration=    42
   0.00511925  0.00186881  0.10269021
   0.36025869  0.00177676  0.10128453
   0.00512204  0.35684455  0.10135118
   0.65023236  0.64664025  0.10132167
   0.32908385  0.32534224  0.10148330
   0.68165618  0.00203180  0.10119619
   0.00516719  0.67811769  0.10146517
   0.08238998  0.41748826  0.33681778
   0.24907394  0.25086653  0.33687532
   0.08244975  0.91754188  0.33687631
   0.24912949  0.75087227  0.33676950
   0.58242933  0.41748682  0.33683164
   0.74908335  0.25086229  0.33674306
   0.58240290  0.91751516  0.33689487
   0.74902903  0.75084536  0.33677860
Direct configuration=    43
   0.00524912  0.00172479  0.10203922
   0.36033347  0.00161337  0.10135621
   0.00524288  0.35669689  0.10150697
   0.65041417  0.64654486  0.10145199
   0.32927594  0.32516403  0.10144849
   0.68185538  0.00198806  0.10118111
   0.00529262  0.67792724  0.10143692
   0.08239293  0.41761781  0.33687195
   0.24897701  0.25103430  0.33690037
   0.08237385  0.91765329  0.33694579
   0.24904799  0.75107525  0.33681480
   0.58224188  0.41759254  0.33690351
   0.74888826  0.25101280  0.33677384
   0.58219934  0.91747914  0.33692984
   0.74884250  0.75097630  0.33681833
Direct configuration=    44
   0.00516672  0.00181616  0.10245223
   0.36028603  0.00171703  0.10131073
   0.00516621  0.35679057  0.10140813
   0.65029883  0.64660538  0.10136931
   0.32915407  0.32527709  0.10147058
   0.68172900  0.00201581  0.10119068
   0.00521305  0.67804806  0.10145484
   0.08239106  0.41753562  0.33683759
   0.24903850  0.25092786  0.33688448
   0.08242200  0.91758261  0.33690171
   0.24909969  0.75094647  0.33678606
   0.58236080  0.41752547  0.33685791
   0.74901203  0.25091731  0.33675431
   0.58232849  0.91750199  0.33690766
   0.74896084  0.75089323  0.33679312
Direct configuration=    45
   0.00519491  0.00178581  0.10233312
   0.36030750  0.00169724  0.10131985
   0.00519650  0.35678391  0.10143377
   0.65032862  0.64658252  0.10139027
   0.32918331  0.32525862  0.10146268
   0.68175813  0.00198000  0.10119824
   0.00523881  0.67799968  0.10145000
   0.08238082  0.41757813  0.33683998
   0.24902393  0.25093994  0.33689864
   0.08239278  0.91761499  0.33690602
   0.24907652  0.75096075  0.33680029
   0.58232120  0.41756291  0.33686195
   0.74898284  0.25092290  0.33676718
   0.58229659  0.91752848  0.33690950
   0.74894487  0.75090479  0.33680785
Direct configuration=    46
   0.00527947  0.00169477  0.10197578
   0.36037192  0.00163789  0.10134722
   0.00528736  0.35676394  0.10151066
   0.65041799  0.64651394  0.10145316
   0.32927103  0.32520320  0.10143897
   0.68184550  0.00187258  0.10122093
   0.00531611  0.67785452  0.10143547
   0.08235012  0.41770565  0.33684717
   0.24898022  0.25097618  0.33694112
   0.08230509  0.91771211  0.33691897
   0.24900702  0.75100356  0.33684296
   0.58220239  0.41767522  0.33687405
   0.74889526  0.25093967  0.33680580
   0.58220089  0.91760796  0.33691501
   0.74889697  0.75093947  0.33685205
Direct configuration=    47
   0.00531865  0.00166282  0.10184375
   0.36042601  0.00162489  0.10135258
   0.00533277  0.35674837  0.10153111
   0.65044149  0.64647160  0.10146983
   0.32928825  0.32519554  0.10143111
   0.68185668  0.00179967  0.10124511
   0.00535131  0.67782559  0.10143324
   0.08227595  0.41770009  0.33684493
   0.24892876  0.25100584  0.33696471
   0.08227012  0.91772313  0.33691682
   0.24896081  0.75102813  0.33686092
   0.58220862  0.41768323  0.33687064
   0.74888819  0.25098592  0.33682465
   0.58220339  0.91766107  0.33691721
   0.74887635  0.75098478  0.33687272
Direct configuration=    48
   0.00537998  0.00161280  0.10163705
   0.36051068  0.00160454  0.10136098
   0.00540387  0.35672399  0.10156312
   0.65047827  0.64640532  0.10149593
   0.32931519  0.32518356  0.10141880
   0.68187418  0.00168553  0.10128295
   0.00540641  0.67778031  0.10142973
   0.08215984  0.41769140  0.33684143
   0.24884821  0.25105226  0.33700162
   0.08221536  0.91774039  0.33691346
   0.24888848  0.75106659  0.33688904
   0.58221838  0.41769577  0.33686530
   0.74887711  0.25105831  0.33685417
   0.58220730  0.91774421  0.33692065
   0.74884406  0.75105569  0.33690508
Direct configuration=    49
   0.00541960  0.00158962  0.10152757
   0.36057541  0.00159468  0.10136379
   0.00544623  0.35668500  0.10157067
   0.65049454  0.64636011  0.10150318
   0.32931548  0.32517211  0.10141301
   0.68187807  0.00161298  0.10131706
   0.00544393  0.67778902  0.10143050
   0.08215218  0.41772441  0.33684503
   0.24883423  0.25108580  0.33701816
   0.08220031  0.91777250  0.33691471
   0.24888206  0.75109416  0.33689672
   0.58218164  0.41772074  0.33686497
   0.74884143  0.25107887  0.33686512
   0.58216273  0.91775122  0.33693235
   0.74879948  0.75106945  0.33691651
