Lattice                                 
           1
     4.368232    2.522000    0.000000
    -4.368232    2.522000    0.000000
     0.000000    0.000000   15.000000
   B    C 
     2    14
Direct configuration=     1
   0.33833034  0.66916432  0.10000000
   0.67165522  0.33584146  0.10000000
   0.16373946  0.31999962  0.10000000
   0.32250218  0.16126397  0.10000000
   0.16376430  0.84376384  0.10000000
   0.84623863  0.16123684  0.10000000
   0.68749850  0.84373000  0.10000000
   0.84626736  0.68499594  0.10000000
   0.33333267  0.16666633  0.32553333
   0.49999967  0.99999933  0.32553333
   0.33333267  0.66666633  0.32553333
   0.49999967  0.49999933  0.32553333
   0.83333267  0.16666633  0.32553333
   0.99999967  0.99999933  0.32553333
   0.83333267  0.66666633  0.32553333
   0.99999967  0.49999933  0.32553333
Direct configuration=     2
   0.33834429  0.66917091  0.10017263
   0.67169302  0.33582110  0.09997921
   0.16696602  0.32645743  0.09994285
   0.32868685  0.16435251  0.10001536
   0.16699640  0.84052666  0.09994285
   0.84311901  0.16433921  0.10001491
   0.68103910  0.84051974  0.09994254
   0.84314380  0.67880462  0.10001489
   0.33337688  0.16668736  0.32554330
   0.50012662  0.00027092  0.32558637
   0.33332898  0.66666346  0.32532600
   0.50012662  0.49985686  0.32558636
   0.83331981  0.16669144  0.32553979
   0.00000492  0.00000303  0.32553205
   0.83331985  0.66662627  0.32553981
   0.99973316  0.49986715  0.32558775
Direct configuration=     3
   0.33833412  0.66916611  0.10004679
   0.67166546  0.33583594  0.09999436
   0.16461394  0.32174984  0.09998451
   0.32417837  0.16210103  0.10000416
   0.16464028  0.84288649  0.09998451
   0.84539314  0.16207766  0.10000404
   0.68574785  0.84285995  0.09998443
   0.84542080  0.68331795  0.10000404
   0.33334465  0.16667203  0.32553603
   0.50003407  0.00007294  0.32554771
   0.33333167  0.66666555  0.32547714
   0.50003407  0.49996072  0.32554771
   0.83332918  0.16667314  0.32553508
   0.00000109  0.00000034  0.32553298
   0.83332919  0.66665548  0.32553509
   0.99992744  0.49996351  0.32554808
Direct configuration=     4
   0.33833412  0.66916611  0.10004676
   0.67166546  0.33583594  0.09999437
   0.16461351  0.32174898  0.09998452
   0.32417755  0.16210062  0.10000416
   0.16463985  0.84288692  0.09998452
   0.84539356  0.16207724  0.10000404
   0.68574871  0.84286037  0.09998444
   0.84542121  0.68331877  0.10000403
   0.33334464  0.16667203  0.32553603
   0.50003406  0.00007290  0.32554770
   0.33333167  0.66666555  0.32547717
   0.50003406  0.49996074  0.32554770
   0.83332918  0.16667313  0.32553508
   0.00000109  0.00000034  0.32553298
   0.83332919  0.66665548  0.32553509
   0.99992747  0.49996353  0.32554807
Direct configuration=     5
   0.33833845  0.66916641  0.10015723
   0.67166865  0.33583242  0.09997834
   0.16461107  0.32175081  0.09995712
   0.32416747  0.16208979  0.10000597
   0.16462927  0.84287816  0.09995712
   0.84540895  0.16207520  0.10000563
   0.68573922  0.84286560  0.09995671
   0.84542521  0.68333367  0.10000563
   0.33335734  0.16667853  0.32554911
   0.50004503  0.00009410  0.32557473
   0.33333090  0.66666530  0.32534754
   0.50004503  0.49995027  0.32557473
   0.83332344  0.16668031  0.32554587
   0.00000323  0.00000129  0.32552914
   0.83332343  0.66664283  0.32554587
   0.99990865  0.49995400  0.32557593
Direct configuration=     6
   0.33833971  0.66916650  0.10018950
   0.67166958  0.33583139  0.09997366
   0.16461035  0.32175134  0.09994911
   0.32416453  0.16208662  0.10000650
   0.16462618  0.84287560  0.09994912
   0.84541344  0.16207460  0.10000609
   0.68573645  0.84286713  0.09994861
   0.84542638  0.68333802  0.10000609
   0.33336105  0.16668043  0.32555293
   0.50004823  0.00010030  0.32558263
   0.33333068  0.66666522  0.32530968
   0.50004824  0.49994721  0.32558263
   0.83332177  0.16668240  0.32554902
   0.00000385  0.00000157  0.32552802
   0.83332175  0.66663913  0.32554902
   0.99990315  0.49995121  0.32558407
Direct configuration=     7
   0.33831647  0.66916340  0.10025038
   0.67167230  0.33583867  0.09997817
   0.16463949  0.32173222  0.09996293
   0.32416963  0.16209356  0.09997979
   0.16463594  0.84289438  0.09996294
   0.84538267  0.16208233  0.09997903
   0.68577936  0.84287509  0.09996204
   0.84538319  0.68330765  0.09997904
   0.33333721  0.16666805  0.32557844
   0.50002519  0.00005317  0.32556359
   0.33333584  0.66666737  0.32526870
   0.50002516  0.49997223  0.32556360
   0.83333731  0.16666847  0.32557360
   0.00000072  0.00000047  0.32552595
   0.83333734  0.66666777  0.32557358
   0.99994751  0.49997384  0.32556489
Direct configuration=     8
   0.33832156  0.66916408  0.10023706
   0.67167171  0.33583708  0.09997718
   0.16463311  0.32173640  0.09995991
   0.32416851  0.16209204  0.09998564
   0.16463381  0.84289027  0.09995991
   0.84538940  0.16208064  0.09998495
   0.68576997  0.84287335  0.09995910
   0.84539264  0.68331429  0.09998496
   0.33334243  0.16667076  0.32557285
   0.50003023  0.00006348  0.32556776
   0.33333471  0.66666690  0.32527767
   0.50003021  0.49996675  0.32556776
   0.83333391  0.16667152  0.32556822
   0.00000140  0.00000071  0.32552640
   0.83333393  0.66666151  0.32556821
   0.99993780  0.49996889  0.32556909
Direct configuration=     9
   0.33834939  0.66916931  0.10029087
   0.67164591  0.33582930  0.09997970
   0.16457463  0.32174204  0.09997747
   0.32419861  0.16208054  0.09996190
   0.16457873  0.84285794  0.09997751
   0.84545467  0.16209608  0.09996073
   0.68570917  0.84287250  0.09997620
   0.84545907  0.68333490  0.09996073
   0.33335256  0.16667639  0.32559014
   0.50004511  0.00008869  0.32554292
   0.33333237  0.66666637  0.32525509
   0.50004517  0.49995541  0.32554291
   0.83332748  0.16667787  0.32558499
   0.00000617  0.00000258  0.32553674
   0.83332750  0.66664985  0.32558499
   0.99991879  0.49995892  0.32554377
Direct configuration=    10
   0.33833133  0.66916591  0.10025596
   0.67166265  0.33583434  0.09997807
   0.16461257  0.32173838  0.09996607
   0.32417908  0.16208800  0.09997730
   0.16461446  0.84287891  0.09996610
   0.84541232  0.16208606  0.09997644
   0.68574862  0.84287305  0.09996510
   0.84541597  0.68332153  0.09997645
   0.33334599  0.16667273  0.32557893
   0.50003546  0.00007234  0.32555903
   0.33333389  0.66666671  0.32526974
   0.50003546  0.49996277  0.32555903
   0.83333165  0.16667375  0.32557411
   0.00000308  0.00000136  0.32553003
   0.83333167  0.66665741  0.32557411
   0.99993112  0.49996539  0.32556020
Direct configuration=    11
   0.33833198  0.66916603  0.10025720
   0.67166205  0.33583416  0.09997813
   0.16461123  0.32173851  0.09996648
   0.32417978  0.16208773  0.09997675
   0.16461319  0.84287817  0.09996650
   0.84541383  0.16208642  0.09997589
   0.68574722  0.84287303  0.09996550
   0.84541750  0.68332201  0.09997589
   0.33334622  0.16667286  0.32557932
   0.50003580  0.00007292  0.32555846
   0.33333384  0.66666670  0.32526922
   0.50003581  0.49996251  0.32555846
   0.83333150  0.16667390  0.32557450
   0.00000319  0.00000141  0.32553027
   0.83333152  0.66665715  0.32557449
   0.99993069  0.49996516  0.32555961
Direct configuration=    12
   0.33833076  0.66916510  0.10027988
   0.67167313  0.33583074  0.09997484
   0.16462918  0.32175386  0.09997356
   0.32415192  0.16207899  0.09997260
   0.16463107  0.84287210  0.09997357
   0.84540660  0.16207363  0.09997136
   0.68574032  0.84286996  0.09997223
   0.84540587  0.68333757  0.09997136
   0.33336328  0.16668165  0.32557763
   0.50005243  0.00010503  0.32554749
   0.33333259  0.66666627  0.32526575
   0.50005243  0.49994665  0.32554748
   0.83332357  0.16668369  0.32557286
   0.00000641  0.00000283  0.32554498
   0.83332355  0.66663985  0.32557286
   0.99990224  0.49995074  0.32554822
Direct configuration=    13
   0.33833133  0.66916554  0.10026924
   0.67166793  0.33583235  0.09997638
   0.16462075  0.32174666  0.09997024
   0.32416499  0.16208309  0.09997455
   0.16462268  0.84287495  0.09997025
   0.84540999  0.16207963  0.09997348
   0.68574355  0.84287140  0.09996907
   0.84541133  0.68333027  0.09997349
   0.33335528  0.16667752  0.32557843
   0.50004463  0.00008996  0.32555263
   0.33333317  0.66666647  0.32526737
   0.50004463  0.49995409  0.32555263
   0.83332729  0.16667909  0.32557363
   0.00000490  0.00000216  0.32553808
   0.83332729  0.66664797  0.32557363
   0.99991559  0.49995751  0.32555357
Direct configuration=    14
   0.33832954  0.66916415  0.10027962
   0.67166759  0.33583280  0.09997226
   0.16462014  0.32174223  0.09997252
   0.32416720  0.16208419  0.09997776
   0.16461980  0.84287651  0.09997252
   0.84540654  0.16208196  0.09997639
   0.68574873  0.84287350  0.09997114
   0.84540595  0.68332485  0.09997644
   0.33335437  0.16667689  0.32557208
   0.50004118  0.00008302  0.32554832
   0.33333528  0.66666733  0.32526696
   0.50004117  0.49995804  0.32554832
   0.83333053  0.16667825  0.32556742
   0.00000450  0.00000219  0.32554852
   0.83333051  0.66665165  0.32556742
   0.99992231  0.49996110  0.32554898
Direct configuration=    15
   0.33832881  0.66916359  0.10028383
   0.67166745  0.33583298  0.09997059
   0.16461989  0.32174043  0.09997345
   0.32416810  0.16208464  0.09997907
   0.16461863  0.84287715  0.09997343
   0.84540513  0.16208291  0.09997757
   0.68575083  0.84287436  0.09997197
   0.84540377  0.68332266  0.09997763
   0.33335400  0.16667663  0.32556951
   0.50003978  0.00008020  0.32554656
   0.33333613  0.66666768  0.32526680
   0.50003977  0.49995964  0.32554657
   0.83333184  0.16667791  0.32556490
   0.00000433  0.00000220  0.32555276
   0.83333182  0.66665314  0.32556490
   0.99992504  0.49996255  0.32554712
Direct configuration=    16
   0.33833135  0.66916509  0.10029068
   0.67166014  0.33583130  0.09996898
   0.16461198  0.32174223  0.09997804
   0.32417031  0.16208155  0.09998351
   0.16461197  0.84287153  0.09997801
   0.84541468  0.16208340  0.09998163
   0.68573824  0.84287170  0.09997622
   0.84541475  0.68332713  0.09998169
   0.33335273  0.16667650  0.32556436
   0.50004543  0.00008589  0.32554152
   0.33333477  0.66666754  0.32526481
   0.50004542  0.49995865  0.32554152
   0.83333050  0.16667777  0.32555982
   0.00000814  0.00000361  0.32555408
   0.83333051  0.66665301  0.32555982
   0.99992442  0.49996176  0.32554197
Direct configuration=    17
   0.33833065  0.66916468  0.10028880
   0.67166214  0.33583176  0.09996942
   0.16461415  0.32174173  0.09997678
   0.32416970  0.16208240  0.09998229
   0.16461380  0.84287307  0.09997676
   0.84541206  0.16208327  0.09998051
   0.68574169  0.84287243  0.09997506
   0.84541174  0.68332591  0.09998058
   0.33335308  0.16667653  0.32556578
   0.50004388  0.00008433  0.32554290
   0.33333515  0.66666758  0.32526536
   0.50004387  0.49995892  0.32554291
   0.83333087  0.16667780  0.32556121
   0.00000710  0.00000323  0.32555372
   0.83333087  0.66665304  0.32556121
   0.99992459  0.49996198  0.32554338
Direct configuration=    18
   0.33832912  0.66916462  0.10029190
   0.67166143  0.33583123  0.09996953
   0.16461611  0.32174316  0.09998011
   0.32416617  0.16208085  0.09998510
   0.16461564  0.84287229  0.09998009
   0.84541067  0.16208137  0.09998307
   0.68573995  0.84287112  0.09997816
   0.84541043  0.68332728  0.09998312
   0.33335421  0.16667719  0.32556318
   0.50004632  0.00008748  0.32553980
   0.33333549  0.66666786  0.32526350
   0.50004631  0.49995807  0.32553980
   0.83333091  0.16667850  0.32555863
   0.00000843  0.00000382  0.32555180
   0.83333091  0.66665259  0.32555863
   0.99992324  0.49996123  0.32554026
Direct configuration=    19
   0.33832454  0.66916443  0.10030121
   0.67165929  0.33582963  0.09996985
   0.16462196  0.32174742  0.09999010
   0.32415556  0.16207619  0.09999352
   0.16462115  0.84286995  0.09999009
   0.84540649  0.16207567  0.09999073
   0.68573473  0.84286720  0.09998746
   0.84540649  0.68333142  0.09999076
   0.33335760  0.16667917  0.32555541
   0.50005365  0.00009694  0.32553047
   0.33333652  0.66666868  0.32525792
   0.50005362  0.49995553  0.32553047
   0.83333102  0.16668061  0.32555087
   0.00001245  0.00000561  0.32554603
   0.83333105  0.66665121  0.32555087
   0.99991920  0.49995900  0.32553089
Direct configuration=    20
   0.33831537  0.66916406  0.10031984
   0.67165502  0.33582642  0.09997050
   0.16463368  0.32175596  0.10001008
   0.32413436  0.16206689  0.10001035
   0.16463218  0.84286526  0.10001010
   0.84539815  0.16206427  0.10000605
   0.68572429  0.84285935  0.10000606
   0.84539860  0.68333970  0.10000604
   0.33336437  0.16668312  0.32553986
   0.50006830  0.00011586  0.32551182
   0.33333859  0.66667033  0.32524677
   0.50006824  0.49995045  0.32551183
   0.83333125  0.16668481  0.32553535
   0.00002048  0.00000920  0.32553450
   0.83333132  0.66664847  0.32553537
   0.99991113  0.49995454  0.32551215
Direct configuration=    21
   0.33832284  0.66916436  0.10030467
   0.67165850  0.33582903  0.09996997
   0.16462414  0.32174901  0.09999381
   0.32415163  0.16207447  0.09999664
   0.16462320  0.84286908  0.09999380
   0.84540494  0.16207355  0.09999357
   0.68573279  0.84286574  0.09999091
   0.84540502  0.68333296  0.09999360
   0.33335885  0.16667990  0.32555252
   0.50005637  0.00010045  0.32552701
   0.33333691  0.66666899  0.32525586
   0.50005633  0.49995459  0.32552701
   0.83333106  0.16668138  0.32554799
   0.00001394  0.00000628  0.32554389
   0.83333110  0.66665071  0.32554800
   0.99991771  0.49995817  0.32552741
Direct configuration=    22
   0.33832243  0.66916399  0.10030625
   0.67165815  0.33582884  0.09997048
   0.16462342  0.32174841  0.09999570
   0.32415151  0.16207439  0.09999823
   0.16462238  0.84286900  0.09999570
   0.84540435  0.16207354  0.09999502
   0.68573275  0.84286572  0.09999267
   0.84540435  0.68333237  0.09999504
   0.33335970  0.16668027  0.32555110
   0.50005637  0.00010027  0.32552537
   0.33333767  0.66666932  0.32525449
   0.50005634  0.49995492  0.32552538
   0.83333180  0.16668176  0.32554656
   0.00001409  0.00000642  0.32554232
   0.83333183  0.66665095  0.32554657
   0.99991819  0.49995849  0.32552578
Direct configuration=    23
   0.33832119  0.66916288  0.10031099
   0.67165711  0.33582827  0.09997199
   0.16462125  0.32174662  0.10000139
   0.32415117  0.16207415  0.10000300
   0.16461991  0.84286877  0.10000139
   0.84540257  0.16207351  0.09999937
   0.68573262  0.84286566  0.09999796
   0.84540235  0.68333059  0.09999937
   0.33336225  0.16668139  0.32554682
   0.50005638  0.00009971  0.32552046
   0.33333997  0.66667030  0.32525041
   0.50005635  0.49995591  0.32552047
   0.83333400  0.16668289  0.32554227
   0.00001454  0.00000686  0.32553763
   0.83333402  0.66665170  0.32554228
   0.99991966  0.49995943  0.32552087
Direct configuration=    24
   0.33831872  0.66916065  0.10032048
   0.67165502  0.33582712  0.09997502
   0.16461692  0.32174304  0.10001276
   0.32415047  0.16207369  0.10001254
   0.16461498  0.84286832  0.10001277
   0.84539900  0.16207344  0.10000806
   0.68573237  0.84286555  0.10000853
   0.84539833  0.68332704  0.10000804
   0.33336734  0.16668363  0.32553827
   0.50005641  0.00009859  0.32551064
   0.33334455  0.66667228  0.32524224
   0.50005638  0.49995790  0.32551064
   0.83333841  0.16668515  0.32553369
   0.00001544  0.00000774  0.32552823
   0.83333841  0.66665319  0.32553370
   0.99992258  0.49996132  0.32551106
Direct configuration=    25
   0.33831377  0.66915620  0.10033945
   0.67165086  0.33582483  0.09998107
   0.16460827  0.32173588  0.10003549
   0.32414908  0.16207275  0.10003161
   0.16460511  0.84286741  0.10003553
   0.84539186  0.16207331  0.10002545
   0.68573185  0.84286532  0.10002968
   0.84539030  0.68331994  0.10002537
   0.33337753  0.16668812  0.32552116
   0.50005646  0.00009636  0.32549100
   0.33335373  0.66667622  0.32522589
   0.50005644  0.49996188  0.32549100
   0.83334722  0.16668968  0.32551652
   0.00001724  0.00000949  0.32550945
   0.83334718  0.66665618  0.32551655
   0.99992843  0.49996510  0.32549144
Direct configuration=    26
   0.33831454  0.66915689  0.10033651
   0.67165150  0.33582518  0.09998014
   0.16460961  0.32173699  0.10003197
   0.32414930  0.16207290  0.10002866
   0.16460664  0.84286755  0.10003201
   0.84539297  0.16207333  0.10002275
   0.68573193  0.84286536  0.10002640
   0.84539155  0.68332104  0.10002268
   0.33337595  0.16668742  0.32552381
   0.50005645  0.00009671  0.32549404
   0.33335231  0.66667561  0.32522842
   0.50005643  0.49996127  0.32549404
   0.83334586  0.16668898  0.32551918
   0.00001696  0.00000922  0.32551236
   0.83334582  0.66665572  0.32551920
   0.99992753  0.49996452  0.32549448
Direct configuration=    27
   0.33831403  0.66915643  0.10033845
   0.67165107  0.33582495  0.09998076
   0.16460872  0.32173626  0.10003430
   0.32414916  0.16207280  0.10003061
   0.16460563  0.84286745  0.10003434
   0.84539224  0.16207332  0.10002454
   0.68573188  0.84286533  0.10002857
   0.84539073  0.68332031  0.10002446
   0.33337699  0.16668788  0.32552206
   0.50005646  0.00009648  0.32549203
   0.33335325  0.66667602  0.32522675
   0.50005644  0.49996167  0.32549203
   0.83334676  0.16668944  0.32551742
   0.00001714  0.00000939  0.32551043
   0.83334672  0.66665602  0.32551745
   0.99992813  0.49996490  0.32549247
Direct configuration=    28
   0.33831385  0.66915627  0.10033915
   0.67165092  0.33582486  0.09998098
   0.16460840  0.32173599  0.10003514
   0.32414910  0.16207277  0.10003131
   0.16460527  0.84286742  0.10003518
   0.84539197  0.16207331  0.10002517
   0.68573186  0.84286532  0.10002935
   0.84539043  0.68332005  0.10002509
   0.33337737  0.16668805  0.32552143
   0.50005646  0.00009640  0.32549131
   0.33335358  0.66667616  0.32522615
   0.50005644  0.49996182  0.32549131
   0.83334709  0.16668961  0.32551679
   0.00001721  0.00000946  0.32550974
   0.83334704  0.66665613  0.32551682
   0.99992834  0.49996504  0.32549175
Direct configuration=    29
   0.33831380  0.66915622  0.10033935
   0.67165088  0.33582484  0.09998104
   0.16460831  0.32173592  0.10003538
   0.32414909  0.16207276  0.10003152
   0.16460516  0.84286741  0.10003542
   0.84539190  0.16207331  0.10002536
   0.68573185  0.84286532  0.10002957
   0.84539034  0.68331998  0.10002528
   0.33337748  0.16668809  0.32552124
   0.50005646  0.00009637  0.32549110
   0.33335368  0.66667620  0.32522598
   0.50005644  0.49996186  0.32549110
   0.83334718  0.16668965  0.32551661
   0.00001723  0.00000948  0.32550954
   0.83334713  0.66665617  0.32551663
   0.99992840  0.49996508  0.32549154
Direct configuration=    30
   0.33831378  0.66915621  0.10033941
   0.67165086  0.33582483  0.09998106
   0.16460828  0.32173589  0.10003546
   0.32414908  0.16207275  0.10003158
   0.16460513  0.84286741  0.10003550
   0.84539187  0.16207331  0.10002542
   0.68573185  0.84286532  0.10002964
   0.84539032  0.68331995  0.10002534
   0.33337751  0.16668811  0.32552119
   0.50005646  0.00009637  0.32549103
   0.33335371  0.66667622  0.32522592
   0.50005644  0.49996187  0.32549103
   0.83334721  0.16668967  0.32551655
   0.00001724  0.00000948  0.32550948
   0.83334716  0.66665618  0.32551658
   0.99992842  0.49996510  0.32549147
Direct configuration=    31
   0.33831378  0.66915620  0.10033944
   0.67165086  0.33582483  0.09998107
   0.16460827  0.32173589  0.10003548
   0.32414908  0.16207275  0.10003160
   0.16460512  0.84286741  0.10003552
   0.84539186  0.16207331  0.10002544
   0.68573185  0.84286532  0.10002967
   0.84539031  0.68331995  0.10002536
   0.33337752  0.16668811  0.32552117
   0.50005646  0.00009636  0.32549101
   0.33335372  0.66667622  0.32522590
   0.50005644  0.49996188  0.32549101
   0.83334722  0.16668967  0.32551653
   0.00001724  0.00000949  0.32550946
   0.83334717  0.66665618  0.32551656
   0.99992843  0.49996510  0.32549145
Direct configuration=    32
   0.33831377  0.66915620  0.10033944
   0.67165086  0.33582483  0.09998107
   0.16460827  0.32173588  0.10003549
   0.32414908  0.16207275  0.10003161
   0.16460511  0.84286741  0.10003553
   0.84539186  0.16207331  0.10002544
   0.68573185  0.84286532  0.10002968
   0.84539031  0.68331994  0.10002536
   0.33337753  0.16668811  0.32552116
   0.50005646  0.00009636  0.32549101
   0.33335373  0.66667622  0.32522590
   0.50005644  0.49996188  0.32549100
   0.83334722  0.16668968  0.32551653
   0.00001724  0.00000949  0.32550945
   0.83334718  0.66665618  0.32551655
   0.99992843  0.49996510  0.32549145
Direct configuration=    33
   0.33831377  0.66915620  0.10033944
   0.67165086  0.33582483  0.09998107
   0.16460827  0.32173588  0.10003549
   0.32414908  0.16207275  0.10003161
   0.16460511  0.84286741  0.10003553
   0.84539186  0.16207331  0.10002545
   0.68573185  0.84286532  0.10002968
   0.84539031  0.68331994  0.10002537
   0.33337753  0.16668812  0.32552116
   0.50005646  0.00009636  0.32549100
   0.33335373  0.66667622  0.32522589
   0.50005644  0.49996188  0.32549100
   0.83334722  0.16668968  0.32551652
   0.00001724  0.00000949  0.32550945
   0.83334718  0.66665618  0.32551655
   0.99992843  0.49996510  0.32549144
Direct configuration=    34
   0.33831377  0.66915620  0.10033944
   0.67165086  0.33582483  0.09998107
   0.16460827  0.32173588  0.10003549
   0.32414908  0.16207275  0.10003161
   0.16460511  0.84286741  0.10003553
   0.84539186  0.16207331  0.10002545
   0.68573185  0.84286532  0.10002968
   0.84539030  0.68331994  0.10002537
   0.33337753  0.16668812  0.32552116
   0.50005646  0.00009636  0.32549100
   0.33335373  0.66667622  0.32522589
   0.50005644  0.49996188  0.32549100
   0.83334722  0.16668968  0.32551652
   0.00001724  0.00000949  0.32550945
   0.83334718  0.66665618  0.32551655
   0.99992843  0.49996510  0.32549144
