   2   2   0  16
  0.3953030E+02  0.2467000E-09  0.2467000E-09  0.1500000E-08  0.5000000E-15
  1.000000000000000E-004
  CAR 
 Lattice                                 
     43.75863695    -24.87667954  301     -2.25279183      1.00000000
    -24.877  0.0000E+00  0.0000E+00
    -24.648  0.0000E+00  0.0000E+00
    -24.419  0.0000E+00  0.0000E+00
    -24.190  0.0000E+00  0.0000E+00
    -23.962  0.0000E+00  0.0000E+00
    -23.733  0.0000E+00  0.0000E+00
    -23.504  0.0000E+00  0.0000E+00
    -23.275  0.0000E+00  0.0000E+00
    -23.046  0.0000E+00  0.0000E+00
    -22.818  0.0000E+00  0.0000E+00
    -22.589  0.0000E+00  0.0000E+00
    -22.360  0.0000E+00  0.0000E+00
    -22.131  0.1415E-10  0.3238E-11
    -21.902  0.4692E-05  0.1073E-05
    -21.674  0.3842E-03  0.8897E-04
    -21.445  0.1253E-02  0.3757E-03
    -21.216  0.1175E-02  0.6446E-03
    -20.987  0.1615E-02  0.1014E-02
    -20.759  0.1344E-03  0.1045E-02
    -20.530  0.2464E-02  0.1609E-02
    -20.301  0.9614E-03  0.1829E-02
    -20.072  0.7803E-03  0.2007E-02
    -19.843  0.4699E-03  0.2115E-02
    -19.615  0.2929E-02  0.2785E-02
    -19.386  0.8720E-03  0.2984E-02
    -19.157  0.8421E-03  0.3177E-02
    -18.928  0.5808E-03  0.3310E-02
    -18.700  0.1483E-02  0.3649E-02
    -18.471  0.1728E-02  0.4044E-02
    -18.242  0.2429E-02  0.4600E-02
    -18.013  0.5065E-04  0.4612E-02
    -17.784  0.6665E-03  0.4764E-02
    -17.556  0.9405E-03  0.4979E-02
    -17.327  0.2662E-02  0.5588E-02
    -17.098  0.1433E-02  0.5916E-02
    -16.869  0.2081E-02  0.6392E-02
    -16.640  0.7854E-03  0.6572E-02
    -16.412  0.6357E-03  0.6717E-02
    -16.183  0.3122E-03  0.6789E-02
    -15.954  0.3755E-02  0.7648E-02
    -15.725  0.2454E-03  0.7704E-02
    -15.497  0.2613E-03  0.7764E-02
    -15.268  0.4532E-03  0.7868E-02
    -15.039  0.9910E-03  0.8094E-02
    -14.810  0.2504E-02  0.8667E-02
    -14.581  0.1717E-02  0.9060E-02
    -14.353  0.3553E-04  0.9068E-02
    -14.124  0.2365E-02  0.9609E-02
    -13.895  0.1674E-02  0.9992E-02
    -13.666  0.1289E-02  0.1029E-01
    -13.437  0.1747E-02  0.1069E-01
    -13.209  0.4653E-05  0.1069E-01
    -12.980  0.1906E-03  0.1073E-01
    -12.751  0.3757E-02  0.1159E-01
    -12.522  0.7952E-03  0.1177E-01
    -12.294  0.3130E-06  0.1177E-01
    -12.065  0.3178E-04  0.1178E-01
    -11.836  0.3508E-02  0.1258E-01
    -11.607  0.3478E-02  0.1338E-01
    -11.378  0.1021E-03  0.1340E-01
    -11.150  0.1022E-02  0.1364E-01
    -10.921  0.4180E-03  0.1373E-01
    -10.692  0.2253E-02  0.1425E-01
    -10.463  0.1362E-02  0.1456E-01
    -10.234  0.2819E-02  0.1520E-01
    -10.006  0.1406E-02  0.1553E-01
     -9.777  0.1556E-02  0.1588E-01
     -9.548  0.4887E-02  0.1700E-01
     -9.319  0.5626E-03  0.1713E-01
     -9.091  0.3838E-02  0.1801E-01
     -8.862  0.2168E-02  0.1850E-01
     -8.633  0.5711E-02  0.1981E-01
     -8.404  0.5332E-02  0.2103E-01
     -8.175  0.2249E-02  0.2154E-01
     -7.947  0.3564E-02  0.2236E-01
     -7.718  0.2696E-03  0.2242E-01
     -7.489  0.2750E-02  0.2305E-01
     -7.260  0.5702E-02  0.2435E-01
     -7.031  0.1729E-02  0.2475E-01
     -6.803  0.2312E-02  0.2528E-01
     -6.574  0.2692E-03  0.2534E-01
     -6.345  0.2638E-02  0.2594E-01
     -6.116  0.3291E-02  0.2670E-01
     -5.888  0.3566E-02  0.2751E-01
     -5.659  0.8681E-03  0.2771E-01
     -5.430  0.1895E-02  0.2814E-01
     -5.201  0.9478E-03  0.2836E-01
     -4.972  0.1359E-02  0.2867E-01
     -4.744  0.3954E-02  0.2958E-01
     -4.515  0.2501E-02  0.3015E-01
     -4.286  0.6906E-04  0.3016E-01
     -4.057  0.3831E-03  0.3025E-01
     -3.829  0.1036E-02  0.3049E-01
     -3.600  0.1518E-02  0.3084E-01
     -3.371  0.1330E-02  0.3114E-01
     -3.142  0.1298E-05  0.3114E-01
     -2.913  0.8086E-13  0.3114E-01
     -2.685  0.4827E-12  0.3114E-01
     -2.456  0.1940E-05  0.3114E-01
     -2.227  0.6072E-03  0.3128E-01
     -1.998  0.3392E-03  0.3136E-01
     -1.769  0.1510E-06  0.3136E-01
     -1.541  0.3879E-14  0.3136E-01
     -1.312  0.7578E-09  0.3136E-01
     -1.083  0.1072E-03  0.3138E-01
     -0.854  0.2857E-02  0.3204E-01
     -0.626  0.1462E-02  0.3237E-01
     -0.397  0.7887E-03  0.3255E-01
     -0.168  0.2521E-02  0.3313E-01
      0.061  0.9599E-04  0.3315E-01
      0.290  0.1833E-02  0.3357E-01
      0.518  0.2102E-02  0.3405E-01
      0.747  0.1744E-02  0.3445E-01
      0.976  0.8347E-04  0.3447E-01
      1.205  0.6649E-03  0.3462E-01
      1.434  0.1859E-02  0.3505E-01
      1.662  0.2496E-02  0.3562E-01
      1.891  0.1568E-02  0.3598E-01
      2.120  0.2161E-02  0.3647E-01
      2.349  0.3035E-02  0.3716E-01
      2.577  0.2794E-02  0.3780E-01
      2.806  0.5173E-02  0.3899E-01
      3.035  0.1842E-02  0.3941E-01
      3.264  0.1909E-02  0.3985E-01
      3.493  0.2960E-02  0.4052E-01
      3.721  0.4566E-02  0.4157E-01
      3.950  0.4463E-02  0.4259E-01
      4.179  0.4662E-02  0.4365E-01
      4.408  0.7580E-03  0.4383E-01
      4.637  0.4747E-02  0.4491E-01
      4.865  0.2657E-02  0.4552E-01
      5.094  0.4345E-02  0.4652E-01
      5.323  0.8335E-02  0.4842E-01
      5.552  0.6041E-02  0.4981E-01
      5.780  0.6517E-02  0.5130E-01
      6.009  0.1015E-01  0.5362E-01
      6.238  0.9629E-02  0.5582E-01
      6.467  0.6689E-02  0.5735E-01
      6.696  0.7169E-02  0.5899E-01
      6.924  0.6675E-02  0.6052E-01
      7.153  0.6349E-02  0.6197E-01
      7.382  0.7319E-02  0.6364E-01
      7.611  0.4115E-02  0.6459E-01
      7.839  0.8544E-02  0.6654E-01
      8.068  0.1213E-01  0.6932E-01
      8.297  0.2536E-02  0.6990E-01
      8.526  0.5048E-02  0.7105E-01
      8.755  0.1043E-01  0.7344E-01
      8.983  0.8087E-02  0.7529E-01
      9.212  0.8032E-02  0.7712E-01
      9.441  0.7730E-02  0.7889E-01
      9.670  0.6516E-02  0.8038E-01
      9.899  0.9265E-02  0.8250E-01
     10.127  0.8346E-02  0.8441E-01
     10.356  0.4815E-02  0.8551E-01
     10.585  0.5188E-02  0.8670E-01
     10.814  0.1408E-01  0.8992E-01
     11.042  0.9741E-02  0.9215E-01
     11.271  0.1012E-01  0.9447E-01
     11.500  0.1066E-01  0.9690E-01
     11.729  0.1124E-01  0.9948E-01
     11.958  0.5221E-02  0.1007E+00
     12.186  0.5901E-02  0.1020E+00
     12.415  0.6534E-02  0.1035E+00
     12.644  0.4024E-02  0.1044E+00
     12.873  0.6290E-02  0.1059E+00
     13.102  0.8553E-02  0.1078E+00
     13.330  0.6086E-02  0.1092E+00
     13.559  0.1076E-01  0.1117E+00
     13.788  0.6463E-02  0.1132E+00
     14.017  0.1412E-01  0.1164E+00
     14.245  0.5330E-02  0.1176E+00
     14.474  0.6700E-02  0.1191E+00
     14.703  0.9402E-02  0.1213E+00
     14.932  0.1140E-01  0.1239E+00
     15.161  0.1188E-01  0.1266E+00
     15.389  0.7229E-02  0.1283E+00
     15.618  0.8790E-02  0.1303E+00
     15.847  0.7994E-02  0.1321E+00
     16.076  0.9730E-02  0.1343E+00
     16.305  0.6744E-02  0.1359E+00
     16.533  0.8729E-02  0.1379E+00
     16.762  0.7765E-02  0.1397E+00
     16.991  0.1028E-01  0.1420E+00
     17.220  0.1690E-01  0.1459E+00
     17.448  0.6251E-02  0.1473E+00
     17.677  0.7656E-02  0.1491E+00
     17.906  0.3241E-02  0.1498E+00
     18.135  0.6297E-02  0.1512E+00
     18.364  0.1701E-01  0.1551E+00
     18.592  0.1011E-01  0.1574E+00
     18.821  0.1141E-02  0.1577E+00
     19.050  0.1512E-01  0.1612E+00
     19.279  0.1117E-01  0.1637E+00
     19.507  0.1036E-01  0.1661E+00
     19.736  0.1024E-01  0.1684E+00
     19.965  0.1038E-01  0.1708E+00
     20.194  0.9072E-02  0.1729E+00
     20.423  0.1550E-01  0.1764E+00
     20.651  0.1143E-01  0.1790E+00
     20.880  0.1094E-01  0.1815E+00
     21.109  0.6055E-02  0.1829E+00
     21.338  0.8377E-02  0.1849E+00
     21.567  0.8308E-02  0.1868E+00
     21.795  0.1341E-01  0.1898E+00
     22.024  0.1208E-01  0.1926E+00
     22.253  0.1580E-01  0.1962E+00
     22.482  0.1060E-01  0.1986E+00
     22.710  0.4962E-02  0.1998E+00
     22.939  0.1749E-01  0.2038E+00
     23.168  0.9959E-02  0.2060E+00
     23.397  0.8162E-02  0.2079E+00
     23.626  0.1190E-01  0.2106E+00
     23.854  0.1355E-01  0.2137E+00
     24.083  0.1436E-01  0.2170E+00
     24.312  0.1108E-01  0.2196E+00
     24.541  0.1191E-01  0.2223E+00
     24.770  0.1194E-01  0.2250E+00
     24.998  0.1001E-01  0.2273E+00
     25.227  0.7330E-02  0.2290E+00
     25.456  0.6397E-02  0.2304E+00
     25.685  0.1140E-01  0.2330E+00
     25.913  0.8603E-02  0.2350E+00
     26.142  0.1523E-01  0.2385E+00
     26.371  0.1550E-01  0.2420E+00
     26.600  0.8670E-02  0.2440E+00
     26.829  0.8992E-02  0.2461E+00
     27.057  0.1394E-01  0.2493E+00
     27.286  0.1129E-01  0.2519E+00
     27.515  0.9497E-02  0.2540E+00
     27.744  0.9922E-02  0.2563E+00
     27.973  0.1756E-01  0.2603E+00
     28.201  0.3392E-02  0.2611E+00
     28.430  0.4463E-02  0.2621E+00
     28.659  0.1258E-01  0.2650E+00
     28.888  0.1164E-01  0.2677E+00
     29.116  0.1161E-01  0.2703E+00
     29.345  0.1341E-01  0.2734E+00
     29.574  0.8680E-02  0.2754E+00
     29.803  0.1228E-01  0.2782E+00
     30.032  0.9936E-02  0.2804E+00
     30.260  0.1324E-01  0.2835E+00
     30.489  0.1046E-01  0.2859E+00
     30.718  0.1260E-01  0.2888E+00
     30.947  0.1821E-01  0.2929E+00
     31.175  0.9685E-02  0.2951E+00
     31.404  0.8861E-02  0.2972E+00
     31.633  0.1497E-01  0.3006E+00
     31.862  0.7549E-02  0.3023E+00
     32.091  0.9924E-02  0.3046E+00
     32.319  0.1583E-01  0.3082E+00
     32.548  0.1019E-01  0.3105E+00
     32.777  0.1211E-01  0.3133E+00
     33.006  0.1538E-01  0.3168E+00
     33.235  0.1413E-01  0.3201E+00
     33.463  0.9410E-02  0.3222E+00
     33.692  0.1197E-01  0.3250E+00
     33.921  0.1183E-01  0.3277E+00
     34.150  0.1289E-01  0.3306E+00
     34.378  0.1262E-01  0.3335E+00
     34.607  0.6338E-02  0.3349E+00
     34.836  0.1005E-01  0.3372E+00
     35.065  0.1203E-01  0.3400E+00
     35.294  0.1793E-01  0.3441E+00
     35.522  0.1521E-01  0.3476E+00
     35.751  0.7825E-02  0.3494E+00
     35.980  0.1743E-01  0.3534E+00
     36.209  0.1398E-01  0.3566E+00
     36.438  0.1144E-01  0.3592E+00
     36.666  0.8241E-02  0.3611E+00
     36.895  0.3696E-02  0.3619E+00
     37.124  0.1491E-01  0.3653E+00
     37.353  0.1312E-01  0.3683E+00
     37.581  0.6950E-02  0.3699E+00
     37.810  0.2171E-02  0.3704E+00
     38.039  0.5377E-02  0.3716E+00
     38.268  0.1488E-02  0.3720E+00
     38.497  0.1808E-02  0.3724E+00
     38.725  0.1722E-02  0.3728E+00
     38.954  0.3364E-02  0.3736E+00
     39.183  0.4696E-02  0.3746E+00
     39.412  0.6926E-03  0.3748E+00
     39.641  0.7385E-07  0.3748E+00
     39.869  0.4474E-15  0.3748E+00
     40.098  0.9741E-17  0.3748E+00
     40.327  0.4857E-08  0.3748E+00
     40.556  0.1135E-03  0.3748E+00
     40.784  0.8163E-03  0.3750E+00
     41.013  0.1873E-04  0.3750E+00
     41.242  0.5661E-10  0.3750E+00
     41.471  0.0000E+00  0.3750E+00
     41.700  0.0000E+00  0.3750E+00
     41.928  0.0000E+00  0.3750E+00
     42.157  0.0000E+00  0.3750E+00
     42.386  0.0000E+00  0.3750E+00
     42.615  0.0000E+00  0.3750E+00
     42.843  0.0000E+00  0.3750E+00
     43.072  0.0000E+00  0.3750E+00
     43.301  0.0000E+00  0.3750E+00
     43.530  0.0000E+00  0.3750E+00
     43.759  0.0000E+00  0.3750E+00
