   2   2   0  16
  0.3953030E+02  0.2467000E-09  0.2467000E-09  0.1500000E-08  0.5000000E-15
  1.000000000000000E-004
  CAR 
 Lattice                                 
     43.75863695    -24.87667954  301     -2.25279183      1.00000000
    -24.877  0.0000E+00  0.0000E+00
    -24.648  0.0000E+00  0.0000E+00
    -24.419  0.0000E+00  0.0000E+00
    -24.190  0.0000E+00  0.0000E+00
    -23.962  0.0000E+00  0.0000E+00
    -23.733  0.0000E+00  0.0000E+00
    -23.504  0.0000E+00  0.0000E+00
    -23.275  0.0000E+00  0.0000E+00
    -23.046  0.0000E+00  0.0000E+00
    -22.818  0.0000E+00  0.0000E+00
    -22.589  0.0000E+00  0.0000E+00
    -22.360  0.0000E+00  0.0000E+00
    -22.131  0.2831E-10  0.6476E-11
    -21.902  0.9384E-05  0.2147E-05
    -21.674  0.7684E-03  0.1779E-03
    -21.445  0.2507E-02  0.7514E-03
    -21.216  0.2350E-02  0.1289E-02
    -20.987  0.3230E-02  0.2028E-02
    -20.759  0.2688E-03  0.2090E-02
    -20.530  0.4929E-02  0.3217E-02
    -20.301  0.1923E-02  0.3657E-02
    -20.072  0.1561E-02  0.4014E-02
    -19.843  0.9399E-03  0.4229E-02
    -19.615  0.5859E-02  0.5570E-02
    -19.386  0.1744E-02  0.5969E-02
    -19.157  0.1684E-02  0.6354E-02
    -18.928  0.1162E-02  0.6620E-02
    -18.700  0.2966E-02  0.7298E-02
    -18.471  0.3456E-02  0.8089E-02
    -18.242  0.4857E-02  0.9200E-02
    -18.013  0.1013E-03  0.9223E-02
    -17.784  0.1333E-02  0.9528E-02
    -17.556  0.1881E-02  0.9959E-02
    -17.327  0.5324E-02  0.1118E-01
    -17.098  0.2866E-02  0.1183E-01
    -16.869  0.4162E-02  0.1278E-01
    -16.640  0.1571E-02  0.1314E-01
    -16.412  0.1271E-02  0.1343E-01
    -16.183  0.6244E-03  0.1358E-01
    -15.954  0.7509E-02  0.1530E-01
    -15.725  0.4909E-03  0.1541E-01
    -15.497  0.5227E-03  0.1553E-01
    -15.268  0.9064E-03  0.1574E-01
    -15.039  0.1982E-02  0.1619E-01
    -14.810  0.5008E-02  0.1733E-01
    -14.581  0.3434E-02  0.1812E-01
    -14.353  0.7105E-04  0.1814E-01
    -14.124  0.4731E-02  0.1922E-01
    -13.895  0.3348E-02  0.1998E-01
    -13.666  0.2578E-02  0.2057E-01
    -13.437  0.3495E-02  0.2137E-01
    -13.209  0.9307E-05  0.2138E-01
    -12.980  0.3813E-03  0.2146E-01
    -12.751  0.7513E-02  0.2318E-01
    -12.522  0.1590E-02  0.2355E-01
    -12.294  0.6260E-06  0.2355E-01
    -12.065  0.6357E-04  0.2356E-01
    -11.836  0.7015E-02  0.2517E-01
    -11.607  0.6957E-02  0.2676E-01
    -11.378  0.2042E-03  0.2680E-01
    -11.150  0.2045E-02  0.2727E-01
    -10.921  0.8360E-03  0.2746E-01
    -10.692  0.4505E-02  0.2849E-01
    -10.463  0.2724E-02  0.2912E-01
    -10.234  0.5637E-02  0.3041E-01
    -10.006  0.2813E-02  0.3105E-01
     -9.777  0.3113E-02  0.3176E-01
     -9.548  0.9775E-02  0.3400E-01
     -9.319  0.1125E-02  0.3426E-01
     -9.091  0.7677E-02  0.3601E-01
     -8.862  0.4337E-02  0.3700E-01
     -8.633  0.1142E-01  0.3962E-01
     -8.404  0.1066E-01  0.4206E-01
     -8.175  0.4499E-02  0.4309E-01
     -7.947  0.7128E-02  0.4472E-01
     -7.718  0.5392E-03  0.4484E-01
     -7.489  0.5500E-02  0.4610E-01
     -7.260  0.1140E-01  0.4871E-01
     -7.031  0.3457E-02  0.4950E-01
     -6.803  0.4624E-02  0.5056E-01
     -6.574  0.5384E-03  0.5068E-01
     -6.345  0.5276E-02  0.5189E-01
     -6.116  0.6582E-02  0.5339E-01
     -5.888  0.7132E-02  0.5502E-01
     -5.659  0.1736E-02  0.5542E-01
     -5.430  0.3789E-02  0.5629E-01
     -5.201  0.1896E-02  0.5672E-01
     -4.972  0.2718E-02  0.5734E-01
     -4.744  0.7908E-02  0.5915E-01
     -4.515  0.5003E-02  0.6030E-01
     -4.286  0.1381E-03  0.6033E-01
     -4.057  0.7663E-03  0.6051E-01
     -3.829  0.2071E-02  0.6098E-01
     -3.600  0.3037E-02  0.6167E-01
     -3.371  0.2660E-02  0.6228E-01
     -3.142  0.2595E-05  0.6228E-01
     -2.913  0.1617E-12  0.6228E-01
     -2.685  0.9654E-12  0.6228E-01
     -2.456  0.3880E-05  0.6228E-01
     -2.227  0.1214E-02  0.6256E-01
     -1.998  0.6784E-03  0.6272E-01
     -1.769  0.3020E-06  0.6272E-01
     -1.541  0.7757E-14  0.6272E-01
     -1.312  0.1516E-08  0.6272E-01
     -1.083  0.2144E-03  0.6277E-01
     -0.854  0.5715E-02  0.6407E-01
     -0.626  0.2923E-02  0.6474E-01
     -0.397  0.1577E-02  0.6510E-01
     -0.168  0.5041E-02  0.6626E-01
      0.061  0.1920E-03  0.6630E-01
      0.290  0.3667E-02  0.6714E-01
      0.518  0.4204E-02  0.6810E-01
      0.747  0.3487E-02  0.6890E-01
      0.976  0.1669E-03  0.6894E-01
      1.205  0.1330E-02  0.6924E-01
      1.434  0.3718E-02  0.7009E-01
      1.662  0.4992E-02  0.7123E-01
      1.891  0.3135E-02  0.7195E-01
      2.120  0.4321E-02  0.7294E-01
      2.349  0.6071E-02  0.7433E-01
      2.577  0.5589E-02  0.7561E-01
      2.806  0.1035E-01  0.7797E-01
      3.035  0.3685E-02  0.7882E-01
      3.264  0.3819E-02  0.7969E-01
      3.493  0.5920E-02  0.8105E-01
      3.721  0.9131E-02  0.8313E-01
      3.950  0.8925E-02  0.8518E-01
      4.179  0.9324E-02  0.8731E-01
      4.408  0.1516E-02  0.8766E-01
      4.637  0.9494E-02  0.8983E-01
      4.865  0.5313E-02  0.9104E-01
      5.094  0.8691E-02  0.9303E-01
      5.323  0.1667E-01  0.9685E-01
      5.552  0.1208E-01  0.9961E-01
      5.780  0.1303E-01  0.1026E+00
      6.009  0.2029E-01  0.1072E+00
      6.238  0.1926E-01  0.1116E+00
      6.467  0.1338E-01  0.1147E+00
      6.696  0.1434E-01  0.1180E+00
      6.924  0.1335E-01  0.1210E+00
      7.153  0.1270E-01  0.1239E+00
      7.382  0.1464E-01  0.1273E+00
      7.611  0.8231E-02  0.1292E+00
      7.839  0.1709E-01  0.1331E+00
      8.068  0.2425E-01  0.1386E+00
      8.297  0.5072E-02  0.1398E+00
      8.526  0.1010E-01  0.1421E+00
      8.755  0.2086E-01  0.1469E+00
      8.983  0.1617E-01  0.1506E+00
      9.212  0.1606E-01  0.1542E+00
      9.441  0.1546E-01  0.1578E+00
      9.670  0.1303E-01  0.1608E+00
      9.899  0.1853E-01  0.1650E+00
     10.127  0.1669E-01  0.1688E+00
     10.356  0.9629E-02  0.1710E+00
     10.585  0.1038E-01  0.1734E+00
     10.814  0.2816E-01  0.1798E+00
     11.042  0.1948E-01  0.1843E+00
     11.271  0.2023E-01  0.1889E+00
     11.500  0.2132E-01  0.1938E+00
     11.729  0.2248E-01  0.1990E+00
     11.958  0.1044E-01  0.2013E+00
     12.186  0.1180E-01  0.2040E+00
     12.415  0.1307E-01  0.2070E+00
     12.644  0.8049E-02  0.2089E+00
     12.873  0.1258E-01  0.2117E+00
     13.102  0.1711E-01  0.2157E+00
     13.330  0.1217E-01  0.2184E+00
     13.559  0.2151E-01  0.2234E+00
     13.788  0.1293E-01  0.2263E+00
     14.017  0.2824E-01  0.2328E+00
     14.245  0.1066E-01  0.2352E+00
     14.474  0.1340E-01  0.2383E+00
     14.703  0.1880E-01  0.2426E+00
     14.932  0.2280E-01  0.2478E+00
     15.161  0.2376E-01  0.2532E+00
     15.389  0.1446E-01  0.2566E+00
     15.618  0.1758E-01  0.2606E+00
     15.847  0.1599E-01  0.2642E+00
     16.076  0.1946E-01  0.2687E+00
     16.305  0.1349E-01  0.2718E+00
     16.533  0.1746E-01  0.2758E+00
     16.762  0.1553E-01  0.2793E+00
     16.991  0.2057E-01  0.2840E+00
     17.220  0.3380E-01  0.2918E+00
     17.448  0.1250E-01  0.2946E+00
     17.677  0.1531E-01  0.2981E+00
     17.906  0.6481E-02  0.2996E+00
     18.135  0.1259E-01  0.3025E+00
     18.364  0.3401E-01  0.3103E+00
     18.592  0.2022E-01  0.3149E+00
     18.821  0.2282E-02  0.3154E+00
     19.050  0.3025E-01  0.3223E+00
     19.279  0.2234E-01  0.3274E+00
     19.507  0.2073E-01  0.3322E+00
     19.736  0.2048E-01  0.3369E+00
     19.965  0.2075E-01  0.3416E+00
     20.194  0.1814E-01  0.3458E+00
     20.423  0.3100E-01  0.3529E+00
     20.651  0.2285E-01  0.3581E+00
     20.880  0.2188E-01  0.3631E+00
     21.109  0.1211E-01  0.3659E+00
     21.338  0.1675E-01  0.3697E+00
     21.567  0.1662E-01  0.3735E+00
     21.795  0.2683E-01  0.3796E+00
     22.024  0.2416E-01  0.3852E+00
     22.253  0.3161E-01  0.3924E+00
     22.482  0.2120E-01  0.3973E+00
     22.710  0.9924E-02  0.3995E+00
     22.939  0.3498E-01  0.4075E+00
     23.168  0.1992E-01  0.4121E+00
     23.397  0.1632E-01  0.4158E+00
     23.626  0.2381E-01  0.4213E+00
     23.854  0.2709E-01  0.4275E+00
     24.083  0.2871E-01  0.4340E+00
     24.312  0.2217E-01  0.4391E+00
     24.541  0.2383E-01  0.4446E+00
     24.770  0.2387E-01  0.4500E+00
     24.998  0.2002E-01  0.4546E+00
     25.227  0.1466E-01  0.4579E+00
     25.456  0.1279E-01  0.4609E+00
     25.685  0.2280E-01  0.4661E+00
     25.913  0.1721E-01  0.4700E+00
     26.142  0.3046E-01  0.4770E+00
     26.371  0.3100E-01  0.4841E+00
     26.600  0.1734E-01  0.4881E+00
     26.829  0.1798E-01  0.4922E+00
     27.057  0.2788E-01  0.4985E+00
     27.286  0.2257E-01  0.5037E+00
     27.515  0.1899E-01  0.5081E+00
     27.744  0.1984E-01  0.5126E+00
     27.973  0.3512E-01  0.5206E+00
     28.201  0.6785E-02  0.5222E+00
     28.430  0.8925E-02  0.5242E+00
     28.659  0.2516E-01  0.5300E+00
     28.888  0.2327E-01  0.5353E+00
     29.116  0.2322E-01  0.5406E+00
     29.345  0.2682E-01  0.5468E+00
     29.574  0.1736E-01  0.5507E+00
     29.803  0.2456E-01  0.5563E+00
     30.032  0.1987E-01  0.5609E+00
     30.260  0.2647E-01  0.5670E+00
     30.489  0.2093E-01  0.5717E+00
     30.718  0.2521E-01  0.5775E+00
     30.947  0.3643E-01  0.5858E+00
     31.175  0.1937E-01  0.5903E+00
     31.404  0.1772E-01  0.5943E+00
     31.633  0.2994E-01  0.6012E+00
     31.862  0.1510E-01  0.6046E+00
     32.091  0.1985E-01  0.6092E+00
     32.319  0.3166E-01  0.6164E+00
     32.548  0.2038E-01  0.6211E+00
     32.777  0.2422E-01  0.6266E+00
     33.006  0.3075E-01  0.6337E+00
     33.235  0.2827E-01  0.6401E+00
     33.463  0.1882E-01  0.6444E+00
     33.692  0.2394E-01  0.6499E+00
     33.921  0.2366E-01  0.6553E+00
     34.150  0.2578E-01  0.6612E+00
     34.378  0.2523E-01  0.6670E+00
     34.607  0.1268E-01  0.6699E+00
     34.836  0.2010E-01  0.6745E+00
     35.065  0.2407E-01  0.6800E+00
     35.294  0.3585E-01  0.6882E+00
     35.522  0.3042E-01  0.6952E+00
     35.751  0.1565E-01  0.6987E+00
     35.980  0.3486E-01  0.7067E+00
     36.209  0.2796E-01  0.7131E+00
     36.438  0.2288E-01  0.7183E+00
     36.666  0.1648E-01  0.7221E+00
     36.895  0.7391E-02  0.7238E+00
     37.124  0.2982E-01  0.7306E+00
     37.353  0.2624E-01  0.7366E+00
     37.581  0.1390E-01  0.7398E+00
     37.810  0.4343E-02  0.7408E+00
     38.039  0.1075E-01  0.7433E+00
     38.268  0.2977E-02  0.7439E+00
     38.497  0.3615E-02  0.7448E+00
     38.725  0.3444E-02  0.7456E+00
     38.954  0.6727E-02  0.7471E+00
     39.183  0.9392E-02  0.7492E+00
     39.412  0.1385E-02  0.7496E+00
     39.641  0.1477E-06  0.7496E+00
     39.869  0.8947E-15  0.7496E+00
     40.098  0.1948E-16  0.7496E+00
     40.327  0.9715E-08  0.7496E+00
     40.556  0.2271E-03  0.7496E+00
     40.784  0.1633E-02  0.7500E+00
     41.013  0.3746E-04  0.7500E+00
     41.242  0.1132E-09  0.7500E+00
     41.471  0.0000E+00  0.7500E+00
     41.700  0.0000E+00  0.7500E+00
     41.928  0.0000E+00  0.7500E+00
     42.157  0.0000E+00  0.7500E+00
     42.386  0.0000E+00  0.7500E+00
     42.615  0.0000E+00  0.7500E+00
     42.843  0.0000E+00  0.7500E+00
     43.072  0.0000E+00  0.7500E+00
     43.301  0.0000E+00  0.7500E+00
     43.530  0.0000E+00  0.7500E+00
     43.759  0.0000E+00  0.7500E+00
