  16  16   0   4
  0.1997401E+02  0.4960000E-09  0.4960000E-09  0.1500000E-08  0.5000000E-15
  1.000000000000000E-004
  CAR 
 Lattice                                 
      9.67269035    -21.13246196  301     -0.19777372      1.00000000
    -21.132  0.0000E+00  0.0000E+00  0.0000E+00  0.0000E+00
    -21.030  0.0000E+00  0.0000E+00  0.0000E+00  0.0000E+00
    -20.927  0.0000E+00  0.0000E+00  0.0000E+00  0.0000E+00
    -20.824  0.0000E+00  0.0000E+00  0.0000E+00  0.0000E+00
    -20.722  0.0000E+00  0.0000E+00  0.0000E+00  0.0000E+00
    -20.619  0.0000E+00  0.0000E+00  0.0000E+00  0.0000E+00
    -20.516  0.0000E+00  0.0000E+00  0.0000E+00  0.0000E+00
    -20.414  0.0000E+00  0.0000E+00  0.0000E+00  0.0000E+00
    -20.311  0.5866E-19  0.5866E-19  0.6023E-20  0.6023E-20
    -20.208  0.4828E-14  0.4828E-14  0.4958E-15  0.4958E-15
    -20.106  0.4155E-10  0.4155E-10  0.4267E-11  0.4267E-11
    -20.003  0.5097E-07  0.5097E-07  0.5238E-08  0.5238E-08
    -19.900  0.9656E-05  0.9657E-05  0.9968E-06  0.9968E-06
    -19.798  0.3112E-03  0.3112E-03  0.3295E-04  0.3295E-04
    -19.695  0.2066E-02  0.2066E-02  0.2451E-03  0.2451E-03
    -19.592  0.4274E-02  0.4274E-02  0.6839E-03  0.6839E-03
    -19.490  0.4724E-02  0.4724E-02  0.1169E-02  0.1169E-02
    -19.387  0.5088E-02  0.5088E-02  0.1692E-02  0.1692E-02
    -19.284  0.4398E-02  0.4398E-02  0.2143E-02  0.2143E-02
    -19.181  0.5527E-02  0.5527E-02  0.2711E-02  0.2711E-02
    -19.079  0.4412E-02  0.4412E-02  0.3164E-02  0.3164E-02
    -18.976  0.4501E-02  0.4501E-02  0.3626E-02  0.3626E-02
    -18.873  0.6142E-02  0.6142E-02  0.4257E-02  0.4257E-02
    -18.771  0.4001E-02  0.4001E-02  0.4667E-02  0.4667E-02
    -18.668  0.4135E-02  0.4135E-02  0.5092E-02  0.5092E-02
    -18.565  0.6297E-02  0.6297E-02  0.5739E-02  0.5739E-02
    -18.463  0.5357E-02  0.5357E-02  0.6289E-02  0.6289E-02
    -18.360  0.3133E-02  0.3133E-02  0.6610E-02  0.6610E-02
    -18.257  0.4695E-02  0.4695E-02  0.7093E-02  0.7093E-02
    -18.155  0.7053E-02  0.7053E-02  0.7817E-02  0.7817E-02
    -18.052  0.4762E-02  0.4762E-02  0.8306E-02  0.8306E-02
    -17.949  0.3883E-02  0.3883E-02  0.8704E-02  0.8704E-02
    -17.847  0.3298E-02  0.3298E-02  0.9043E-02  0.9043E-02
    -17.744  0.6932E-02  0.6932E-02  0.9755E-02  0.9755E-02
    -17.641  0.6712E-02  0.6712E-02  0.1044E-01  0.1044E-01
    -17.539  0.3642E-02  0.3642E-02  0.1082E-01  0.1082E-01
    -17.436  0.3511E-02  0.3511E-02  0.1118E-01  0.1118E-01
    -17.333  0.4365E-02  0.4365E-02  0.1163E-01  0.1163E-01
    -17.230  0.6601E-02  0.6601E-02  0.1230E-01  0.1230E-01
    -17.128  0.6862E-02  0.6862E-02  0.1301E-01  0.1301E-01
    -17.025  0.4811E-02  0.4811E-02  0.1350E-01  0.1350E-01
    -16.922  0.2504E-02  0.2504E-02  0.1376E-01  0.1376E-01
    -16.820  0.3740E-02  0.3740E-02  0.1414E-01  0.1414E-01
    -16.717  0.6965E-02  0.6965E-02  0.1486E-01  0.1486E-01
    -16.614  0.6680E-02  0.6680E-02  0.1555E-01  0.1555E-01
    -16.512  0.5562E-02  0.5562E-02  0.1612E-01  0.1612E-01
    -16.409  0.4601E-02  0.4601E-02  0.1659E-01  0.1659E-01
    -16.306  0.3281E-02  0.3281E-02  0.1693E-01  0.1693E-01
    -16.204  0.2593E-02  0.2593E-02  0.1719E-01  0.1719E-01
    -16.101  0.8595E-02  0.8595E-02  0.1807E-01  0.1807E-01
    -15.998  0.1079E-01  0.1079E-01  0.1918E-01  0.1918E-01
    -15.896  0.1032E-01  0.1032E-01  0.2024E-01  0.2024E-01
    -15.793  0.1053E-01  0.1053E-01  0.2132E-01  0.2132E-01
    -15.690  0.1044E-01  0.1044E-01  0.2240E-01  0.2240E-01
    -15.588  0.1043E-01  0.1043E-01  0.2347E-01  0.2347E-01
    -15.485  0.1123E-01  0.1123E-01  0.2462E-01  0.2462E-01
    -15.382  0.1706E-01  0.1706E-01  0.2637E-01  0.2637E-01
    -15.279  0.1490E-01  0.1490E-01  0.2790E-01  0.2790E-01
    -15.177  0.1450E-01  0.1450E-01  0.2939E-01  0.2939E-01
    -15.074  0.1131E-01  0.1131E-01  0.3055E-01  0.3055E-01
    -14.971  0.9042E-02  0.9042E-02  0.3148E-01  0.3148E-01
    -14.869  0.7062E-02  0.7062E-02  0.3220E-01  0.3220E-01
    -14.766  0.8348E-02  0.8348E-02  0.3306E-01  0.3306E-01
    -14.663  0.1115E-01  0.1115E-01  0.3421E-01  0.3421E-01
    -14.561  0.1042E-01  0.1042E-01  0.3528E-01  0.3528E-01
    -14.458  0.1244E-01  0.1244E-01  0.3655E-01  0.3655E-01
    -14.355  0.1086E-01  0.1086E-01  0.3767E-01  0.3767E-01
    -14.253  0.9378E-02  0.9378E-02  0.3863E-01  0.3863E-01
    -14.150  0.9707E-02  0.9707E-02  0.3963E-01  0.3963E-01
    -14.047  0.1362E-01  0.1362E-01  0.4103E-01  0.4103E-01
    -13.945  0.9991E-02  0.9991E-02  0.4205E-01  0.4205E-01
    -13.842  0.4879E-02  0.4879E-02  0.4255E-01  0.4255E-01
    -13.739  0.2641E-02  0.2641E-02  0.4283E-01  0.4283E-01
    -13.637  0.4435E-02  0.4435E-02  0.4328E-01  0.4328E-01
    -13.534  0.6892E-02  0.6892E-02  0.4399E-01  0.4399E-01
    -13.431  0.7057E-02  0.7057E-02  0.4471E-01  0.4471E-01
    -13.328  0.7516E-02  0.7516E-02  0.4548E-01  0.4548E-01
    -13.226  0.6855E-02  0.6855E-02  0.4619E-01  0.4619E-01
    -13.123  0.7403E-02  0.7403E-02  0.4695E-01  0.4695E-01
    -13.020  0.7187E-02  0.7187E-02  0.4769E-01  0.4769E-01
    -12.918  0.5173E-02  0.5173E-02  0.4822E-01  0.4822E-01
    -12.815  0.8315E-02  0.8315E-02  0.4907E-01  0.4907E-01
    -12.712  0.1112E-01  0.1112E-01  0.5021E-01  0.5021E-01
    -12.610  0.1161E-01  0.1161E-01  0.5140E-01  0.5140E-01
    -12.507  0.1339E-01  0.1339E-01  0.5278E-01  0.5278E-01
    -12.404  0.1480E-01  0.1480E-01  0.5430E-01  0.5430E-01
    -12.302  0.1276E-01  0.1276E-01  0.5561E-01  0.5561E-01
    -12.199  0.1559E-01  0.1559E-01  0.5721E-01  0.5721E-01
    -12.096  0.1442E-01  0.1442E-01  0.5869E-01  0.5869E-01
    -11.994  0.1689E-01  0.1689E-01  0.6043E-01  0.6043E-01
    -11.891  0.1846E-01  0.1846E-01  0.6232E-01  0.6232E-01
    -11.788  0.1115E-01  0.1115E-01  0.6347E-01  0.6347E-01
    -11.686  0.7947E-02  0.7947E-02  0.6428E-01  0.6428E-01
    -11.583  0.5559E-02  0.5559E-02  0.6485E-01  0.6485E-01
    -11.480  0.6642E-02  0.6642E-02  0.6554E-01  0.6554E-01
    -11.377  0.6340E-02  0.6340E-02  0.6619E-01  0.6619E-01
    -11.275  0.4949E-02  0.4949E-02  0.6669E-01  0.6669E-01
    -11.172  0.4394E-02  0.4394E-02  0.6715E-01  0.6715E-01
    -11.069  0.4522E-02  0.4522E-02  0.6761E-01  0.6761E-01
    -10.967  0.5050E-02  0.5050E-02  0.6813E-01  0.6813E-01
    -10.864  0.9248E-02  0.9248E-02  0.6908E-01  0.6908E-01
    -10.761  0.1218E-01  0.1218E-01  0.7033E-01  0.7033E-01
    -10.659  0.1139E-01  0.1139E-01  0.7150E-01  0.7150E-01
    -10.556  0.1476E-01  0.1476E-01  0.7301E-01  0.7301E-01
    -10.453  0.1690E-01  0.1690E-01  0.7475E-01  0.7475E-01
    -10.351  0.1014E-01  0.1014E-01  0.7579E-01  0.7579E-01
    -10.248  0.9751E-02  0.9751E-02  0.7679E-01  0.7679E-01
    -10.145  0.8882E-02  0.8882E-02  0.7770E-01  0.7770E-01
    -10.043  0.1026E-01  0.1026E-01  0.7876E-01  0.7876E-01
     -9.940  0.9682E-02  0.9682E-02  0.7975E-01  0.7975E-01
     -9.837  0.1083E-01  0.1083E-01  0.8086E-01  0.8086E-01
     -9.735  0.8578E-02  0.8578E-02  0.8174E-01  0.8174E-01
     -9.632  0.1270E-01  0.1270E-01  0.8305E-01  0.8305E-01
     -9.529  0.1726E-01  0.1726E-01  0.8482E-01  0.8482E-01
     -9.427  0.1152E-01  0.1152E-01  0.8600E-01  0.8600E-01
     -9.324  0.1650E-01  0.1650E-01  0.8770E-01  0.8770E-01
     -9.221  0.2032E-01  0.2032E-01  0.8978E-01  0.8978E-01
     -9.118  0.1385E-01  0.1385E-01  0.9121E-01  0.9121E-01
     -9.016  0.7074E-02  0.7074E-02  0.9193E-01  0.9193E-01
     -8.913  0.1586E-01  0.1586E-01  0.9356E-01  0.9356E-01
     -8.810  0.2449E-01  0.2449E-01  0.9608E-01  0.9608E-01
     -8.708  0.1090E-01  0.1090E-01  0.9719E-01  0.9719E-01
     -8.605  0.5490E-02  0.5490E-02  0.9776E-01  0.9776E-01
     -8.502  0.1566E-01  0.1566E-01  0.9937E-01  0.9937E-01
     -8.400  0.1809E-01  0.1809E-01  0.1012E+00  0.1012E+00
     -8.297  0.1419E-01  0.1419E-01  0.1027E+00  0.1027E+00
     -8.194  0.1324E-01  0.1324E-01  0.1040E+00  0.1040E+00
     -8.092  0.1421E-01  0.1421E-01  0.1055E+00  0.1055E+00
     -7.989  0.1243E-01  0.1243E-01  0.1068E+00  0.1068E+00
     -7.886  0.1417E-01  0.1417E-01  0.1082E+00  0.1082E+00
     -7.784  0.2113E-01  0.2113E-01  0.1104E+00  0.1104E+00
     -7.681  0.2401E-01  0.2401E-01  0.1129E+00  0.1129E+00
     -7.578  0.1534E-01  0.1534E-01  0.1144E+00  0.1144E+00
     -7.476  0.1198E-01  0.1198E-01  0.1157E+00  0.1157E+00
     -7.373  0.1466E-01  0.1466E-01  0.1172E+00  0.1172E+00
     -7.270  0.1784E-01  0.1784E-01  0.1190E+00  0.1190E+00
     -7.167  0.1903E-01  0.1903E-01  0.1210E+00  0.1210E+00
     -7.065  0.1732E-01  0.1732E-01  0.1227E+00  0.1227E+00
     -6.962  0.1844E-01  0.1844E-01  0.1246E+00  0.1246E+00
     -6.859  0.1759E-01  0.1759E-01  0.1264E+00  0.1264E+00
     -6.757  0.2330E-01  0.2330E-01  0.1288E+00  0.1288E+00
     -6.654  0.3035E-01  0.3035E-01  0.1320E+00  0.1320E+00
     -6.551  0.3630E-01  0.3630E-01  0.1357E+00  0.1357E+00
     -6.449  0.3088E-01  0.3088E-01  0.1388E+00  0.1388E+00
     -6.346  0.1815E-01  0.1815E-01  0.1407E+00  0.1407E+00
     -6.243  0.1811E-01  0.1811E-01  0.1426E+00  0.1426E+00
     -6.141  0.1729E-01  0.1729E-01  0.1443E+00  0.1443E+00
     -6.038  0.1825E-01  0.1825E-01  0.1462E+00  0.1462E+00
     -5.935  0.1508E-01  0.1508E-01  0.1478E+00  0.1478E+00
     -5.833  0.1348E-01  0.1348E-01  0.1492E+00  0.1492E+00
     -5.730  0.2046E-01  0.2046E-01  0.1513E+00  0.1513E+00
     -5.627  0.1858E-01  0.1858E-01  0.1532E+00  0.1532E+00
     -5.525  0.8756E-02  0.8756E-02  0.1541E+00  0.1541E+00
     -5.422  0.8698E-02  0.8698E-02  0.1550E+00  0.1550E+00
     -5.319  0.1720E-01  0.1720E-01  0.1567E+00  0.1567E+00
     -5.216  0.2143E-01  0.2143E-01  0.1589E+00  0.1589E+00
     -5.114  0.1342E-01  0.1342E-01  0.1603E+00  0.1603E+00
     -5.011  0.1140E-01  0.1140E-01  0.1615E+00  0.1615E+00
     -4.908  0.1574E-01  0.1574E-01  0.1631E+00  0.1631E+00
     -4.806  0.1866E-01  0.1866E-01  0.1650E+00  0.1650E+00
     -4.703  0.1044E-01  0.1044E-01  0.1661E+00  0.1661E+00
     -4.600  0.9363E-02  0.9363E-02  0.1670E+00  0.1670E+00
     -4.498  0.1612E-01  0.1612E-01  0.1687E+00  0.1687E+00
     -4.395  0.2169E-01  0.2169E-01  0.1709E+00  0.1709E+00
     -4.292  0.2343E-01  0.2343E-01  0.1733E+00  0.1733E+00
     -4.190  0.1928E-01  0.1928E-01  0.1753E+00  0.1753E+00
     -4.087  0.1685E-01  0.1685E-01  0.1770E+00  0.1770E+00
     -3.984  0.2110E-01  0.2110E-01  0.1792E+00  0.1792E+00
     -3.882  0.2645E-01  0.2645E-01  0.1819E+00  0.1819E+00
     -3.779  0.2783E-01  0.2783E-01  0.1848E+00  0.1848E+00
     -3.676  0.2592E-01  0.2592E-01  0.1874E+00  0.1874E+00
     -3.574  0.2232E-01  0.2232E-01  0.1897E+00  0.1897E+00
     -3.471  0.1867E-01  0.1867E-01  0.1916E+00  0.1916E+00
     -3.368  0.1550E-01  0.1550E-01  0.1932E+00  0.1932E+00
     -3.265  0.1100E-01  0.1100E-01  0.1944E+00  0.1944E+00
     -3.163  0.8379E-02  0.8379E-02  0.1952E+00  0.1952E+00
     -3.060  0.1059E-01  0.1059E-01  0.1963E+00  0.1963E+00
     -2.957  0.1717E-01  0.1717E-01  0.1981E+00  0.1981E+00
     -2.855  0.1382E-01  0.1382E-01  0.1995E+00  0.1995E+00
     -2.752  0.1108E-01  0.1108E-01  0.2006E+00  0.2006E+00
     -2.649  0.1047E-01  0.1047E-01  0.2017E+00  0.2017E+00
     -2.547  0.1155E-01  0.1155E-01  0.2029E+00  0.2029E+00
     -2.444  0.1405E-01  0.1405E-01  0.2043E+00  0.2043E+00
     -2.341  0.1645E-01  0.1645E-01  0.2060E+00  0.2060E+00
     -2.239  0.9286E-02  0.9286E-02  0.2070E+00  0.2070E+00
     -2.136  0.9938E-02  0.9938E-02  0.2080E+00  0.2080E+00
     -2.033  0.8134E-02  0.8134E-02  0.2088E+00  0.2088E+00
     -1.931  0.7308E-02  0.7308E-02  0.2096E+00  0.2096E+00
     -1.828  0.5422E-02  0.5422E-02  0.2101E+00  0.2101E+00
     -1.725  0.7834E-02  0.7834E-02  0.2109E+00  0.2109E+00
     -1.623  0.1011E-01  0.1011E-01  0.2120E+00  0.2120E+00
     -1.520  0.9522E-02  0.9522E-02  0.2130E+00  0.2130E+00
     -1.417  0.8049E-02  0.8049E-02  0.2138E+00  0.2138E+00
     -1.314  0.5384E-02  0.5384E-02  0.2143E+00  0.2143E+00
     -1.212  0.5164E-02  0.5164E-02  0.2149E+00  0.2149E+00
     -1.109  0.4890E-02  0.4890E-02  0.2154E+00  0.2154E+00
     -1.006  0.7361E-02  0.7361E-02  0.2161E+00  0.2161E+00
     -0.904  0.7568E-02  0.7568E-02  0.2169E+00  0.2169E+00
     -0.801  0.4020E-02  0.4021E-02  0.2173E+00  0.2173E+00
     -0.698  0.1918E-02  0.1918E-02  0.2175E+00  0.2175E+00
     -0.596  0.9060E-03  0.9060E-03  0.2176E+00  0.2176E+00
     -0.493  0.2717E-02  0.2717E-02  0.2179E+00  0.2179E+00
     -0.390  0.3598E-02  0.3598E-02  0.2183E+00  0.2183E+00
     -0.288  0.2128E-02  0.2128E-02  0.2185E+00  0.2185E+00
     -0.185  0.3249E-02  0.3249E-02  0.2188E+00  0.2188E+00
     -0.082  0.5355E-02  0.5355E-02  0.2194E+00  0.2194E+00
      0.020  0.3767E-02  0.3767E-02  0.2197E+00  0.2197E+00
      0.123  0.2692E-02  0.2692E-02  0.2200E+00  0.2200E+00
      0.226  0.5442E-02  0.5442E-02  0.2206E+00  0.2206E+00
      0.328  0.1167E-01  0.1167E-01  0.2218E+00  0.2218E+00
      0.431  0.1167E-01  0.1167E-01  0.2230E+00  0.2230E+00
      0.534  0.1068E-01  0.1068E-01  0.2241E+00  0.2241E+00
      0.637  0.5245E-02  0.5245E-02  0.2246E+00  0.2246E+00
      0.739  0.3454E-02  0.3454E-02  0.2250E+00  0.2250E+00
      0.842  0.1073E-01  0.1073E-01  0.2261E+00  0.2261E+00
      0.945  0.1014E-01  0.1014E-01  0.2271E+00  0.2271E+00
      1.047  0.2195E-02  0.2195E-02  0.2273E+00  0.2273E+00
      1.150  0.3000E-02  0.3000E-02  0.2276E+00  0.2276E+00
      1.253  0.9961E-02  0.9961E-02  0.2287E+00  0.2287E+00
      1.355  0.1760E-01  0.1760E-01  0.2305E+00  0.2305E+00
      1.458  0.1786E-01  0.1786E-01  0.2323E+00  0.2323E+00
      1.561  0.1355E-01  0.1355E-01  0.2337E+00  0.2337E+00
      1.663  0.1019E-01  0.1019E-01  0.2347E+00  0.2347E+00
      1.766  0.6118E-02  0.6118E-02  0.2354E+00  0.2354E+00
      1.869  0.1096E-01  0.1096E-01  0.2365E+00  0.2365E+00
      1.971  0.1358E-01  0.1358E-01  0.2379E+00  0.2379E+00
      2.074  0.1183E-01  0.1183E-01  0.2391E+00  0.2391E+00
      2.177  0.1173E-01  0.1173E-01  0.2403E+00  0.2403E+00
      2.279  0.9045E-02  0.9045E-02  0.2412E+00  0.2412E+00
      2.382  0.1100E-01  0.1100E-01  0.2424E+00  0.2424E+00
      2.485  0.6080E-02  0.6080E-02  0.2430E+00  0.2430E+00
      2.588  0.7555E-02  0.7555E-02  0.2438E+00  0.2438E+00
      2.690  0.1427E-01  0.1427E-01  0.2452E+00  0.2452E+00
      2.793  0.1557E-01  0.1557E-01  0.2468E+00  0.2468E+00
      2.896  0.1163E-01  0.1163E-01  0.2480E+00  0.2480E+00
      2.998  0.9814E-02  0.9815E-02  0.2490E+00  0.2490E+00
      3.101  0.1131E-01  0.1131E-01  0.2502E+00  0.2502E+00
      3.204  0.1748E-01  0.1748E-01  0.2520E+00  0.2520E+00
      3.306  0.1813E-01  0.1813E-01  0.2539E+00  0.2539E+00
      3.409  0.1336E-01  0.1336E-01  0.2552E+00  0.2552E+00
      3.512  0.1324E-01  0.1324E-01  0.2566E+00  0.2566E+00
      3.614  0.2230E-01  0.2230E-01  0.2589E+00  0.2589E+00
      3.717  0.2583E-01  0.2583E-01  0.2615E+00  0.2615E+00
      3.820  0.1761E-01  0.1761E-01  0.2633E+00  0.2633E+00
      3.922  0.1504E-01  0.1504E-01  0.2649E+00  0.2649E+00
      4.025  0.2071E-01  0.2071E-01  0.2670E+00  0.2670E+00
      4.128  0.2679E-01  0.2679E-01  0.2698E+00  0.2698E+00
      4.230  0.1774E-01  0.1774E-01  0.2716E+00  0.2716E+00
      4.333  0.2078E-01  0.2078E-01  0.2737E+00  0.2737E+00
      4.436  0.2402E-01  0.2402E-01  0.2762E+00  0.2762E+00
      4.538  0.2197E-01  0.2197E-01  0.2784E+00  0.2784E+00
      4.641  0.2042E-01  0.2043E-01  0.2805E+00  0.2805E+00
      4.744  0.2327E-01  0.2327E-01  0.2829E+00  0.2829E+00
      4.847  0.2331E-01  0.2331E-01  0.2853E+00  0.2853E+00
      4.949  0.2285E-01  0.2285E-01  0.2877E+00  0.2877E+00
      5.052  0.2757E-01  0.2758E-01  0.2905E+00  0.2905E+00
      5.155  0.3205E-01  0.3205E-01  0.2938E+00  0.2938E+00
      5.257  0.2715E-01  0.2714E-01  0.2966E+00  0.2966E+00
      5.360  0.2100E-01  0.2100E-01  0.2987E+00  0.2987E+00
      5.463  0.2374E-01  0.2375E-01  0.3012E+00  0.3012E+00
      5.565  0.2595E-01  0.2595E-01  0.3038E+00  0.3038E+00
      5.668  0.2528E-01  0.2528E-01  0.3064E+00  0.3064E+00
      5.771  0.2528E-01  0.2528E-01  0.3090E+00  0.3090E+00
      5.873  0.2161E-01  0.2161E-01  0.3112E+00  0.3112E+00
      5.976  0.2537E-01  0.2537E-01  0.3138E+00  0.3139E+00
      6.079  0.2968E-01  0.2968E-01  0.3169E+00  0.3169E+00
      6.181  0.2445E-01  0.2446E-01  0.3194E+00  0.3194E+00
      6.284  0.2067E-01  0.2067E-01  0.3215E+00  0.3215E+00
      6.387  0.1695E-01  0.1695E-01  0.3233E+00  0.3233E+00
      6.489  0.1570E-01  0.1570E-01  0.3249E+00  0.3249E+00
      6.592  0.2517E-01  0.2517E-01  0.3275E+00  0.3275E+00
      6.695  0.3005E-01  0.3005E-01  0.3306E+00  0.3306E+00
      6.798  0.2840E-01  0.2840E-01  0.3335E+00  0.3335E+00
      6.900  0.2310E-01  0.2310E-01  0.3358E+00  0.3358E+00
      7.003  0.2440E-01  0.2440E-01  0.3383E+00  0.3383E+00
      7.106  0.2824E-01  0.2824E-01  0.3412E+00  0.3412E+00
      7.208  0.3065E-01  0.3065E-01  0.3444E+00  0.3444E+00
      7.311  0.3856E-01  0.3857E-01  0.3484E+00  0.3484E+00
      7.414  0.4231E-01  0.4231E-01  0.3527E+00  0.3527E+00
      7.516  0.3193E-01  0.3193E-01  0.3560E+00  0.3560E+00
      7.619  0.2816E-01  0.2816E-01  0.3589E+00  0.3589E+00
      7.722  0.3056E-01  0.3056E-01  0.3620E+00  0.3620E+00
      7.824  0.3341E-01  0.3341E-01  0.3654E+00  0.3654E+00
      7.927  0.3261E-01  0.3260E-01  0.3688E+00  0.3688E+00
      8.030  0.2965E-01  0.2965E-01  0.3718E+00  0.3718E+00
      8.132  0.1964E-01  0.1963E-01  0.3738E+00  0.3738E+00
      8.235  0.9181E-02  0.9180E-02  0.3748E+00  0.3748E+00
      8.338  0.1892E-02  0.1892E-02  0.3750E+00  0.3750E+00
      8.440  0.1490E-03  0.1490E-03  0.3750E+00  0.3750E+00
      8.543  0.4933E-05  0.4935E-05  0.3750E+00  0.3750E+00
      8.646  0.3430E-07  0.3432E-07  0.3750E+00  0.3750E+00
      8.749  0.3401E-10  0.3404E-10  0.3750E+00  0.3750E+00
      8.851  0.4392E-14  0.4397E-14  0.3750E+00  0.3750E+00
      8.954  0.5866E-19  0.5866E-19  0.3750E+00  0.3750E+00
      9.057  0.0000E+00  0.0000E+00  0.3750E+00  0.3750E+00
      9.159  0.0000E+00  0.0000E+00  0.3750E+00  0.3750E+00
      9.262  0.0000E+00  0.0000E+00  0.3750E+00  0.3750E+00
      9.365  0.0000E+00  0.0000E+00  0.3750E+00  0.3750E+00
      9.467  0.0000E+00  0.0000E+00  0.3750E+00  0.3750E+00
      9.570  0.0000E+00  0.0000E+00  0.3750E+00  0.3750E+00
      9.673  0.0000E+00  0.0000E+00  0.3750E+00  0.3750E+00
