  15  15   0   4
  0.2020342E+02  0.4830000E-09  0.4830000E-09  0.1500000E-08  0.5000000E-15
  1.000000000000000E-004
  CAR 
 Lattice                                 
     10.39020858    -21.74511633  301     -0.28524284      1.00000000
    -21.745  0.0000E+00  0.0000E+00  0.0000E+00  0.0000E+00
    -21.638  0.0000E+00  0.0000E+00  0.0000E+00  0.0000E+00
    -21.531  0.0000E+00  0.0000E+00  0.0000E+00  0.0000E+00
    -21.424  0.0000E+00  0.0000E+00  0.0000E+00  0.0000E+00
    -21.317  0.0000E+00  0.0000E+00  0.0000E+00  0.0000E+00
    -21.210  0.0000E+00  0.0000E+00  0.0000E+00  0.0000E+00
    -21.102  0.0000E+00  0.0000E+00  0.0000E+00  0.0000E+00
    -20.995  0.0000E+00  0.0000E+00  0.0000E+00  0.0000E+00
    -20.888  0.0000E+00  0.0000E+00  0.0000E+00  0.0000E+00
    -20.781  0.5847E-15  0.5848E-15  0.6263E-16  0.6264E-16
    -20.674  0.1066E-10  0.1066E-10  0.1142E-11  0.1142E-11
    -20.567  0.2301E-07  0.2301E-07  0.2466E-08  0.2466E-08
    -20.460  0.6477E-05  0.6477E-05  0.6963E-06  0.6963E-06
    -20.353  0.2662E-03  0.2662E-03  0.2921E-04  0.2921E-04
    -20.245  0.1959E-02  0.1959E-02  0.2390E-03  0.2390E-03
    -20.138  0.4129E-02  0.4129E-02  0.6813E-03  0.6813E-03
    -20.031  0.4486E-02  0.4486E-02  0.1162E-02  0.1162E-02
    -19.924  0.4914E-02  0.4914E-02  0.1688E-02  0.1688E-02
    -19.817  0.4117E-02  0.4117E-02  0.2129E-02  0.2129E-02
    -19.710  0.5349E-02  0.5349E-02  0.2702E-02  0.2702E-02
    -19.603  0.4213E-02  0.4213E-02  0.3153E-02  0.3153E-02
    -19.496  0.4180E-02  0.4180E-02  0.3601E-02  0.3601E-02
    -19.389  0.5989E-02  0.5989E-02  0.4243E-02  0.4243E-02
    -19.281  0.3840E-02  0.3840E-02  0.4654E-02  0.4654E-02
    -19.174  0.3780E-02  0.3780E-02  0.5059E-02  0.5059E-02
    -19.067  0.6066E-02  0.6066E-02  0.5709E-02  0.5709E-02
    -18.960  0.5235E-02  0.5235E-02  0.6269E-02  0.6269E-02
    -18.853  0.2992E-02  0.2992E-02  0.6590E-02  0.6590E-02
    -18.746  0.4182E-02  0.4182E-02  0.7038E-02  0.7038E-02
    -18.639  0.6906E-02  0.6906E-02  0.7778E-02  0.7778E-02
    -18.532  0.4620E-02  0.4620E-02  0.8272E-02  0.8272E-02
    -18.424  0.3807E-02  0.3807E-02  0.8680E-02  0.8680E-02
    -18.317  0.2891E-02  0.2891E-02  0.8990E-02  0.8990E-02
    -18.210  0.6402E-02  0.6402E-02  0.9676E-02  0.9676E-02
    -18.103  0.6720E-02  0.6720E-02  0.1040E-01  0.1040E-01
    -17.996  0.3651E-02  0.3651E-02  0.1079E-01  0.1079E-01
    -17.889  0.3174E-02  0.3174E-02  0.1113E-01  0.1113E-01
    -17.782  0.4036E-02  0.4036E-02  0.1156E-01  0.1156E-01
    -17.675  0.5987E-02  0.5987E-02  0.1220E-01  0.1220E-01
    -17.568  0.6842E-02  0.6842E-02  0.1293E-01  0.1293E-01
    -17.460  0.5543E-02  0.5543E-02  0.1353E-01  0.1353E-01
    -17.353  0.6406E-02  0.6406E-02  0.1421E-01  0.1421E-01
    -17.246  0.9747E-02  0.9747E-02  0.1526E-01  0.1526E-01
    -17.139  0.1428E-01  0.1428E-01  0.1679E-01  0.1679E-01
    -17.032  0.1551E-01  0.1551E-01  0.1845E-01  0.1845E-01
    -16.925  0.1672E-01  0.1672E-01  0.2024E-01  0.2024E-01
    -16.818  0.2043E-01  0.2043E-01  0.2243E-01  0.2243E-01
    -16.711  0.1727E-01  0.1727E-01  0.2428E-01  0.2428E-01
    -16.603  0.5484E-02  0.5484E-02  0.2487E-01  0.2487E-01
    -16.496  0.6616E-02  0.6616E-02  0.2557E-01  0.2557E-01
    -16.389  0.8513E-02  0.8513E-02  0.2649E-01  0.2649E-01
    -16.282  0.4672E-02  0.4672E-02  0.2699E-01  0.2699E-01
    -16.175  0.4189E-02  0.4189E-02  0.2744E-01  0.2744E-01
    -16.068  0.3769E-02  0.3769E-02  0.2784E-01  0.2784E-01
    -15.961  0.3944E-02  0.3944E-02  0.2826E-01  0.2826E-01
    -15.854  0.3329E-02  0.3329E-02  0.2862E-01  0.2862E-01
    -15.747  0.7458E-02  0.7458E-02  0.2942E-01  0.2942E-01
    -15.639  0.8504E-02  0.8504E-02  0.3033E-01  0.3033E-01
    -15.532  0.4196E-02  0.4196E-02  0.3078E-01  0.3078E-01
    -15.425  0.3832E-02  0.3832E-02  0.3119E-01  0.3119E-01
    -15.318  0.3275E-02  0.3275E-02  0.3154E-01  0.3154E-01
    -15.211  0.4355E-02  0.4355E-02  0.3201E-01  0.3201E-01
    -15.104  0.5869E-02  0.5869E-02  0.3263E-01  0.3263E-01
    -14.997  0.9873E-02  0.9873E-02  0.3369E-01  0.3369E-01
    -14.890  0.1640E-01  0.1640E-01  0.3545E-01  0.3545E-01
    -14.782  0.1830E-01  0.1830E-01  0.3741E-01  0.3741E-01
    -14.675  0.1743E-01  0.1743E-01  0.3928E-01  0.3928E-01
    -14.568  0.1229E-01  0.1229E-01  0.4059E-01  0.4059E-01
    -14.461  0.7422E-02  0.7422E-02  0.4139E-01  0.4139E-01
    -14.354  0.1308E-01  0.1308E-01  0.4279E-01  0.4279E-01
    -14.247  0.1612E-01  0.1612E-01  0.4452E-01  0.4452E-01
    -14.140  0.1189E-01  0.1189E-01  0.4579E-01  0.4579E-01
    -14.033  0.1089E-01  0.1089E-01  0.4696E-01  0.4696E-01
    -13.926  0.1169E-01  0.1169E-01  0.4821E-01  0.4821E-01
    -13.818  0.1886E-01  0.1886E-01  0.5023E-01  0.5023E-01
    -13.711  0.1999E-01  0.1999E-01  0.5237E-01  0.5237E-01
    -13.604  0.1841E-01  0.1841E-01  0.5434E-01  0.5434E-01
    -13.497  0.1241E-01  0.1241E-01  0.5567E-01  0.5567E-01
    -13.390  0.7257E-02  0.7257E-02  0.5645E-01  0.5645E-01
    -13.283  0.3259E-02  0.3259E-02  0.5680E-01  0.5680E-01
    -13.176  0.3758E-02  0.3758E-02  0.5720E-01  0.5720E-01
    -13.069  0.6394E-02  0.6394E-02  0.5788E-01  0.5788E-01
    -12.961  0.7153E-02  0.7153E-02  0.5865E-01  0.5865E-01
    -12.854  0.4832E-02  0.4832E-02  0.5917E-01  0.5917E-01
    -12.747  0.6211E-02  0.6211E-02  0.5983E-01  0.5983E-01
    -12.640  0.7012E-02  0.7012E-02  0.6058E-01  0.6058E-01
    -12.533  0.5819E-02  0.5819E-02  0.6121E-01  0.6121E-01
    -12.426  0.5422E-02  0.5422E-02  0.6179E-01  0.6179E-01
    -12.319  0.3592E-02  0.3592E-02  0.6217E-01  0.6217E-01
    -12.212  0.5530E-02  0.5530E-02  0.6277E-01  0.6277E-01
    -12.105  0.8208E-02  0.8208E-02  0.6365E-01  0.6365E-01
    -11.997  0.3982E-02  0.3982E-02  0.6407E-01  0.6407E-01
    -11.890  0.3229E-02  0.3229E-02  0.6442E-01  0.6442E-01
    -11.783  0.3383E-02  0.3383E-02  0.6478E-01  0.6478E-01
    -11.676  0.5121E-02  0.5121E-02  0.6533E-01  0.6533E-01
    -11.569  0.7009E-02  0.7009E-02  0.6608E-01  0.6608E-01
    -11.462  0.4574E-02  0.4574E-02  0.6657E-01  0.6657E-01
    -11.355  0.1786E-02  0.1786E-02  0.6676E-01  0.6676E-01
    -11.248  0.4246E-02  0.4246E-02  0.6722E-01  0.6722E-01
    -11.140  0.5820E-02  0.5820E-02  0.6784E-01  0.6784E-01
    -11.033  0.5548E-02  0.5548E-02  0.6843E-01  0.6843E-01
    -10.926  0.7431E-02  0.7431E-02  0.6923E-01  0.6923E-01
    -10.819  0.6425E-02  0.6425E-02  0.6992E-01  0.6992E-01
    -10.712  0.2628E-02  0.2628E-02  0.7020E-01  0.7020E-01
    -10.605  0.7404E-02  0.7404E-02  0.7099E-01  0.7099E-01
    -10.498  0.1204E-01  0.1204E-01  0.7228E-01  0.7228E-01
    -10.391  0.1524E-01  0.1524E-01  0.7391E-01  0.7391E-01
    -10.284  0.1578E-01  0.1578E-01  0.7560E-01  0.7560E-01
    -10.176  0.1448E-01  0.1448E-01  0.7715E-01  0.7715E-01
    -10.069  0.1712E-01  0.1712E-01  0.7899E-01  0.7899E-01
     -9.962  0.1855E-01  0.1855E-01  0.8097E-01  0.8097E-01
     -9.855  0.1019E-01  0.1019E-01  0.8207E-01  0.8207E-01
     -9.748  0.6970E-02  0.6970E-02  0.8281E-01  0.8281E-01
     -9.641  0.1356E-01  0.1356E-01  0.8427E-01  0.8427E-01
     -9.534  0.1490E-01  0.1490E-01  0.8586E-01  0.8586E-01
     -9.427  0.1608E-01  0.1608E-01  0.8758E-01  0.8758E-01
     -9.319  0.1612E-01  0.1612E-01  0.8931E-01  0.8931E-01
     -9.212  0.1447E-01  0.1447E-01  0.9086E-01  0.9086E-01
     -9.105  0.1058E-01  0.1058E-01  0.9199E-01  0.9199E-01
     -8.998  0.6640E-02  0.6640E-02  0.9271E-01  0.9271E-01
     -8.891  0.1468E-01  0.1468E-01  0.9428E-01  0.9428E-01
     -8.784  0.2154E-01  0.2154E-01  0.9659E-01  0.9659E-01
     -8.677  0.1606E-01  0.1606E-01  0.9831E-01  0.9831E-01
     -8.570  0.7837E-02  0.7837E-02  0.9915E-01  0.9915E-01
     -8.463  0.9767E-02  0.9767E-02  0.1002E+00  0.1002E+00
     -8.355  0.2025E-01  0.2025E-01  0.1024E+00  0.1024E+00
     -8.248  0.2053E-01  0.2053E-01  0.1046E+00  0.1046E+00
     -8.141  0.1137E-01  0.1137E-01  0.1058E+00  0.1058E+00
     -8.034  0.1518E-01  0.1518E-01  0.1074E+00  0.1074E+00
     -7.927  0.2416E-01  0.2416E-01  0.1100E+00  0.1100E+00
     -7.820  0.2406E-01  0.2406E-01  0.1126E+00  0.1126E+00
     -7.713  0.2189E-01  0.2189E-01  0.1149E+00  0.1149E+00
     -7.606  0.1089E-01  0.1089E-01  0.1161E+00  0.1161E+00
     -7.498  0.7922E-02  0.7922E-02  0.1169E+00  0.1169E+00
     -7.391  0.1824E-01  0.1824E-01  0.1189E+00  0.1189E+00
     -7.284  0.1765E-01  0.1765E-01  0.1208E+00  0.1208E+00
     -7.177  0.1176E-01  0.1176E-01  0.1220E+00  0.1220E+00
     -7.070  0.1196E-01  0.1196E-01  0.1233E+00  0.1233E+00
     -6.963  0.1690E-01  0.1690E-01  0.1251E+00  0.1251E+00
     -6.856  0.1740E-01  0.1740E-01  0.1270E+00  0.1270E+00
     -6.749  0.1844E-01  0.1844E-01  0.1290E+00  0.1290E+00
     -6.642  0.2195E-01  0.2195E-01  0.1313E+00  0.1313E+00
     -6.534  0.1989E-01  0.1989E-01  0.1334E+00  0.1334E+00
     -6.427  0.2018E-01  0.2018E-01  0.1356E+00  0.1356E+00
     -6.320  0.1678E-01  0.1678E-01  0.1374E+00  0.1374E+00
     -6.213  0.1709E-01  0.1709E-01  0.1392E+00  0.1392E+00
     -6.106  0.2538E-01  0.2538E-01  0.1420E+00  0.1420E+00
     -5.999  0.2400E-01  0.2400E-01  0.1445E+00  0.1445E+00
     -5.892  0.3059E-01  0.3059E-01  0.1478E+00  0.1478E+00
     -5.785  0.2763E-01  0.2763E-01  0.1508E+00  0.1508E+00
     -5.677  0.1677E-01  0.1677E-01  0.1526E+00  0.1526E+00
     -5.570  0.1920E-01  0.1920E-01  0.1546E+00  0.1546E+00
     -5.463  0.3179E-01  0.3179E-01  0.1580E+00  0.1580E+00
     -5.356  0.3425E-01  0.3425E-01  0.1617E+00  0.1617E+00
     -5.249  0.2493E-01  0.2493E-01  0.1644E+00  0.1644E+00
     -5.142  0.1762E-01  0.1762E-01  0.1662E+00  0.1662E+00
     -5.035  0.1029E-01  0.1029E-01  0.1673E+00  0.1673E+00
     -4.928  0.8840E-02  0.8840E-02  0.1683E+00  0.1683E+00
     -4.821  0.1434E-01  0.1434E-01  0.1698E+00  0.1698E+00
     -4.713  0.1251E-01  0.1251E-01  0.1712E+00  0.1712E+00
     -4.606  0.8760E-02  0.8760E-02  0.1721E+00  0.1721E+00
     -4.499  0.8371E-02  0.8371E-02  0.1730E+00  0.1730E+00
     -4.392  0.1364E-01  0.1364E-01  0.1745E+00  0.1745E+00
     -4.285  0.2252E-01  0.2252E-01  0.1769E+00  0.1769E+00
     -4.178  0.1863E-01  0.1863E-01  0.1789E+00  0.1789E+00
     -4.071  0.1911E-01  0.1911E-01  0.1809E+00  0.1809E+00
     -3.964  0.2207E-01  0.2207E-01  0.1833E+00  0.1833E+00
     -3.856  0.2508E-01  0.2508E-01  0.1860E+00  0.1860E+00
     -3.749  0.1875E-01  0.1875E-01  0.1880E+00  0.1880E+00
     -3.642  0.1773E-01  0.1773E-01  0.1899E+00  0.1899E+00
     -3.535  0.1988E-01  0.1988E-01  0.1920E+00  0.1920E+00
     -3.428  0.1611E-01  0.1611E-01  0.1937E+00  0.1937E+00
     -3.321  0.1377E-01  0.1377E-01  0.1952E+00  0.1952E+00
     -3.214  0.1349E-01  0.1349E-01  0.1967E+00  0.1967E+00
     -3.107  0.1752E-01  0.1752E-01  0.1985E+00  0.1985E+00
     -3.000  0.1800E-01  0.1800E-01  0.2005E+00  0.2005E+00
     -2.892  0.1196E-01  0.1196E-01  0.2017E+00  0.2017E+00
     -2.785  0.1213E-01  0.1213E-01  0.2030E+00  0.2030E+00
     -2.678  0.7453E-02  0.7453E-02  0.2038E+00  0.2038E+00
     -2.571  0.9908E-02  0.9908E-02  0.2049E+00  0.2049E+00
     -2.464  0.1925E-01  0.1925E-01  0.2070E+00  0.2070E+00
     -2.357  0.1471E-01  0.1471E-01  0.2085E+00  0.2085E+00
     -2.250  0.3995E-02  0.3995E-02  0.2090E+00  0.2090E+00
     -2.143  0.4659E-02  0.4659E-02  0.2095E+00  0.2095E+00
     -2.035  0.1037E-01  0.1037E-01  0.2106E+00  0.2106E+00
     -1.928  0.9997E-02  0.9997E-02  0.2116E+00  0.2116E+00
     -1.821  0.1097E-01  0.1097E-01  0.2128E+00  0.2128E+00
     -1.714  0.1138E-01  0.1138E-01  0.2140E+00  0.2140E+00
     -1.607  0.9684E-02  0.9684E-02  0.2151E+00  0.2151E+00
     -1.500  0.7257E-02  0.7257E-02  0.2159E+00  0.2159E+00
     -1.393  0.4463E-02  0.4463E-02  0.2163E+00  0.2163E+00
     -1.286  0.3916E-02  0.3916E-02  0.2167E+00  0.2167E+00
     -1.179  0.4094E-02  0.4094E-02  0.2172E+00  0.2172E+00
     -1.071  0.3657E-02  0.3657E-02  0.2176E+00  0.2176E+00
     -0.964  0.5783E-02  0.5783E-02  0.2182E+00  0.2182E+00
     -0.857  0.3317E-02  0.3317E-02  0.2186E+00  0.2186E+00
     -0.750  0.7201E-03  0.7201E-03  0.2186E+00  0.2186E+00
     -0.643  0.8514E-04  0.8514E-04  0.2186E+00  0.2186E+00
     -0.536  0.2325E-05  0.2325E-05  0.2186E+00  0.2186E+00
     -0.429  0.4364E-04  0.4364E-04  0.2186E+00  0.2186E+00
     -0.322  0.5730E-03  0.5730E-03  0.2187E+00  0.2187E+00
     -0.214  0.1086E-02  0.1086E-02  0.2188E+00  0.2188E+00
     -0.107  0.3108E-03  0.3108E-03  0.2189E+00  0.2189E+00
     -0.000  0.1238E-04  0.1238E-04  0.2189E+00  0.2189E+00
      0.107  0.1304E-06  0.1304E-06  0.2189E+00  0.2189E+00
      0.214  0.1977E-04  0.1977E-04  0.2189E+00  0.2189E+00
      0.321  0.6736E-03  0.6736E-03  0.2189E+00  0.2189E+00
      0.428  0.3085E-02  0.3085E-02  0.2193E+00  0.2193E+00
      0.535  0.2133E-02  0.2133E-02  0.2195E+00  0.2195E+00
      0.642  0.9954E-03  0.9954E-03  0.2196E+00  0.2196E+00
      0.750  0.3216E-02  0.3216E-02  0.2199E+00  0.2199E+00
      0.857  0.5176E-02  0.5176E-02  0.2205E+00  0.2205E+00
      0.964  0.8032E-02  0.8032E-02  0.2214E+00  0.2214E+00
      1.071  0.2314E-01  0.2314E-01  0.2238E+00  0.2238E+00
      1.178  0.2331E-01  0.2331E-01  0.2263E+00  0.2263E+00
      1.285  0.6234E-02  0.6234E-02  0.2270E+00  0.2270E+00
      1.392  0.3654E-02  0.3654E-02  0.2274E+00  0.2274E+00
      1.499  0.7391E-02  0.7391E-02  0.2282E+00  0.2282E+00
      1.607  0.1188E-01  0.1188E-01  0.2295E+00  0.2295E+00
      1.714  0.1809E-01  0.1809E-01  0.2314E+00  0.2314E+00
      1.821  0.1674E-01  0.1674E-01  0.2332E+00  0.2332E+00
      1.928  0.7613E-02  0.7613E-02  0.2340E+00  0.2340E+00
      2.035  0.6088E-02  0.6088E-02  0.2347E+00  0.2347E+00
      2.142  0.9979E-02  0.9978E-02  0.2357E+00  0.2357E+00
      2.249  0.7624E-02  0.7624E-02  0.2365E+00  0.2365E+00
      2.356  0.7652E-02  0.7652E-02  0.2374E+00  0.2374E+00
      2.463  0.7904E-02  0.7904E-02  0.2382E+00  0.2382E+00
      2.571  0.8860E-02  0.8860E-02  0.2392E+00  0.2392E+00
      2.678  0.1169E-01  0.1169E-01  0.2404E+00  0.2404E+00
      2.785  0.7764E-02  0.7764E-02  0.2412E+00  0.2412E+00
      2.892  0.4915E-02  0.4915E-02  0.2418E+00  0.2418E+00
      2.999  0.8454E-02  0.8453E-02  0.2427E+00  0.2427E+00
      3.106  0.1221E-01  0.1221E-01  0.2440E+00  0.2440E+00
      3.213  0.9623E-02  0.9623E-02  0.2450E+00  0.2450E+00
      3.320  0.1013E-01  0.1013E-01  0.2461E+00  0.2461E+00
      3.428  0.9736E-02  0.9736E-02  0.2471E+00  0.2471E+00
      3.535  0.9444E-02  0.9444E-02  0.2482E+00  0.2482E+00
      3.642  0.1560E-01  0.1560E-01  0.2498E+00  0.2498E+00
      3.749  0.1976E-01  0.1976E-01  0.2519E+00  0.2519E+00
      3.856  0.2269E-01  0.2269E-01  0.2544E+00  0.2544E+00
      3.963  0.2185E-01  0.2185E-01  0.2567E+00  0.2567E+00
      4.070  0.2207E-01  0.2207E-01  0.2591E+00  0.2591E+00
      4.177  0.2302E-01  0.2302E-01  0.2615E+00  0.2615E+00
      4.284  0.2603E-01  0.2603E-01  0.2643E+00  0.2643E+00
      4.392  0.2547E-01  0.2547E-01  0.2671E+00  0.2671E+00
      4.499  0.2448E-01  0.2448E-01  0.2697E+00  0.2697E+00
      4.606  0.2398E-01  0.2398E-01  0.2722E+00  0.2722E+00
      4.713  0.2226E-01  0.2225E-01  0.2746E+00  0.2746E+00
      4.820  0.2529E-01  0.2528E-01  0.2773E+00  0.2773E+00
      4.927  0.2443E-01  0.2443E-01  0.2800E+00  0.2800E+00
      5.034  0.2294E-01  0.2294E-01  0.2824E+00  0.2824E+00
      5.141  0.2569E-01  0.2569E-01  0.2852E+00  0.2852E+00
      5.249  0.2561E-01  0.2561E-01  0.2879E+00  0.2879E+00
      5.356  0.2272E-01  0.2272E-01  0.2903E+00  0.2903E+00
      5.463  0.2045E-01  0.2046E-01  0.2925E+00  0.2925E+00
      5.570  0.2068E-01  0.2068E-01  0.2948E+00  0.2948E+00
      5.677  0.2846E-01  0.2845E-01  0.2978E+00  0.2978E+00
      5.784  0.2723E-01  0.2723E-01  0.3007E+00  0.3007E+00
      5.891  0.2147E-01  0.2147E-01  0.3030E+00  0.3030E+00
      5.998  0.1765E-01  0.1765E-01  0.3049E+00  0.3049E+00
      6.105  0.2055E-01  0.2055E-01  0.3071E+00  0.3071E+00
      6.213  0.1633E-01  0.1633E-01  0.3089E+00  0.3089E+00
      6.320  0.1775E-01  0.1775E-01  0.3108E+00  0.3108E+00
      6.427  0.2275E-01  0.2275E-01  0.3132E+00  0.3132E+00
      6.534  0.2422E-01  0.2422E-01  0.3158E+00  0.3158E+00
      6.641  0.2381E-01  0.2381E-01  0.3183E+00  0.3183E+00
      6.748  0.2544E-01  0.2543E-01  0.3211E+00  0.3211E+00
      6.855  0.3321E-01  0.3320E-01  0.3246E+00  0.3246E+00
      6.962  0.2888E-01  0.2888E-01  0.3277E+00  0.3277E+00
      7.070  0.2614E-01  0.2614E-01  0.3305E+00  0.3305E+00
      7.177  0.2650E-01  0.2651E-01  0.3334E+00  0.3334E+00
      7.284  0.2129E-01  0.2130E-01  0.3356E+00  0.3356E+00
      7.391  0.1673E-01  0.1673E-01  0.3374E+00  0.3374E+00
      7.498  0.2301E-01  0.2300E-01  0.3399E+00  0.3399E+00
      7.605  0.2247E-01  0.2248E-01  0.3423E+00  0.3423E+00
      7.712  0.2121E-01  0.2121E-01  0.3446E+00  0.3446E+00
      7.819  0.2696E-01  0.2696E-01  0.3475E+00  0.3475E+00
      7.927  0.3115E-01  0.3115E-01  0.3508E+00  0.3508E+00
      8.034  0.3260E-01  0.3259E-01  0.3543E+00  0.3543E+00
      8.141  0.3180E-01  0.3180E-01  0.3577E+00  0.3577E+00
      8.248  0.3083E-01  0.3083E-01  0.3610E+00  0.3610E+00
      8.355  0.2835E-01  0.2834E-01  0.3640E+00  0.3640E+00
      8.462  0.3572E-01  0.3571E-01  0.3679E+00  0.3679E+00
      8.569  0.3298E-01  0.3300E-01  0.3714E+00  0.3714E+00
      8.676  0.1759E-01  0.1759E-01  0.3733E+00  0.3733E+00
      8.783  0.8691E-02  0.8692E-02  0.3742E+00  0.3742E+00
      8.891  0.3807E-02  0.3807E-02  0.3746E+00  0.3746E+00
      8.998  0.2952E-02  0.2952E-02  0.3749E+00  0.3749E+00
      9.105  0.6304E-03  0.6306E-03  0.3750E+00  0.3750E+00
      9.212  0.2197E-04  0.2198E-04  0.3750E+00  0.3750E+00
      9.319  0.1021E-06  0.1021E-06  0.3750E+00  0.3750E+00
      9.426  0.5541E-10  0.5547E-10  0.3750E+00  0.3750E+00
      9.533  0.3285E-14  0.3289E-14  0.3750E+00  0.3750E+00
      9.640  0.0000E+00  0.0000E+00  0.3750E+00  0.3750E+00
      9.748  0.0000E+00  0.0000E+00  0.3750E+00  0.3750E+00
      9.855  0.0000E+00  0.0000E+00  0.3750E+00  0.3750E+00
      9.962  0.0000E+00  0.0000E+00  0.3750E+00  0.3750E+00
     10.069  0.0000E+00  0.0000E+00  0.3750E+00  0.3750E+00
     10.176  0.0000E+00  0.0000E+00  0.3750E+00  0.3750E+00
     10.283  0.0000E+00  0.0000E+00  0.3750E+00  0.3750E+00
     10.390  0.0000E+00  0.0000E+00  0.3750E+00  0.3750E+00
