Lattice                                 
           1
     4.182903    2.415000    0.000000
    -4.182903    2.415000    0.000000
     0.000000    0.000000   15.000000
   B    C 
     4    11
Direct configuration=     1
   0.00415361  0.00267210  0.12034134
   0.35695335  0.00285503  0.09748893
   0.00423858  0.35550699  0.09749256
   0.65142295  0.65006557  0.09747688
   0.32808646  0.32671938  0.10030508
   0.68027775  0.00278085  0.10027562
   0.00416530  0.67883808  0.10026559
   0.99999933  0.49999967  0.33373333
   0.16666633  0.33333267  0.33373333
   0.99999933  0.99999967  0.33373333
   0.16666633  0.83333267  0.33373333
   0.49999933  0.49999967  0.33373333
   0.66666633  0.33333267  0.33373333
   0.49999933  0.99999967  0.33373333
   0.66666633  0.83333267  0.33373333
Direct configuration=     2
   0.00418155  0.00275565  0.11933435
   0.35595346  0.00302884  0.09780319
   0.00395962  0.35428593  0.09780534
   0.65263706  0.65102041  0.09779454
   0.32502370  0.32331431  0.10029380
   0.68364356  0.00310332  0.10027202
   0.00388940  0.68192349  0.10026459
   0.00012715  0.49997820  0.33374157
   0.16687677  0.33394800  0.33379981
   0.99999905  0.99999352  0.33363121
   0.16706362  0.83312079  0.33380268
   0.50003704  0.50016134  0.33374444
   0.66666616  0.33333785  0.33368451
   0.49985283  0.99987103  0.33374111
   0.66604968  0.83292466  0.33379951
Direct configuration=     3
   0.00416621  0.00270979  0.11988708
   0.35650229  0.00293344  0.09763069
   0.00411274  0.35495616  0.09763366
   0.65197064  0.65049630  0.09762018
   0.32670484  0.32518333  0.10029999
   0.68179608  0.00292632  0.10027399
   0.00404084  0.68022992  0.10026514
   0.00005699  0.49998998  0.33373705
   0.16676126  0.33361025  0.33376332
   0.99999921  0.99999689  0.33368727
   0.16684555  0.83323709  0.33376462
   0.50001634  0.50007260  0.33373834
   0.66666626  0.33333500  0.33371131
   0.49993325  0.99994164  0.33373684
   0.66638816  0.83314861  0.33376319
Direct configuration=     4
   0.00418077  0.00276762  0.11905480
   0.35692062  0.00304403  0.09791198
   0.00391733  0.35523702  0.09791344
   0.65170525  0.65004686  0.09790478
   0.32677931  0.32504211  0.10026188
   0.68191511  0.00311609  0.10024342
   0.00386449  0.68017464  0.10023661
  -0.00008407  0.50000739  0.33375562
   0.16662415  0.33315927  0.33380738
   1.00000000  0.00000280  0.33362521
   0.16654430  0.83338164  0.33381088
   0.49998824  0.49990665  0.33375910
   0.66666938  0.33333221  0.33366565
   0.50008923  0.00008438  0.33375499
   0.66684656  0.83346462  0.33380693
Direct configuration=     5
   0.00419765  0.00283469  0.11808969
   0.35740570  0.00317228  0.09823816
   0.00369073  0.35556270  0.09823787
   0.65139751  0.64952569  0.09823481
   0.32686566  0.32487834  0.10021769
   0.68205314  0.00333614  0.10020798
   0.00366000  0.68011054  0.10020352
  -0.00024764  0.50002757  0.33377715
   0.16646515  0.33263632  0.33385847
   0.00000091  0.00000965  0.33355325
   0.16619497  0.83354927  0.33386453
   0.49995565  0.49971423  0.33378317
   0.66667301  0.33332897  0.33361271
   0.50027011  0.00024991  0.33377604
   0.66737812  0.83383105  0.33385765
Direct configuration=     6
   0.00420015  0.00284554  0.11786607
   0.35750989  0.00319023  0.09830492
   0.00365633  0.35564465  0.09830428
   0.65132046  0.64941529  0.09830232
   0.32692624  0.32490519  0.10021611
   0.68202226  0.00336343  0.10020826
   0.00363207  0.68005416  0.10020427
  -0.00021602  0.50002568  0.33378270
   0.16647941  0.33270403  0.33386682
   0.00000218  0.00000922  0.33354373
   0.16624597  0.83353406  0.33387331
   0.49996087  0.49974879  0.33378914
   0.66667258  0.33332974  0.33360332
   0.50023868  0.00021950  0.33378149
   0.66730958  0.83377783  0.33386593
Direct configuration=     7
   0.00420764  0.00287808  0.11719521
   0.35782248  0.00324408  0.09850519
   0.00355314  0.35589052  0.09850350
   0.65108932  0.64908408  0.09850486
   0.32710799  0.32498573  0.10021134
   0.68192965  0.00344531  0.10020912
   0.00354828  0.67988503  0.10020651
  -0.00012117  0.50002000  0.33379938
   0.16652217  0.33290715  0.33389188
   0.00000600  0.00000794  0.33351515
   0.16639899  0.83348842  0.33389966
   0.49997652  0.49985249  0.33380708
   0.66667131  0.33333207  0.33357514
   0.50014439  0.00012828  0.33379786
   0.66710395  0.83361816  0.33389077
Direct configuration=     8
   0.00422262  0.00294317  0.11585349
   0.35844766  0.00335177  0.09890574
   0.00334676  0.35638224  0.09890195
   0.65062703  0.64842165  0.09890995
   0.32747149  0.32514683  0.10020181
   0.68174442  0.00360905  0.10021084
   0.00338071  0.67954676  0.10021100
   0.00006855  0.50000865  0.33383273
   0.16660771  0.33331340  0.33394201
   0.00001362  0.00000537  0.33345801
   0.16670503  0.83339714  0.33395236
   0.50000784  0.50005989  0.33384294
   0.66666876  0.33333673  0.33351878
   0.49995581 -0.00005416  0.33383061
   0.66669269  0.83329883  0.33394046
Direct configuration=     9
   0.00425257  0.00307335  0.11317005
   0.35969801  0.00356717  0.09970683
   0.00293400  0.35736570  0.09969886
   0.64970245  0.64709681  0.09972011
   0.32819848  0.32546902  0.10018275
   0.68137395  0.00393653  0.10021428
   0.00304555  0.67887022  0.10021999
   0.00044798  0.49998595  0.33389942
   0.16677877  0.33412590  0.33404226
   0.00002886  0.00000023  0.33334372
   0.16731711  0.83321459  0.33405776
   0.50007046  0.50047467  0.33391467
   0.66666366  0.33334605  0.33340606
   0.49957864 -0.00041904  0.33389609
   0.66587016  0.83266018  0.33403982
Direct configuration=    10
   0.00423253  0.00298623  0.11496596
   0.35886120  0.00342301  0.09917069
   0.00321025  0.35670751  0.09916552
   0.65032123  0.64798347  0.09917790
   0.32771193  0.32525339  0.10019551
   0.68162189  0.00371736  0.10021198
   0.00326986  0.67932300  0.10021398
   0.00019404  0.50000114  0.33385479
   0.16666429  0.33358213  0.33397517
   0.00001866  0.00000367  0.33342021
   0.16690747  0.83333677  0.33398722
   0.50002855  0.50019707  0.33386666
   0.66666707  0.33333981  0.33348150
   0.49983107 -0.00017484  0.33385226
   0.66642064  0.83308760  0.33397332
Direct configuration=    11
   0.00422979  0.00297793  0.11446825
   0.35884472  0.00338867  0.09925123
   0.00325477  0.35673462  0.09924587
   0.65030104  0.64799959  0.09925889
   0.32774377  0.32536521  0.10026023
   0.68151338  0.00363151  0.10027925
   0.00333453  0.67929211  0.10028165
   0.00012124  0.50001162  0.33386623
   0.16672258  0.33359237  0.33397109
   0.00001138  0.00000313  0.33344867
   0.16687447  0.83328833  0.33398288
   0.50001137  0.50011793  0.33387775
   0.66667373  0.33334069  0.33348788
   0.49990360 -0.00010796  0.33386359
   0.66642030  0.83313158  0.33396920
Direct configuration=    12
   0.00422160  0.00295304  0.11297512
   0.35879528  0.00328563  0.09949286
   0.00338833  0.35681596  0.09948693
   0.65024047  0.64804793  0.09950185
   0.32783929  0.32570068  0.10045441
   0.68118787  0.00337397  0.10048107
   0.00352853  0.67919945  0.10048466
  -0.00009718  0.50004303  0.33390057
   0.16689746  0.33362310  0.33395886
  -0.00001044  0.00000149  0.33353407
   0.16677545  0.83314304  0.33396985
   0.49995982  0.49988051  0.33391103
   0.66669371  0.33334332  0.33350700
   0.50012122  0.00009269  0.33389755
   0.66641926  0.83326350  0.33395685
Direct configuration=    13
   0.00420520  0.00290327  0.10998885
   0.35869641  0.00307956  0.09997611
   0.00365545  0.35697862  0.09996903
   0.65011933  0.64814462  0.09998776
   0.32803033  0.32637162  0.10084277
   0.68053685  0.00285888  0.10088469
   0.00391655  0.67901412  0.10089070
  -0.00053402  0.50010587  0.33396924
   0.16724721  0.33368457  0.33393440
  -0.00005408 -0.00000179  0.33370487
   0.16657743  0.83285244  0.33394380
   0.49985672  0.49940565  0.33397757
   0.66673367  0.33334859  0.33354525
   0.50055645  0.00049399  0.33396548
   0.66641718  0.83352734  0.33393214
Direct configuration=    14
   0.00420357  0.00289321  0.10937197
   0.35868877  0.00303423  0.10006627
   0.00372781  0.35702380  0.10005936
   0.65006601  0.64815839  0.10007788
   0.32802421  0.32645961  0.10093144
   0.68044815  0.00277225  0.10097517
   0.00399265  0.67900357  0.10098134
  -0.00038073  0.50005598  0.33397406
   0.16706265  0.33359335  0.33393305
  -0.00002514  0.00000361  0.33374576
   0.16662584  0.83300973  0.33394173
   0.49993644  0.49959297  0.33398151
   0.66671258  0.33334662  0.33357207
   0.50039825  0.00036978  0.33397020
   0.66647961  0.83345023  0.33393086
Direct configuration=    15
   0.00419961  0.00286894  0.10788395
   0.35867034  0.00292489  0.10028376
   0.00390237  0.35713280  0.10027726
   0.64993739  0.64819162  0.10029524
   0.32800943  0.32667187  0.10114531
   0.68023420  0.00256330  0.10119340
   0.00417621  0.67897813  0.10119999
  -0.00001096  0.49993563  0.33398568
   0.16661745  0.33337331  0.33392980
   0.00004468  0.00001663  0.33384441
   0.16674263  0.83338913  0.33393674
   0.50012875  0.50004481  0.33399100
   0.66666169  0.33334189  0.33363676
   0.50001664  0.00007016  0.33398160
   0.66663022  0.83326423  0.33392778
Direct configuration=    16
   0.00419946  0.00286800  0.10782633
   0.35866963  0.00292065  0.10029219
   0.00390913  0.35713702  0.10028570
   0.64993241  0.64819291  0.10030366
   0.32800886  0.32668009  0.10115359
   0.68022591  0.00255521  0.10120185
   0.00418332  0.67897715  0.10120846
   0.00000336  0.49993096  0.33398613
   0.16660021  0.33336479  0.33392967
   0.00004738  0.00001713  0.33384823
   0.16674715  0.83340382  0.33393654
   0.50013620  0.50006230  0.33399137
   0.66665972  0.33334171  0.33363926
   0.50000186  0.00005856  0.33398204
   0.66663605  0.83325703  0.33392766
Direct configuration=    17
   0.00419983  0.00286635  0.10772276
   0.35873816  0.00292766  0.10031135
   0.00391462  0.35719104  0.10030540
   0.64985475  0.64813165  0.10032204
   0.32796761  0.32659972  0.10116207
   0.68030092  0.00261450  0.10120853
   0.00415057  0.67899871  0.10121472
   0.00004743  0.49997423  0.33397327
   0.16664150  0.33338342  0.33394045
   0.00003020  0.00001386  0.33385197
   0.16675508  0.83338283  0.33394693
   0.50007236  0.50007536  0.33397807
   0.66667886  0.33334543  0.33366718
   0.49996929 -0.00000510  0.33396935
   0.66663949  0.83326769  0.33393858
Direct configuration=    18
   0.00420082  0.00286194  0.10744627
   0.35892112  0.00294637  0.10036251
   0.00392925  0.35733524  0.10035799
   0.64964745  0.64796812  0.10037110
   0.32785749  0.32638518  0.10118470
   0.68050116  0.00277278  0.10122637
   0.00406313  0.67905627  0.10123142
   0.00016508  0.50008974  0.33393895
   0.16675172  0.33343313  0.33396924
  -0.00001567  0.00000511  0.33386198
   0.16677624  0.83332679  0.33397467
   0.49990196  0.50011021  0.33394259
   0.66672993  0.33335535  0.33374169
   0.49988233 -0.00017505  0.33393545
   0.66664866  0.83329615  0.33396774
Direct configuration=    19
   0.00419196  0.00283993  0.10733294
   0.35904053  0.00296681  0.10039043
   0.00392132  0.35742658  0.10038690
   0.64952429  0.64785914  0.10039731
   0.32784272  0.32627999  0.10118321
   0.68060990  0.00289109  0.10122042
   0.00398619  0.67906030  0.10122453
   0.00010327  0.50005437  0.33392261
   0.16672527  0.33342254  0.33398434
   0.00001470  0.00001121  0.33386917
   0.16673860  0.83331843  0.33398918
   0.49997426  0.50006210  0.33392556
   0.66669801  0.33335004  0.33378352
   0.49996627 -0.00007689  0.33391942
   0.66662337  0.83330171  0.33398312
Direct configuration=    20
   0.00418513  0.00282295  0.10724553
   0.35913263  0.00298257  0.10041197
   0.00391519  0.35749702  0.10040919
   0.64942930  0.64777508  0.10041753
   0.32783133  0.32619885  0.10118206
   0.68069378  0.00298235  0.10121583
   0.00392685  0.67906340  0.10121921
   0.00005559  0.50002709  0.33391001
   0.16670487  0.33341437  0.33399598
   0.00003813  0.00001591  0.33387472
   0.16670957  0.83331198  0.33400037
   0.50003002  0.50002498  0.33391243
   0.66667338  0.33334595  0.33381578
   0.50003102 -0.00000118  0.33390706
   0.66660387  0.83330600  0.33399499
Direct configuration=    21
   0.00417255  0.00279495  0.10720744
   0.35915430  0.00299507  0.10042544
   0.00390285  0.35751082  0.10042320
   0.64941450  0.64775682  0.10042986
   0.32788168  0.32621231  0.10117332
   0.68069295  0.00302179  0.10120359
   0.00389257  0.67902889  0.10120625
   0.00002381  0.49999324  0.33391560
   0.16669472  0.33341071  0.33399494
   0.00002284  0.00001333  0.33388578
   0.16674718  0.83334235  0.33399923
   0.50004615  0.50003848  0.33391789
   0.66668939  0.33334818  0.33382311
   0.49999943  0.00001217  0.33391290
   0.66662577  0.83328820  0.33399412
Direct configuration=    22
   0.00416129  0.00276990  0.10717336
   0.35917369  0.00300626  0.10043749
   0.00389180  0.35752317  0.10043573
   0.64940126  0.64774049  0.10044088
   0.32792672  0.32622435  0.10116549
   0.68069220  0.00305708  0.10119265
   0.00386189  0.67899801  0.10119466
  -0.00000462  0.49996295  0.33392061
   0.16668564  0.33340744  0.33399401
   0.00000917  0.00001102  0.33389567
   0.16678083  0.83336952  0.33399822
   0.50006057  0.50005056  0.33392277
   0.66670370  0.33335017  0.33382967
   0.49997116  0.00002412  0.33391812
   0.66664536  0.83327228  0.33399334
Direct configuration=    23
   0.00415164  0.00274738  0.10713058
   0.35917137  0.00302265  0.10045107
   0.00387949  0.35750860  0.10044995
   0.64941388  0.64774721  0.10045298
   0.32796632  0.32623901  0.10115465
   0.68068578  0.00308517  0.10117716
   0.00383678  0.67896715  0.10117822
   0.00002460  0.49998555  0.33393217
   0.16669117  0.33340963  0.33399159
   0.00001575  0.00001215  0.33390958
   0.16676600  0.83335717  0.33399577
   0.50004596  0.50005293  0.33393428
   0.66669798  0.33334958  0.33383359
   0.49997689  0.00000328  0.33392995
   0.66663705  0.83327989  0.33399111
Direct configuration=    24
   0.00413676  0.00271263  0.10706459
   0.35916778  0.00304793  0.10047203
   0.00386049  0.35748612  0.10047188
   0.64943336  0.64775759  0.10047166
   0.32802741  0.32626163  0.10113792
   0.68067588  0.00312849  0.10115326
   0.00379803  0.67891954  0.10115285
   0.00006968  0.50002042  0.33394999
   0.16669970  0.33341299  0.33398786
   0.00002591  0.00001389  0.33393104
   0.16674313  0.83333810  0.33399200
   0.50002342  0.50005657  0.33395205
   0.66668916  0.33334866  0.33383965
   0.49998573 -0.00002886  0.33394818
   0.66662423  0.83329163  0.33398769
Direct configuration=    25
   0.00414312  0.00272406  0.10701679
   0.35914699  0.00306119  0.10047796
   0.00386011  0.35744835  0.10047839
   0.64945903  0.64778219  0.10047621
   0.32799296  0.32624011  0.10113296
   0.68068666  0.00312424  0.10114367
   0.00380647  0.67893129  0.10114229
   0.00005439  0.50001827  0.33395958
   0.16670328  0.33341050  0.33399262
   0.00002793  0.00001494  0.33393782
   0.16673479  0.83333309  0.33399685
   0.50002753  0.50004178  0.33396179
   0.66668869  0.33334931  0.33384518
   0.50000272 -0.00001129  0.33395796
   0.66662599  0.83329930  0.33399260
Direct configuration=    26
   0.00415420  0.00274395  0.10693361
   0.35911081  0.00308425  0.10048827
   0.00385946  0.35738264  0.10048970
   0.64950371  0.64782500  0.10048412
   0.32793301  0.32620267  0.10112433
   0.68070543  0.00311684  0.10112697
   0.00382114  0.67895173  0.10112392
   0.00002779  0.50001453  0.33397627
   0.16670952  0.33340616  0.33400089
   0.00003144  0.00001677  0.33394962
   0.16672028  0.83332437  0.33400530
   0.50003467  0.50001606  0.33397874
   0.66668786  0.33335043  0.33385478
   0.50003229  0.00001927  0.33397497
   0.66662906  0.83331265  0.33400116
Direct configuration=    27
   0.00415740  0.00275053  0.10688953
   0.35910704  0.00308705  0.10048916
   0.00386091  0.35737528  0.10049094
   0.64950684  0.64782802  0.10048406
   0.32792026  0.32620777  0.10112300
   0.68069612  0.00310037  0.10112212
   0.00383503  0.67895553  0.10111837
   0.00002919  0.50000772  0.33398264
   0.16670627  0.33340969  0.33400907
   0.00002794  0.00001616  0.33395231
   0.16673579  0.83333370  0.33401356
   0.50003803  0.50002779  0.33398529
   0.66669207  0.33335084  0.33386172
   0.50001692  0.00001419  0.33398146
   0.66663087  0.83330269  0.33400942
Direct configuration=    28
   0.00416700  0.00277024  0.10675730
   0.35909572  0.00309543  0.10049181
   0.00386527  0.35735320  0.10049466
   0.64951621  0.64783708  0.10048391
   0.32788199  0.32622306  0.10111900
   0.68066820  0.00305098  0.10110757
   0.00387669  0.67896695  0.10110171
   0.00003340  0.49998731  0.33400177
   0.16669651  0.33342028  0.33403361
   0.00001746  0.00001435  0.33396041
   0.16678232  0.83336168  0.33403836
   0.50004810  0.50006297  0.33400493
   0.66670469  0.33335207  0.33388253
   0.49997080 -0.00000107  0.33400091
   0.66663630  0.83327281  0.33403420
Direct configuration=    29
   0.00418620  0.00280968  0.10649282
   0.35907309  0.00311220  0.10049712
   0.00387399  0.35730905  0.10050209
   0.64953497  0.64785519  0.10048359
   0.32780546  0.32625363  0.10111100
   0.68061235  0.00295218  0.10107847
   0.00396001  0.67898977  0.10106839
   0.00004181  0.49994649  0.33404003
   0.16667700  0.33344146  0.33408267
  -0.00000352  0.00001072  0.33397661
   0.16687539  0.83341764  0.33408795
   0.50006825  0.50013333  0.33404421
   0.66672993  0.33335453  0.33392414
   0.49987856 -0.00003157  0.33403983
   0.66664717  0.83321304  0.33408375
Direct configuration=    30
   0.00417527  0.00278724  0.10664333
   0.35908597  0.00310266  0.10049410
   0.00386903  0.35733418  0.10049786
   0.64952430  0.64784489  0.10048377
   0.32784901  0.32623623  0.10111555
   0.68064413  0.00300840  0.10109503
   0.00391259  0.67897678  0.10108735
   0.00003702  0.49996972  0.33401826
   0.16668810  0.33342941  0.33405475
   0.00000842  0.00001279  0.33396739
   0.16682243  0.83338579  0.33405973
   0.50005678  0.50009329  0.33402185
   0.66671556  0.33335313  0.33390046
   0.49993106 -0.00001421  0.33401768
   0.66664098  0.83324705  0.33405555
Direct configuration=    31
   0.00417515  0.00278746  0.10661298
   0.35908821  0.00310173  0.10049394
   0.00386943  0.35733802  0.10049787
   0.64952078  0.64784123  0.10048310
   0.32784934  0.32624561  0.10111490
   0.68063475  0.00299803  0.10109229
   0.00391974  0.67897651  0.10108420
   0.00004077  0.49997268  0.33402257
   0.16668824  0.33342902  0.33406057
   0.00001033  0.00001319  0.33396951
   0.16681946  0.83338444  0.33406559
   0.50005624  0.50009305  0.33402627
   0.66671433  0.33335314  0.33390542
   0.49993370 -0.00001561  0.33402204
   0.66664020  0.83324883  0.33406141
Direct configuration=    32
   0.00417477  0.00278813  0.10652193
   0.35909494  0.00309895  0.10049347
   0.00387063  0.35734956  0.10049792
   0.64951021  0.64783026  0.10048111
   0.32785034  0.32627373  0.10111294
   0.68060662  0.00296689  0.10108406
   0.00394117  0.67897570  0.10107474
   0.00005202  0.49998154  0.33403551
   0.16668863  0.33342786  0.33407804
   0.00001605  0.00001441  0.33397586
   0.16681057  0.83338040  0.33408317
   0.50005462  0.50009233  0.33403951
   0.66671064  0.33335318  0.33392032
   0.49994162 -0.00001980  0.33403513
   0.66663784  0.83325417  0.33407897
Direct configuration=    33
   0.00417403  0.00278948  0.10633982
   0.35910840  0.00309340  0.10049253
   0.00387302  0.35737263  0.10049801
   0.64948909  0.64780832  0.10047712
   0.32785232  0.32632999  0.10110902
   0.68055035  0.00290463  0.10106760
   0.00398403  0.67897409  0.10105582
   0.00007453  0.49999928  0.33406138
   0.16668943  0.33342553  0.33411298
   0.00002750  0.00001684  0.33398855
   0.16679278  0.83337232  0.33411833
   0.50005138  0.50009089  0.33406599
   0.66670324  0.33335326  0.33395011
   0.49995746 -0.00002818  0.33406131
   0.66663312  0.83326485  0.33411411
Direct configuration=    34
   0.00417254  0.00279217  0.10597561
   0.35913532  0.00308228  0.10049064
   0.00387782  0.35741878  0.10049820
   0.64944684  0.64776444  0.10046915
   0.32785628  0.32644250  0.10110118
   0.68043781  0.00278010  0.10103469
   0.00406976  0.67897087  0.10101797
   0.00011953  0.50003475  0.33411312
   0.16669102  0.33342088  0.33418285
   0.00005039  0.00002171  0.33401394
   0.16675720  0.83335615  0.33418866
   0.50004489  0.50008802  0.33411894
   0.66668846  0.33335342  0.33400969
   0.49998913 -0.00004495  0.33411365
   0.66662368  0.83328620  0.33418438
Direct configuration=    35
   0.00416955  0.00279755  0.10524718
   0.35918916  0.00306006  0.10048687
   0.00388740  0.35751107  0.10049857
   0.64936235  0.64767667  0.10045320
   0.32786421  0.32666752  0.10108550
   0.68021273  0.00253104  0.10096885
   0.00424122  0.67896442  0.10094228
   0.00020954  0.50010570  0.33421660
   0.16669420  0.33341158  0.33432260
   0.00009617  0.00003145  0.33406471
   0.16668605  0.83332383  0.33432932
   0.50003192  0.50008228  0.33422486
   0.66665889  0.33335374  0.33412886
   0.50005249 -0.00007848  0.33421835
   0.66660479  0.83332890  0.33432492
Direct configuration=    36
   0.00417176  0.00279356  0.10578716
   0.35914925  0.00307653  0.10048967
   0.00388030  0.35744265  0.10049829
   0.64942498  0.64774173  0.10046502
   0.32785833  0.32650071  0.10109712
   0.68037958  0.00271567  0.10101765
   0.00411412  0.67896920  0.10099839
   0.00014281  0.50005311  0.33413989
   0.16669184  0.33341848  0.33421900
   0.00006223  0.00002423  0.33402707
   0.16673879  0.83334779  0.33422505
   0.50004154  0.50008654  0.33414634
   0.66668081  0.33335350  0.33404052
   0.50000552 -0.00005362  0.33414074
   0.66661879  0.83329725  0.33422074
Direct configuration=    37
   0.00416189  0.00277873  0.10562316
   0.35916820  0.00306278  0.10048840
   0.00387575  0.35747851  0.10049743
   0.64940153  0.64771768  0.10046235
   0.32786937  0.32650704  0.10108974
   0.68037616  0.00270947  0.10100277
   0.00410942  0.67897598  0.10098206
   0.00010088  0.50004443  0.33416780
   0.16671055  0.33341398  0.33424413
   0.00005209  0.00002525  0.33405070
   0.16674081  0.83334504  0.33425010
   0.50003771  0.50006136  0.33417454
   0.66669639  0.33335760  0.33406490
   0.50001905 -0.00002290  0.33416874
   0.66664087  0.83331238  0.33424585
Direct configuration=    38
   0.00413227  0.00273423  0.10513117
   0.35922505  0.00302153  0.10048460
   0.00386212  0.35758608  0.10049483
   0.64933118  0.64764553  0.10045433
   0.32790249  0.32652604  0.10106758
   0.68036590  0.00269088  0.10095811
   0.00409532  0.67899632  0.10093309
  -0.00002494  0.50001841  0.33425154
   0.16676666  0.33340048  0.33431949
   0.00002165  0.00002832  0.33412159
   0.16674687  0.83333678  0.33432523
   0.50002623  0.49998582  0.33425912
   0.66674312  0.33336989  0.33413805
   0.50005964  0.00006925  0.33425274
   0.66670711  0.83335778  0.33432119
Direct configuration=    39
   0.00412406  0.00272579  0.10492917
   0.35924348  0.00300657  0.10048453
   0.00385410  0.35761547  0.10049474
   0.64930653  0.64762290  0.10045397
   0.32790567  0.32647904  0.10105202
   0.68040772  0.00273640  0.10093799
   0.00405263  0.67900197  0.10091213
  -0.00000856  0.50000891  0.33428903
   0.16675079  0.33340889  0.33434521
   0.00003237  0.00003054  0.33416250
   0.16675988  0.83334842  0.33435053
   0.50004910  0.50000669  0.33429664
   0.66673710  0.33336975  0.33416737
   0.50005218  0.00006663  0.33429012
   0.66669361  0.83333936  0.33434673
Direct configuration=    40
   0.00409944  0.00270048  0.10432316
   0.35929878  0.00296170  0.10048433
   0.00383006  0.35770366  0.10049447
   0.64923256  0.64755499  0.10045288
   0.32791524  0.32633806  0.10100531
   0.68053319  0.00287298  0.10087764
   0.00392456  0.67901891  0.10084924
   0.00004056  0.49998042  0.33440151
   0.16670317  0.33343413  0.33442235
   0.00006455  0.00003721  0.33428523
   0.16679890  0.83338332  0.33442645
   0.50011774  0.50006929  0.33440920
   0.66671903  0.33336934  0.33425531
   0.50002979  0.00005875  0.33440226
   0.66665310  0.83328410  0.33442332
Direct configuration=    41
   0.00409151  0.00269233  0.10412795
   0.35931659  0.00294725  0.10048427
   0.00382232  0.35773207  0.10049438
   0.64920874  0.64753312  0.10045253
   0.32791832  0.32629264  0.10099026
   0.68057361  0.00291697  0.10085820
   0.00388330  0.67902437  0.10082899
   0.00005639  0.49997124  0.33443774
   0.16668783  0.33344226  0.33444721
   0.00007492  0.00003935  0.33432476
   0.16681147  0.83339456  0.33445090
   0.50013985  0.50008945  0.33444546
   0.66671321  0.33336920  0.33428364
   0.50002258  0.00005621  0.33443838
   0.66664005  0.83326629  0.33444800
Direct configuration=    42
   0.00410407  0.00272802  0.10384064
   0.35931994  0.00294683  0.10048968
   0.00381884  0.35771627  0.10049893
   0.64918232  0.64751759  0.10046008
   0.32793296  0.32623143  0.10095230
   0.68061184  0.00301318  0.10082366
   0.00381467  0.67896698  0.10079515
   0.00010049  0.50003176  0.33448532
   0.16673007  0.33343544  0.33448740
   0.00006827  0.00003844  0.33438932
   0.16678596  0.83336985  0.33449020
   0.50007782  0.50008257  0.33449262
   0.66672502  0.33337217  0.33433419
   0.50002568  0.00000662  0.33448547
   0.66666271  0.83331018  0.33448770
Direct configuration=    43
   0.00411250  0.00275196  0.10364792
   0.35932218  0.00294655  0.10049332
   0.00381651  0.35770566  0.10050199
   0.64916460  0.64750718  0.10046515
   0.32794278  0.32619037  0.10092684
   0.68063749  0.00307772  0.10080049
   0.00376863  0.67892848  0.10077245
   0.00013008  0.50007236  0.33451724
   0.16675841  0.33343086  0.33451436
   0.00006382  0.00003783  0.33443262
   0.16676884  0.83335328  0.33451655
   0.50003621  0.50007796  0.33452425
   0.66673295  0.33337417  0.33436810
   0.50002776 -0.00002665  0.33451706
   0.66667791  0.83333961  0.33451434
Direct configuration=    44
   0.00412412  0.00277734  0.10347496
   0.35929534  0.00295952  0.10050149
   0.00382124  0.35765794  0.10050879
   0.64917293  0.64752438  0.10047717
   0.32797691  0.32621104  0.10088836
   0.68060670  0.00310929  0.10077478
   0.00374828  0.67885648  0.10074924
   0.00009676  0.50005235  0.33453709
   0.16675135  0.33341799  0.33454693
   0.00006436  0.00004070  0.33447048
   0.16676919  0.83336448  0.33454850
   0.50005650  0.50006576  0.33454342
   0.66673881  0.33337683  0.33440866
   0.50004129  0.00000835  0.33453633
   0.66669686  0.83334486  0.33454647
Direct configuration=    45
   0.00413816  0.00280804  0.10326586
   0.35926289  0.00297521  0.10051137
   0.00382697  0.35760025  0.10051702
   0.64918302  0.64754518  0.10049171
   0.32801817  0.32623603  0.10084183
   0.68056949  0.00314746  0.10074370
   0.00372368  0.67876943  0.10072118
   0.00005648  0.50002817  0.33456109
   0.16674282  0.33340242  0.33458631
   0.00006502  0.00004417  0.33451624
   0.16676961  0.83337803  0.33458713
   0.50008102  0.50005102  0.33456659
   0.66674590  0.33338006  0.33445769
   0.50005765  0.00005067  0.33455963
   0.66671979  0.83335120  0.33458533
Direct configuration=    46
   0.00411829  0.00276441  0.10313964
   0.35922858  0.00297972  0.10051758
   0.00382929  0.35757920  0.10052153
   0.64922478  0.64758615  0.10050282
   0.32802755  0.32628272  0.10080401
   0.68053385  0.00309819  0.10072532
   0.00374469  0.67878169  0.10070668
   0.00009479  0.50002638  0.33457353
   0.16673444  0.33343896  0.33461437
   0.00008008  0.00004515  0.33454151
   0.16679339  0.83337790  0.33461505
   0.50010036  0.50008185  0.33457826
   0.66673382  0.33337871  0.33448775
   0.50004387  0.00003083  0.33457152
   0.66667288  0.83331546  0.33461311
Direct configuration=    47
   0.00411426  0.00275555  0.10311401
   0.35922161  0.00298063  0.10051884
   0.00382976  0.35757492  0.10052244
   0.64923327  0.64759447  0.10050508
   0.32802946  0.32629220  0.10079632
   0.68052661  0.00308819  0.10072159
   0.00374896  0.67878418  0.10070373
   0.00010257  0.50002601  0.33457606
   0.16673274  0.33344638  0.33462007
   0.00008314  0.00004535  0.33454664
   0.16679821  0.83337788  0.33462072
   0.50010428  0.50008812  0.33458063
   0.66673136  0.33337844  0.33449385
   0.50004107  0.00002681  0.33457393
   0.66666336  0.83330820  0.33461875
Direct configuration=    48
   0.00409329  0.00270928  0.10304215
   0.35921822  0.00298244  0.10051954
   0.00383100  0.35758748  0.10052181
   0.64925142  0.64760941  0.10050981
   0.32800085  0.32631925  0.10077004
   0.68050872  0.00301749  0.10071408
   0.00379055  0.67883862  0.10069999
   0.00010077  0.50004665  0.33458687
   0.16675701  0.33343821  0.33463578
   0.00007102  0.00004454  0.33456069
   0.16679278  0.83336989  0.33463678
   0.50007244  0.50007684  0.33459091
   0.66674519  0.33338061  0.33450535
   0.50004024  0.00001541  0.33458444
   0.66668717  0.83333120  0.33463443
Direct configuration=    49
   0.00409130  0.00270489  0.10303533
   0.35921790  0.00298261  0.10051961
   0.00383112  0.35758867  0.10052175
   0.64925314  0.64761083  0.10051026
   0.32799814  0.32632182  0.10076755
   0.68050702  0.00301078  0.10071337
   0.00379449  0.67884379  0.10069963
   0.00010060  0.50004861  0.33458789
   0.16675932  0.33343743  0.33463727
   0.00006987  0.00004446  0.33456202
   0.16679226  0.83336913  0.33463831
   0.50006942  0.50007578  0.33459189
   0.66674650  0.33338082  0.33450644
   0.50004016  0.00001433  0.33458544
   0.66668943  0.83333338  0.33463591
Direct configuration=    50
   0.00409333  0.00270815  0.10300316
   0.35924391  0.00298924  0.10051638
   0.00383256  0.35760782  0.10051784
   0.64922767  0.64758611  0.10050939
   0.32796404  0.32632476  0.10075419
   0.68049930  0.00297786  0.10071351
   0.00382647  0.67886583  0.10070247
   0.00009079  0.50003847  0.33459747
   0.16674171  0.33342044  0.33464251
   0.00007754  0.00004658  0.33456860
   0.16678005  0.83337883  0.33464410
   0.50008778  0.50007049  0.33460123