   16   16    1    1
  0.2065628E+02  0.5044000E-09  0.5044000E-09  0.1500000E-08  0.5000000E-15
  1.000000000000000E-004
  CAR 
 BS                                      
     62    192     48
 
  0.3330000E+00  0.3330000E+00  0.0000000E+00  0.5208333E-02
      1        -18.024002   1.000000
      2        -18.020134   1.000000
      3        -18.016525   1.000000
      4        -17.245475   1.000000
      5        -15.299402   1.000000
      6        -15.295206   1.000000
      7        -13.299592   1.000000
      8        -13.296099   1.000000
      9        -10.973252   1.000000
     10        -10.650721   1.000000
     11        -10.646640   1.000000
     12         -8.961274   1.000000
     13         -8.583575   1.000000
     14         -8.578752   1.000000
     15         -8.568497   1.000000
     16         -7.125121   1.000000
     17         -7.121149   1.000000
     18         -7.118924   1.000000
     19         -6.150974   1.000000
     20         -6.127557   1.000000
     21         -6.120679   1.000000
     22         -5.954997   1.000000
     23         -5.933960   1.000000
     24         -5.785184   1.000000
     25         -5.079836   1.000000
     26         -4.880271   1.000000
     27         -3.990317   1.000000
     28         -3.986849   1.000000
     29         -3.979910   1.000000
     30         -3.971009   1.000000
     31         -0.956233   0.393039
     32         -0.917587   0.206695
     33          0.975239   0.000000
     34          1.058486   0.000000
     35          5.047637   0.000000
     36          5.061843   0.000000
     37          5.079163   0.000000
     38          5.396265   0.000000
     39          5.408668   0.000000
     40          5.412252   0.000000
     41          6.047902   0.000000
     42          6.054542   0.000000
     43          6.064701   0.000000
     44          7.079124   0.000000
     45          7.127029   0.000000
     46          7.129248   0.000000
     47          7.200546   0.000000
     48          7.364592   0.000000
 
  0.3277143E+00  0.3277143E+00  0.0000000E+00  0.5208333E-02
      1        -18.081739   1.000000
      2        -17.990572   1.000000
      3        -17.986853   1.000000
      4        -17.245949   1.000000
      5        -15.320053   1.000000
      6        -15.273038   1.000000
      7        -13.351019   1.000000
      8        -13.246918   1.000000
      9        -10.970207   1.000000
     10        -10.689912   1.000000
     11        -10.609710   1.000000
     12         -8.957896   1.000000
     13         -8.632762   1.000000
     14         -8.627970   1.000000
     15         -8.474702   1.000000
     16         -7.162216   1.000000
     17         -7.158184   1.000000
     18         -7.041374   1.000000
     19         -6.202668   1.000000
     20         -6.121455   1.000000
     21         -6.093537   1.000000
     22         -5.982024   1.000000
     23         -5.899029   1.000000
     24         -5.777915   1.000000
     25         -5.081103   1.000000
     26         -4.880375   1.000000
     27         -4.019881   1.000000
     28         -4.016931   1.000000
     29         -3.954050   1.000000
     30         -3.930019   1.000000
     31         -0.999876   0.635252
     32         -0.874899   0.077565
     33          0.924213   0.000000
     34          1.110535   0.000000
     35          4.992180   0.000000
     36          5.005694   0.000000
     37          5.188114   0.000000
     38          5.321088   0.000000
     39          5.445487   0.000000
     40          5.452904   0.000000
     41          5.973548   0.000000
     42          6.091926   0.000000
     43          6.103205   0.000000
     44          7.056534   0.000000
     45          7.070873   0.000000
     46          7.185761   0.000000
     47          7.204961   0.000000
     48          7.337403   0.000000
 
  0.3224286E+00  0.3224286E+00  0.0000000E+00  0.5208333E-02
      1        -18.138729   1.000000
      2        -17.960000   1.000000
      3        -17.956266   1.000000
      4        -17.247321   1.000000
      5        -15.338602   1.000000
      6        -15.250199   1.000000
      7        -13.401651   1.000000
      8        -13.202485   1.000000
      9        -10.961543   1.000000
     10        -10.728660   1.000000
     11        -10.577694   1.000000
     12         -8.948369   1.000000
     13         -8.686388   1.000000
     14         -8.681598   1.000000
     15         -8.380483   1.000000
     16         -7.195957   1.000000
     17         -7.191949   1.000000
     18         -6.963427   1.000000
     19         -6.269029   1.000000
     20         -6.151315   1.000000
     21         -6.056036   1.000000
     22         -5.985354   1.000000
     23         -5.862449   1.000000
     24         -5.761774   1.000000
     25         -5.085154   1.000000
     26         -4.880423   1.000000
     27         -4.053480   1.000000
     28         -4.041032   1.000000
     29         -3.920530   1.000000
     30         -3.884946   1.000000
     31         -1.065763   0.899302
     32         -0.810827   0.009962
     33          0.865883   0.000000
     34          1.170180   0.000000
     35          4.934141   0.000000
     36          4.947397   0.000000
     37          5.241503   0.000000
     38          5.299404   0.000000
     39          5.487321   0.000000
     40          5.494922   0.000000
     41          5.896487   0.000000
     42          6.132955   0.000000
     43          6.143356   0.000000
     44          6.992917   0.000000
     45          7.029332   0.000000
     46          7.176697   0.000000
     47          7.251498   0.000000
     48          7.335799   0.000000
 
  0.3171429E+00  0.3171429E+00  0.0000000E+00  0.5208333E-02
      1        -18.194862   1.000000
      2        -17.928526   1.000000
      3        -17.924776   1.000000
      4        -17.249646   1.000000
      5        -15.354896   1.000000
      6        -15.226781   1.000000
      7        -13.451483   1.000000
      8        -13.163026   1.000000
      9        -10.947261   1.000000
     10        -10.766477   1.000000
     11        -10.551108   1.000000
     12         -8.932513   1.000000
     13         -8.744343   1.000000
     14         -8.739553   1.000000
     15         -8.285949   1.000000
     16         -7.226204   1.000000
     17         -7.222215   1.000000
     18         -6.885693   1.000000
     19         -6.339362   1.000000
     20         -6.205262   1.000000
     21         -6.021254   1.000000
     22         -5.967007   1.000000
     23         -5.827728   1.000000
     24         -5.741628   1.000000
     25         -5.092229   1.000000
     26         -4.879777   1.000000
     27         -4.081121   1.000000
     28         -4.060153   1.000000
     29         -3.886446   1.000000
     30         -3.837208   1.000000
     31         -1.131610   0.986406
     32         -0.747764   0.000642
     33          0.807739   0.000000
     34          1.229936   0.000000
     35          4.874206   0.000000
     36          4.887299   0.000000
     37          5.165462   0.000000
     38          5.408079   0.000000
     39          5.530501   0.000000
     40          5.538246   0.000000
     41          5.820575   0.000000
     42          6.173253   0.000000
     43          6.185442   0.000000
     44          6.922542   0.000000
     45          6.974532   0.000000
     46          7.126284   0.000000
     47          7.309225   0.000000
     48          7.360908   0.000000
 
  0.3118571E+00  0.3118571E+00  0.0000000E+00  0.5208333E-02
      1        -18.250130   1.000000
      2        -17.896159   1.000000
      3        -17.892388   1.000000
      4        -17.252972   1.000000
      5        -15.368863   1.000000
      6        -15.202799   1.000000
      7        -13.500512   1.000000
      8        -13.128684   1.000000
      9        -10.927858   1.000000
     10        -10.802691   1.000000
     11        -10.530076   1.000000
     12         -8.910282   1.000000
     13         -8.806508   1.000000
     14         -8.801711   1.000000
     15         -8.191067   1.000000
     16         -7.253027   1.000000
     17         -7.249055   1.000000
     18         -6.808129   1.000000
     19         -6.412901   1.000000
     20         -6.268118   1.000000
     21         -5.990657   1.000000
     22         -5.939775   1.000000
     23         -5.795468   1.000000
     24         -5.719588   1.000000
     25         -5.102504   1.000000
     26         -4.877603   1.000000
     27         -4.102351   1.000000
     28         -4.074141   1.000000
     29         -3.851715   1.000000
     30         -3.787274   1.000000
     31         -1.196705   0.999124
     32         -0.686554   0.000022
     33          0.750907   0.000000
     34          1.288691   0.000000
     35          4.812209   0.000000
     36          4.825180   0.000000
     37          5.089880   0.000000
     38          5.517003   0.000000
     39          5.574957   0.000000
     40          5.582869   0.000000
     41          5.746044   0.000000
     42          6.212562   0.000000
     43          6.229142   0.000000
     44          6.852421   0.000000
     45          6.919889   0.000000
     46          7.066614   0.000000
     47          7.358604   0.000000
     48          7.396746   0.000000
 
  0.3065714E+00  0.3065714E+00  0.0000000E+00  0.5208333E-02
      1        -18.304525   1.000000
      2        -17.862897   1.000000
      3        -17.859099   1.000000
      4        -17.257324   1.000000
      5        -15.380446   1.000000
      6        -15.178263   1.000000
      7        -13.548737   1.000000
      8        -13.099519   1.000000
      9        -10.906331   1.000000
     10        -10.834259   1.000000
     11        -10.514568   1.000000
     12         -8.881921   1.000000
     13         -8.872709   1.000000
     14         -8.867761   1.000000
     15         -8.095948   1.000000
     16         -7.276479   1.000000
     17         -7.272518   1.000000
     18         -6.730902   1.000000
     19         -6.489443   1.000000
     20         -6.333454   1.000000
     21         -5.965748   1.000000
     22         -5.908767   1.000000
     23         -5.765405   1.000000
     24         -5.696613   1.000000
     25         -5.115823   1.000000
     26         -4.873020   1.000000
     27         -4.116841   1.000000
     28         -4.082879   1.000000
     29         -3.816227   1.000000
     30         -3.735441   1.000000
     31         -1.260904   0.999973
     32         -0.627500   0.000000
     33          0.695846   0.000000
     34          1.346123   0.000000
     35          4.748322   0.000000
     36          4.761206   0.000000
     37          5.015463   0.000000
     38          5.618862   0.000000
     39          5.623518   0.000000
     40          5.629315   0.000000
     41          5.676319   0.000000
     42          6.250629   0.000000
     43          6.273899   0.000000
     44          6.783246   0.000000
     45          6.863869   0.000000
     46          7.003810   0.000000
     47          7.408430   0.000000
     48          7.436590   0.000000
 
  0.3012857E+00  0.3012857E+00  0.0000000E+00  0.5208333E-02
      1        -18.358042   1.000000
      2        -17.828749   1.000000
      3        -17.824914   1.000000
      4        -17.262731   1.000000
      5        -15.389595   1.000000
      6        -15.153187   1.000000
      7        -13.596158   1.000000
      8        -13.075497   1.000000
      9        -10.901327   1.000000
     10        -10.842553   1.000000
     11        -10.504416   1.000000
     12         -8.942667   1.000000
     13         -8.937931   1.000000
     14         -8.847153   1.000000
     15         -8.000543   1.000000
     16         -7.296780   1.000000
     17         -7.292829   1.000000
     18         -6.653877   1.000000
     19         -6.568827   1.000000
     20         -6.398821   1.000000
     21         -5.948553   1.000000
     22         -5.875937   1.000000
     23         -5.736576   1.000000
     24         -5.673159   1.000000
     25         -5.132081   1.000000
     26         -4.865177   1.000000
     27         -4.124489   1.000000
     28         -4.086472   1.000000
     29         -3.780017   1.000000
     30         -3.681979   1.000000
     31         -1.324150   1.000000
     32         -0.570848   0.000000
     33          0.642807   0.000000
     34          1.402053   0.000000
     35          4.682397   0.000000
     36          4.695226   0.000000
     37          4.942255   0.000000
     38          5.596190   0.000000
     39          5.667812   0.000000
     40          5.675614   0.000000
     41          5.738902   0.000000
     42          6.286429   0.000000
     43          6.319059   0.000000
     44          6.715560   0.000000
     45          6.805789   0.000000
     46          6.940697   0.000000
     47          7.457747   0.000000
     48          7.479410   0.000000
 
  0.2960000E+00  0.2960000E+00  0.0000000E+00  0.5208333E-02
      1        -18.410680   1.000000
      2        -17.793722   1.000000
      3        -17.789838   1.000000
      4        -17.269203   1.000000
      5        -15.396282   1.000000
      6        -15.127588   1.000000
      7        -13.642777   1.000000
      8        -13.056503   1.000000
      9        -10.926760   1.000000
     10        -10.813809   1.000000
     11        -10.499322   1.000000
     12         -9.016130   1.000000
     13         -9.011384   1.000000
     14         -8.806971   1.000000
     15         -7.904969   1.000000
     16         -7.314100   1.000000
     17         -7.310156   1.000000
     18         -6.650829   1.000000
     19         -6.577198   1.000000
     20         -6.463212   1.000000
     21         -5.941240   1.000000
     22         -5.842117   1.000000
     23         -5.707409   1.000000
     24         -5.649473   1.000000
     25         -5.150920   1.000000
     26         -4.853526   1.000000
     27         -4.125286   1.000000
     28         -4.085077   1.000000
     29         -3.743091   1.000000
     30         -3.627107   1.000000
     31         -1.386452   1.000000
     32         -0.516883   0.000000
     33          0.592142   0.000000
     34          1.456377   0.000000
     35          4.614852   0.000000
     36          4.627657   0.000000
     37          4.870269   0.000000
     38          5.525602   0.000000
     39          5.715919   0.000000
     40          5.724000   0.000000
     41          5.847064   0.000000
     42          6.317801   0.000000
     43          6.363680   0.000000
     44          6.650553   0.000000
     45          6.746962   0.000000
     46          6.879458   0.000000
     47          7.506496   0.000000
     48          7.523907   0.000000
 
  0.2907143E+00  0.2907143E+00  0.0000000E+00  0.5208333E-02
      1        -18.462438   1.000000
      2        -17.757826   1.000000
      3        -17.753873   1.000000
      4        -17.276735   1.000000
      5        -15.400488   1.000000
      6        -15.101477   1.000000
      7        -13.688583   1.000000
      8        -13.042316   1.000000
      9        -10.959574   1.000000
     10        -10.771289   1.000000
     11        -10.498882   1.000000
     12         -9.092815   1.000000
     13         -9.088072   1.000000
     14         -8.761615   1.000000
     15         -7.809241   1.000000
     16         -7.328664   1.000000
     17         -7.324723   1.000000
     18         -6.735095   1.000000
     19         -6.526258   1.000000
     20         -6.501025   1.000000
     21         -5.945354   1.000000
     22         -5.807875   1.000000
     23         -5.676450   1.000000
     24         -5.625659   1.000000
     25         -5.171848   1.000000
     26         -4.837847   1.000000
     27         -4.119342   1.000000
     28         -4.078950   1.000000
     29         -3.705453   1.000000
     30         -3.571078   1.000000
     31         -1.447672   1.000000
     32         -0.465871   0.000000
     33          0.544149   0.000000
     34          1.509006   0.000000
     35          4.545557   0.000000
     36          4.558370   0.000000
     37          4.799516   0.000000
     38          5.455325   0.000000
     39          5.765351   0.000000
     40          5.773574   0.000000
     41          5.955250   0.000000
     42          6.340379   0.000000
     43          6.405471   0.000000
     44          6.590310   0.000000
     45          6.688951   0.000000
     46          6.822787   0.000000
     47          7.555314   0.000000
     48          7.569879   0.000000
 
  0.2854286E+00  0.2854286E+00  0.0000000E+00  0.5208333E-02
      1        -18.513311   1.000000
      2        -17.721078   1.000000
      3        -17.717026   1.000000
      4        -17.285310   1.000000
      5        -15.402210   1.000000
      6        -15.074877   1.000000
      7        -13.733582   1.000000
      8        -13.032688   1.000000
      9        -10.993388   1.000000
     10        -10.721707   1.000000
     11        -10.502620   1.000000
     12         -9.172457   1.000000
     13         -9.167718   1.000000
     14         -8.711652   1.000000
     15         -7.713374   1.000000
     16         -7.340710   1.000000
     17         -7.336768   1.000000
     18         -6.821212   1.000000
     19         -6.587825   1.000000
     20         -6.425238   1.000000
     21         -5.961301   1.000000
     22         -5.773749   1.000000
     23         -5.642959   1.000000
     24         -5.601813   1.000000
     25         -5.194202   1.000000
     26         -4.818392   1.000000
     27         -4.106818   1.000000
     28         -4.068428   1.000000
     29         -3.667161   1.000000
     30         -3.513994   1.000000
     31         -1.507927   1.000000
     32         -0.418256   0.000000
     33          0.499180   0.000000
     34          1.559918   0.000000
     35          4.474558   0.000000
     36          4.487405   0.000000
     37          4.730000   0.000000
     38          5.385997   0.000000
     39          5.816025   0.000000
     40          5.824343   0.000000
     41          6.062835   0.000000
     42          6.346378   0.000000
     43          6.437405   0.000000
     44          6.538529   0.000000
     45          6.638672   0.000000
     46          6.775574   0.000000
     47          7.604013   0.000000
     48          7.616838   0.000000
 
  0.2801429E+00  0.2801429E+00  0.0000000E+00  0.5208333E-02
      1        -18.563292   1.000000
      2        -17.683495   1.000000
      3        -17.679299   1.000000
      4        -17.294888   1.000000
      5        -15.401451   1.000000
      6        -15.047800   1.000000
      7        -13.777770   1.000000
      8        -13.027288   1.000000
      9        -11.027075   1.000000
     10        -10.666659   1.000000
     11        -10.509929   1.000000
     12         -9.254757   1.000000
     13         -9.250024   1.000000
     14         -8.657691   1.000000
     15         -7.617321   1.000000
     16         -7.350463   1.000000
     17         -7.346513   1.000000
     18         -6.908754   1.000000
     19         -6.647920   1.000000
     20         -6.349874   1.000000
     21         -5.988362   1.000000
     22         -5.740291   1.000000
     23         -5.606862   1.000000
     24         -5.577938   1.000000
     25         -5.217078   1.000000
     26         -4.795713   1.000000
     27         -4.087925   1.000000
     28         -4.053808   1.000000
     29         -3.628205   1.000000
     30         -3.456034   1.000000
     31         -1.567158   1.000000
     32         -0.374501   0.000000
     33          0.457789   0.000000
     34          1.609034   0.000000
     35          4.401736   0.000000
     36          4.414638   0.000000
     37          4.661727   0.000000
     38          5.317734   0.000000
     39          5.867938   0.000000
     40          5.876296   0.000000
     41          6.170895   0.000000
     42          6.327564   0.000000
     43          6.440095   0.000000
     44          6.497111   0.000000
     45          6.614669   0.000000
     46          6.745464   0.000000
     47          7.652098   0.000000
     48          7.664075   0.000000
 
  0.2748571E+00  0.2748571E+00  0.0000000E+00  0.5208333E-02
      1        -18.612378   1.000000
      2        -17.645115   1.000000
      3        -17.640698   1.000000
      4        -17.305400   1.000000
      5        -15.398235   1.000000
      6        -15.020264   1.000000
      7        -13.821148   1.000000
      8        -13.025764   1.000000
      9        -11.060303   1.000000
     10        -10.607472   1.000000
     11        -10.519707   1.000000
     12         -9.339449   1.000000
     13         -9.334722   1.000000
     14         -8.600370   1.000000
     15         -7.521191   1.000000
     16         -7.358123   1.000000
     17         -7.354154   1.000000
     18         -6.997295   1.000000
     19         -6.706618   1.000000
     20         -6.274992   1.000000
     21         -6.025269   1.000000
     22         -5.708260   1.000000
     23         -5.568695   1.000000
     24         -5.553893   1.000000
     25         -5.239285   1.000000
     26         -4.770605   1.000000
     27         -4.062922   1.000000
     28         -4.035421   1.000000
     29         -3.588637   1.000000
     30         -3.397356   1.000000
     31         -1.625356   1.000000
     32         -0.335209   0.000000
     33          0.420576   0.000000
     34          1.656350   0.000000
     35          4.327527   0.000000
     36          4.340532   0.000000
     37          4.594705   0.000000
     38          5.250568   0.000000
     39          5.921075   0.000000
     40          5.929377   0.000000
     41          6.277721   0.000000
     42          6.285692   0.000000
     43          6.402464   0.000000
     44          6.455269   0.000000
     45          6.631850   0.000000
     46          6.738890   0.000000
     47          7.698778   0.000000
     48          7.710916   0.000000
 
  0.2695714E+00  0.2695714E+00  0.0000000E+00  0.5208333E-02
      1        -18.660571   1.000000
      2        -17.606000   1.000000
      3        -17.601230   1.000000
      4        -17.316753   1.000000
      5        -15.392595   1.000000
      6        -14.992292   1.000000
      7        -13.863716   1.000000
      8        -13.027751   1.000000
      9        -11.092940   1.000000
     10        -10.553938   1.000000
     11        -10.522260   1.000000
     12         -9.426312   1.000000
     13         -9.421592   1.000000
     14         -8.540383   1.000000
     15         -7.425039   1.000000
     16         -7.363959   1.000000
     17         -7.359950   1.000000
     18         -7.086438   1.000000
     19         -6.763993   1.000000
     20         -6.200689   1.000000
     21         -6.070576   1.000000
     22         -5.678725   1.000000
     23         -5.533592   1.000000
     24         -5.525133   1.000000
     25         -5.259219   1.000000
     26         -4.743933   1.000000
     27         -4.032312   1.000000
     28         -4.013419   1.000000
     29         -3.548490   1.000000
     30         -3.338123   1.000000
     31         -1.682570   1.000000
     32         -0.301114   0.000000
     33          0.388266   0.000000
     34          1.701820   0.000000
     35          4.251779   0.000000
     36          4.264918   0.000000
     37          4.528927   0.000000
     38          5.184494   0.000000
     39          5.975417   0.000000
     40          5.983450   0.000000
     41          6.229069   0.000000
     42          6.342182   0.000000
     43          6.382513   0.000000
     44          6.406744   0.000000
     45          6.672328   0.000000
     46          6.754573   0.000000
     47          7.741869   0.000000
     48          7.754486   0.000000
 
  0.2642857E+00  0.2642857E+00  0.0000000E+00  0.5208333E-02
      1        -18.707865   1.000000
      2        -17.566267   1.000000
      3        -17.560897   1.000000
      4        -17.328776   1.000000
      5        -15.384571   1.000000
      6        -14.963898   1.000000
      7        -13.905469   1.000000
      8        -13.032861   1.000000
      9        -11.124901   1.000000
     10        -10.556033   1.000000
     11        -10.467619   1.000000
     12         -9.515047   1.000000
     13         -9.510332   1.000000
     14         -8.478429   1.000000
     15         -7.368117   1.000000
     16         -7.364019   1.000000
     17         -7.328885   1.000000
     18         -7.175621   1.000000
     19         -6.820094   1.000000
     20         -6.129325   1.000000
     21         -6.120521   1.000000
     22         -5.653242   1.000000
     23         -5.509682   1.000000
     24         -5.484166   1.000000
     25         -5.274683   1.000000
     26         -4.716447   1.000000
     27         -3.997508   1.000000
     28         -3.986938   1.000000
     29         -3.507789   1.000000
     30         -3.278408   1.000000
     31         -1.738652   1.000000
     32         -0.272987   0.000000
     33          0.361730   0.000000
     34          1.745441   0.000000
     35          4.174476   0.000000
     36          4.187791   0.000000
     37          4.464403   0.000000
     38          5.119524   0.000000
     39          6.030915   0.000000
     40          6.037958   0.000000
     41          6.166374   0.000000
     42          6.272062   0.000000
     43          6.346253   0.000000
     44          6.491599   0.000000
     45          6.721816   0.000000
     46          6.785872   0.000000
     47          7.777561   0.000000
     48          7.791854   0.000000
 
  0.2590000E+00  0.2590000E+00  0.0000000E+00  0.5208333E-02
      1        -18.754259   1.000000
      2        -17.526186   1.000000
      3        -17.519706   1.000000
      4        -17.341150   1.000000
      5        -15.374220   1.000000
      6        -14.935108   1.000000
      7        -13.946408   1.000000
      8        -13.040745   1.000000
      9        -11.156143   1.000000
     10        -10.573120   1.000000
     11        -10.396491   1.000000
     12         -9.605485   1.000000
     13         -9.600776   1.000000
     14         -8.415331   1.000000
     15         -7.370970   1.000000
     16         -7.366604   1.000000
     17         -7.264394   1.000000
     18         -7.232546   1.000000
     19         -6.874973   1.000000
     20         -6.181345   1.000000
     21         -6.053411   1.000000
     22         -5.633976   1.000000
     23         -5.487981   1.000000
     24         -5.440531   1.000000
     25         -5.282929   1.000000
     26         -4.688805   1.000000
     27         -3.964930   1.000000
     28         -3.950282   1.000000
     29         -3.466594   1.000000
     30         -3.218370   1.000000
     31         -1.793632   1.000000
     32         -0.251625   0.000000
     33          0.341791   0.000000
     34          1.787198   0.000000
     35          4.095676   0.000000
     36          4.109190   0.000000
     37          4.401132   0.000000
     38          5.055642   0.000000
     39          6.080260   0.000000
     40          6.088183   0.000000
     41          6.111262   0.000000
     42          6.197685   0.000000
     43          6.284919   0.000000
     44          6.596766   0.000000
     45          6.775545   0.000000
     46          6.826808   0.000000
     47          7.787619   0.000000
     48          7.813169   0.000000
 
  0.2537143E+00  0.2537143E+00  0.0000000E+00  0.5208333E-02
      1        -18.799748   1.000000
      2        -17.486463   1.000000
      3        -17.477653   1.000000
      4        -17.353108   1.000000
      5        -15.361595   1.000000
      6        -14.905941   1.000000
      7        -13.986532   1.000000
      8        -13.051051   1.000000
      9        -11.186633   1.000000
     10        -10.592955   1.000000
     11        -10.321200   1.000000
     12         -9.697372   1.000000
     13         -9.692669   1.000000
     14         -8.352064   1.000000
     15         -7.374624   1.000000
     16         -7.367834   1.000000
     17         -7.349553   1.000000
     18         -7.136521   1.000000
     19         -6.928662   1.000000
     20         -6.244166   1.000000
     21         -5.980847   1.000000
     22         -5.623371   1.000000
     23         -5.467251   1.000000
     24         -5.395439   1.000000
     25         -5.281357   1.000000
     26         -4.661497   1.000000
     27         -3.934211   1.000000
     28         -3.904384   1.000000
     29         -3.424934   1.000000
     30         -3.158104   1.000000
     31         -1.847617   1.000000
     32         -0.237699   0.000000
     33          0.329042   0.000000
     34          1.827056   0.000000
     35          4.015815   0.000000
     36          4.029568   0.000000
     37          4.339119   0.000000
     38          4.992856   0.000000
     39          6.024565   0.000000
     40          6.110765   0.000000
     41          6.145766   0.000000
     42          6.161928   0.000000
     43          6.222575   0.000000
     44          6.701861   0.000000
     45          6.831922   0.000000
     46          6.873865   0.000000
     47          7.771651   0.000000
     48          7.813049   0.000000
 
  0.2484286E+00  0.2484286E+00  0.0000000E+00  0.5208333E-02
      1        -18.844331   1.000000
      2        -17.449554   1.000000
      3        -17.434741   1.000000
      4        -17.362142   1.000000
      5        -15.346768   1.000000
      6        -14.876422   1.000000
      7        -14.025841   1.000000
      8        -13.063458   1.000000