  16  16   0   4
  0.2015159E+02  0.4982000E-09  0.4982000E-09  0.1500000E-08  0.5000000E-15
  1.000000000000000E-004
  CAR 
 Lattice                                 
      9.71928390    -21.09891535  301     -0.29913841      1.00000000
    -21.099  0.0000E+00  0.0000E+00  0.0000E+00  0.0000E+00
    -20.996  0.0000E+00  0.0000E+00  0.0000E+00  0.0000E+00
    -20.893  0.0000E+00  0.0000E+00  0.0000E+00  0.0000E+00
    -20.791  0.0000E+00  0.0000E+00  0.0000E+00  0.0000E+00
    -20.688  0.0000E+00  0.0000E+00  0.0000E+00  0.0000E+00
    -20.585  0.0000E+00  0.0000E+00  0.0000E+00  0.0000E+00
    -20.483  0.0000E+00  0.0000E+00  0.0000E+00  0.0000E+00
    -20.380  0.0000E+00  0.0000E+00  0.0000E+00  0.0000E+00
    -20.277  0.5863E-19  0.5863E-19  0.6023E-20  0.6023E-20
    -20.174  0.4746E-14  0.4746E-14  0.4876E-15  0.4876E-15
    -20.072  0.4123E-10  0.4123E-10  0.4236E-11  0.4236E-11
    -19.969  0.5096E-07  0.5096E-07  0.5240E-08  0.5240E-08
    -19.866  0.9704E-05  0.9704E-05  0.1002E-05  0.1002E-05
    -19.763  0.3134E-03  0.3134E-03  0.3320E-04  0.3320E-04
    -19.661  0.2082E-02  0.2082E-02  0.2471E-03  0.2471E-03
    -19.558  0.4307E-02  0.4307E-02  0.6895E-03  0.6895E-03
    -19.455  0.4769E-02  0.4769E-02  0.1179E-02  0.1179E-02
    -19.353  0.5113E-02  0.5113E-02  0.1705E-02  0.1705E-02
    -19.250  0.4453E-02  0.4453E-02  0.2162E-02  0.2162E-02
    -19.147  0.5578E-02  0.5578E-02  0.2735E-02  0.2735E-02
    -19.044  0.4374E-02  0.4374E-02  0.3184E-02  0.3184E-02
    -18.942  0.4667E-02  0.4667E-02  0.3664E-02  0.3664E-02
    -18.839  0.6138E-02  0.6138E-02  0.4294E-02  0.4294E-02
    -18.736  0.3884E-02  0.3884E-02  0.4693E-02  0.4693E-02
    -18.633  0.4391E-02  0.4391E-02  0.5144E-02  0.5144E-02
    -18.531  0.6371E-02  0.6371E-02  0.5799E-02  0.5799E-02
    -18.428  0.5189E-02  0.5189E-02  0.6332E-02  0.6332E-02
    -18.325  0.3055E-02  0.3055E-02  0.6646E-02  0.6646E-02
    -18.223  0.5209E-02  0.5209E-02  0.7181E-02  0.7181E-02
    -18.120  0.6948E-02  0.6948E-02  0.7895E-02  0.7895E-02
    -18.017  0.4574E-02  0.4574E-02  0.8365E-02  0.8365E-02
    -17.914  0.3764E-02  0.3764E-02  0.8751E-02  0.8751E-02
    -17.812  0.3670E-02  0.3670E-02  0.9128E-02  0.9128E-02
    -17.709  0.7396E-02  0.7396E-02  0.9888E-02  0.9888E-02
    -17.606  0.6241E-02  0.6241E-02  0.1053E-01  0.1053E-01
    -17.503  0.3352E-02  0.3352E-02  0.1087E-01  0.1087E-01
    -17.401  0.3777E-02  0.3777E-02  0.1126E-01  0.1126E-01
    -17.298  0.4659E-02  0.4659E-02  0.1174E-01  0.1174E-01
    -17.195  0.7090E-02  0.7090E-02  0.1247E-01  0.1247E-01
    -17.093  0.6473E-02  0.6473E-02  0.1313E-01  0.1313E-01
    -16.990  0.4363E-02  0.4363E-02  0.1358E-01  0.1358E-01
    -16.887  0.2312E-02  0.2312E-02  0.1382E-01  0.1382E-01
    -16.784  0.4723E-02  0.4723E-02  0.1430E-01  0.1430E-01
    -16.682  0.7241E-02  0.7241E-02  0.1505E-01  0.1505E-01
    -16.579  0.6434E-02  0.6434E-02  0.1571E-01  0.1571E-01
    -16.476  0.5286E-02  0.5286E-02  0.1625E-01  0.1625E-01
    -16.373  0.4474E-02  0.4474E-02  0.1671E-01  0.1671E-01
    -16.271  0.2625E-02  0.2625E-02  0.1698E-01  0.1698E-01
    -16.168  0.3905E-02  0.3905E-02  0.1738E-01  0.1738E-01
    -16.065  0.9247E-02  0.9247E-02  0.1833E-01  0.1833E-01
    -15.963  0.7903E-02  0.7903E-02  0.1914E-01  0.1914E-01
    -15.860  0.9146E-02  0.9146E-02  0.2008E-01  0.2008E-01
    -15.757  0.1020E-01  0.1020E-01  0.2113E-01  0.2113E-01
    -15.654  0.1056E-01  0.1056E-01  0.2222E-01  0.2222E-01
    -15.552  0.1000E-01  0.1000E-01  0.2324E-01  0.2324E-01
    -15.449  0.1323E-01  0.1323E-01  0.2460E-01  0.2460E-01
    -15.346  0.1684E-01  0.1684E-01  0.2633E-01  0.2633E-01
    -15.243  0.1309E-01  0.1309E-01  0.2768E-01  0.2768E-01
    -15.141  0.1352E-01  0.1352E-01  0.2907E-01  0.2907E-01
    -15.038  0.1338E-01  0.1338E-01  0.3044E-01  0.3044E-01
    -14.935  0.1024E-01  0.1024E-01  0.3149E-01  0.3149E-01
    -14.833  0.9104E-02  0.9104E-02  0.3243E-01  0.3243E-01
    -14.730  0.1055E-01  0.1055E-01  0.3351E-01  0.3351E-01
    -14.627  0.1086E-01  0.1086E-01  0.3463E-01  0.3463E-01
    -14.524  0.8699E-02  0.8699E-02  0.3552E-01  0.3552E-01
    -14.422  0.9815E-02  0.9815E-02  0.3653E-01  0.3653E-01
    -14.319  0.7960E-02  0.7960E-02  0.3735E-01  0.3735E-01
    -14.216  0.1008E-01  0.1008E-01  0.3838E-01  0.3838E-01
    -14.113  0.1523E-01  0.1523E-01  0.3995E-01  0.3995E-01
    -14.011  0.1207E-01  0.1207E-01  0.4119E-01  0.4119E-01
    -13.908  0.6542E-02  0.6542E-02  0.4186E-01  0.4186E-01
    -13.805  0.5153E-02  0.5153E-02  0.4239E-01  0.4239E-01
    -13.703  0.3922E-02  0.3922E-02  0.4279E-01  0.4279E-01
    -13.600  0.4417E-02  0.4417E-02  0.4324E-01  0.4324E-01
    -13.497  0.7801E-02  0.7801E-02  0.4405E-01  0.4405E-01
    -13.394  0.8281E-02  0.8281E-02  0.4490E-01  0.4490E-01
    -13.292  0.6521E-02  0.6521E-02  0.4557E-01  0.4557E-01
    -13.189  0.6239E-02  0.6239E-02  0.4621E-01  0.4621E-01
    -13.086  0.7694E-02  0.7694E-02  0.4700E-01  0.4700E-01
    -12.983  0.8247E-02  0.8247E-02  0.4784E-01  0.4784E-01
    -12.881  0.5989E-02  0.5989E-02  0.4846E-01  0.4846E-01
    -12.778  0.8381E-02  0.8381E-02  0.4932E-01  0.4932E-01
    -12.675  0.9414E-02  0.9414E-02  0.5029E-01  0.5029E-01
    -12.573  0.1103E-01  0.1103E-01  0.5142E-01  0.5142E-01
    -12.470  0.1431E-01  0.1431E-01  0.5289E-01  0.5289E-01
    -12.367  0.1159E-01  0.1159E-01  0.5408E-01  0.5408E-01
    -12.264  0.1400E-01  0.1400E-01  0.5552E-01  0.5552E-01
    -12.162  0.1306E-01  0.1306E-01  0.5686E-01  0.5686E-01
    -12.059  0.1322E-01  0.1322E-01  0.5822E-01  0.5822E-01
    -11.956  0.2027E-01  0.2027E-01  0.6030E-01  0.6030E-01
    -11.853  0.1677E-01  0.1677E-01  0.6202E-01  0.6202E-01
    -11.751  0.1121E-01  0.1121E-01  0.6317E-01  0.6317E-01
    -11.648  0.1043E-01  0.1043E-01  0.6425E-01  0.6425E-01
    -11.545  0.9044E-02  0.9044E-02  0.6518E-01  0.6518E-01
    -11.443  0.7676E-02  0.7676E-02  0.6596E-01  0.6596E-01
    -11.340  0.4789E-02  0.4789E-02  0.6646E-01  0.6646E-01
    -11.237  0.3542E-02  0.3542E-02  0.6682E-01  0.6682E-01
    -11.134  0.5132E-02  0.5132E-02  0.6735E-01  0.6735E-01
    -11.032  0.5103E-02  0.5103E-02  0.6787E-01  0.6787E-01
    -10.929  0.5894E-02  0.5894E-02  0.6848E-01  0.6848E-01
    -10.826  0.7835E-02  0.7835E-02  0.6928E-01  0.6928E-01
    -10.723  0.1018E-01  0.1018E-01  0.7033E-01  0.7033E-01
    -10.621  0.8907E-02  0.8907E-02  0.7124E-01  0.7124E-01
    -10.518  0.1365E-01  0.1365E-01  0.7265E-01  0.7265E-01
    -10.415  0.2118E-01  0.2118E-01  0.7482E-01  0.7482E-01
    -10.313  0.1440E-01  0.1440E-01  0.7630E-01  0.7630E-01
    -10.210  0.6762E-02  0.6762E-02  0.7700E-01  0.7700E-01
    -10.107  0.4792E-02  0.4792E-02  0.7749E-01  0.7749E-01
    -10.004  0.1091E-01  0.1091E-01  0.7861E-01  0.7861E-01
     -9.902  0.1662E-01  0.1662E-01  0.8032E-01  0.8032E-01
     -9.799  0.1054E-01  0.1054E-01  0.8140E-01  0.8140E-01
     -9.696  0.4929E-02  0.4929E-02  0.8191E-01  0.8191E-01
     -9.593  0.8277E-02  0.8277E-02  0.8276E-01  0.8276E-01
     -9.491  0.1562E-01  0.1562E-01  0.8436E-01  0.8436E-01
     -9.388  0.1731E-01  0.1731E-01  0.8614E-01  0.8614E-01
     -9.285  0.1543E-01  0.1543E-01  0.8772E-01  0.8772E-01
     -9.183  0.1892E-01  0.1892E-01  0.8967E-01  0.8967E-01
     -9.080  0.1465E-01  0.1465E-01  0.9117E-01  0.9117E-01
     -8.977  0.9202E-02  0.9202E-02  0.9212E-01  0.9212E-01
     -8.874  0.1604E-01  0.1604E-01  0.9376E-01  0.9376E-01
     -8.772  0.2064E-01  0.2064E-01  0.9588E-01  0.9588E-01
     -8.669  0.1193E-01  0.1193E-01  0.9711E-01  0.9711E-01
     -8.566  0.7197E-02  0.7197E-02  0.9785E-01  0.9785E-01
     -8.463  0.1505E-01  0.1505E-01  0.9940E-01  0.9940E-01
     -8.361  0.2135E-01  0.2135E-01  0.1016E+00  0.1016E+00
     -8.258  0.1577E-01  0.1577E-01  0.1032E+00  0.1032E+00
     -8.155  0.8176E-02  0.8176E-02  0.1040E+00  0.1040E+00
     -8.053  0.1441E-01  0.1441E-01  0.1055E+00  0.1055E+00
     -7.950  0.1262E-01  0.1262E-01  0.1068E+00  0.1068E+00
     -7.847  0.1582E-01  0.1582E-01  0.1085E+00  0.1085E+00
     -7.744  0.2646E-01  0.2646E-01  0.1112E+00  0.1112E+00
     -7.642  0.1938E-01  0.1938E-01  0.1132E+00  0.1132E+00
     -7.539  0.1409E-01  0.1409E-01  0.1146E+00  0.1146E+00
     -7.436  0.1353E-01  0.1353E-01  0.1160E+00  0.1160E+00
     -7.333  0.1885E-01  0.1885E-01  0.1179E+00  0.1179E+00
     -7.231  0.2016E-01  0.2016E-01  0.1200E+00  0.1200E+00
     -7.128  0.1537E-01  0.1537E-01  0.1216E+00  0.1216E+00
     -7.025  0.1483E-01  0.1483E-01  0.1231E+00  0.1231E+00
     -6.923  0.1857E-01  0.1857E-01  0.1250E+00  0.1250E+00
     -6.820  0.2312E-01  0.2312E-01  0.1274E+00  0.1274E+00
     -6.717  0.2458E-01  0.2458E-01  0.1299E+00  0.1299E+00
     -6.614  0.2875E-01  0.2875E-01  0.1329E+00  0.1329E+00
     -6.512  0.2888E-01  0.2888E-01  0.1358E+00  0.1358E+00
     -6.409  0.2723E-01  0.2723E-01  0.1386E+00  0.1386E+00
     -6.306  0.2440E-01  0.2440E-01  0.1411E+00  0.1411E+00
     -6.203  0.2178E-01  0.2178E-01  0.1434E+00  0.1434E+00
     -6.101  0.1701E-01  0.1701E-01  0.1451E+00  0.1451E+00
     -5.998  0.1643E-01  0.1643E-01  0.1468E+00  0.1468E+00
     -5.895  0.1546E-01  0.1546E-01  0.1484E+00  0.1484E+00
     -5.793  0.1535E-01  0.1535E-01  0.1500E+00  0.1500E+00
     -5.690  0.1987E-01  0.1987E-01  0.1520E+00  0.1520E+00
     -5.587  0.1522E-01  0.1522E-01  0.1536E+00  0.1536E+00
     -5.484  0.7916E-02  0.7916E-02  0.1544E+00  0.1544E+00
     -5.382  0.1272E-01  0.1272E-01  0.1557E+00  0.1557E+00
     -5.279  0.1948E-01  0.1948E-01  0.1577E+00  0.1577E+00
     -5.176  0.1782E-01  0.1782E-01  0.1595E+00  0.1595E+00
     -5.073  0.1195E-01  0.1195E-01  0.1608E+00  0.1608E+00
     -4.971  0.1391E-01  0.1391E-01  0.1622E+00  0.1622E+00
     -4.868  0.1928E-01  0.1928E-01  0.1642E+00  0.1642E+00
     -4.765  0.1413E-01  0.1413E-01  0.1656E+00  0.1656E+00
     -4.663  0.8163E-02  0.8163E-02  0.1665E+00  0.1665E+00
     -4.560  0.1271E-01  0.1271E-01  0.1678E+00  0.1678E+00
     -4.457  0.2004E-01  0.2004E-01  0.1698E+00  0.1698E+00
     -4.354  0.1972E-01  0.1972E-01  0.1719E+00  0.1719E+00
     -4.252  0.1816E-01  0.1816E-01  0.1737E+00  0.1737E+00
     -4.149  0.1928E-01  0.1928E-01  0.1757E+00  0.1757E+00
     -4.046  0.1972E-01  0.1972E-01  0.1777E+00  0.1777E+00
     -3.943  0.2194E-01  0.2194E-01  0.1800E+00  0.1800E+00
     -3.841  0.2531E-01  0.2531E-01  0.1826E+00  0.1826E+00
     -3.738  0.2827E-01  0.2827E-01  0.1855E+00  0.1855E+00
     -3.635  0.2795E-01  0.2795E-01  0.1884E+00  0.1884E+00
     -3.533  0.2249E-01  0.2249E-01  0.1907E+00  0.1907E+00
     -3.430  0.1576E-01  0.1576E-01  0.1923E+00  0.1923E+00
     -3.327  0.1254E-01  0.1254E-01  0.1936E+00  0.1936E+00
     -3.224  0.1241E-01  0.1241E-01  0.1948E+00  0.1948E+00
     -3.122  0.9866E-02  0.9866E-02  0.1959E+00  0.1959E+00
     -3.019  0.1339E-01  0.1339E-01  0.1972E+00  0.1972E+00
     -2.916  0.1636E-01  0.1636E-01  0.1989E+00  0.1989E+00
     -2.813  0.1191E-01  0.1191E-01  0.2001E+00  0.2001E+00
     -2.711  0.9504E-02  0.9504E-02  0.2011E+00  0.2011E+00
     -2.608  0.9144E-02  0.9144E-02  0.2021E+00  0.2021E+00
     -2.505  0.1523E-01  0.1523E-01  0.2036E+00  0.2036E+00
     -2.403  0.1815E-01  0.1815E-01  0.2055E+00  0.2055E+00
     -2.300  0.9257E-02  0.9257E-02  0.2064E+00  0.2064E+00
     -2.197  0.7308E-02  0.7308E-02  0.2072E+00  0.2072E+00
     -2.094  0.9946E-02  0.9946E-02  0.2082E+00  0.2082E+00
     -1.992  0.8291E-02  0.8291E-02  0.2091E+00  0.2091E+00
     -1.889  0.7961E-02  0.7961E-02  0.2099E+00  0.2099E+00
     -1.786  0.8004E-02  0.8004E-02  0.2107E+00  0.2107E+00
     -1.683  0.8446E-02  0.8446E-02  0.2116E+00  0.2116E+00
     -1.581  0.7618E-02  0.7618E-02  0.2123E+00  0.2123E+00
     -1.478  0.9869E-02  0.9869E-02  0.2134E+00  0.2134E+00
     -1.375  0.7170E-02  0.7170E-02  0.2141E+00  0.2141E+00
     -1.273  0.4724E-02  0.4725E-02  0.2146E+00  0.2146E+00
     -1.170  0.6359E-02  0.6359E-02  0.2152E+00  0.2152E+00
     -1.067  0.6858E-02  0.6858E-02  0.2159E+00  0.2159E+00
     -0.964  0.7138E-02  0.7139E-02  0.2167E+00  0.2167E+00
     -0.862  0.5417E-02  0.5417E-02  0.2172E+00  0.2172E+00
     -0.759  0.2457E-02  0.2457E-02  0.2175E+00  0.2175E+00
     -0.656  0.1104E-02  0.1104E-02  0.2176E+00  0.2176E+00
     -0.553  0.2809E-02  0.2809E-02  0.2179E+00  0.2179E+00
     -0.451  0.4106E-02  0.4106E-02  0.2183E+00  0.2183E+00
     -0.348  0.2971E-02  0.2971E-02  0.2186E+00  0.2186E+00
     -0.245  0.2779E-02  0.2779E-02  0.2189E+00  0.2189E+00
     -0.143  0.3233E-02  0.3233E-02  0.2192E+00  0.2192E+00
     -0.040  0.3354E-02  0.3354E-02  0.2196E+00  0.2196E+00
      0.063  0.2809E-02  0.2809E-02  0.2199E+00  0.2199E+00
      0.166  0.5467E-02  0.5467E-02  0.2204E+00  0.2204E+00
      0.268  0.9396E-02  0.9396E-02  0.2214E+00  0.2214E+00
      0.371  0.1092E-01  0.1092E-01  0.2225E+00  0.2225E+00
      0.474  0.1081E-01  0.1081E-01  0.2236E+00  0.2236E+00
      0.577  0.7475E-02  0.7475E-02  0.2244E+00  0.2244E+00
      0.679  0.4784E-02  0.4784E-02  0.2249E+00  0.2249E+00
      0.782  0.9544E-02  0.9544E-02  0.2259E+00  0.2259E+00
      0.885  0.1049E-01  0.1049E-01  0.2269E+00  0.2269E+00
      0.987  0.5170E-02  0.5170E-02  0.2275E+00  0.2275E+00
      1.090  0.5414E-02  0.5414E-02  0.2280E+00  0.2280E+00
      1.193  0.1348E-01  0.1348E-01  0.2294E+00  0.2294E+00
      1.296  0.1783E-01  0.1783E-01  0.2312E+00  0.2312E+00
      1.398  0.1496E-01  0.1496E-01  0.2328E+00  0.2328E+00
      1.501  0.1229E-01  0.1229E-01  0.2340E+00  0.2340E+00
      1.604  0.8425E-02  0.8425E-02  0.2349E+00  0.2349E+00
      1.707  0.6907E-02  0.6907E-02  0.2356E+00  0.2356E+00
      1.809  0.1088E-01  0.1088E-01  0.2367E+00  0.2367E+00
      1.912  0.1053E-01  0.1053E-01  0.2378E+00  0.2378E+00
      2.015  0.1434E-01  0.1434E-01  0.2393E+00  0.2393E+00
      2.117  0.1176E-01  0.1176E-01  0.2405E+00  0.2405E+00
      2.220  0.8785E-02  0.8785E-02  0.2414E+00  0.2414E+00
      2.323  0.1027E-01  0.1027E-01  0.2425E+00  0.2425E+00
      2.426  0.5997E-02  0.5997E-02  0.2431E+00  0.2431E+00
      2.528  0.9889E-02  0.9888E-02  0.2441E+00  0.2441E+00
      2.631  0.1513E-01  0.1513E-01  0.2456E+00  0.2456E+00
      2.734  0.1385E-01  0.1385E-01  0.2471E+00  0.2471E+00
      2.837  0.1201E-01  0.1201E-01  0.2483E+00  0.2483E+00
      2.939  0.8693E-02  0.8693E-02  0.2492E+00  0.2492E+00
      3.042  0.8972E-02  0.8971E-02  0.2501E+00  0.2501E+00
      3.145  0.1624E-01  0.1624E-01  0.2518E+00  0.2518E+00
      3.247  0.2082E-01  0.2082E-01  0.2539E+00  0.2539E+00
      3.350  0.1884E-01  0.1884E-01  0.2559E+00  0.2559E+00
      3.453  0.1361E-01  0.1362E-01  0.2573E+00  0.2573E+00
      3.556  0.1842E-01  0.1842E-01  0.2591E+00  0.2591E+00
      3.658  0.2241E-01  0.2241E-01  0.2615E+00  0.2614E+00
      3.761  0.1879E-01  0.1879E-01  0.2634E+00  0.2634E+00
      3.864  0.1969E-01  0.1969E-01  0.2654E+00  0.2654E+00
      3.967  0.1928E-01  0.1928E-01  0.2674E+00  0.2674E+00
      4.069  0.1808E-01  0.1808E-01  0.2692E+00  0.2692E+00
      4.172  0.2158E-01  0.2158E-01  0.2715E+00  0.2715E+00
      4.275  0.2606E-01  0.2606E-01  0.2741E+00  0.2741E+00
      4.377  0.2415E-01  0.2415E-01  0.2766E+00  0.2766E+00
      4.480  0.1718E-01  0.1719E-01  0.2784E+00  0.2784E+00
      4.583  0.2151E-01  0.2151E-01  0.2806E+00  0.2806E+00
      4.686  0.2950E-01  0.2950E-01  0.2836E+00  0.2836E+00
      4.788  0.2007E-01  0.2007E-01  0.2857E+00  0.2857E+00
      4.891  0.2117E-01  0.2117E-01  0.2879E+00  0.2879E+00
      4.994  0.2793E-01  0.2793E-01  0.2907E+00  0.2907E+00
      5.097  0.3109E-01  0.3109E-01  0.2939E+00  0.2939E+00
      5.199  0.3024E-01  0.3024E-01  0.2970E+00  0.2970E+00
      5.302  0.2638E-01  0.2638E-01  0.2997E+00  0.2997E+00
      5.405  0.2128E-01  0.2128E-01  0.3019E+00  0.3019E+00
      5.507  0.2432E-01  0.2431E-01  0.3044E+00  0.3044E+00
      5.610  0.2850E-01  0.2850E-01  0.3073E+00  0.3073E+00
      5.713  0.2663E-01  0.2663E-01  0.3101E+00  0.3101E+00
      5.816  0.2301E-01  0.2301E-01  0.3124E+00  0.3124E+00
      5.918  0.2036E-01  0.2036E-01  0.3145E+00  0.3145E+00
      6.021  0.2240E-01  0.2240E-01  0.3168E+00  0.3168E+00
      6.124  0.2349E-01  0.2349E-01  0.3193E+00  0.3193E+00
      6.227  0.1805E-01  0.1805E-01  0.3211E+00  0.3211E+00
      6.329  0.1958E-01  0.1958E-01  0.3231E+00  0.3231E+00
      6.432  0.2114E-01  0.2114E-01  0.3253E+00  0.3253E+00
      6.535  0.2482E-01  0.2482E-01  0.3278E+00  0.3278E+00
      6.637  0.2696E-01  0.2696E-01  0.3306E+00  0.3306E+00
      6.740  0.3081E-01  0.3082E-01  0.3338E+00  0.3338E+00
      6.843  0.2828E-01  0.2828E-01  0.3367E+00  0.3367E+00
      6.946  0.2789E-01  0.2788E-01  0.3395E+00  0.3395E+00
      7.048  0.2556E-01  0.2556E-01  0.3422E+00  0.3422E+00
      7.151  0.2846E-01  0.2846E-01  0.3451E+00  0.3451E+00
      7.254  0.3252E-01  0.3252E-01  0.3484E+00  0.3484E+00
      7.357  0.4188E-01  0.4189E-01  0.3527E+00  0.3527E+00
      7.459  0.4148E-01  0.4148E-01  0.3570E+00  0.3570E+00
      7.562  0.2900E-01  0.2900E-01  0.3600E+00  0.3600E+00
      7.665  0.2776E-01  0.2776E-01  0.3628E+00  0.3628E+00
      7.767  0.3604E-01  0.3604E-01  0.3665E+00  0.3665E+00
      7.870  0.3217E-01  0.3217E-01  0.3698E+00  0.3698E+00
      7.973  0.2267E-01  0.2268E-01  0.3722E+00  0.3722E+00
      8.076  0.1693E-01  0.1693E-01  0.3739E+00  0.3739E+00
      8.178  0.8776E-02  0.8779E-02  0.3748E+00  0.3748E+00
      8.281  0.1474E-02  0.1475E-02  0.3750E+00  0.3750E+00
      8.384  0.3168E-03  0.3168E-03  0.3750E+00  0.3750E+00
      8.487  0.8939E-04  0.8937E-04  0.3750E+00  0.3750E+00
      8.589  0.4572E-05  0.4569E-05  0.3750E+00  0.3750E+00
      8.692  0.3380E-07  0.3377E-07  0.3750E+00  0.3750E+00
      8.795  0.3358E-10  0.3354E-10  0.3750E+00  0.3750E+00
      8.897  0.4310E-14  0.4304E-14  0.3750E+00  0.3750E+00
      9.000  0.5863E-19  0.5863E-19  0.3750E+00  0.3750E+00
      9.103  0.0000E+00  0.0000E+00  0.3750E+00  0.3750E+00
      9.206  0.0000E+00  0.0000E+00  0.3750E+00  0.3750E+00
      9.308  0.0000E+00  0.0000E+00  0.3750E+00  0.3750E+00
      9.411  0.0000E+00  0.0000E+00  0.3750E+00  0.3750E+00
      9.514  0.0000E+00  0.0000E+00  0.3750E+00  0.3750E+00
      9.617  0.0000E+00  0.0000E+00  0.3750E+00  0.3750E+00
      9.719  0.0000E+00  0.0000E+00  0.3750E+00  0.3750E+00
