  15  15   0  16
  0.2033749E+02  0.4846000E-09  0.4846000E-09  0.1500000E-08  0.5000000E-15
  1.000000000000000E-004
  CAR 
 SC                                      
     10.41513681    -21.70063599  301     -0.32297101      1.00000000
    -21.701  0.0000E+00  0.0000E+00
    -21.594  0.0000E+00  0.0000E+00
    -21.487  0.0000E+00  0.0000E+00
    -21.379  0.0000E+00  0.0000E+00
    -21.272  0.0000E+00  0.0000E+00
    -21.165  0.0000E+00  0.0000E+00
    -21.058  0.0000E+00  0.0000E+00
    -20.951  0.0000E+00  0.0000E+00
    -20.844  0.0000E+00  0.0000E+00
    -20.737  0.1203E-12  0.1288E-13
    -20.630  0.2481E-08  0.2656E-09
    -20.523  0.5834E-05  0.6248E-06
    -20.416  0.1684E-02  0.1809E-03
    -20.309  0.6850E-01  0.7514E-02
    -20.202  0.5063E+00  0.6171E-01
    -20.095  0.1053E+01  0.1744E+00
    -19.988  0.1186E+01  0.3014E+00
    -19.881  0.1193E+01  0.4292E+00
    -19.774  0.1195E+01  0.5570E+00
    -19.667  0.1196E+01  0.6851E+00
    -19.560  0.1197E+01  0.8132E+00
    -19.453  0.1199E+01  0.9416E+00
    -19.345  0.1200E+01  0.1070E+01
    -19.238  0.1202E+01  0.1199E+01
    -19.131  0.1203E+01  0.1328E+01
    -19.024  0.1205E+01  0.1456E+01
    -18.917  0.1206E+01  0.1586E+01
    -18.810  0.1208E+01  0.1715E+01
    -18.703  0.1209E+01  0.1844E+01
    -18.596  0.1211E+01  0.1974E+01
    -18.489  0.1214E+01  0.2104E+01
    -18.382  0.1215E+01  0.2234E+01
    -18.275  0.1216E+01  0.2364E+01
    -18.168  0.1218E+01  0.2495E+01
    -18.061  0.1223E+01  0.2626E+01
    -17.954  0.1223E+01  0.2757E+01
    -17.847  0.1222E+01  0.2887E+01
    -17.740  0.1230E+01  0.3019E+01
    -17.633  0.1231E+01  0.3151E+01
    -17.526  0.1239E+01  0.3283E+01
    -17.419  0.1485E+01  0.3442E+01
    -17.311  0.2349E+01  0.3694E+01
    -17.204  0.3049E+01  0.4020E+01
    -17.097  0.3308E+01  0.4374E+01
    -16.990  0.3591E+01  0.4759E+01
    -16.883  0.4361E+01  0.5226E+01
    -16.776  0.5481E+01  0.5812E+01
    -16.669  0.4308E+01  0.6274E+01
    -16.562  0.1917E+01  0.6479E+01
    -16.455  0.1282E+01  0.6616E+01
    -16.348  0.1283E+01  0.6753E+01
    -16.241  0.1254E+01  0.6888E+01
    -16.134  0.1295E+01  0.7026E+01
    -16.027  0.1263E+01  0.7161E+01
    -15.920  0.1306E+01  0.7301E+01
    -15.813  0.1278E+01  0.7438E+01
    -15.706  0.1318E+01  0.7579E+01
    -15.599  0.1297E+01  0.7718E+01
    -15.492  0.1336E+01  0.7861E+01
    -15.385  0.1324E+01  0.8003E+01
    -15.277  0.1365E+01  0.8149E+01
    -15.170  0.1365E+01  0.8295E+01
    -15.063  0.1506E+01  0.8456E+01
    -14.956  0.2318E+01  0.8704E+01
    -14.849  0.3972E+01  0.9130E+01
    -14.742  0.4980E+01  0.9663E+01
    -14.635  0.4525E+01  0.1015E+02
    -14.528  0.3255E+01  0.1050E+02
    -14.421  0.2903E+01  0.1081E+02
    -14.314  0.2805E+01  0.1111E+02
    -14.207  0.2886E+01  0.1142E+02
    -14.100  0.2936E+01  0.1173E+02
    -13.993  0.3287E+01  0.1208E+02
    -13.886  0.4094E+01  0.1252E+02
    -13.779  0.5181E+01  0.1307E+02
    -13.672  0.4767E+01  0.1358E+02
    -13.565  0.3829E+01  0.1399E+02
    -13.458  0.2655E+01  0.1428E+02
    -13.351  0.1549E+01  0.1444E+02
    -13.243  0.1306E+01  0.1458E+02
    -13.136  0.1293E+01  0.1472E+02
    -13.029  0.1327E+01  0.1487E+02
    -12.922  0.1483E+01  0.1502E+02
    -12.815  0.1725E+01  0.1521E+02
    -12.708  0.1696E+01  0.1539E+02
    -12.601  0.1544E+01  0.1556E+02
    -12.494  0.1457E+01  0.1571E+02
    -12.387  0.1401E+01  0.1586E+02
    -12.280  0.1356E+01  0.1601E+02
    -12.173  0.1315E+01  0.1615E+02
    -12.066  0.1280E+01  0.1628E+02
    -11.959  0.1251E+01  0.1642E+02
    -11.852  0.1219E+01  0.1655E+02
    -11.745  0.1191E+01  0.1668E+02
    -11.638  0.1168E+01  0.1680E+02
    -11.531  0.1141E+01  0.1692E+02
    -11.424  0.1118E+01  0.1704E+02
    -11.317  0.1108E+01  0.1716E+02
    -11.209  0.1187E+01  0.1729E+02
    -11.102  0.1331E+01  0.1743E+02
    -10.995  0.1378E+01  0.1758E+02
    -10.888  0.1393E+01  0.1773E+02
    -10.781  0.1407E+01  0.1788E+02
    -10.674  0.1616E+01  0.1805E+02
    -10.567  0.2465E+01  0.1832E+02
    -10.460  0.3132E+01  0.1865E+02
    -10.353  0.3619E+01  0.1904E+02
    -10.246  0.4034E+01  0.1947E+02
    -10.139  0.4382E+01  0.1994E+02
    -10.032  0.3896E+01  0.2036E+02
     -9.925  0.3406E+01  0.2072E+02
     -9.818  0.3083E+01  0.2105E+02
     -9.711  0.3362E+01  0.2141E+02
     -9.604  0.3763E+01  0.2181E+02
     -9.497  0.3496E+01  0.2219E+02
     -9.390  0.3368E+01  0.2255E+02
     -9.283  0.3311E+01  0.2290E+02
     -9.175  0.3410E+01  0.2327E+02
     -9.068  0.3540E+01  0.2365E+02
     -8.961  0.3731E+01  0.2405E+02
     -8.854  0.3552E+01  0.2443E+02
     -8.747  0.3497E+01  0.2480E+02
     -8.640  0.3403E+01  0.2517E+02
     -8.533  0.3420E+01  0.2553E+02
     -8.426  0.3514E+01  0.2591E+02
     -8.319  0.3987E+01  0.2633E+02
     -8.212  0.4403E+01  0.2681E+02
     -8.105  0.4451E+01  0.2728E+02
     -7.998  0.4737E+01  0.2779E+02
     -7.891  0.5614E+01  0.2839E+02
     -7.784  0.5766E+01  0.2901E+02
     -7.677  0.4382E+01  0.2948E+02
     -7.570  0.3474E+01  0.2985E+02
     -7.463  0.3297E+01  0.3020E+02
     -7.356  0.3403E+01  0.3057E+02
     -7.249  0.3506E+01  0.3094E+02
     -7.141  0.3691E+01  0.3134E+02
     -7.034  0.3889E+01  0.3175E+02
     -6.927  0.4325E+01  0.3222E+02
     -6.820  0.4825E+01  0.3273E+02
     -6.713  0.4905E+01  0.3326E+02
     -6.606  0.4962E+01  0.3379E+02
     -6.499  0.4847E+01  0.3431E+02
     -6.392  0.4790E+01  0.3482E+02
     -6.285  0.4913E+01  0.3535E+02
     -6.178  0.5514E+01  0.3594E+02
     -6.071  0.6234E+01  0.3660E+02
     -5.964  0.7171E+01  0.3737E+02
     -5.857  0.7065E+01  0.3813E+02
     -5.750  0.5610E+01  0.3873E+02
     -5.643  0.4967E+01  0.3926E+02
     -5.536  0.6538E+01  0.3996E+02
     -5.429  0.8303E+01  0.4085E+02
     -5.322  0.8266E+01  0.4173E+02
     -5.215  0.5251E+01  0.4230E+02
     -5.107  0.3517E+01  0.4267E+02
     -5.000  0.3031E+01  0.4300E+02
     -4.893  0.2874E+01  0.4330E+02
     -4.786  0.2804E+01  0.4361E+02
     -4.679  0.2756E+01  0.4390E+02
     -4.572  0.2685E+01  0.4419E+02
     -4.465  0.2873E+01  0.4450E+02
     -4.358  0.3968E+01  0.4492E+02
     -4.251  0.5338E+01  0.4549E+02
     -4.144  0.5825E+01  0.4611E+02
     -4.037  0.5553E+01  0.4671E+02
     -3.930  0.5109E+01  0.4726E+02
     -3.823  0.5059E+01  0.4780E+02
     -3.716  0.4802E+01  0.4831E+02
     -3.609  0.4914E+01  0.4884E+02
     -3.502  0.4818E+01  0.4935E+02
     -3.395  0.4384E+01  0.4982E+02
     -3.288  0.3899E+01  0.5024E+02
     -3.181  0.3518E+01  0.5062E+02
     -3.073  0.3385E+01  0.5098E+02
     -2.966  0.3509E+01  0.5135E+02
     -2.859  0.3496E+01  0.5173E+02
     -2.752  0.3547E+01  0.5211E+02
     -2.645  0.3211E+01  0.5245E+02
     -2.538  0.2950E+01  0.5277E+02
     -2.431  0.2824E+01  0.5307E+02
     -2.324  0.2677E+01  0.5336E+02
     -2.217  0.1918E+01  0.5356E+02
     -2.110  0.1695E+01  0.5374E+02
     -2.003  0.2717E+01  0.5403E+02
     -1.896  0.3201E+01  0.5438E+02
     -1.789  0.2825E+01  0.5468E+02
     -1.682  0.2213E+01  0.5492E+02
     -1.575  0.1868E+01  0.5512E+02
     -1.468  0.1610E+01  0.5529E+02
     -1.361  0.1426E+01  0.5544E+02
     -1.254  0.1252E+01  0.5558E+02
     -1.147  0.1112E+01  0.5569E+02
     -1.039  0.9761E+00  0.5580E+02
     -0.932  0.8173E+00  0.5589E+02
     -0.825  0.5165E+00  0.5594E+02
     -0.718  0.2297E+00  0.5597E+02
     -0.611  0.1433E+00  0.5598E+02
     -0.504  0.9440E-01  0.5599E+02
     -0.397  0.5534E-01  0.5600E+02
     -0.290  0.2439E-01  0.5600E+02
     -0.183  0.4212E-01  0.5601E+02
     -0.076  0.7914E-01  0.5601E+02
      0.031  0.1312E+00  0.5603E+02
      0.138  0.1729E+00  0.5605E+02
      0.245  0.2340E+00  0.5607E+02
      0.352  0.2765E+00  0.5610E+02
      0.459  0.3500E+00  0.5614E+02
      0.566  0.4054E+00  0.5618E+02
      0.673  0.5912E+00  0.5625E+02
      0.780  0.1363E+01  0.5639E+02
      0.887  0.2662E+01  0.5668E+02
      0.995  0.4163E+01  0.5712E+02
      1.102  0.4641E+01  0.5762E+02
      1.209  0.3224E+01  0.5796E+02
      1.316  0.1854E+01  0.5816E+02
      1.423  0.2364E+01  0.5842E+02
      1.530  0.3458E+01  0.5879E+02
      1.637  0.3290E+01  0.5914E+02
      1.744  0.3088E+01  0.5947E+02
      1.851  0.2657E+01  0.5975E+02
      1.958  0.2533E+01  0.6002E+02
      2.065  0.2289E+01  0.6027E+02
      2.172  0.2321E+01  0.6052E+02
      2.279  0.2181E+01  0.6075E+02
      2.386  0.2190E+01  0.6099E+02
      2.493  0.2078E+01  0.6121E+02
      2.600  0.2068E+01  0.6143E+02
      2.707  0.1950E+01  0.6164E+02
      2.814  0.1870E+01  0.6184E+02
      2.921  0.2164E+01  0.6207E+02
      3.029  0.2535E+01  0.6234E+02
      3.136  0.2704E+01  0.6263E+02
      3.243  0.2691E+01  0.6292E+02
      3.350  0.2746E+01  0.6321E+02
      3.457  0.2847E+01  0.6352E+02
      3.564  0.3312E+01  0.6387E+02
      3.671  0.4277E+01  0.6433E+02
      3.778  0.5566E+01  0.6493E+02
      3.885  0.6784E+01  0.6565E+02
      3.992  0.6612E+01  0.6636E+02
      4.099  0.6146E+01  0.6702E+02
      4.206  0.6365E+01  0.6770E+02
      4.313  0.5961E+01  0.6834E+02
      4.420  0.5724E+01  0.6895E+02
      4.527  0.6051E+01  0.6960E+02
      4.634  0.5986E+01  0.7024E+02
      4.741  0.5777E+01  0.7086E+02
      4.848  0.6123E+01  0.7151E+02
      4.955  0.6256E+01  0.7218E+02
      5.063  0.6729E+01  0.7290E+02
      5.170  0.6835E+01  0.7363E+02
      5.277  0.6310E+01  0.7431E+02
      5.384  0.5107E+01  0.7486E+02
      5.491  0.4887E+01  0.7538E+02
      5.598  0.6707E+01  0.7610E+02
      5.705  0.6779E+01  0.7682E+02
      5.812  0.5473E+01  0.7741E+02
      5.919  0.5214E+01  0.7797E+02
      6.026  0.5479E+01  0.7855E+02
      6.133  0.5162E+01  0.7911E+02
      6.240  0.4689E+01  0.7961E+02
      6.347  0.4649E+01  0.8011E+02
      6.454  0.5430E+01  0.8069E+02
      6.561  0.6596E+01  0.8139E+02
      6.668  0.6822E+01  0.8212E+02
      6.775  0.7032E+01  0.8288E+02
      6.882  0.7671E+01  0.8370E+02
      6.989  0.8121E+01  0.8457E+02
      7.097  0.7312E+01  0.8535E+02
      7.204  0.5336E+01  0.8592E+02
      7.311  0.4463E+01  0.8640E+02
      7.418  0.4538E+01  0.8688E+02
      7.525  0.5008E+01  0.8742E+02
      7.632  0.6540E+01  0.8812E+02
      7.739  0.7941E+01  0.8897E+02
      7.846  0.8145E+01  0.8984E+02
      7.953  0.8384E+01  0.9074E+02
      8.060  0.7969E+01  0.9159E+02
      8.167  0.8033E+01  0.9245E+02
      8.274  0.7696E+01  0.9328E+02
      8.381  0.8388E+01  0.9418E+02
      8.488  0.7819E+01  0.9501E+02
      8.595  0.4539E+01  0.9550E+02
      8.702  0.2498E+01  0.9577E+02
      8.809  0.1198E+01  0.9589E+02
      8.916  0.7403E+00  0.9597E+02
      9.023  0.2281E+00  0.9600E+02
      9.131  0.2039E-01  0.9600E+02
      9.238  0.4356E-03  0.9600E+02
      9.345  0.1583E-05  0.9600E+02
      9.452  0.7456E-09  0.9600E+02
      9.559  0.4005E-13  0.9600E+02
      9.666  0.0000E+00  0.9600E+02
      9.773  0.0000E+00  0.9600E+02
      9.880  0.0000E+00  0.9600E+02
      9.987  0.0000E+00  0.9600E+02
     10.094  0.0000E+00  0.9600E+02
     10.201  0.0000E+00  0.9600E+02
     10.308  0.0000E+00  0.9600E+02
     10.415  0.0000E+00  0.9600E+02
