Automatically generated mesh
      61
Reciprocal lattice
    0.00000000000000    0.00000000000000    0.00000000000000             1
    0.09090909090909    0.00000000000000    0.00000000000000             2
    0.00000000000000    0.09090909090909    0.00000000000000             2
   -0.09090909090909    0.09090909090909    0.00000000000000             2
    0.18181818181818    0.00000000000000    0.00000000000000             2
    0.00000000000000    0.18181818181818    0.00000000000000             2
   -0.18181818181818    0.18181818181818    0.00000000000000             2
    0.27272727272727    0.00000000000000    0.00000000000000             2
    0.00000000000000    0.27272727272727    0.00000000000000             2
   -0.27272727272727    0.27272727272727    0.00000000000000             2
    0.36363636363637    0.00000000000000    0.00000000000000             2
    0.00000000000000    0.36363636363637    0.00000000000000             2
   -0.36363636363637    0.36363636363637    0.00000000000000             2
    0.45454545454545    0.00000000000000    0.00000000000000             2
    0.00000000000000    0.45454545454545    0.00000000000000             2
   -0.45454545454545    0.45454545454545    0.00000000000000             2
    0.09090909090909    0.09090909090909    0.00000000000000             2
   -0.09090909090909    0.18181818181819    0.00000000000000             2
   -0.18181818181819    0.09090909090909    0.00000000000000             2
    0.18181818181818    0.09090909090909    0.00000000000000             2
   -0.09090909090909    0.27272727272727    0.00000000000000             2
   -0.27272727272727    0.18181818181818    0.00000000000000             2
   -0.18181818181818    0.27272727272727    0.00000000000000             2
    0.09090909090909    0.18181818181818    0.00000000000000             2
    0.27272727272727   -0.09090909090909    0.00000000000000             2
    0.27272727272727    0.09090909090909    0.00000000000000             2
   -0.09090909090909    0.36363636363637    0.00000000000000             2
   -0.36363636363637    0.27272727272727    0.00000000000000             2
   -0.27272727272727    0.36363636363637    0.00000000000000             2
    0.09090909090909    0.27272727272727    0.00000000000000             2
    0.36363636363637   -0.09090909090909    0.00000000000000             2
    0.36363636363637    0.09090909090909    0.00000000000000             2
   -0.09090909090909    0.45454545454546    0.00000000000000             2
   -0.45454545454546    0.36363636363637    0.00000000000000             2
   -0.36363636363637    0.45454545454546    0.00000000000000             2
    0.09090909090909    0.36363636363637    0.00000000000000             2
    0.45454545454546   -0.09090909090909    0.00000000000000             2
    0.45454545454545    0.09090909090909    0.00000000000000             2
   -0.09090909090909   -0.45454545454545    0.00000000000000             2
    0.45454545454545    0.45454545454545    0.00000000000000             2
    0.18181818181818    0.18181818181818    0.00000000000000             2
   -0.18181818181818    0.36363636363636    0.00000000000000             2
   -0.36363636363636    0.18181818181818    0.00000000000000             2
    0.27272727272727    0.18181818181818    0.00000000000000             2
   -0.18181818181818    0.45454545454545    0.00000000000000             2
   -0.45454545454545    0.27272727272727    0.00000000000000             2
   -0.27272727272727    0.45454545454545    0.00000000000000             2
    0.18181818181818    0.27272727272727    0.00000000000000             2
    0.45454545454545   -0.18181818181818    0.00000000000000             2
    0.36363636363637    0.18181818181818    0.00000000000000             2
   -0.18181818181818   -0.45454545454545    0.00000000000000             2
    0.45454545454545    0.36363636363637    0.00000000000000             2
   -0.36363636363637   -0.45454545454545    0.00000000000000             2
    0.18181818181818    0.36363636363637    0.00000000000000             2
   -0.45454545454545   -0.18181818181818    0.00000000000000             2
    0.27272727272727    0.27272727272727    0.00000000000000             2
   -0.27272727272727   -0.45454545454545    0.00000000000000             2
    0.45454545454545    0.27272727272727    0.00000000000000             2
    0.36363636363637    0.27272727272727    0.00000000000000             2
   -0.27272727272727   -0.36363636363636    0.00000000000000             2
    0.36363636363636    0.36363636363637    0.00000000000000             2
Tetrahedra
       360    0.00137741046832
         2         3         6        18        18
         2         3         4        18        18
         2         3         4         4        18
         2         3         6         6        18
         2         3         3         6        18
         2         3         3         4        18
         2         6         9        21        21
         2         6        18        21        21
         2         6        18        18        21
         2         6         9         9        21
         2         6         6         9        21
         2         6         6        18        21
         2         9        12        27        27
         2         9        21        27        27
         2         9        21        21        27
         2         9        12        12        27
         2         9         9        12        27
         2         9         9        21        27
         2        12        15        33        33
         2        12        27        33        33
         2        12        27        27        33
         2        12        15        15        33
         2        12        12        15        33
         2        12        12        27        33
         2        15        15        39        39
         2        15        33        39        39
         2        15        33        33        39
         4        15        15        15        39
         2        15        15        33        39
         2        12        15        36        36
         2        15        36        36        39
         2        15        36        39        39
         2        12        12        15        36
         2        12        15        15        36
         2        15        15        36        39
         2         9        12        30        30
         2        12        30        30        36
         2        12        30        36        36
         2         9         9        12        30
         2         9        12        12        30
         2        12        12        30        36
         2         6         9        24        24
         2         9        24        24        30
         2         9        24        30        30
         2         6         6         9        24
         2         6         9         9        24
         2         9         9        24        30
         2         3         6        17        17
         2         6        17        17        24
         2         6        17        24        24
         2         3         3         6        17
         2         3         6         6        17
         2         6         6        17        24
         2         1         2         2         3
         2         2         2         3        17
         2         2         3        17        17
         2         1         1         2         3
         2         1         2         3         3
         2         2         3         3        17
         2         1         3         4         4
         2         1         2         4         4
         2         1         2         2         4
         2         1         3         3         4
         2         1         1         3         4
         2         1         1         2         4
         2         4         7         7        18
         2         4         7         7        19
         2         4         7        19        19
         2         4         7        18        18
         2         4         4         7        18
         2         4         4         7        19
         2        18        21        23        23
         2         7        18        23        23
         2         7         7        18        23
         2        18        21        21        23
         2        18        18        21        23
         2         7        18        18        23
         2        21        27        42        42
         2        21        23        42        42
         2        21        23        23        42
         2        21        27        27        42
         2        21        21        27        42
         2        21        21        23        42
         2        27        33        45        45
         2        27        42        45        45
         2        27        42        42        45
         2        27        33        33        45
         2        27        27        33        45
         2        27        27        42        45
         2        33        39        51        51
         2        33        45        51        51
         2        33        45        45        51
         2        33        39        39        51
         2        33        33        39        51
         2        33        33        45        51
         2        36        39        54        54
         2        39        51        54        54
         2        39        51        51        54
         2        36        36        39        54
         2        36        39        39        54
         2        39        39        51        54
         2        30        36        48        48
         2        36        48        48        54
         2        36        48        54        54
         2        30        30        36        48
         2        30        36        36        48
         2        36        36        48        54
         2        24        30        41        41
         2        30        41        41        48
         2        30        41        48        48
         2        24        24        30        41
         2        24        30        30        41
         2        30        30        41        48
         2        17        20        20        24
         2        20        20        24        41
         2        20        24        41        41
         2        17        17        20        24
         2        17        20        24        24
         2        20        24        24        41
         2         2         5         5        17
         2         5         5        17        20
         2         5        17        20        20
         2         2         2         5        17
         2         2         5        17        17
         2         5        17        17        20
         2         2         4        19        19
         2         2         5        19        19
         2         2         5         5        19
         2         2         4         4        19
         2         2         2         4        19
         2         2         2         5        19
         2         7        19        22        22
         2        19        22        22        25
         2        19        22        25        25
         2         7         7        19        22
         2         7        19        19        22
         2        19        19        22        25
         2         7        10        10        23
         2         7        10        10        22
         2         7        10        22        22
         2         7        10        23        23
         2         7         7        10        23
         2         7         7        10        22
         2        23        29        29        42
         2        10        23        29        29
         2        10        10        23        29
         2        23        29        42        42
         2        23        23        29        42
         2        10        23        23        29
         2        42        45        47        47
         2        29        42        47        47
         2        29        29        42        47
         2        42        45        45        47
         2        42        42        45        47
         2        29        42        42        47
         2        45        51        57        57
         2        45        47        57        57
         2        45        47        47        57
         2        45        51        51        57
         2        45        45        51        57
         2        45        45        47        57
         2        51        54        60        60
         2        51        57        60        60
         2        51        57        57        60
         2        51        54        54        60
         2        51        51        54        60
         2        51        51        57        60
         2        48        54        56        56
         2        54        56        56        60
         2        54        56        60        60
         2        48        48        54        56
         2        48        54        54        56
         2        54        54        56        60
         2        41        44        44        48
         2        44        44        48        56
         2        44        48        56        56
         2        41        41        44        48
         2        41        44        48        48
         2        44        48        48        56
         2        20        26        26        41
         2        26        26        41        44
         2        26        41        44        44
         2        20        20        26        41
         2        20        26        41        41
         2        26        41        41        44
         2         5         8         8        20
         2         8         8        20        26
         2         8        20        26        26
         2         5         5         8        20
         2         5         8        20        20
         2         8        20        20        26
         2         5        19        25        25
         2         5         8        25        25
         2         5         8         8        25
         2         5        19        19        25
         2         5         5        19        25
         2         5         5         8        25
         2        22        25        43        43
         2        25        31        43        43
         2        25        31        31        43
         2        22        22        25        43
         2        22        25        25        43
         2        25        25        31        43
         2        10        22        28        28
         2        22        28        28        43
         2        22        28        43        43
         2        10        10        22        28
         2        10        22        22        28
         2        22        22        28        43
         2        10        13        13        29
         2        10        13        13        28
         2        10        13        28        28
         2        10        13        29        29
         2        10        10        13        29
         2        10        10        13        28
         2        29        35        35        47
         2        13        29        35        35
         2        13        13        29        35
         2        29        35        47        47
         2        29        29        35        47
         2        13        29        29        35
         2        47        53        53        57
         2        35        47        53        53
         2        35        35        47        53
         2        47        53        57        57
         2        47        47        53        57
         2        35        47        47        53
         2        57        60        61        61
         2        53        57        61        61
         2        53        53        57        61
         2        57        60        60        61
         2        57        57        60        61
         2        53        57        57        61
         2        56        59        59        60
         2        59        59        60        61
         2        59        60        61        61
         2        56        56        59        60
         2        56        59        60        60
         2        59        60        60        61
         2        44        50        50        56
         2        50        50        56        59
         2        50        56        59        59
         2        44        44        50        56
         2        44        50        56        56
         2        50        56        56        59
         2        26        32        32        44
         2        32        32        44        50
         2        32        44        50        50
         2        26        26        32        44
         2        26        32        44        44
         2        32        44        44        50
         2         8        11        11        26
         2        11        11        26        32
         2        11        26        32        32
         2         8         8        11        26
         2         8        11        26        26
         2        11        26        26        32
         2         8        25        31        31
         2         8        11        31        31
         2         8        11        11        31
         2         8        25        25        31
         2         8         8        25        31
         2         8         8        11        31
         2        31        43        49        49
         2        31        37        49        49
         2        31        37        37        49
         2        31        43        43        49
         2        31        31        43        49
         2        31        31        37        49
         2        28        43        46        46
         2        43        46        46        49
         2        43        46        49        49
         2        28        28        43        46
         2        28        43        43        46
         2        43        43        46        49
         2        13        28        34        34
         2        28        34        34        46
         2        28        34        46        46
         2        13        13        28        34
         2        13        28        28        34
         2        28        28        34        46
         2        13        16        16        35
         2        13        16        16        34
         2        13        16        34        34
         2        13        16        35        35
         2        13        13        16        35
         2        13        13        16        34
         2        35        40        40        53
         2        16        35        40        40
         2        16        16        35        40
         2        35        40        53        53
         2        35        35        40        53
         2        16        35        35        40
         2        52        52        53        61
         2        40        52        52        53
         2        40        40        52        53
         2        52        53        61        61
         2        52        53        53        61
         2        40        52        53        53
         2        58        58        59        61
         2        52        58        58        61
         2        52        52        58        61
         2        58        59        59        61
         2        58        59        61        61
         2        52        58        61        61
         2        50        55        55        59
         2        55        55        58        59
         2        55        58        58        59
         2        50        50        55        59
         2        50        55        59        59
         2        55        58        59        59
         2        32        38        38        50
         2        38        38        50        55
         2        38        50        55        55
         2        32        32        38        50
         2        32        38        50        50
         2        38        50        50        55
         2        11        14        14        32
         2        14        14        32        38
         2        14        32        38        38
         2        11        11        14        32
         2        11        14        32        32
         2        14        32        32        38
         2        11        31        37        37
         2        11        14        37        37
         2        11        14        14        37
         2        11        31        31        37
         2        11        11        31        37
         2        11        11        14        37
         2        37        49        55        55
         2        37        38        55        55
         2        37        38        38        55
         2        37        49        49        55
         2        37        37        49        55
         2        37        37        38        55
         2        46        49        58        58
         2        49        55        58        58
         2        49        55        55        58
         2        46        46        49        58
         2        46        49        49        58
         2        49        49        55        58
         2        34        46        52        52
         2        46        52        52        58
         2        46        52        58        58
         2        34        34        46        52
         2        34        46        46        52
         2        46        46        52        58
         2        16        34        40        40
         2        34        40        40        52
         2        34        40        52        52
         2        16        16        34        40
         2        16        34        34        40
         2        34        34        40        52
         4        16        16        16        40
         2        16        16        40        40
         4        14        14        14        38
         2        14        14        37        38
         2        14        37        37        38
         2        14        14        38        38
         2        14        37        38        38
