  16  16   0   4
  0.1985338E+02  0.4945000E-09  0.4945000E-09  0.1500000E-08  0.5000000E-15
  1.000000000000000E-004
  CAR 
 Lattice                                 
      9.97420647    -21.21210439  301     -0.26833765      1.00000000
    -21.212  0.0000E+00  0.0000E+00  0.0000E+00  0.0000E+00
    -21.108  0.0000E+00  0.0000E+00  0.0000E+00  0.0000E+00
    -21.004  0.0000E+00  0.0000E+00  0.0000E+00  0.0000E+00
    -20.900  0.0000E+00  0.0000E+00  0.0000E+00  0.0000E+00
    -20.796  0.0000E+00  0.0000E+00  0.0000E+00  0.0000E+00
    -20.692  0.0000E+00  0.0000E+00  0.0000E+00  0.0000E+00
    -20.588  0.0000E+00  0.0000E+00  0.0000E+00  0.0000E+00
    -20.484  0.0000E+00  0.0000E+00  0.0000E+00  0.0000E+00
    -20.380  0.2897E-19  0.2897E-19  0.3012E-20  0.3012E-20
    -20.277  0.2664E-14  0.2664E-14  0.2769E-15  0.2769E-15
    -20.173  0.2839E-10  0.2839E-10  0.2952E-11  0.2952E-11
    -20.069  0.4094E-07  0.4094E-07  0.4259E-08  0.4259E-08
    -19.965  0.8688E-05  0.8688E-05  0.9075E-06  0.9075E-06
    -19.861  0.3000E-03  0.3000E-03  0.3209E-04  0.3209E-04
    -19.757  0.2051E-02  0.2051E-02  0.2453E-03  0.2453E-03
    -19.653  0.4264E-02  0.4264E-02  0.6885E-03  0.6885E-03
    -19.549  0.4700E-02  0.4700E-02  0.1177E-02  0.1177E-02
    -19.445  0.5061E-02  0.5061E-02  0.1703E-02  0.1703E-02
    -19.341  0.4369E-02  0.4369E-02  0.2157E-02  0.2157E-02
    -19.237  0.5528E-02  0.5528E-02  0.2732E-02  0.2732E-02
    -19.133  0.4314E-02  0.4314E-02  0.3180E-02  0.3180E-02
    -19.029  0.4569E-02  0.4569E-02  0.3655E-02  0.3655E-02
    -18.925  0.6099E-02  0.6099E-02  0.4290E-02  0.4290E-02
    -18.821  0.3834E-02  0.3834E-02  0.4688E-02  0.4688E-02
    -18.717  0.4279E-02  0.4279E-02  0.5133E-02  0.5133E-02
    -18.613  0.6307E-02  0.6307E-02  0.5789E-02  0.5789E-02
    -18.509  0.5167E-02  0.5167E-02  0.6326E-02  0.6326E-02
    -18.405  0.2996E-02  0.2996E-02  0.6637E-02  0.6637E-02
    -18.301  0.5051E-02  0.5051E-02  0.7162E-02  0.7162E-02
    -18.197  0.6923E-02  0.6923E-02  0.7882E-02  0.7882E-02
    -18.093  0.4528E-02  0.4528E-02  0.8353E-02  0.8353E-02
    -17.990  0.3754E-02  0.3754E-02  0.8743E-02  0.8743E-02
    -17.886  0.3498E-02  0.3498E-02  0.9107E-02  0.9107E-02
    -17.782  0.7268E-02  0.7268E-02  0.9862E-02  0.9862E-02
    -17.678  0.6273E-02  0.6273E-02  0.1051E-01  0.1051E-01
    -17.574  0.3332E-02  0.3332E-02  0.1086E-01  0.1086E-01
    -17.470  0.3683E-02  0.3683E-02  0.1124E-01  0.1124E-01
    -17.366  0.4511E-02  0.4511E-02  0.1171E-01  0.1171E-01
    -17.262  0.6935E-02  0.6935E-02  0.1243E-01  0.1243E-01
    -17.158  0.6483E-02  0.6483E-02  0.1311E-01  0.1311E-01
    -17.054  0.4422E-02  0.4422E-02  0.1357E-01  0.1357E-01
    -16.950  0.2261E-02  0.2261E-02  0.1380E-01  0.1380E-01
    -16.846  0.4437E-02  0.4437E-02  0.1426E-01  0.1426E-01
    -16.742  0.7142E-02  0.7142E-02  0.1501E-01  0.1501E-01
    -16.638  0.6397E-02  0.6397E-02  0.1567E-01  0.1567E-01
    -16.534  0.5276E-02  0.5276E-02  0.1622E-01  0.1622E-01
    -16.430  0.4462E-02  0.4462E-02  0.1668E-01  0.1668E-01
    -16.326  0.2733E-02  0.2733E-02  0.1697E-01  0.1697E-01
    -16.222  0.3398E-02  0.3398E-02  0.1732E-01  0.1732E-01
    -16.118  0.8957E-02  0.8957E-02  0.1825E-01  0.1825E-01
    -16.014  0.7496E-02  0.7496E-02  0.1903E-01  0.1903E-01
    -15.910  0.8183E-02  0.8183E-02  0.1988E-01  0.1988E-01
    -15.806  0.9829E-02  0.9829E-02  0.2090E-01  0.2090E-01
    -15.703  0.1047E-01  0.1047E-01  0.2199E-01  0.2199E-01
    -15.599  0.9672E-02  0.9672E-02  0.2300E-01  0.2300E-01
    -15.495  0.1262E-01  0.1262E-01  0.2431E-01  0.2431E-01
    -15.391  0.1619E-01  0.1619E-01  0.2599E-01  0.2599E-01
    -15.287  0.1362E-01  0.1362E-01  0.2741E-01  0.2741E-01
    -15.183  0.1222E-01  0.1222E-01  0.2868E-01  0.2868E-01
    -15.079  0.1409E-01  0.1409E-01  0.3014E-01  0.3014E-01
    -14.975  0.1058E-01  0.1058E-01  0.3124E-01  0.3124E-01
    -14.871  0.9627E-02  0.9627E-02  0.3224E-01  0.3224E-01
    -14.767  0.9812E-02  0.9812E-02  0.3326E-01  0.3326E-01
    -14.663  0.1083E-01  0.1083E-01  0.3439E-01  0.3439E-01
    -14.559  0.8338E-02  0.8338E-02  0.3526E-01  0.3526E-01
    -14.455  0.9451E-02  0.9451E-02  0.3624E-01  0.3624E-01
    -14.351  0.8622E-02  0.8622E-02  0.3714E-01  0.3714E-01
    -14.247  0.8765E-02  0.8765E-02  0.3805E-01  0.3805E-01
    -14.143  0.1426E-01  0.1426E-01  0.3953E-01  0.3953E-01
    -14.039  0.1371E-01  0.1371E-01  0.4095E-01  0.4095E-01
    -13.935  0.7236E-02  0.7236E-02  0.4171E-01  0.4171E-01
    -13.831  0.5353E-02  0.5353E-02  0.4226E-01  0.4226E-01
    -13.727  0.4081E-02  0.4081E-02  0.4269E-01  0.4269E-01
    -13.623  0.3976E-02  0.3976E-02  0.4310E-01  0.4310E-01
    -13.519  0.7435E-02  0.7435E-02  0.4387E-01  0.4387E-01
    -13.416  0.9748E-02  0.9748E-02  0.4489E-01  0.4489E-01
    -13.312  0.7317E-02  0.7317E-02  0.4565E-01  0.4565E-01
    -13.208  0.5805E-02  0.5805E-02  0.4625E-01  0.4625E-01
    -13.104  0.7639E-02  0.7639E-02  0.4705E-01  0.4705E-01
    -13.000  0.7850E-02  0.7850E-02  0.4786E-01  0.4786E-01
    -12.896  0.6124E-02  0.6124E-02  0.4850E-01  0.4850E-01
    -12.792  0.8250E-02  0.8250E-02  0.4936E-01  0.4936E-01
    -12.688  0.8702E-02  0.8702E-02  0.5026E-01  0.5026E-01
    -12.584  0.9897E-02  0.9897E-02  0.5129E-01  0.5129E-01
    -12.480  0.1424E-01  0.1424E-01  0.5277E-01  0.5277E-01
    -12.376  0.1117E-01  0.1117E-01  0.5393E-01  0.5393E-01
    -12.272  0.1338E-01  0.1338E-01  0.5532E-01  0.5532E-01
    -12.168  0.1268E-01  0.1268E-01  0.5664E-01  0.5664E-01
    -12.064  0.1210E-01  0.1210E-01  0.5790E-01  0.5790E-01
    -11.960  0.1970E-01  0.1970E-01  0.5995E-01  0.5995E-01
    -11.856  0.1719E-01  0.1719E-01  0.6173E-01  0.6173E-01
    -11.752  0.1171E-01  0.1171E-01  0.6295E-01  0.6295E-01
    -11.648  0.1077E-01  0.1077E-01  0.6407E-01  0.6407E-01
    -11.544  0.9517E-02  0.9517E-02  0.6506E-01  0.6506E-01
    -11.440  0.8526E-02  0.8526E-02  0.6594E-01  0.6594E-01
    -11.336  0.4993E-02  0.4993E-02  0.6646E-01  0.6646E-01
    -11.232  0.3127E-02  0.3127E-02  0.6679E-01  0.6679E-01
    -11.129  0.4713E-02  0.4713E-02  0.6728E-01  0.6728E-01
    -11.025  0.5631E-02  0.5631E-02  0.6786E-01  0.6786E-01
    -10.921  0.5787E-02  0.5787E-02  0.6847E-01  0.6847E-01
    -10.817  0.7456E-02  0.7456E-02  0.6924E-01  0.6924E-01
    -10.713  0.1028E-01  0.1028E-01  0.7031E-01  0.7031E-01
    -10.609  0.1013E-01  0.1013E-01  0.7136E-01  0.7136E-01
    -10.505  0.1387E-01  0.1387E-01  0.7280E-01  0.7280E-01
    -10.401  0.1910E-01  0.1910E-01  0.7479E-01  0.7479E-01
    -10.297  0.1479E-01  0.1479E-01  0.7633E-01  0.7633E-01
    -10.193  0.7081E-02  0.7081E-02  0.7706E-01  0.7706E-01
    -10.089  0.4303E-02  0.4303E-02  0.7751E-01  0.7751E-01
     -9.985  0.1208E-01  0.1208E-01  0.7877E-01  0.7877E-01
     -9.881  0.1664E-01  0.1664E-01  0.8050E-01  0.8050E-01
     -9.777  0.9533E-02  0.9533E-02  0.8149E-01  0.8149E-01
     -9.673  0.5950E-02  0.5950E-02  0.8210E-01  0.8210E-01
     -9.569  0.6258E-02  0.6258E-02  0.8276E-01  0.8276E-01
     -9.465  0.1446E-01  0.1446E-01  0.8426E-01  0.8426E-01
     -9.361  0.1805E-01  0.1805E-01  0.8613E-01  0.8613E-01
     -9.257  0.1774E-01  0.1774E-01  0.8798E-01  0.8798E-01
     -9.153  0.1888E-01  0.1888E-01  0.8994E-01  0.8994E-01
     -9.049  0.1233E-01  0.1233E-01  0.9122E-01  0.9122E-01
     -8.945  0.9548E-02  0.9548E-02  0.9222E-01  0.9222E-01
     -8.842  0.1513E-01  0.1513E-01  0.9379E-01  0.9379E-01
     -8.738  0.1969E-01  0.1969E-01  0.9584E-01  0.9584E-01
     -8.634  0.1319E-01  0.1319E-01  0.9721E-01  0.9721E-01
     -8.530  0.9450E-02  0.9450E-02  0.9819E-01  0.9819E-01
     -8.426  0.1381E-01  0.1381E-01  0.9963E-01  0.9963E-01
     -8.322  0.2033E-01  0.2033E-01  0.1017E+00  0.1017E+00
     -8.218  0.1497E-01  0.1497E-01  0.1033E+00  0.1033E+00
     -8.114  0.9416E-02  0.9416E-02  0.1043E+00  0.1043E+00
     -8.010  0.1622E-01  0.1622E-01  0.1060E+00  0.1060E+00
     -7.906  0.1344E-01  0.1344E-01  0.1074E+00  0.1074E+00
     -7.802  0.1789E-01  0.1789E-01  0.1092E+00  0.1092E+00
     -7.698  0.2709E-01  0.2709E-01  0.1120E+00  0.1120E+00
     -7.594  0.1700E-01  0.1700E-01  0.1138E+00  0.1138E+00
     -7.490  0.1333E-01  0.1333E-01  0.1152E+00  0.1152E+00
     -7.386  0.1498E-01  0.1498E-01  0.1167E+00  0.1167E+00
     -7.282  0.1952E-01  0.1952E-01  0.1188E+00  0.1188E+00
     -7.178  0.1948E-01  0.1948E-01  0.1208E+00  0.1208E+00
     -7.074  0.1599E-01  0.1599E-01  0.1225E+00  0.1225E+00
     -6.970  0.1431E-01  0.1431E-01  0.1239E+00  0.1239E+00
     -6.866  0.1882E-01  0.1882E-01  0.1259E+00  0.1259E+00
     -6.762  0.2354E-01  0.2354E-01  0.1283E+00  0.1283E+00
     -6.658  0.2685E-01  0.2685E-01  0.1311E+00  0.1311E+00
     -6.555  0.2939E-01  0.2939E-01  0.1342E+00  0.1342E+00
     -6.451  0.2764E-01  0.2764E-01  0.1371E+00  0.1371E+00
     -6.347  0.2700E-01  0.2700E-01  0.1399E+00  0.1399E+00
     -6.243  0.2461E-01  0.2461E-01  0.1424E+00  0.1424E+00
     -6.139  0.1776E-01  0.1776E-01  0.1443E+00  0.1443E+00
     -6.035  0.1725E-01  0.1725E-01  0.1461E+00  0.1461E+00
     -5.931  0.1530E-01  0.1530E-01  0.1477E+00  0.1477E+00
     -5.827  0.1342E-01  0.1342E-01  0.1491E+00  0.1491E+00
     -5.723  0.2004E-01  0.2004E-01  0.1511E+00  0.1511E+00
     -5.619  0.1961E-01  0.1961E-01  0.1532E+00  0.1532E+00
     -5.515  0.8231E-02  0.8231E-02  0.1540E+00  0.1540E+00
     -5.411  0.7931E-02  0.7931E-02  0.1549E+00  0.1549E+00
     -5.307  0.1704E-01  0.1704E-01  0.1566E+00  0.1566E+00
     -5.203  0.2156E-01  0.2156E-01  0.1589E+00  0.1589E+00
     -5.099  0.1383E-01  0.1383E-01  0.1603E+00  0.1603E+00
     -4.995  0.1102E-01  0.1102E-01  0.1615E+00  0.1615E+00
     -4.891  0.1591E-01  0.1591E-01  0.1631E+00  0.1631E+00
     -4.787  0.1466E-01  0.1466E-01  0.1646E+00  0.1646E+00
     -4.683  0.1211E-01  0.1211E-01  0.1659E+00  0.1659E+00
     -4.579  0.1154E-01  0.1154E-01  0.1671E+00  0.1671E+00
     -4.475  0.1199E-01  0.1199E-01  0.1683E+00  0.1683E+00
     -4.371  0.2015E-01  0.2015E-01  0.1704E+00  0.1704E+00
     -4.268  0.2227E-01  0.2227E-01  0.1727E+00  0.1727E+00
     -4.164  0.1757E-01  0.1757E-01  0.1746E+00  0.1746E+00
     -4.060  0.1465E-01  0.1465E-01  0.1761E+00  0.1761E+00
     -3.956  0.2093E-01  0.2093E-01  0.1783E+00  0.1783E+00
     -3.852  0.2523E-01  0.2523E-01  0.1809E+00  0.1809E+00
     -3.748  0.2416E-01  0.2416E-01  0.1834E+00  0.1834E+00
     -3.644  0.2743E-01  0.2743E-01  0.1863E+00  0.1863E+00
     -3.540  0.2757E-01  0.2757E-01  0.1891E+00  0.1891E+00
     -3.436  0.2069E-01  0.2069E-01  0.1913E+00  0.1913E+00
     -3.332  0.1443E-01  0.1443E-01  0.1928E+00  0.1928E+00
     -3.228  0.1308E-01  0.1308E-01  0.1941E+00  0.1941E+00
     -3.124  0.1233E-01  0.1233E-01  0.1954E+00  0.1954E+00
     -3.020  0.1151E-01  0.1151E-01  0.1966E+00  0.1966E+00
     -2.916  0.1467E-01  0.1467E-01  0.1981E+00  0.1981E+00
     -2.812  0.1462E-01  0.1462E-01  0.1997E+00  0.1997E+00
     -2.708  0.9927E-02  0.9927E-02  0.2007E+00  0.2007E+00
     -2.604  0.7999E-02  0.7999E-02  0.2015E+00  0.2015E+00
     -2.500  0.1261E-01  0.1261E-01  0.2028E+00  0.2028E+00
     -2.396  0.1908E-01  0.1908E-01  0.2048E+00  0.2048E+00
     -2.292  0.1275E-01  0.1275E-01  0.2061E+00  0.2061E+00
     -2.188  0.6937E-02  0.6937E-02  0.2069E+00  0.2069E+00
     -2.085  0.9831E-02  0.9831E-02  0.2079E+00  0.2079E+00
     -1.981  0.7491E-02  0.7491E-02  0.2087E+00  0.2087E+00
     -1.877  0.7557E-02  0.7557E-02  0.2094E+00  0.2094E+00
     -1.773  0.8410E-02  0.8410E-02  0.2103E+00  0.2103E+00
     -1.669  0.8885E-02  0.8885E-02  0.2112E+00  0.2112E+00
     -1.565  0.7887E-02  0.7887E-02  0.2121E+00  0.2121E+00
     -1.461  0.9148E-02  0.9148E-02  0.2130E+00  0.2130E+00
     -1.357  0.8720E-02  0.8720E-02  0.2139E+00  0.2139E+00
     -1.253  0.4886E-02  0.4886E-02  0.2144E+00  0.2144E+00
     -1.149  0.5743E-02  0.5743E-02  0.2150E+00  0.2150E+00
     -1.045  0.6392E-02  0.6392E-02  0.2157E+00  0.2157E+00
     -0.941  0.7521E-02  0.7521E-02  0.2165E+00  0.2165E+00
     -0.837  0.6298E-02  0.6298E-02  0.2171E+00  0.2171E+00
     -0.733  0.3006E-02  0.3006E-02  0.2174E+00  0.2174E+00
     -0.629  0.1237E-02  0.1237E-02  0.2176E+00  0.2176E+00
     -0.525  0.2214E-02  0.2214E-02  0.2178E+00  0.2178E+00
     -0.421  0.4162E-02  0.4162E-02  0.2182E+00  0.2182E+00
     -0.317  0.3619E-02  0.3619E-02  0.2186E+00  0.2186E+00
     -0.213  0.2537E-02  0.2536E-02  0.2189E+00  0.2189E+00
     -0.109  0.2800E-02  0.2800E-02  0.2192E+00  0.2192E+00
     -0.005  0.3453E-02  0.3453E-02  0.2195E+00  0.2195E+00
      0.099  0.2621E-02  0.2621E-02  0.2198E+00  0.2198E+00
      0.202  0.3913E-02  0.3913E-02  0.2202E+00  0.2202E+00
      0.306  0.8944E-02  0.8944E-02  0.2211E+00  0.2211E+00
      0.410  0.1116E-01  0.1116E-01  0.2223E+00  0.2223E+00
      0.514  0.1118E-01  0.1118E-01  0.2235E+00  0.2235E+00
      0.618  0.8716E-02  0.8717E-02  0.2244E+00  0.2244E+00
      0.722  0.3033E-02  0.3033E-02  0.2247E+00  0.2247E+00
      0.826  0.6741E-02  0.6741E-02  0.2254E+00  0.2254E+00
      0.930  0.1249E-01  0.1249E-01  0.2267E+00  0.2267E+00
      1.034  0.6723E-02  0.6723E-02  0.2274E+00  0.2274E+00
      1.138  0.3853E-02  0.3853E-02  0.2278E+00  0.2278E+00
      1.242  0.1024E-01  0.1024E-01  0.2288E+00  0.2288E+00
      1.346  0.1664E-01  0.1664E-01  0.2306E+00  0.2306E+00
      1.450  0.1498E-01  0.1498E-01  0.2321E+00  0.2321E+00
      1.554  0.1231E-01  0.1231E-01  0.2334E+00  0.2334E+00
      1.658  0.1000E-01  0.1000E-01  0.2344E+00  0.2344E+00
      1.762  0.7570E-02  0.7570E-02  0.2352E+00  0.2352E+00
      1.866  0.9957E-02  0.9957E-02  0.2363E+00  0.2363E+00
      1.970  0.1037E-01  0.1037E-01  0.2373E+00  0.2373E+00
      2.074  0.1195E-01  0.1195E-01  0.2386E+00  0.2386E+00
      2.178  0.1188E-01  0.1188E-01  0.2398E+00  0.2398E+00
      2.282  0.7480E-02  0.7480E-02  0.2406E+00  0.2406E+00
      2.386  0.1111E-01  0.1111E-01  0.2418E+00  0.2418E+00
      2.489  0.9498E-02  0.9498E-02  0.2427E+00  0.2427E+00
      2.593  0.6963E-02  0.6963E-02  0.2435E+00  0.2435E+00
      2.697  0.1427E-01  0.1427E-01  0.2450E+00  0.2450E+00
      2.801  0.1262E-01  0.1261E-01  0.2463E+00  0.2463E+00
      2.905  0.1077E-01  0.1077E-01  0.2474E+00  0.2474E+00
      3.009  0.1108E-01  0.1108E-01  0.2485E+00  0.2485E+00
      3.113  0.1003E-01  0.1003E-01  0.2496E+00  0.2496E+00
      3.217  0.1282E-01  0.1282E-01  0.2509E+00  0.2509E+00
      3.321  0.2124E-01  0.2124E-01  0.2531E+00  0.2531E+00
      3.425  0.1812E-01  0.1812E-01  0.2550E+00  0.2550E+00
      3.529  0.1483E-01  0.1483E-01  0.2565E+00  0.2565E+00
      3.633  0.1261E-01  0.1261E-01  0.2579E+00  0.2579E+00
      3.737  0.1762E-01  0.1762E-01  0.2597E+00  0.2597E+00
      3.841  0.2431E-01  0.2431E-01  0.2622E+00  0.2622E+00
      3.945  0.2361E-01  0.2361E-01  0.2647E+00  0.2647E+00
      4.049  0.1870E-01  0.1870E-01  0.2666E+00  0.2666E+00
      4.153  0.1556E-01  0.1556E-01  0.2682E+00  0.2682E+00
      4.257  0.1656E-01  0.1656E-01  0.2700E+00  0.2700E+00
      4.361  0.2236E-01  0.2236E-01  0.2723E+00  0.2723E+00
      4.465  0.2780E-01  0.2779E-01  0.2752E+00  0.2752E+00
      4.569  0.2005E-01  0.2006E-01  0.2772E+00  0.2772E+00
      4.673  0.2248E-01  0.2247E-01  0.2796E+00  0.2796E+00
      4.776  0.3048E-01  0.3047E-01  0.2828E+00  0.2828E+00
      4.880  0.2662E-01  0.2661E-01  0.2855E+00  0.2855E+00
      4.984  0.1899E-01  0.1900E-01  0.2875E+00  0.2875E+00
      5.088  0.2311E-01  0.2310E-01  0.2899E+00  0.2899E+00
      5.192  0.3224E-01  0.3223E-01  0.2933E+00  0.2932E+00
      5.296  0.2914E-01  0.2916E-01  0.2963E+00  0.2963E+00
      5.400  0.2593E-01  0.2591E-01  0.2990E+00  0.2990E+00
      5.504  0.2587E-01  0.2584E-01  0.3017E+00  0.3017E+00
      5.608  0.2511E-01  0.2513E-01  0.3043E+00  0.3043E+00
      5.712  0.2550E-01  0.2552E-01  0.3069E+00  0.3069E+00
      5.816  0.2461E-01  0.2461E-01  0.3095E+00  0.3095E+00
      5.920  0.2338E-01  0.2337E-01  0.3119E+00  0.3119E+00
      6.024  0.2186E-01  0.2186E-01  0.3142E+00  0.3142E+00
      6.128  0.2087E-01  0.2085E-01  0.3164E+00  0.3163E+00
      6.232  0.1992E-01  0.1995E-01  0.3184E+00  0.3184E+00
      6.336  0.1891E-01  0.1893E-01  0.3204E+00  0.3204E+00
      6.440  0.1926E-01  0.1925E-01  0.3224E+00  0.3224E+00
      6.544  0.2094E-01  0.2093E-01  0.3246E+00  0.3246E+00
      6.648  0.2105E-01  0.2106E-01  0.3268E+00  0.3268E+00
      6.752  0.2101E-01  0.2100E-01  0.3289E+00  0.3289E+00
      6.856  0.2885E-01  0.2883E-01  0.3319E+00  0.3319E+00
      6.960  0.2980E-01  0.2981E-01  0.3350E+00  0.3350E+00
      7.063  0.2783E-01  0.2784E-01  0.3379E+00  0.3379E+00
      7.167  0.2717E-01  0.2717E-01  0.3408E+00  0.3408E+00
      7.271  0.2800E-01  0.2801E-01  0.3437E+00  0.3437E+00
      7.375  0.3337E-01  0.3334E-01  0.3471E+00  0.3471E+00
      7.479  0.3440E-01  0.3440E-01  0.3507E+00  0.3507E+00
      7.583  0.2779E-01  0.2781E-01  0.3536E+00  0.3536E+00
      7.687  0.3894E-01  0.3894E-01  0.3577E+00  0.3576E+00
      7.791  0.4080E-01  0.4080E-01  0.3619E+00  0.3619E+00
      7.895  0.3154E-01  0.3154E-01  0.3652E+00  0.3652E+00
      7.999  0.3280E-01  0.3281E-01  0.3686E+00  0.3686E+00
      8.103  0.2812E-01  0.2815E-01  0.3715E+00  0.3715E+00
      8.207  0.1870E-01  0.1870E-01  0.3734E+00  0.3734E+00
      8.311  0.1034E-01  0.1035E-01  0.3745E+00  0.3745E+00
      8.415  0.3484E-02  0.3487E-02  0.3749E+00  0.3749E+00
      8.519  0.7198E-03  0.7200E-03  0.3750E+00  0.3750E+00
      8.623  0.2989E-03  0.2989E-03  0.3750E+00  0.3750E+00
      8.727  0.8709E-04  0.8713E-04  0.3750E+00  0.3750E+00
      8.831  0.4180E-05  0.4185E-05  0.3750E+00  0.3750E+00
      8.935  0.2766E-07  0.2771E-07  0.3750E+00  0.3750E+00
      9.039  0.2342E-10  0.2347E-10  0.3750E+00  0.3750E+00
      9.143  0.2435E-14  0.2441E-14  0.3750E+00  0.3750E+00
      9.247  0.0000E+00  0.0000E+00  0.3750E+00  0.3750E+00
      9.350  0.0000E+00  0.0000E+00  0.3750E+00  0.3750E+00
      9.454  0.0000E+00  0.0000E+00  0.3750E+00  0.3750E+00
      9.558  0.0000E+00  0.0000E+00  0.3750E+00  0.3750E+00
      9.662  0.0000E+00  0.0000E+00  0.3750E+00  0.3750E+00
      9.766  0.0000E+00  0.0000E+00  0.3750E+00  0.3750E+00
      9.870  0.0000E+00  0.0000E+00  0.3750E+00  0.3750E+00
      9.974  0.0000E+00  0.0000E+00  0.3750E+00  0.3750E+00
