  15  15   0   4
  0.2033749E+02  0.4846000E-09  0.4846000E-09  0.1500000E-08  0.5000000E-15
  1.000000000000000E-004
  CAR 
 Lattice                                 
     10.35249433    -21.69801920  301     -0.32451027      1.00000000
    -21.698  0.0000E+00  0.0000E+00
    -21.591  0.0000E+00  0.0000E+00
    -21.484  0.0000E+00  0.0000E+00
    -21.378  0.0000E+00  0.0000E+00
    -21.271  0.0000E+00  0.0000E+00
    -21.164  0.0000E+00  0.0000E+00
    -21.057  0.0000E+00  0.0000E+00
    -20.950  0.0000E+00  0.0000E+00
    -20.843  0.0000E+00  0.0000E+00
    -20.737  0.5280E-15  0.5640E-16
    -20.630  0.1038E-10  0.1109E-11
    -20.523  0.2367E-07  0.2530E-08
    -20.416  0.6693E-05  0.7176E-06
    -20.309  0.2690E-03  0.2946E-04
    -20.202  0.1978E-02  0.2408E-03
    -20.095  0.4111E-02  0.6800E-03
    -19.989  0.4639E-02  0.1176E-02
    -19.882  0.4638E-02  0.1671E-02
    -19.775  0.4707E-02  0.2174E-02
    -19.668  0.4630E-02  0.2669E-02
    -19.561  0.4708E-02  0.3172E-02
    -19.454  0.4641E-02  0.3668E-02
    -19.348  0.4804E-02  0.4181E-02
    -19.241  0.4415E-02  0.4652E-02
    -19.134  0.5178E-02  0.5206E-02
    -19.027  0.4132E-02  0.5647E-02
    -18.920  0.5110E-02  0.6193E-02
    -18.813  0.4829E-02  0.6709E-02
    -18.707  0.4042E-02  0.7141E-02
    -18.600  0.5501E-02  0.7729E-02
    -18.493  0.4665E-02  0.8227E-02
    -18.386  0.3877E-02  0.8641E-02
    -18.279  0.5734E-02  0.9254E-02
    -18.172  0.4795E-02  0.9766E-02
    -18.066  0.3849E-02  0.1018E-01
    -17.959  0.5109E-02  0.1072E-01
    -17.852  0.5782E-02  0.1134E-01
    -17.745  0.3818E-02  0.1175E-01
    -17.638  0.4296E-02  0.1221E-01
    -17.531  0.5821E-02  0.1283E-01
    -17.425  0.6182E-02  0.1349E-01
    -17.318  0.7669E-02  0.1431E-01
    -17.211  0.1157E-01  0.1555E-01
    -17.104  0.1419E-01  0.1706E-01
    -16.997  0.1403E-01  0.1856E-01
    -16.890  0.1575E-01  0.2024E-01
    -16.784  0.2049E-01  0.2243E-01
    -16.677  0.1920E-01  0.2448E-01
    -16.570  0.8126E-02  0.2535E-01
    -16.463  0.4201E-02  0.2580E-01
    -16.356  0.4014E-02  0.2623E-01
    -16.249  0.5677E-02  0.2684E-01
    -16.143  0.6475E-02  0.2753E-01
    -16.036  0.4269E-02  0.2798E-01
    -15.929  0.3700E-02  0.2838E-01
    -15.822  0.5083E-02  0.2892E-01
    -15.715  0.6405E-02  0.2961E-01
    -15.608  0.5714E-02  0.3022E-01
    -15.502  0.4335E-02  0.3068E-01
    -15.395  0.3594E-02  0.3106E-01
    -15.288  0.6122E-02  0.3172E-01
    -15.181  0.6846E-02  0.3245E-01
    -15.074  0.5664E-02  0.3305E-01
    -14.967  0.7680E-02  0.3387E-01
    -14.861  0.1333E-01  0.3530E-01
    -14.754  0.2035E-01  0.3747E-01
    -14.647  0.1963E-01  0.3957E-01
    -14.540  0.1326E-01  0.4099E-01
    -14.433  0.9900E-02  0.4205E-01
    -14.326  0.9165E-02  0.4302E-01
    -14.220  0.1351E-01  0.4447E-01
    -14.113  0.1318E-01  0.4588E-01
    -14.006  0.1080E-01  0.4703E-01
    -13.899  0.1407E-01  0.4853E-01
    -13.792  0.2053E-01  0.5073E-01
    -13.685  0.2080E-01  0.5295E-01
    -13.579  0.1482E-01  0.5453E-01
    -13.472  0.9887E-02  0.5559E-01
    -13.365  0.7419E-02  0.5638E-01
    -13.258  0.4805E-02  0.5689E-01
    -13.151  0.4693E-02  0.5739E-01
    -13.044  0.6358E-02  0.5807E-01
    -12.938  0.4619E-02  0.5857E-01
    -12.831  0.6451E-02  0.5926E-01
    -12.724  0.7625E-02  0.6007E-01
    -12.617  0.5523E-02  0.6066E-01
    -12.510  0.5678E-02  0.6127E-01
    -12.403  0.5898E-02  0.6190E-01
    -12.297  0.5220E-02  0.6246E-01
    -12.190  0.4427E-02  0.6293E-01
    -12.083  0.6023E-02  0.6357E-01
    -11.976  0.4692E-02  0.6407E-01
    -11.869  0.4335E-02  0.6454E-01
    -11.762  0.4731E-02  0.6504E-01
    -11.656  0.5211E-02  0.6560E-01
    -11.549  0.4057E-02  0.6603E-01
    -11.442  0.3838E-02  0.6644E-01
    -11.335  0.4902E-02  0.6697E-01
    -11.228  0.5362E-02  0.6754E-01
    -11.121  0.3618E-02  0.6793E-01
    -11.015  0.5126E-02  0.6847E-01
    -10.908  0.7625E-02  0.6929E-01
    -10.801  0.4633E-02  0.6978E-01
    -10.694  0.4353E-02  0.7025E-01
    -10.587  0.9208E-02  0.7123E-01
    -10.480  0.1382E-01  0.7271E-01
    -10.374  0.1363E-01  0.7416E-01
    -10.267  0.1457E-01  0.7572E-01
    -10.160  0.1540E-01  0.7737E-01
    -10.053  0.1676E-01  0.7916E-01
     -9.946  0.1591E-01  0.8086E-01
     -9.839  0.1010E-01  0.8194E-01
     -9.732  0.1289E-01  0.8331E-01
     -9.626  0.1633E-01  0.8506E-01
     -9.519  0.9878E-02  0.8611E-01
     -9.412  0.1422E-01  0.8763E-01
     -9.305  0.1832E-01  0.8959E-01
     -9.198  0.9512E-02  0.9061E-01
     -9.091  0.1059E-01  0.9174E-01
     -8.985  0.1769E-01  0.9363E-01
     -8.878  0.1541E-01  0.9527E-01
     -8.771  0.1146E-01  0.9650E-01
     -8.664  0.1253E-01  0.9783E-01
     -8.557  0.1691E-01  0.9964E-01
     -8.450  0.1117E-01  0.1008E+00
     -8.344  0.1346E-01  0.1023E+00
     -8.237  0.1963E-01  0.1044E+00
     -8.130  0.1722E-01  0.1062E+00
     -8.023  0.1727E-01  0.1081E+00
     -7.916  0.2017E-01  0.1102E+00
     -7.809  0.2449E-01  0.1128E+00
     -7.703  0.1874E-01  0.1148E+00
     -7.596  0.1309E-01  0.1162E+00
     -7.489  0.1176E-01  0.1175E+00
     -7.382  0.1595E-01  0.1192E+00
     -7.275  0.1345E-01  0.1206E+00
     -7.168  0.1129E-01  0.1218E+00
     -7.062  0.1679E-01  0.1236E+00
     -6.955  0.1680E-01  0.1254E+00
     -6.848  0.1779E-01  0.1273E+00
     -6.741  0.1986E-01  0.1294E+00
     -6.634  0.1818E-01  0.1314E+00
     -6.527  0.1974E-01  0.1335E+00
     -6.421  0.1905E-01  0.1355E+00
     -6.314  0.1824E-01  0.1375E+00
     -6.207  0.2072E-01  0.1397E+00
     -6.100  0.2450E-01  0.1423E+00
     -5.993  0.2716E-01  0.1452E+00
     -5.886  0.2663E-01  0.1481E+00
     -5.780  0.2428E-01  0.1506E+00
     -5.673  0.2073E-01  0.1529E+00
     -5.566  0.2188E-01  0.1552E+00
     -5.459  0.3177E-01  0.1586E+00
     -5.352  0.3261E-01  0.1621E+00
     -5.245  0.2359E-01  0.1646E+00
     -5.139  0.1659E-01  0.1664E+00
     -5.032  0.1256E-01  0.1677E+00
     -4.925  0.9570E-02  0.1687E+00
     -4.818  0.1144E-01  0.1700E+00
     -4.711  0.1112E-01  0.1711E+00
     -4.604  0.1030E-01  0.1722E+00
     -4.498  0.1221E-01  0.1735E+00
     -4.391  0.1266E-01  0.1749E+00
     -4.284  0.1783E-01  0.1768E+00
     -4.177  0.2433E-01  0.1794E+00
     -4.070  0.2321E-01  0.1819E+00
     -3.963  0.1965E-01  0.1840E+00
     -3.857  0.1859E-01  0.1860E+00
     -3.750  0.1853E-01  0.1880E+00
     -3.643  0.2083E-01  0.1902E+00
     -3.536  0.2005E-01  0.1923E+00
     -3.429  0.1644E-01  0.1941E+00
     -3.322  0.1386E-01  0.1956E+00
     -3.216  0.1542E-01  0.1972E+00
     -3.109  0.1442E-01  0.1987E+00
     -3.002  0.1447E-01  0.2003E+00
     -2.895  0.1237E-01  0.2016E+00
     -2.788  0.1107E-01  0.2028E+00
     -2.681  0.1457E-01  0.2043E+00
     -2.575  0.1611E-01  0.2061E+00
     -2.468  0.7973E-02  0.2069E+00
     -2.361  0.9033E-02  0.2079E+00
     -2.254  0.1008E-01  0.2090E+00
     -2.147  0.6353E-02  0.2096E+00
     -2.040  0.1031E-01  0.2107E+00
     -1.934  0.1174E-01  0.2120E+00
     -1.827  0.1078E-01  0.2131E+00
     -1.720  0.8870E-02  0.2141E+00
     -1.613  0.8954E-02  0.2151E+00
     -1.506  0.7839E-02  0.2159E+00
     -1.399  0.4061E-02  0.2163E+00
     -1.293  0.4783E-02  0.2168E+00
     -1.186  0.5192E-02  0.2174E+00
     -1.079  0.4379E-02  0.2179E+00
     -0.972  0.3316E-02  0.2182E+00
     -0.865  0.2274E-02  0.2185E+00
     -0.758  0.1135E-02  0.2186E+00
     -0.652  0.5890E-03  0.2186E+00
     -0.545  0.8091E-03  0.2187E+00
     -0.438  0.2162E-03  0.2187E+00
     -0.331  0.7989E-05  0.2187E+00
     -0.224  0.4668E-05  0.2188E+00
     -0.117  0.1613E-03  0.2188E+00
     -0.011  0.7634E-03  0.2188E+00
      0.096  0.6498E-03  0.2189E+00
      0.203  0.7487E-03  0.2190E+00
      0.310  0.6905E-03  0.2191E+00
      0.417  0.9865E-03  0.2192E+00
      0.524  0.2345E-02  0.2194E+00
      0.631  0.2308E-02  0.2197E+00
      0.737  0.2677E-02  0.2200E+00
      0.844  0.6869E-02  0.2207E+00
      0.951  0.1641E-01  0.2224E+00
      1.058  0.1933E-01  0.2245E+00
      1.165  0.1191E-01  0.2258E+00
      1.272  0.9773E-02  0.2268E+00
      1.378  0.8624E-02  0.2278E+00
      1.485  0.1316E-01  0.2292E+00
      1.592  0.1157E-01  0.2304E+00
      1.699  0.1163E-01  0.2316E+00
      1.806  0.1348E-01  0.2331E+00
      1.913  0.8713E-02  0.2340E+00
      2.019  0.9097E-02  0.2350E+00
      2.126  0.9974E-02  0.2360E+00
      2.233  0.8399E-02  0.2369E+00
      2.340  0.8272E-02  0.2378E+00
      2.447  0.8133E-02  0.2387E+00
      2.554  0.7429E-02  0.2395E+00
      2.660  0.8625E-02  0.2404E+00
      2.767  0.9147E-02  0.2414E+00
      2.874  0.6790E-02  0.2421E+00
      2.981  0.7880E-02  0.2430E+00
      3.088  0.1009E-01  0.2440E+00
      3.195  0.9634E-02  0.2451E+00
      3.301  0.1395E-01  0.2466E+00
      3.408  0.1228E-01  0.2479E+00
      3.515  0.9720E-02  0.2489E+00
      3.622  0.1189E-01  0.2502E+00
      3.729  0.1887E-01  0.2522E+00
      3.836  0.2775E-01  0.2552E+00
      3.942  0.2921E-01  0.2583E+00
      4.049  0.2218E-01  0.2606E+00
      4.156  0.2375E-01  0.2632E+00
      4.263  0.2406E-01  0.2657E+00
      4.370  0.2185E-01  0.2681E+00
      4.477  0.2260E-01  0.2705E+00
      4.583  0.2483E-01  0.2732E+00
      4.690  0.2680E-01  0.2760E+00
      4.797  0.2123E-01  0.2783E+00
      4.904  0.1987E-01  0.2804E+00
      5.011  0.2372E-01  0.2829E+00
      5.118  0.3154E-01  0.2863E+00
      5.224  0.2842E-01  0.2893E+00
      5.331  0.1965E-01  0.2914E+00
      5.438  0.1819E-01  0.2934E+00
      5.545  0.2134E-01  0.2957E+00
      5.652  0.2675E-01  0.2985E+00
      5.759  0.2610E-01  0.3013E+00
      5.865  0.2139E-01  0.3036E+00
      5.972  0.1933E-01  0.3057E+00
      6.079  0.2100E-01  0.3079E+00
      6.186  0.1983E-01  0.3100E+00
      6.293  0.1813E-01  0.3120E+00
      6.400  0.1707E-01  0.3138E+00
      6.506  0.2376E-01  0.3163E+00
      6.613  0.2853E-01  0.3194E+00
      6.720  0.2747E-01  0.3223E+00
      6.827  0.2862E-01  0.3254E+00
      6.934  0.2909E-01  0.3285E+00
      7.041  0.2943E-01  0.3316E+00
      7.147  0.2512E-01  0.3343E+00
      7.254  0.2154E-01  0.3366E+00
      7.361  0.1998E-01  0.3387E+00
      7.468  0.1593E-01  0.3404E+00
      7.575  0.1779E-01  0.3423E+00
      7.682  0.2937E-01  0.3455E+00
      7.788  0.3428E-01  0.3491E+00
      7.895  0.3310E-01  0.3527E+00
      8.002  0.3111E-01  0.3560E+00
      8.109  0.3315E-01  0.3595E+00
      8.216  0.2826E-01  0.3626E+00
      8.323  0.2703E-01  0.3654E+00
      8.429  0.3573E-01  0.3693E+00
      8.536  0.2790E-01  0.3722E+00
      8.643  0.1248E-01  0.3736E+00
      8.750  0.7349E-02  0.3744E+00
      8.857  0.3857E-02  0.3748E+00
      8.964  0.1777E-02  0.3750E+00
      9.070  0.3118E-03  0.3750E+00
      9.177  0.1086E-04  0.3750E+00
      9.284  0.5247E-07  0.3750E+00
      9.391  0.2986E-10  0.3750E+00
      9.498  0.1869E-14  0.3750E+00
      9.605  0.0000E+00  0.3750E+00
      9.711  0.0000E+00  0.3750E+00
      9.818  0.0000E+00  0.3750E+00
      9.925  0.0000E+00  0.3750E+00
     10.032  0.0000E+00  0.3750E+00
     10.139  0.0000E+00  0.3750E+00
     10.246  0.0000E+00  0.3750E+00
     10.352  0.0000E+00  0.3750E+00
