       N       E                     dE             d eps       ncg     rms          rms(c)
DAV:   1     0.196915684897E+03    0.19692E+03   -0.25886E+04 13920   0.863E+02
DAV:   2    -0.122449316232E+03   -0.31937E+03   -0.31826E+03 19872   0.163E+02
DAV:   3    -0.135498263365E+03   -0.13049E+02   -0.13049E+02 26544   0.431E+01
DAV:   4    -0.135517730030E+03   -0.19467E-01   -0.19467E-01 19248   0.169E+00
DAV:   5    -0.135517788698E+03   -0.58668E-04   -0.58668E-04 25824   0.898E-02    0.173E+01
DAV:   6    -0.127815085460E+03    0.77027E+01   -0.15656E+01 26256   0.104E+01    0.960E+00
DAV:   7    -0.125722237945E+03    0.20928E+01   -0.40634E+00 27648   0.614E+00    0.382E+00
DAV:   8    -0.125541637780E+03    0.18060E+00   -0.64368E-01 26736   0.243E+00    0.103E+00
DAV:   9    -0.125516215554E+03    0.25422E-01   -0.42456E-02 21360   0.682E-01    0.178E-01
DAV:  10    -0.125505654523E+03    0.10561E-01   -0.62337E-03 26304   0.219E-01    0.130E-01
DAV:  11    -0.125498586487E+03    0.70680E-02   -0.10827E-02 23376   0.224E-01    0.851E-02
DAV:  12    -0.125499458056E+03   -0.87157E-03   -0.96991E-04 14688   0.808E-02    0.447E-02
DAV:  13    -0.125501476660E+03   -0.20186E-02   -0.47784E-04 21984   0.606E-02    0.185E-02
DAV:  14    -0.125503200183E+03   -0.17235E-02   -0.15497E-04 22608   0.291E-02    0.105E-02
DAV:  15    -0.125504327164E+03   -0.11270E-02   -0.17098E-04 20784   0.240E-02    0.695E-03
DAV:  16    -0.125504511872E+03   -0.18471E-03   -0.24423E-05 21120   0.947E-03    0.236E-03
DAV:  17    -0.125504528896E+03   -0.17025E-04   -0.95483E-07 22272   0.247E-03    0.662E-04
DAV:  18    -0.125504536110E+03   -0.72140E-05   -0.45186E-07 19104   0.131E-03    0.163E-04
DAV:  19    -0.125504536505E+03   -0.39472E-06   -0.88374E-09 22944   0.261E-04
   1 F= -.12710629E+03 E0= -.12710629E+03  d E =-.127106E+03
       N       E                     dE             d eps       ncg     rms          rms(c)
DAV:   1    -0.125512533638E+03   -0.79975E-02   -0.32637E+00 13920   0.578E+00    0.490E-01
DAV:   2    -0.125504016257E+03    0.85174E-02   -0.65715E-02 25056   0.767E-01    0.219E-01
DAV:   3    -0.125502995006E+03    0.10213E-02   -0.57462E-03 21408   0.222E-01    0.852E-02
DAV:   4    -0.125502948821E+03    0.46185E-04   -0.64757E-04 24816   0.768E-02    0.243E-02
DAV:   5    -0.125502951601E+03   -0.27796E-05   -0.21101E-05 25392   0.155E-02    0.773E-03
DAV:   6    -0.125502951601E+03   -0.46475E-09   -0.48647E-06 19872   0.679E-03
   2 F= -.12710416E+03 E0= -.12710416E+03  d E =0.212859E-02
       N       E                     dE             d eps       ncg     rms          rms(c)
DAV:   1    -0.125514222481E+03   -0.11271E-01   -0.93567E-01 13920   0.310E+00    0.263E-01
DAV:   2    -0.125511702284E+03    0.25202E-02   -0.18665E-02 25008   0.406E-01    0.116E-01
DAV:   3    -0.125511421420E+03    0.28086E-03   -0.15994E-03 22752   0.118E-01    0.461E-02
DAV:   4    -0.125511408982E+03    0.12438E-04   -0.18162E-04 24336   0.405E-02    0.126E-02
DAV:   5    -0.125511409716E+03   -0.73469E-06   -0.59259E-06 22272   0.824E-03
   3 F= -.12711291E+03 E0= -.12711291E+03  d E =-.661918E-02
       N       E                     dE             d eps       ncg     rms          rms(c)
DAV:   1    -0.125515761301E+03   -0.43523E-02   -0.24389E-01 13920   0.188E+00    0.107E-01
DAV:   2    -0.125515776008E+03   -0.14707E-04   -0.21752E-03 26832   0.199E-01    0.621E-02
DAV:   3    -0.125515763423E+03    0.12585E-04   -0.23244E-04 21600   0.567E-02    0.207E-02
DAV:   4    -0.125515763730E+03   -0.30747E-06   -0.45717E-05 26880   0.241E-02    0.878E-03
DAV:   5    -0.125515764404E+03   -0.67393E-06   -0.19812E-06 22128   0.600E-03
   4 F= -.12711719E+03 E0= -.12711719E+03  d E =-.427477E-02
       N       E                     dE             d eps       ncg     rms          rms(c)
DAV:   1    -0.125518174419E+03   -0.24107E-02   -0.49314E-01 13920   0.267E+00    0.152E-01
DAV:   2    -0.125518217434E+03   -0.43015E-04   -0.43982E-03 25344   0.283E-01    0.881E-02
DAV:   3    -0.125518193146E+03    0.24288E-04   -0.48217E-04 21504   0.815E-02    0.295E-02
DAV:   4    -0.125518193252E+03   -0.10588E-06   -0.94639E-05 25824   0.345E-02    0.127E-02
DAV:   5    -0.125518194622E+03   -0.13701E-05   -0.42602E-06 21648   0.873E-03    0.440E-03
DAV:   6    -0.125518194823E+03   -0.20067E-06   -0.12375E-06 24576   0.422E-03
   5 F= -.12711948E+03 E0= -.12711948E+03  d E =-.656792E-02
       N       E                     dE             d eps       ncg     rms          rms(c)
DAV:   1    -0.125519431434E+03   -0.12368E-02   -0.14779E-02 14208   0.435E-01    0.256E-02
DAV:   2    -0.125519433927E+03   -0.24935E-05   -0.11308E-04 26208   0.440E-02    0.150E-02
DAV:   3    -0.125519433295E+03    0.63242E-06   -0.12373E-05 19536   0.131E-02    0.395E-03
DAV:   4    -0.125519433519E+03   -0.22416E-06   -0.21259E-06 23520   0.542E-03
   6 F= -.12712070E+03 E0= -.12712070E+03  d E =-.122141E-02
       N       E                     dE             d eps       ncg     rms          rms(c)
DAV:   1    -0.125522591936E+03   -0.31586E-02   -0.13313E-01 13920   0.131E+00    0.771E-02
DAV:   2    -0.125522613421E+03   -0.21485E-04   -0.98243E-04 25296   0.130E-01    0.450E-02
DAV:   3    -0.125522607386E+03    0.60349E-05   -0.11052E-04 21216   0.390E-02    0.118E-02
DAV:   4    -0.125522607505E+03   -0.11948E-06   -0.18453E-05 26304   0.158E-02    0.508E-03
DAV:   5    -0.125522607826E+03   -0.32092E-06   -0.65861E-07 21744   0.345E-03
   7 F= -.12712382E+03 E0= -.12712382E+03  d E =-.434160E-02
       N       E                     dE             d eps       ncg     rms          rms(c)
DAV:   1    -0.125526515694E+03   -0.39082E-02   -0.53461E-01 13920   0.261E+00    0.154E-01
DAV:   2    -0.125526602061E+03   -0.86367E-04   -0.39866E-03 25776   0.262E-01    0.896E-02
DAV:   3    -0.125526575293E+03    0.26768E-04   -0.43873E-04 21888   0.776E-02    0.237E-02
DAV:   4    -0.125526575644E+03   -0.35045E-06   -0.72071E-05 26784   0.312E-02    0.101E-02
DAV:   5    -0.125526576574E+03   -0.93050E-06   -0.23762E-06 22080   0.662E-03
   8 F= -.12712767E+03 E0= -.12712767E+03  d E =-.819172E-02
       N       E                     dE             d eps       ncg     rms          rms(c)
DAV:   1    -0.125524999630E+03    0.15760E-02   -0.21507E+00 13920   0.524E+00    0.307E-01
DAV:   2    -0.125525381645E+03   -0.38202E-03   -0.16594E-02 26304   0.531E-01    0.178E-01
DAV:   3    -0.125525273393E+03    0.10825E-03   -0.17304E-03 22992   0.154E-01    0.485E-02
DAV:   4    -0.125525277472E+03   -0.40789E-05   -0.27725E-04 25392   0.613E-02    0.201E-02
DAV:   5    -0.125525281792E+03   -0.43201E-05   -0.93632E-06 23040   0.132E-02    0.834E-03
DAV:   6    -0.125525281312E+03    0.47994E-06   -0.44524E-06 24576   0.778E-03
   9 F= -.12712610E+03 E0= -.12712610E+03  d E =-.661823E-02
       N       E                     dE             d eps       ncg     rms          rms(c)
DAV:   1    -0.125527407725E+03   -0.21259E-02   -0.84347E-01 13920   0.328E+00    0.192E-01
DAV:   2    -0.125527556124E+03   -0.14840E-03   -0.66115E-03 27168   0.334E-01    0.112E-01
DAV:   3    -0.125527512176E+03    0.43947E-04   -0.66278E-04 19728   0.955E-02    0.307E-02
DAV:   4    -0.125527515204E+03   -0.30282E-05   -0.11134E-04 24000   0.387E-02    0.126E-02
DAV:   5    -0.125527517209E+03   -0.20043E-05   -0.35303E-06 19536   0.806E-03    0.534E-03
DAV:   6    -0.125527517369E+03   -0.16068E-06   -0.14851E-06 24720   0.444E-03
  10 F= -.12712851E+03 E0= -.12712851E+03  d E =-.903491E-02
       N       E                     dE             d eps       ncg     rms          rms(c)
DAV:   1    -0.125529238540E+03   -0.17213E-02   -0.63382E-02 13920   0.833E-01    0.488E-02
DAV:   2    -0.125529249384E+03   -0.10844E-04   -0.39233E-04 22560   0.728E-02    0.290E-02
DAV:   3    -0.125529247176E+03    0.22074E-05   -0.45537E-05 18720   0.216E-02    0.556E-03
DAV:   4    -0.125529247437E+03   -0.26025E-06   -0.39759E-06 22896   0.765E-03
  11 F= -.12713015E+03 E0= -.12713015E+03  d E =-.163497E-02
       N       E                     dE             d eps       ncg     rms          rms(c)
DAV:   1    -0.125533224463E+03   -0.39773E-02   -0.57147E-01 13920   0.250E+00    0.146E-01
DAV:   2    -0.125533324392E+03   -0.99929E-04   -0.33591E-03 26976   0.214E-01    0.865E-02
DAV:   3    -0.125533296117E+03    0.28275E-04   -0.41166E-04 22560   0.641E-02    0.159E-02
DAV:   4    -0.125533295833E+03    0.28375E-06   -0.31190E-05 22944   0.222E-02    0.756E-03
DAV:   5    -0.125533294172E+03    0.16610E-05   -0.33105E-06 22272   0.714E-03    0.279E-03
DAV:   6    -0.125533293151E+03    0.10216E-05   -0.16023E-06 24912   0.447E-03    0.101E-03
DAV:   7    -0.125533293261E+03   -0.10982E-06   -0.11880E-06 20304   0.344E-03
  12 F= -.12713391E+03 E0= -.12713391E+03  d E =-.539611E-02
       N       E                     dE             d eps       ncg     rms          rms(c)
DAV:   1    -0.125536587713E+03   -0.32946E-02   -0.22875E+00 13920   0.499E+00    0.287E-01
DAV:   2    -0.125537025719E+03   -0.43801E-03   -0.12709E-02 26880   0.421E-01    0.171E-01
DAV:   3    -0.125536920865E+03    0.10485E-03   -0.16747E-03 23520   0.129E-01    0.290E-02
DAV:   4    -0.125536918284E+03    0.25807E-05   -0.11811E-04 23424   0.435E-02    0.149E-02
DAV:   5    -0.125536913722E+03    0.45628E-05   -0.11555E-05 22896   0.136E-02    0.548E-03
DAV:   6    -0.125536911055E+03    0.26663E-05   -0.50201E-06 24624   0.819E-03    0.185E-03
DAV:   7    -0.125536911872E+03   -0.81662E-06   -0.36855E-06 23280   0.615E-03
  13 F= -.12713696E+03 E0= -.12713696E+03  d E =-.844924E-02
       N       E                     dE             d eps       ncg     rms          rms(c)
DAV:   1    -0.125539085797E+03   -0.21747E-02   -0.23879E-01 13920   0.186E+00    0.967E-02
DAV:   2    -0.125539124885E+03   -0.39088E-04   -0.18358E-03 26208   0.183E-01    0.592E-02
DAV:   3    -0.125539092483E+03    0.32402E-04   -0.26262E-04 22704   0.602E-02    0.125E-02
DAV:   4    -0.125539092597E+03   -0.11410E-06   -0.28848E-05 24144   0.213E-02    0.746E-03
DAV:   5    -0.125539093102E+03   -0.50487E-06   -0.15685E-06 24240   0.523E-03
  14 F= -.12713897E+03 E0= -.12713896E+03  d E =-.200211E-02
       N       E                     dE             d eps       ncg     rms          rms(c)
DAV:   1    -0.125539658703E+03   -0.56611E-03   -0.12693E-01 13920   0.136E+00    0.702E-02
DAV:   2    -0.125539680360E+03   -0.21658E-04   -0.96839E-04 26304   0.133E-01    0.431E-02
DAV:   3    -0.125539663544E+03    0.16817E-04   -0.14042E-04 22704   0.440E-02    0.906E-03
DAV:   4    -0.125539663520E+03    0.23909E-07   -0.15204E-05 24528   0.156E-02    0.543E-03
DAV:   5    -0.125539663793E+03   -0.27297E-06   -0.87257E-07 24480   0.390E-03
  15 F= -.12713940E+03 E0= -.12713940E+03  d E =-.243796E-02
       N       E                     dE             d eps       ncg     rms          rms(c)
DAV:   1    -0.125539930408E+03   -0.26689E-03   -0.15668E-02 13920   0.478E-01    0.244E-02
DAV:   2    -0.125539933255E+03   -0.28473E-05   -0.12204E-04 25776   0.455E-02    0.147E-02
DAV:   3    -0.125539933039E+03    0.21593E-06   -0.12817E-05 22560   0.128E-02    0.370E-03
DAV:   4    -0.125539933385E+03   -0.34595E-06   -0.18362E-06 22752   0.510E-03
  16 F= -.12713960E+03 E0= -.12713960E+03  d E =-.201704E-03
       N       E                     dE             d eps       ncg     rms          rms(c)
DAV:   1    -0.125540161435E+03   -0.22840E-03   -0.40603E-02 13920   0.770E-01    0.395E-02
DAV:   2    -0.125540168297E+03   -0.68615E-05   -0.30691E-04 26544   0.725E-02    0.237E-02
DAV:   3    -0.125540166879E+03    0.14176E-05   -0.31516E-05 21600   0.202E-02    0.592E-03
DAV:   4    -0.125540167083E+03   -0.20328E-06   -0.45632E-06 24528   0.799E-03
  17 F= -.12713973E+03 E0= -.12713973E+03  d E =-.325696E-03
       N       E                     dE             d eps       ncg     rms          rms(c)
DAV:   1    -0.125540455676E+03   -0.28880E-03   -0.25781E-02 13920   0.631E-01    0.318E-02
DAV:   2    -0.125540462468E+03   -0.67922E-05   -0.21750E-04 27360   0.627E-02    0.193E-02
DAV:   3    -0.125540461798E+03    0.67064E-06   -0.19536E-05 22320   0.164E-02    0.542E-03
DAV:   4    -0.125540462086E+03   -0.28802E-06   -0.32247E-06 24048   0.665E-03
  18 F= -.12713992E+03 E0= -.12713992E+03  d E =-.196616E-03
       N       E                     dE             d eps       ncg     rms          rms(c)
DAV:   1    -0.125540528180E+03   -0.66383E-04   -0.55483E-03 14016   0.293E-01    0.149E-02
DAV:   2    -0.125540529781E+03   -0.16006E-05   -0.47443E-05 25632   0.293E-02    0.906E-03
DAV:   3    -0.125540529957E+03   -0.17646E-06   -0.43032E-06 20304   0.775E-03
  19 F= -.12713995E+03 E0= -.12713994E+03  d E =-.218501E-03
       N       E                     dE             d eps       ncg     rms          rms(c)
DAV:   1    -0.125540692353E+03   -0.16257E-03   -0.84707E-03 13920   0.361E-01    0.205E-02
DAV:   2    -0.125540693035E+03   -0.68131E-06   -0.92996E-05 27120   0.409E-02    0.120E-02
DAV:   3    -0.125540691869E+03    0.11658E-05   -0.92527E-06 19584   0.117E-02    0.342E-03
DAV:   4    -0.125540692134E+03   -0.26525E-06   -0.12021E-06 24480   0.422E-03
  20 F= -.12714004E+03 E0= -.12714004E+03  d E =-.936754E-04
       N       E                     dE             d eps       ncg     rms          rms(c)
DAV:   1    -0.125540753431E+03   -0.61562E-04   -0.35140E-03 14160   0.232E-01    0.130E-02
DAV:   2    -0.125540753846E+03   -0.41489E-06   -0.38445E-05 27120   0.261E-02    0.759E-03
DAV:   3    -0.125540753465E+03    0.38051E-06   -0.35612E-06 18144   0.731E-03
  21 F= -.12714006E+03 E0= -.12714006E+03  d E =-.110723E-03
       N       E                     dE             d eps       ncg     rms          rms(c)
DAV:   1    -0.125540945009E+03   -0.19116E-03   -0.91614E-03 13920   0.370E-01    0.184E-02
DAV:   2    -0.125540947890E+03   -0.28817E-05   -0.85485E-05 27024   0.375E-02    0.110E-02
DAV:   3    -0.125540948096E+03   -0.20604E-06   -0.74618E-06 17136   0.101E-02
  22 F= -.12714015E+03 E0= -.12714015E+03  d E =-.976230E-04
       N       E                     dE             d eps       ncg     rms          rms(c)
DAV:   1    -0.125541073830E+03   -0.12594E-03   -0.88874E-03 13920   0.364E-01    0.186E-02
DAV:   2    -0.125541077131E+03   -0.33015E-05   -0.83636E-05 26736   0.374E-02    0.112E-02
DAV:   3    -0.125541077494E+03   -0.36295E-06   -0.75169E-06 17088   0.102E-02
  23 F= -.12714019E+03 E0= -.12714019E+03  d E =-.131449E-03
       N       E                     dE             d eps       ncg     rms          rms(c)
DAV:   1    -0.125541273829E+03   -0.19670E-03   -0.11058E-02 13920   0.416E-01    0.223E-02
DAV:   2    -0.125541276110E+03   -0.22812E-05   -0.11522E-04 26592   0.445E-02    0.134E-02
DAV:   3    -0.125541274945E+03    0.11655E-05   -0.10465E-05 20016   0.125E-02    0.315E-03
DAV:   4    -0.125541275192E+03   -0.24704E-06   -0.11397E-06 21360   0.410E-03
  24 F= -.12714025E+03 E0= -.12714025E+03  d E =-.636106E-04
       N       E                     dE             d eps       ncg     rms          rms(c)
DAV:   1    -0.125541281930E+03   -0.69856E-05   -0.27088E-05 24048   0.206E-02    0.122E-03
DAV:   2    -0.125541281951E+03   -0.21155E-07   -0.22955E-07 26112   0.201E-03
  25 F= -.12714025E+03 E0= -.12714025E+03  d E =-.638334E-04
       N       E                     dE             d eps       ncg     rms          rms(c)
DAV:   1    -0.125541464238E+03   -0.18231E-03   -0.61889E-03 13920   0.305E-01    0.164E-02
DAV:   2    -0.125541464277E+03   -0.39734E-07   -0.68469E-05 20064   0.341E-02    0.947E-03
DAV:   3    -0.125541463943E+03    0.33469E-06   -0.71853E-06 25200   0.101E-02
  26 F= -.12714030E+03 E0= -.12714030E+03  d E =-.515544E-04
       N       E                     dE             d eps       ncg     rms          rms(c)
DAV:   1    -0.125541543084E+03   -0.78806E-04   -0.18562E-03 14016   0.167E-01    0.972E-03
DAV:   2    -0.125541543319E+03   -0.23559E-06   -0.21323E-05 22656   0.192E-02    0.572E-03
DAV:   3    -0.125541543331E+03   -0.11943E-07   -0.22955E-06 22416   0.573E-03
  27 F= -.12714031E+03 E0= -.12714031E+03  d E =-.596511E-04
       N       E                     dE             d eps       ncg     rms          rms(c)
DAV:   1    -0.125541743472E+03   -0.20015E-03   -0.63731E-03 13920   0.309E-01    0.154E-02
DAV:   2    -0.125541744867E+03   -0.13955E-05   -0.56521E-05 23472   0.319E-02    0.942E-03
DAV:   3    -0.125541744792E+03    0.75413E-07   -0.61258E-06 24528   0.913E-03
  28 F= -.12714036E+03 E0= -.12714036E+03  d E =-.529003E-04
       N       E                     dE             d eps       ncg     rms          rms(c)
DAV:   1    -0.125541938363E+03   -0.19350E-03   -0.86426E-03 13920   0.360E-01    0.181E-02
DAV:   2    -0.125541940683E+03   -0.23201E-05   -0.77823E-05 25392   0.375E-02    0.112E-02
DAV:   3    -0.125541940483E+03    0.20058E-06   -0.85552E-06 24864   0.107E-02
  29 F= -.12714039E+03 E0= -.12714039E+03  d E =-.758707E-04
       N       E                     dE             d eps       ncg     rms          rms(c)
DAV:   1    -0.125542111309E+03   -0.17063E-03   -0.44546E-03 13920   0.254E-01    0.137E-02
DAV:   2    -0.125542111966E+03   -0.65713E-06   -0.41782E-05 25536   0.272E-02    0.840E-03
DAV:   3    -0.125542111658E+03    0.30806E-06   -0.43853E-06 23664   0.790E-03
  30 F= -.12714043E+03 E0= -.12714043E+03  d E =-.415071E-04
       N       E                     dE             d eps       ncg     rms          rms(c)
DAV:   1    -0.125542290451E+03   -0.17849E-03   -0.68300E-03 13920   0.315E-01    0.167E-02
DAV:   2    -0.125542291358E+03   -0.90689E-06   -0.62301E-05 25920   0.332E-02    0.101E-02
DAV:   3    -0.125542290802E+03    0.55602E-06   -0.64025E-06 24000   0.950E-03
  31 F= -.12714045E+03 E0= -.12714045E+03  d E =-.600355E-04
       N       E                     dE             d eps       ncg     rms          rms(c)
DAV:   1    -0.125542465848E+03   -0.17449E-03   -0.41115E-03 14208   0.241E-01    0.126E-02
DAV:   2    -0.125542466718E+03   -0.86956E-06   -0.35562E-05 22896   0.254E-02    0.781E-03
DAV:   3    -0.125542466687E+03    0.31065E-07   -0.39250E-06 22272   0.731E-03
  32 F= -.12714048E+03 E0= -.12714048E+03  d E =-.365729E-04
       N       E                     dE             d eps       ncg     rms          rms(c)
DAV:   1    -0.125542711255E+03   -0.24454E-03   -0.10519E-02 13920   0.386E-01    0.200E-02
DAV:   2    -0.125542713454E+03   -0.21983E-05   -0.91648E-05 24624   0.406E-02    0.124E-02
DAV:   3    -0.125542713184E+03    0.26936E-06   -0.10217E-05 23856   0.116E-02    0.321E-03
DAV:   4    -0.125542713220E+03   -0.35548E-07   -0.17697E-06 23184   0.481E-03
  33 F= -.12714051E+03 E0= -.12714051E+03  d E =-.601011E-04
       N       E                     dE             d eps       ncg     rms          rms(c)
DAV:   1    -0.125542901870E+03   -0.18869E-03   -0.44352E-03 13920   0.252E-01    0.126E-02
DAV:   2    -0.125542902633E+03   -0.76301E-06   -0.38519E-05 21264   0.259E-02    0.767E-03
DAV:   3    -0.125542902547E+03    0.86478E-07   -0.37642E-06 20736   0.715E-03
  34 F= -.12714055E+03 E0= -.12714055E+03  d E =-.394564E-04
       N       E                     dE             d eps       ncg     rms          rms(c)
DAV:   1    -0.125543321611E+03   -0.41898E-03   -0.28125E-02 13920   0.634E-01    0.318E-02
DAV:   2    -0.125543326859E+03   -0.52473E-05   -0.24179E-04 24528   0.644E-02    0.194E-02
DAV:   3    -0.125543325451E+03    0.14081E-05   -0.23319E-05 25056   0.174E-02    0.428E-03
DAV:   4    -0.125543325716E+03   -0.26498E-06   -0.26529E-06 19968   0.603E-03
  35 F= -.12714059E+03 E0= -.12714059E+03  d E =-.854639E-04
       N       E                     dE             d eps       ncg     rms          rms(c)
DAV:   1    -0.125543589961E+03   -0.26451E-03   -0.96928E-03 14160   0.377E-01    0.182E-02
DAV:   2    -0.125543591753E+03   -0.17925E-05   -0.89431E-05 23664   0.394E-02    0.113E-02
DAV:   3    -0.125543591384E+03    0.36896E-06   -0.96744E-06 21504   0.115E-02
  36 F= -.12714064E+03 E0= -.12714064E+03  d E =-.449125E-04
       N       E                     dE             d eps       ncg     rms          rms(c)
DAV:   1    -0.125543759031E+03   -0.16728E-03   -0.49689E-03 14208   0.270E-01    0.136E-02
DAV:   2    -0.125543760241E+03   -0.12101E-05   -0.46036E-05 26448   0.283E-02    0.855E-03
DAV:   3    -0.125543760331E+03   -0.90288E-07   -0.49466E-06 18144   0.823E-03
  37 F= -.12714065E+03 E0= -.12714065E+03  d E =-.562559E-04
       N       E                     dE             d eps       ncg     rms          rms(c)
DAV:   1    -0.125543992904E+03   -0.23266E-03   -0.75664E-03 14112   0.333E-01    0.161E-02
DAV:   2    -0.125543994311E+03   -0.14071E-05   -0.69948E-05 24912   0.340E-02    0.986E-03
DAV:   3    -0.125543994389E+03   -0.77963E-07   -0.64697E-06 19920   0.928E-03
  38 F= -.12714069E+03 E0= -.12714069E+03  d E =-.381173E-04
       N       E                     dE             d eps       ncg     rms          rms(c)
DAV:   1    -0.125544242002E+03   -0.24769E-03   -0.10644E-02 13920   0.395E-01    0.191E-02
DAV:   2    -0.125544244147E+03   -0.21455E-05   -0.99465E-05 25824   0.406E-02    0.118E-02
DAV:   3    -0.125544244160E+03   -0.13458E-07   -0.93628E-06 21360   0.111E-02
  39 F= -.12714070E+03 E0= -.12714070E+03  d E =-.554929E-04
       N       E                     dE             d eps       ncg     rms          rms(c)
DAV:   1    -0.125544476160E+03   -0.23201E-03   -0.78451E-03 13920   0.341E-01    0.167E-02
DAV:   2    -0.125544477702E+03   -0.15421E-05   -0.74737E-05 25008   0.354E-02    0.104E-02
DAV:   3    -0.125544477621E+03    0.81102E-07   -0.74424E-06 21120   0.100E-02
  40 F= -.12714074E+03 E0= -.12714074E+03  d E =-.315785E-04
       N       E                     dE             d eps       ncg     rms          rms(c)
DAV:   1    -0.125544612270E+03   -0.13457E-03   -0.32041E-03 14208   0.218E-01    0.108E-02
DAV:   2    -0.125544612967E+03   -0.69719E-06   -0.30193E-05 26064   0.225E-02    0.675E-03
DAV:   3    -0.125544613079E+03   -0.11190E-06   -0.29203E-06 17232   0.631E-03
  41 F= -.12714074E+03 E0= -.12714074E+03  d E =-.382847E-04
       N       E                     dE             d eps       ncg     rms          rms(c)
DAV:   1    -0.125544735834E+03   -0.12287E-03   -0.19784E-03 14208   0.174E-01    0.858E-03
DAV:   2    -0.125544735932E+03   -0.98315E-07   -0.19564E-05 21600   0.187E-02    0.524E-03
DAV:   3    -0.125544735998E+03   -0.66132E-07   -0.22257E-06 15840   0.563E-03
  42 F= -.12714076E+03 E0= -.12714076E+03  d E =-.156671E-04
       N       E                     dE             d eps       ncg     rms          rms(c)
DAV:   1    -0.125544870713E+03   -0.13478E-03   -0.27945E-03 14112   0.207E-01    0.103E-02
DAV:   2    -0.125544870749E+03   -0.36588E-07   -0.27853E-05 21216   0.223E-02    0.629E-03
DAV:   3    -0.125544870779E+03   -0.29427E-07   -0.34029E-06 18480   0.691E-03
  43 F= -.12714077E+03 E0= -.12714077E+03  d E =-.229743E-04
       N       E                     dE             d eps       ncg     rms          rms(c)
DAV:   1    -0.125545002092E+03   -0.13134E-03   -0.21555E-03 14016   0.181E-01    0.912E-03
DAV:   2    -0.125545002126E+03   -0.33971E-07   -0.20283E-05 20448   0.188E-02    0.556E-03
DAV:   3    -0.125545002146E+03   -0.19867E-07   -0.22449E-06 17520   0.559E-03
  44 F= -.12714078E+03 E0= -.12714078E+03  d E =-.148272E-04
       N       E                     dE             d eps       ncg     rms          rms(c)
DAV:   1    -0.125545149326E+03   -0.14720E-03   -0.31266E-03 13920   0.218E-01    0.108E-02
DAV:   2    -0.125545149381E+03   -0.55737E-07   -0.29196E-05 19632   0.226E-02    0.657E-03
DAV:   3    -0.125545149342E+03    0.39359E-07   -0.33317E-06 20400   0.678E-03
  45 F= -.12714079E+03 E0= -.12714079E+03  d E =-.216541E-04
       N       E                     dE             d eps       ncg     rms          rms(c)
DAV:   1    -0.125545300336E+03   -0.15095E-03   -0.28136E-03 13920   0.206E-01    0.104E-02
DAV:   2    -0.125545300482E+03   -0.14556E-06   -0.27148E-05 18720   0.221E-02    0.644E-03
DAV:   3    -0.125545300466E+03    0.16264E-07   -0.33988E-06 20448   0.688E-03
  46 F= -.12714080E+03 E0= -.12714080E+03  d E =-.128985E-04
       N       E                     dE             d eps       ncg     rms          rms(c)
DAV:   1    -0.125545361707E+03   -0.61225E-04   -0.53952E-04 14208   0.902E-02    0.485E-03
DAV:   2    -0.125545361756E+03   -0.49132E-07   -0.53139E-06 23712   0.982E-03
  47 F= -.12714080E+03 E0= -.12714080E+03  d E =-.140381E-04
       N       E                     dE             d eps       ncg     rms          rms(c)
DAV:   1    -0.125545388086E+03   -0.26379E-04   -0.97448E-05 14976   0.388E-02    0.235E-03
DAV:   2    -0.125545388110E+03   -0.23407E-07   -0.80946E-07 22224   0.387E-03
  48 F= -.12714080E+03 E0= -.12714080E+03  d E =-.135385E-04
       N       E                     dE             d eps       ncg     rms          rms(c)
DAV:   1    -0.125545526241E+03   -0.13816E-03   -0.21175E-03 13920   0.176E-01    0.884E-03
DAV:   2    -0.125545526060E+03    0.18100E-06   -0.20334E-05 15600   0.191E-02    0.543E-03
DAV:   3    -0.125545526045E+03    0.15693E-07   -0.26844E-06 16176   0.613E-03
  49 F= -.12714081E+03 E0= -.12714081E+03  d E =-.789829E-05
       N       E                     dE             d eps       ncg     rms          rms(c)
DAV:   1    -0.125545611438E+03   -0.85378E-04   -0.88550E-04 13920   0.113E-01    0.607E-03
DAV:   2    -0.125545611364E+03    0.74780E-07   -0.86405E-06 20592   0.124E-02
  50 F= -.12714081E+03 E0= -.12714081E+03  d E =-.100452E-04
       N       E                     dE             d eps       ncg     rms          rms(c)
DAV:   1    -0.125545732924E+03   -0.12149E-03   -0.16369E-03 14016   0.162E-01    0.810E-03
DAV:   2    -0.125545732913E+03    0.11305E-07   -0.18216E-05 18336   0.180E-02    0.513E-03
DAV:   3    -0.125545732864E+03    0.48881E-07   -0.24128E-06 20160   0.593E-03
  51 F= -.12714082E+03 E0= -.12714082E+03  d E =-.101934E-04
       N       E                     dE             d eps       ncg     rms          rms(c)
DAV:   1    -0.125545771848E+03   -0.38935E-04   -0.19890E-04 14880   0.560E-02    0.304E-03
DAV:   2    -0.125545771862E+03   -0.13431E-07   -0.21907E-06 26400   0.625E-03
  52 F= -.12714082E+03 E0= -.12714082E+03  d E =-.114115E-04
       N       E                     dE             d eps       ncg     rms          rms(c)
DAV:   1    -0.125545894168E+03   -0.12232E-03   -0.16377E-03 13920   0.160E-01    0.764E-03
DAV:   2    -0.125545893906E+03    0.26189E-06   -0.17230E-05 15360   0.174E-02    0.466E-03
DAV:   3    -0.125545893898E+03    0.81291E-08   -0.21693E-06 16800   0.553E-03
  53 F= -.12714083E+03 E0= -.12714083E+03  d E =-.906202E-05
       N       E                     dE             d eps       ncg     rms          rms(c)
DAV:   1    -0.125545960952E+03   -0.67046E-04   -0.55956E-04 14016   0.934E-02    0.472E-03
DAV:   2    -0.125545960868E+03    0.83986E-07   -0.60913E-06 21840   0.102E-02
  54 F= -.12714083E+03 E0= -.12714083E+03  d E =-.109401E-04
       N       E                     dE             d eps       ncg     rms          rms(c)
DAV:   1    -0.125546088168E+03   -0.12722E-03   -0.21572E-03 13920   0.184E-01    0.909E-03
DAV:   2    -0.125546087832E+03    0.33629E-06   -0.22619E-05 17376   0.199E-02    0.557E-03
DAV:   3    -0.125546087825E+03    0.70195E-08   -0.28991E-06 19872   0.634E-03
  55 F= -.12714083E+03 E0= -.12714083E+03  d E =-.772663E-05
       N       E                     dE             d eps       ncg     rms          rms(c)
DAV:   1    -0.125545987124E+03    0.10071E-03   -0.13961E-03 13920   0.148E-01    0.655E-03
DAV:   2    -0.125545987048E+03    0.76695E-07   -0.16266E-05 21744   0.164E-02    0.396E-03
DAV:   3    -0.125545986964E+03    0.83964E-07   -0.17073E-06 22752   0.473E-03
  56 F= -.12714083E+03 E0= -.12714083E+03  d E =-.112095E-04
       N       E                     dE             d eps       ncg     rms          rms(c)
DAV:   1    -0.125546114552E+03   -0.12750E-03   -0.19214E-03 13920   0.173E-01    0.764E-03
DAV:   2    -0.125546114252E+03    0.30021E-06   -0.20079E-05 15936   0.186E-02    0.478E-03
DAV:   3    -0.125546114128E+03    0.12397E-06   -0.27546E-06 23232   0.613E-03
  57 F= -.12714084E+03 E0= -.12714084E+03  d E =-.493801E-05
       N       E                     dE             d eps       ncg     rms          rms(c)
DAV:   1    -0.125546123811E+03   -0.95586E-05   -0.13648E-05 19536   0.145E-02    0.119E-03
DAV:   2    -0.125546123827E+03   -0.15885E-07   -0.12592E-07 26688   0.152E-03
  58 F= -.12714084E+03 E0= -.12714084E+03  d E =-.509578E-05
       N       E                     dE             d eps       ncg     rms          rms(c)
DAV:   1    -0.125546220067E+03   -0.96256E-04   -0.10820E-03 13920   0.129E-01    0.612E-03
DAV:   2    -0.125546219675E+03    0.39150E-06   -0.12039E-05 13920   0.143E-02    0.374E-03
DAV:   3    -0.125546219634E+03    0.41688E-07   -0.16692E-06 16176   0.483E-03
  59 F= -.12714084E+03 E0= -.12714084E+03  d E =-.575517E-05
       N       E                     dE             d eps       ncg     rms          rms(c)
DAV:   1    -0.125546284816E+03   -0.65140E-04   -0.54590E-04 14064   0.916E-02    0.464E-03
DAV:   2    -0.125546284584E+03    0.23130E-06   -0.60546E-06 16896   0.101E-02
  60 F= -.12714085E+03 E0= -.12714085E+03  d E =-.737578E-05
       N       E                     dE             d eps       ncg     rms          rms(c)
DAV:   1    -0.125546409086E+03   -0.12427E-03   -0.21019E-03 13920   0.181E-01    0.899E-03
DAV:   2    -0.125546408388E+03    0.69783E-06   -0.22948E-05 16032   0.199E-02    0.552E-03
DAV:   3    -0.125546408337E+03    0.51598E-07   -0.33228E-06 23040   0.675E-03
  61 F= -.12714084E+03 E0= -.12714084E+03  d E =-.444309E-05
       N       E                     dE             d eps       ncg     rms          rms(c)
DAV:   1    -0.125546310697E+03    0.97692E-04   -0.13505E-03 13920   0.144E-01    0.644E-03
DAV:   2    -0.125546310427E+03    0.26984E-06   -0.16235E-05 21072   0.162E-02    0.390E-03
DAV:   3    -0.125546310271E+03    0.15611E-06   -0.18757E-06 21552   0.497E-03
  62 F= -.12714085E+03 E0= -.12714085E+03  d E =-.752081E-05
       N       E                     dE             d eps       ncg     rms          rms(c)
DAV:   1    -0.125546385812E+03   -0.75385E-04   -0.60390E-04 13920   0.964E-02    0.412E-03
DAV:   2    -0.125546385684E+03    0.12826E-06   -0.68172E-06 20736   0.106E-02
  63 F= -.12714085E+03 E0= -.12714085E+03  d E =-.356494E-05
       N       E                     dE             d eps       ncg     rms          rms(c)
DAV:   1    -0.125546555060E+03   -0.16925E-03   -0.32098E-03 13920   0.223E-01    0.106E-02
DAV:   2    -0.125546554208E+03    0.85132E-06   -0.33272E-05 18912   0.238E-02    0.655E-03
DAV:   3    -0.125546554125E+03    0.83744E-07   -0.47247E-06 24768   0.790E-03
  64 F= -.12714085E+03 E0= -.12714085E+03  d E =-.580981E-05
       N       E                     dE             d eps       ncg     rms          rms(c)
DAV:   1    -0.125546509112E+03    0.45096E-04   -0.23392E-04 18048   0.602E-02    0.235E-03
DAV:   2    -0.125546509116E+03   -0.40855E-08   -0.25385E-06 21552   0.631E-03
  65 F= -.12714085E+03 E0= -.12714085E+03  d E =-.613792E-05
       N       E                     dE             d eps       ncg     rms          rms(c)
DAV:   1    -0.125546599467E+03   -0.90354E-04   -0.79955E-04 13920   0.110E-01    0.503E-03
DAV:   2    -0.125546599237E+03    0.22949E-06   -0.89987E-06 14592   0.123E-02
  66 F= -.12714086E+03 E0= -.12714086E+03  d E =-.470735E-05
       N       E                     dE             d eps       ncg     rms          rms(c)
DAV:   1    -0.125546765185E+03   -0.16572E-03   -0.28105E-03 13920   0.209E-01    0.104E-02
DAV:   2    -0.125546764397E+03    0.78746E-06   -0.31273E-05 21024   0.230E-02    0.641E-03
DAV:   3    -0.125546764283E+03    0.11438E-06   -0.41429E-06 24864   0.747E-03
  67 F= -.12714086E+03 E0= -.12714086E+03  d E =-.616732E-05
       N       E                     dE             d eps       ncg     rms          rms(c)
DAV:   1    -0.125546705992E+03    0.58405E-04   -0.36259E-04 13968   0.750E-02    0.313E-03
DAV:   2    -0.125546705990E+03    0.18481E-08   -0.45385E-06 21984   0.854E-03
  68 F= -.12714086E+03 E0= -.12714086E+03  d E =-.687596E-05
       N       E                     dE             d eps       ncg     rms          rms(c)
DAV:   1    -0.125546817766E+03   -0.11177E-03   -0.11253E-03 13920   0.129E-01    0.592E-03
DAV:   2    -0.125546817547E+03    0.21899E-06   -0.12346E-05 14208   0.145E-02    0.363E-03
DAV:   3    -0.125546817470E+03    0.76951E-07   -0.16776E-06 21456   0.476E-03
  69 F= -.12714086E+03 E0= -.12714086E+03  d E =-.454127E-05
       N       E                     dE             d eps       ncg     rms          rms(c)
DAV:   1    -0.125546938318E+03   -0.12077E-03   -0.13629E-03 13920   0.142E-01    0.718E-03
DAV:   2    -0.125546937966E+03    0.35252E-06   -0.14351E-05 13920   0.158E-02    0.444E-03
DAV:   3    -0.125546937986E+03   -0.20382E-07   -0.21909E-06 22464   0.546E-03
  70 F= -.12714087E+03 E0= -.12714087E+03  d E =-.665576E-05
       N       E                     dE             d eps       ncg     rms          rms(c)
DAV:   1    -0.125547071712E+03   -0.13375E-03   -0.16053E-03 13920   0.155E-01    0.766E-03
DAV:   2    -0.125547071329E+03    0.38278E-06   -0.16875E-05 13920   0.170E-02    0.471E-03
DAV:   3    -0.125547071383E+03   -0.53314E-07   -0.23127E-06 22032   0.557E-03
  71 F= -.12714087E+03 E0= -.12714087E+03  d E =-.582389E-05
       N       E                     dE             d eps       ncg     rms          rms(c)
DAV:   1    -0.125547209338E+03   -0.13801E-03   -0.18004E-03 13920   0.164E-01    0.817E-03
DAV:   2    -0.125547208913E+03    0.42411E-06   -0.18945E-05 14208   0.180E-02    0.502E-03
DAV:   3    -0.125547208961E+03   -0.47045E-07   -0.26423E-06 22320   0.596E-03
  72 F= -.12714087E+03 E0= -.12714087E+03  d E =-.838676E-05
       N       E                     dE             d eps       ncg     rms          rms(c)
DAV:   1    -0.125547366704E+03   -0.15779E-03   -0.24219E-03 13920   0.192E-01    0.943E-03
DAV:   2    -0.125547366202E+03    0.50178E-06   -0.26315E-05 15744   0.212E-02    0.588E-03
DAV:   3    -0.125547366121E+03    0.80457E-07   -0.36799E-06 21888   0.711E-03
  73 F= -.12714088E+03 E0= -.12714088E+03  d E =-.378256E-05
       N       E                     dE             d eps       ncg     rms          rms(c)
DAV:   1    -0.125547343125E+03    0.23077E-04   -0.50234E-05 19392   0.280E-02    0.105E-03
DAV:   2    -0.125547343171E+03   -0.45655E-07   -0.64980E-07 24288   0.314E-03
  74 F= -.12714088E+03 E0= -.12714088E+03  d E =-.388572E-05
       N       E                     dE             d eps       ncg     rms          rms(c)
DAV:   1    -0.125547434487E+03   -0.91362E-04   -0.80516E-04 13920   0.111E-01    0.494E-03
DAV:   2    -0.125547434273E+03    0.21358E-06   -0.84881E-06 13920   0.120E-02
  75 F= -.12714088E+03 E0= -.12714088E+03  d E =-.302299E-05
       N       E                     dE             d eps       ncg     rms          rms(c)
DAV:   1    -0.125547600012E+03   -0.16553E-03   -0.27133E-03 13920   0.205E-01    0.976E-03
DAV:   2    -0.125547599338E+03    0.67410E-06   -0.27641E-05 13920   0.220E-02    0.611E-03
DAV:   3    -0.125547599376E+03   -0.38642E-07   -0.41327E-06 21888   0.749E-03
  76 F= -.12714088E+03 E0= -.12714088E+03  d E =-.381118E-05
       N       E                     dE             d eps       ncg     rms          rms(c)
DAV:   1    -0.125547530989E+03    0.68348E-04   -0.47385E-04 14544   0.855E-02    0.344E-03
DAV:   2    -0.125547531030E+03   -0.40375E-07   -0.55585E-06 21984   0.946E-03
  77 F= -.12714088E+03 E0= -.12714088E+03  d E =-.443669E-05
       N       E                     dE             d eps       ncg     rms          rms(c)
DAV:   1    -0.125547591689E+03   -0.60700E-04   -0.37256E-04 14496   0.743E-02    0.297E-03
DAV:   2    -0.125547591627E+03    0.62346E-07   -0.40394E-06 15024   0.821E-03
  78 F= -.12714088E+03 E0= -.12714088E+03  d E =-.198501E-05
       N       E                     dE             d eps       ncg     rms          rms(c)
DAV:   1    -0.125547771354E+03   -0.17967E-03   -0.31579E-03 13920   0.219E-01    0.102E-02
DAV:   2    -0.125547770366E+03    0.98758E-06   -0.30464E-05 13920   0.230E-02    0.626E-03
DAV:   3    -0.125547770345E+03    0.20998E-07   -0.46096E-06 22320   0.783E-03
  79 F= -.12714089E+03 E0= -.12714089E+03  d E =-.489277E-05
       N       E                     dE             d eps       ncg     rms          rms(c)
DAV:   1    -0.125547817405E+03   -0.47038E-04   -0.25686E-04 18000   0.628E-02    0.341E-03
DAV:   2    -0.125547817268E+03    0.13683E-06   -0.25768E-06 24096   0.653E-03
  80 F= -.12714089E+03 E0= -.12714089E+03  d E =-.194031E-05
       N       E                     dE             d eps       ncg     rms          rms(c)
DAV:   1    -0.125547945324E+03   -0.12792E-03   -0.19537E-03 13920   0.174E-01    0.854E-03
DAV:   2    -0.125547944492E+03    0.83176E-06   -0.21278E-05 15744   0.191E-02    0.521E-03
DAV:   3    -0.125547944421E+03    0.71353E-07   -0.31048E-06 20304   0.657E-03
  81 F= -.12714089E+03 E0= -.12714089E+03  d E =-.144742E-05
       N       E                     dE             d eps       ncg     rms          rms(c)
DAV:   1    -0.125547874442E+03    0.70049E-04   -0.61189E-04 14160   0.976E-02    0.422E-03
DAV:   2    -0.125547874362E+03    0.80660E-07   -0.76211E-06 21216   0.110E-02
  82 F= -.12714089E+03 E0= -.12714089E+03  d E =-.302850E-05
       N       E                     dE             d eps       ncg     rms          rms(c)
DAV:   1    -0.125547917312E+03   -0.42869E-04   -0.20613E-04 15360   0.552E-02    0.221E-03
DAV:   2    -0.125547917255E+03    0.56664E-07   -0.24767E-06 15264   0.636E-03
  83 F= -.12714089E+03 E0= -.12714089E+03  d E =-.116975E-05
       N       E                     dE             d eps       ncg     rms          rms(c)
DAV:   1    -0.125548044520E+03   -0.12721E-03   -0.16957E-03 13920   0.161E-01    0.767E-03
DAV:   2    -0.125548043729E+03    0.79101E-06   -0.17306E-05 14304   0.171E-02    0.461E-03
DAV:   3    -0.125548043736E+03   -0.73223E-08   -0.25777E-06 21840   0.582E-03
  84 F= -.12714089E+03 E0= -.12714089E+03  d E =-.249921E-05
       N       E                     dE             d eps       ncg     rms          rms(c)
DAV:   1    -0.125548102918E+03   -0.59189E-04   -0.33321E-04 15984   0.708E-02    0.368E-03
DAV:   2    -0.125548102760E+03    0.15835E-06   -0.35280E-06 16320   0.768E-03
  85 F= -.12714089E+03 E0= -.12714089E+03  d E =-.181632E-05
       N       E                     dE             d eps       ncg     rms          rms(c)
DAV:   1    -0.125548275292E+03   -0.17237E-03   -0.28840E-03 13920   0.209E-01    0.103E-02
DAV:   2    -0.125548274276E+03    0.10164E-05   -0.32051E-05 14880   0.233E-02    0.633E-03
DAV:   3    -0.125548274164E+03    0.11196E-06   -0.47317E-06 24480   0.799E-03
  86 F= -.12714089E+03 E0= -.12714089E+03  d E =-.165519E-05
       N       E                     dE             d eps       ncg     rms          rms(c)
DAV:   1    -0.125548183857E+03    0.90419E-04   -0.81824E-04 13920   0.112E-01    0.484E-03
DAV:   2    -0.125548183734E+03    0.12211E-06   -0.10206E-05 20784   0.128E-02    0.295E-03
DAV:   3    -0.125548183646E+03    0.87995E-07   -0.11702E-06 22656   0.386E-03
  87 F= -.12714090E+03 E0= -.12714090E+03  d E =-.289419E-05
       N       E                     dE             d eps       ncg     rms          rms(c)
DAV:   1    -0.125548247690E+03   -0.63956E-04   -0.39114E-04 13920   0.774E-02    0.355E-03
DAV:   2    -0.125548247564E+03    0.12669E-06   -0.47256E-06 19248   0.882E-03
  88 F= -.12714090E+03 E0= -.12714090E+03  d E =-.170699E-05
       N       E                     dE             d eps       ncg     rms          rms(c)
DAV:   1    -0.125548293524E+03   -0.45833E-04   -0.20149E-04 13920   0.562E-02    0.312E-03
DAV:   2    -0.125548293421E+03    0.10303E-06   -0.22037E-06 16800   0.619E-03
  89 F= -.12714090E+03 E0= -.12714090E+03  d E =-.184470E-05
       N       E                     dE             d eps       ncg     rms          rms(c)
DAV:   1    -0.125548356797E+03   -0.63273E-04   -0.35929E-04 13920   0.736E-02    0.365E-03
DAV:   2    -0.125548356692E+03    0.10484E-06   -0.36373E-06 14208   0.802E-03
  90 F= -.12714090E+03 E0= -.12714090E+03  d E =-.124475E-05
       N       E                     dE             d eps       ncg     rms          rms(c)
DAV:   1    -0.125548485080E+03   -0.12828E-03   -0.15279E-03 13920   0.151E-01    0.735E-03
DAV:   2    -0.125548484733E+03    0.34703E-06   -0.15852E-05 15456   0.165E-02    0.460E-03
DAV:   3    -0.125548484798E+03   -0.64703E-07   -0.22613E-06 24288   0.548E-03
  91 F= -.12714090E+03 E0= -.12714090E+03  d E =-.207250E-05
       N       E                     dE             d eps       ncg     rms          rms(c)
DAV:   1    -0.125548540702E+03   -0.55969E-04   -0.30639E-04 14928   0.675E-02    0.351E-03
DAV:   2    -0.125548540582E+03    0.12031E-06   -0.32663E-06 14400   0.744E-03
  92 F= -.12714090E+03 E0= -.12714090E+03  d E =-.150461E-05
       N       E                     dE             d eps       ncg     rms          rms(c)
DAV:   1    -0.125548704598E+03   -0.16390E-03   -0.26402E-03 13920   0.199E-01    0.978E-03
DAV:   2    -0.125548703823E+03    0.77525E-06   -0.28847E-05 14016   0.222E-02    0.609E-03
DAV:   3    -0.125548703766E+03    0.57147E-07   -0.42918E-06 24048   0.764E-03
  93 F= -.12714090E+03 E0= -.12714090E+03  d E =-.187221E-05
       N       E                     dE             d eps       ncg     rms          rms(c)
DAV:   1    -0.125548627119E+03    0.76704E-04   -0.59054E-04 14208   0.943E-02    0.405E-03
DAV:   2    -0.125548627100E+03    0.18677E-07   -0.72649E-06 20976   0.108E-02
  94 F= -.12714090E+03 E0= -.12714090E+03  d E =-.265921E-05
       N       E                     dE             d eps       ncg     rms          rms(c)
DAV:   1    -0.125548615751E+03    0.11368E-04   -0.97325E-06 23088   0.131E-02    0.118E-03
DAV:   2    -0.125548615742E+03    0.88967E-08   -0.47634E-08 26592   0.880E-04
  95 F= -.12714090E+03 E0= -.12714090E+03  d E =-.256586E-05
       N       E                     dE             d eps       ncg     rms          rms(c)
DAV:   1    -0.125548621579E+03   -0.58289E-05   -0.36516E-06 15264   0.738E-03    0.333E-04
DAV:   2    -0.125548621581E+03   -0.19918E-08   -0.58003E-08 27168   0.956E-04
  96 F= -.12714090E+03 E0= -.12714090E+03  d E =-.261786E-05
       N       E                     dE             d eps       ncg     rms          rms(c)
DAV:   1    -0.125548624596E+03   -0.30160E-05   -0.81568E-07 19536   0.358E-03    0.215E-04
DAV:   2    -0.125548624600E+03   -0.46693E-08   -0.70561E-09 24816   0.339E-04
  97 F= -.12714090E+03 E0= -.12714090E+03  d E =-.264099E-05
       N       E                     dE             d eps       ncg     rms          rms(c)
DAV:   1    -0.125548625787E+03   -0.11910E-05   -0.12398E-07 19392   0.139E-03    0.832E-05
DAV:   2    -0.125548625790E+03   -0.34843E-08   -0.91330E-10 26256   0.125E-04
  98 F= -.12714090E+03 E0= -.12714090E+03  d E =-.265751E-05
       N       E                     dE             d eps       ncg     rms          rms(c)
DAV:   1    -0.125548626452E+03   -0.66521E-06   -0.40623E-08 19536   0.783E-04    0.407E-05
DAV:   2    -0.125548626453E+03   -0.17162E-08   -0.32128E-10 26736   0.744E-05
  99 F= -.12714090E+03 E0= -.12714090E+03  d E =-.266688E-05
       N       E                     dE             d eps       ncg     rms          rms(c)
DAV:   1    -0.125548644154E+03   -0.17702E-04   -0.38563E-05 17664   0.248E-02    0.114E-03
DAV:   2    -0.125548644131E+03    0.22886E-07   -0.35447E-07 14208   0.243E-03
 100 F= -.12714090E+03 E0= -.12714090E+03  d E =-.719292E-06
       N       E                     dE             d eps       ncg     rms          rms(c)
DAV:   1    -0.125548693141E+03   -0.48987E-04   -0.30704E-04 13920   0.703E-02    0.329E-03
DAV:   2    -0.125548693024E+03    0.11701E-06   -0.30100E-06 15168   0.726E-03
 101 F= -.12714090E+03 E0= -.12714090E+03  d E =-.142424E-05
       N       E                     dE             d eps       ncg     rms          rms(c)
DAV:   1    -0.125548708866E+03   -0.15725E-04   -0.28134E-05 20496   0.217E-02    0.125E-03
DAV:   2    -0.125548708848E+03    0.18081E-07   -0.21644E-07 21312   0.194E-03
 102 F= -.12714090E+03 E0= -.12714090E+03  d E =-.482113E-06
       N       E                     dE             d eps       ncg     rms          rms(c)
DAV:   1    -0.125548747524E+03   -0.38659E-04   -0.18821E-04 13920   0.546E-02    0.252E-03
DAV:   2    -0.125548747451E+03    0.72902E-07   -0.18447E-06 13920   0.567E-03
 103 F= -.12714090E+03 E0= -.12714090E+03  d E =-.984362E-06
       N       E                     dE             d eps       ncg     rms          rms(c)
DAV:   1    -0.125548752707E+03   -0.51822E-05   -0.28526E-06 17616   0.721E-03    0.603E-04
DAV:   2    -0.125548752707E+03   -0.40473E-09   -0.13808E-08 21744   0.508E-04
 104 F= -.12714090E+03 E0= -.12714090E+03  d E =-.100704E-05
       N       E                     dE             d eps       ncg     rms          rms(c)
DAV:   1    -0.125548760175E+03   -0.74686E-05   -0.88216E-06 19392   0.121E-02    0.595E-04
DAV:   2    -0.125548760170E+03    0.49013E-08   -0.91192E-08 16464   0.126E-03
 105 F= -.12714090E+03 E0= -.12714090E+03  d E =-.299814E-06
       N       E                     dE             d eps       ncg     rms          rms(c)
DAV:   1    -0.125548780760E+03   -0.20585E-04   -0.69855E-05 13920   0.341E-02    0.171E-03
DAV:   2    -0.125548780721E+03    0.39077E-07   -0.80997E-07 13920   0.376E-03
 106 F= -.12714091E+03 E0= -.12714090E+03  d E =-.595401E-06
       N       E                     dE             d eps       ncg     rms          rms(c)
DAV:   1    -0.125548790313E+03   -0.95529E-05   -0.12736E-05 14592   0.147E-02    0.781E-04
DAV:   2    -0.125548790307E+03    0.59144E-08   -0.13582E-07 20448   0.152E-03
 107 F= -.12714091E+03 E0= -.12714091E+03  d E =-.264551E-06
       N       E                     dE             d eps       ncg     rms          rms(c)
DAV:   1    -0.125548809681E+03   -0.19368E-04   -0.55546E-05 13920   0.302E-02    0.143E-03
DAV:   2    -0.125548809653E+03    0.27959E-07   -0.53797E-07 13920   0.308E-03
 108 F= -.12714091E+03 E0= -.12714091E+03  d E =-.463701E-06
       N       E                     dE             d eps       ncg     rms          rms(c)
DAV:   1    -0.125548818670E+03   -0.89884E-05   -0.10877E-05 13920   0.133E-02    0.755E-04
DAV:   2    -0.125548818663E+03    0.65311E-08   -0.14574E-07 24864   0.158E-03
 109 F= -.12714091E+03 E0= -.12714091E+03  d E =-.185831E-06
       N       E                     dE             d eps       ncg     rms          rms(c)
DAV:   1    -0.125548828325E+03   -0.96552E-05   -0.13098E-05 18192   0.145E-02    0.820E-04
DAV:   2    -0.125548828313E+03    0.11603E-07   -0.13698E-07 16608   0.155E-03
 110 F= -.12714091E+03 E0= -.12714091E+03  d E =-.238441E-06
       N       E                     dE             d eps       ncg     rms          rms(c)
DAV:   1    -0.125548838046E+03   -0.97213E-05   -0.98856E-06 15408   0.123E-02    0.648E-04
DAV:   2    -0.125548838039E+03    0.74679E-08   -0.10250E-07 14208   0.133E-03
 111 F= -.12714091E+03 E0= -.12714091E+03  d E =-.164729E-06
       N       E                     dE             d eps       ncg     rms          rms(c)
DAV:   1    -0.125548867071E+03   -0.29025E-04   -0.91272E-05 13920   0.371E-02    0.189E-03
DAV:   2    -0.125548867010E+03    0.61028E-07   -0.10014E-06 13920   0.413E-03
 112 F= -.12714091E+03 E0= -.12714091E+03  d E =-.452982E-06
       N       E                     dE             d eps       ncg     rms          rms(c)
DAV:   1    -0.125548924269E+03   -0.57198E-04   -0.36193E-04 13920   0.741E-02    0.381E-03
DAV:   2    -0.125548924083E+03    0.18580E-06   -0.41155E-06 16224   0.830E-03
 113 F= -.12714091E+03 E0= -.12714091E+03  d E =-.171069E-06
       N       E                     dE             d eps       ncg     rms          rms(c)
DAV:   1    -0.125548892450E+03    0.31819E-04   -0.12544E-04 18624   0.427E-02    0.182E-03
DAV:   2    -0.125548892419E+03    0.31026E-07   -0.16098E-06 16752   0.498E-03
 114 F= -.12714091E+03 E0= -.12714091E+03  d E =-.525361E-06
       N       E                     dE             d eps       ncg     rms          rms(c)
DAV:   1    -0.125548881868E+03    0.10583E-04   -0.10993E-05 22752   0.133E-02    0.894E-04
DAV:   2    -0.125548881853E+03    0.14546E-07   -0.83566E-08 23184   0.115E-03
 115 F= -.12714091E+03 E0= -.12714091E+03  d E =-.515459E-06
       N       E                     dE             d eps       ncg     rms          rms(c)
DAV:   1    -0.125548893135E+03   -0.11268E-04   -0.12914E-05 14832   0.139E-02    0.599E-04
DAV:   2    -0.125548893131E+03    0.44793E-08   -0.15692E-07 20640   0.160E-03
 116 F= -.12714091E+03 E0= -.12714091E+03  d E =-.205204E-06
       N       E                     dE             d eps       ncg     rms          rms(c)
DAV:   1    -0.125548926777E+03   -0.33641E-04   -0.11012E-04 13920   0.408E-02    0.199E-03
DAV:   2    -0.125548926724E+03    0.53139E-07   -0.11091E-06 13920   0.436E-03
 117 F= -.12714091E+03 E0= -.12714091E+03  d E =-.581553E-06
       N       E                     dE             d eps       ncg     rms          rms(c)
DAV:   1    -0.125548993143E+03   -0.66367E-04   -0.43769E-04 13920   0.815E-02    0.397E-03
DAV:   2    -0.125548993011E+03    0.13219E-06   -0.46192E-06 19584   0.884E-03
 118 F= -.12714091E+03 E0= -.12714091E+03  d E =-.438817E-06
       N       E                     dE             d eps       ncg     rms          rms(c)
DAV:   1    -0.125548965265E+03    0.27878E-04   -0.88833E-05 21072   0.358E-02    0.144E-03
DAV:   2    -0.125548965247E+03    0.18086E-07   -0.10565E-06 17088   0.404E-03
 119 F= -.12714091E+03 E0= -.12714091E+03  d E =-.697950E-06
       N       E                     dE             d eps       ncg     rms          rms(c)
DAV:   1    -0.125548946063E+03    0.19202E-04   -0.34961E-05 22704   0.233E-02    0.127E-03
DAV:   2    -0.125548946032E+03    0.31153E-07   -0.26775E-07 20976   0.208E-03
 120 F= -.12714091E+03 E0= -.12714091E+03  d E =-.685641E-06
       N       E                     dE             d eps       ncg     rms          rms(c)
DAV:   1    -0.125548961992E+03   -0.15929E-04   -0.26414E-05 14304   0.197E-02    0.867E-04
DAV:   2    -0.125548961983E+03    0.85493E-08   -0.34544E-07 19776   0.237E-03
 121 F= -.12714091E+03 E0= -.12714091E+03  d E =-.286817E-06
       N       E                     dE             d eps       ncg     rms          rms(c)
DAV:   1    -0.125549009476E+03   -0.47484E-04   -0.22249E-04 13920   0.580E-02    0.288E-03
DAV:   2    -0.125549009357E+03    0.11887E-06   -0.23562E-06 15264   0.628E-03
 122 F= -.12714091E+03 E0= -.12714091E+03  d E =-.668204E-06
       N       E                     dE             d eps       ncg     rms          rms(c)
DAV:   1    -0.125549029980E+03   -0.20504E-04   -0.39471E-05 21744   0.249E-02    0.151E-03
DAV:   2    -0.125549029949E+03    0.30797E-07   -0.28813E-07 20208   0.221E-03
 123 F= -.12714091E+03 E0= -.12714091E+03  d E =-.654700E-06
       N       E                     dE             d eps       ncg     rms          rms(c)
DAV:   1    -0.125549049491E+03   -0.19511E-04   -0.35347E-05 13920   0.230E-02    0.113E-03
DAV:   2    -0.125549049478E+03    0.12908E-07   -0.32635E-07 14304   0.241E-03
 124 F= -.12714091E+03 E0= -.12714091E+03  d E =-.180727E-06
       N       E                     dE             d eps       ncg     rms          rms(c)
DAV:   1    -0.125549108015E+03   -0.58524E-04   -0.32728E-04 13920   0.696E-02    0.328E-03
DAV:   2    -0.125549107887E+03    0.12826E-06   -0.31810E-06 14400   0.741E-03
 125 F= -.12714091E+03 E0= -.12714091E+03  d E =-.511503E-06
       N       E                     dE             d eps       ncg     rms          rms(c)
DAV:   1    -0.125549224606E+03   -0.11659E-03   -0.12980E-03 13920   0.139E-01    0.662E-03
DAV:   2    -0.125549224267E+03    0.33912E-06   -0.13050E-05 19392   0.149E-02    0.414E-03
DAV:   3    -0.125549224317E+03   -0.50737E-07   -0.18616E-06 23856   0.485E-03
 126 F= -.12714091E+03 E0= -.12714091E+03  d E =-.871645E-06
       N       E                     dE             d eps       ncg     rms          rms(c)
DAV:   1    -0.125549256396E+03   -0.32129E-04   -0.10853E-04 18096   0.400E-02    0.216E-03
DAV:   2    -0.125549256340E+03    0.55619E-07   -0.96328E-07 18672   0.399E-03
 127 F= -.12714091E+03 E0= -.12714091E+03  d E =-.653073E-06
       N       E                     dE             d eps       ncg     rms          rms(c)
DAV:   1    -0.125549351882E+03   -0.95486E-04   -0.91893E-04 13920   0.117E-01    0.554E-03
DAV:   2    -0.125549351572E+03    0.30990E-06   -0.91515E-06 13920   0.125E-02
 128 F= -.12714091E+03 E0= -.12714091E+03  d E =-.182244E-05
       N       E                     dE             d eps       ncg     rms          rms(c)
DAV:   1    -0.125549539606E+03   -0.18772E-03   -0.36521E-03 13920   0.234E-01    0.112E-02
DAV:   2    -0.125549538657E+03    0.94893E-06   -0.37341E-05 19008   0.251E-02    0.700E-03
DAV:   3    -0.125549538646E+03    0.10998E-07   -0.53585E-06 24384   0.828E-03
 129 F= -.12714091E+03 E0= -.12714091E+03  d E =-.749207E-06
       N       E                     dE             d eps       ncg     rms          rms(c)
DAV:   1    -0.125549410886E+03    0.12777E-03   -0.17370E-03 13920   0.161E-01    0.687E-03
DAV:   2    -0.125549410621E+03    0.26541E-06   -0.19090E-05 20304   0.175E-02    0.425E-03
DAV:   3    -0.125549410438E+03    0.18278E-06   -0.24301E-06 21648   0.546E-03
 130 F= -.12714091E+03 E0= -.12714091E+03  d E =-.207857E-05
       N       E                     dE             d eps       ncg     rms          rms(c)
DAV:   1    -0.125549433581E+03   -0.22960E-04   -0.53834E-05 18816   0.284E-02    0.103E-03
DAV:   2    -0.125549433572E+03    0.88385E-08   -0.56666E-07 21456   0.295E-03
 131 F= -.12714091E+03 E0= -.12714091E+03  d E =-.207153E-05
       N       E                     dE             d eps       ncg     rms          rms(c)
DAV:   1    -0.125549484447E+03   -0.50866E-04   -0.26045E-04 13920   0.623E-02    0.299E-03
DAV:   2    -0.125549484309E+03    0.13784E-06   -0.25477E-06 14112   0.655E-03
 132 F= -.12714091E+03 E0= -.12714091E+03  d E =-.448144E-06
       N       E                     dE             d eps       ncg     rms          rms(c)
DAV:   1    -0.125549636070E+03   -0.15162E-03   -0.23527E-03 13920   0.187E-01    0.890E-03
DAV:   2    -0.125549635239E+03    0.83088E-06   -0.23257E-05 14688   0.199E-02    0.549E-03
DAV:   3    -0.125549635269E+03   -0.29457E-07   -0.35936E-06 23568   0.681E-03
 133 F= -.12714091E+03 E0= -.12714091E+03  d E =-.570759E-06
       N       E                     dE             d eps       ncg     rms          rms(c)
DAV:   1    -0.125549558071E+03    0.77168E-04   -0.61750E-04 14640   0.958E-02    0.402E-03
DAV:   2    -0.125549557982E+03    0.89424E-07   -0.68050E-06 20832   0.104E-02
 134 F= -.12714091E+03 E0= -.12714091E+03  d E =-.895299E-06
       N       E                     dE             d eps       ncg     rms          rms(c)
DAV:   1    -0.125549540947E+03    0.17124E-04   -0.24926E-05 22848   0.202E-02    0.143E-03
DAV:   2    -0.125549540920E+03    0.27623E-07   -0.13849E-07 26304   0.150E-03
 135 F= -.12714091E+03 E0= -.12714091E+03  d E =-.789569E-06
       N       E                     dE             d eps       ncg     rms          rms(c)
DAV:   1    -0.125549540464E+03    0.48365E-06   -0.83499E-06 17616   0.122E-02    0.750E-04
DAV:   2    -0.125549540456E+03    0.73951E-08   -0.11867E-07 23040   0.143E-03
 136 F= -.12714091E+03 E0= -.12714091E+03  d E =-.404035E-06
       N       E                     dE             d eps       ncg     rms          rms(c)
DAV:   1    -0.125549539642E+03    0.82221E-06   -0.97415E-06 24096   0.132E-02    0.902E-04
DAV:   2    -0.125549539627E+03    0.14415E-07   -0.10710E-07 22560   0.136E-03
 137 F= -.12714091E+03 E0= -.12714091E+03  d E =-.526099E-06
       N       E                     dE             d eps       ncg     rms          rms(c)
DAV:   1    -0.125549540355E+03   -0.71313E-06   -0.19871E-06 23616   0.613E-03    0.355E-04
DAV:   2    -0.125549540353E+03    0.18026E-08   -0.21564E-08 22128   0.566E-04
 138 F= -.12714091E+03 E0= -.12714091E+03  d E =-.777150E-07
       N       E                     dE             d eps       ncg     rms          rms(c)
DAV:   1    -0.125549541319E+03   -0.96467E-06   -0.39789E-06 24624   0.861E-03    0.515E-04
DAV:   2    -0.125549541312E+03    0.70959E-08   -0.41114E-08 19968   0.753E-04
 139 F= -.12714091E+03 E0= -.12714091E+03  d E =-.115896E-06
