Lattice                                 
           1
     4.196759    2.423000    0.000000
    -4.196759    2.423000    0.000000
     0.000000    0.000000   15.000000
   B    C 
     4    11
Direct configuration=     1
   0.00415361  0.00267210  0.12034134
   0.35695335  0.00285503  0.09748893
   0.00423858  0.35550699  0.09749256
   0.65142295  0.65006557  0.09747688
   0.32808646  0.32671938  0.10030508
   0.68027775  0.00278085  0.10027562
   0.00416530  0.67883808  0.10026559
   0.99999933  0.49999967  0.33413333
   0.16666633  0.33333267  0.33413333
   0.99999933  0.99999967  0.33413333
   0.16666633  0.83333267  0.33413333
   0.49999933  0.49999967  0.33413333
   0.66666633  0.33333267  0.33413333
   0.49999933  0.99999967  0.33413333
   0.66666633  0.83333267  0.33413333
Direct configuration=     2
   0.00418051  0.00275233  0.11922937
   0.35584383  0.00302890  0.09783515
   0.00396303  0.35417747  0.09783724
   0.65274562  0.65113175  0.09782659
   0.32470575  0.32299987  0.10029943
   0.68395865  0.00310047  0.10027795
   0.00389108  0.68224121  0.10027069
   0.00012262  0.49997514  0.33414032
   0.16687271  0.33393772  0.33419805
   0.99999705  0.99999223  0.33403245
   0.16706035  0.83312849  0.33420089
   0.50003628  0.50015892  0.33414316
   0.66666831  0.33333925  0.33408377
   0.49985145  0.99987195  0.33413987
   0.66606343  0.83293164  0.33419774
Direct configuration=     3
   0.00416611  0.00270938  0.11982462
   0.35643777  0.00293582  0.09764981
   0.00411053  0.35488919  0.09765273
   0.65203757  0.65056100  0.09763939
   0.32651550  0.32499098  0.10030245
   0.68198820  0.00292937  0.10027671
   0.00403787  0.68041946  0.10026796
   0.00005662  0.49998827  0.33413658
   0.16676223  0.33361382  0.33416340
   0.99999827  0.99999621  0.33408645
   0.16684943  0.83323779  0.33416472
   0.50001650  0.50007367  0.33413790
   0.66666725  0.33333573  0.33411030
   0.49993062  0.99994032  0.33413637
   0.66638618  0.83314632  0.33416326
Direct configuration=     4
   0.00418007  0.00276518  0.11891499
   0.35687656  0.00304854  0.09795656
   0.00391584  0.35518939  0.09795794
   0.65175217  0.65009213  0.09794948
   0.32662042  0.32488235  0.10026770
   0.68207595  0.00311821  0.10024966
   0.00386234  0.68033287  0.10024303
  -0.00007777  0.50001095  0.33415386
   0.16662029  0.33315363  0.33420435
   0.00000154  0.00000404  0.33402816
   0.16654042  0.83338244  0.33420779
   0.49998745  0.49991029  0.33415729
   0.66666779  0.33333093  0.33406474
   0.50008831  0.00008091  0.33415325
   0.66684929  0.83346546  0.33420388
Direct configuration=     5
   0.00419989  0.00284441  0.11762346
   0.35749957  0.00320857  0.09839208
   0.00363940  0.35561563  0.09839130
   0.65134693  0.64942639  0.09838977
   0.32676938  0.32472810  0.10021835
   0.68220055  0.00338633  0.10021125
   0.00361311  0.68020993  0.10020763
  -0.00026858  0.50004315  0.33417840
   0.16641876  0.33250023  0.33426249
   0.00000618  0.00001516  0.33394539
   0.16610168  0.83358783  0.33426893
   0.49994620  0.49967833  0.33418482
   0.66666855  0.33332413  0.33400004
   0.50031221  0.00028053  0.33417721
   0.66750684  0.83391860  0.33426155
Direct configuration=     6
   0.00420222  0.00285457  0.11738345
   0.35760589  0.00322706  0.09846313
   0.00360551  0.35569951  0.09846201
   0.65126772  0.64931424  0.09846156
   0.32683338  0.32475923  0.10021892
   0.68216570  0.00341315  0.10021369
   0.00358565  0.68014986  0.10021052
  -0.00023647  0.50003962  0.33418341
   0.16643704  0.33257839  0.33426985
   0.00000668  0.00001395  0.33393718
   0.16615970  0.83356987  0.33427668
   0.49995189  0.49971463  0.33419021
   0.66666879  0.33332561  0.33399112
   0.50027787  0.00024819  0.33418212
   0.66742910  0.83385947  0.33426883
Direct configuration=     7
   0.00420924  0.00288504  0.11666342
   0.35792486  0.00328251  0.09867628
   0.00350382  0.35595115  0.09867413
   0.65103007  0.64897777  0.09867692
   0.32702539  0.32485262  0.10022063
   0.68206114  0.00349361  0.10022098
   0.00350327  0.67996963  0.10021921
  -0.00014013  0.50002903  0.33419843
   0.16649187  0.33281285  0.33429193
   0.00000820  0.00001033  0.33391256
   0.16633375  0.83351597  0.33429993
   0.49996895  0.49982354  0.33420637
   0.66666952  0.33333004  0.33396434
   0.50017487  0.00015119  0.33419686
   0.66719586  0.83368205  0.33429069
Direct configuration=     8
   0.00422327  0.00294597  0.11522336
   0.35856280  0.00339341  0.09910257
   0.00330045  0.35645444  0.09909839
   0.65055478  0.64830483  0.09910764
   0.32740939  0.32503941  0.10022404
   0.68185203  0.00365452  0.10023557
   0.00333851  0.67960918  0.10023658
   0.00005254  0.50000786  0.33422848
   0.16660154  0.33328178  0.33433608
   0.00001124  0.00000307  0.33386332
   0.16668184  0.83340818  0.33434643
   0.50000307  0.50004136  0.33423870
   0.66667096  0.33333890  0.33391079
   0.49996885 -0.00004281  0.33422633
   0.66672939  0.83332723  0.33433440
Direct configuration=     9
   0.00425134  0.00306785  0.11234324
   0.35983868  0.00361521  0.09995515
   0.00289371  0.35746100  0.09994689
   0.64960420  0.64695896  0.09996908
   0.32817740  0.32541297  0.10023088
   0.68143382  0.00397636  0.10026476
   0.00300898  0.67888828  0.10027132
   0.00043789  0.49996552  0.33428857
   0.16682087  0.33421964  0.33442439
   0.00001731 -0.00001144  0.33376483
   0.16737803  0.83319259  0.33443942
   0.50007130  0.50047700  0.33430335
   0.66667386  0.33335663  0.33380369
   0.49955683 -0.00043080  0.33428528
   0.66579645  0.83261758  0.33442182
Direct configuration=    10
   0.00423375  0.00299149  0.11414771
   0.35903931  0.00347625  0.09942099
   0.00314854  0.35683036  0.09941528
   0.65019976  0.64780218  0.09942936
   0.32769622  0.32517892  0.10022660
   0.68169584  0.00377472  0.10024647
   0.00321544  0.67933994  0.10024955
   0.00019646  0.49999205  0.33425092
   0.16668346  0.33363205  0.33436906
   0.00001350 -0.00000235  0.33382654
   0.16694185  0.83332766  0.33438116
   0.50002855  0.50020406  0.33426284
   0.66667204  0.33334552  0.33387079
   0.49981498 -0.00018771  0.33424835
   0.66638096  0.83306219  0.33436705
Direct configuration=    11
   0.00423111  0.00298314  0.11361494
   0.35903110  0.00344598  0.09950658
   0.00318881  0.35686148  0.09950074
   0.65017560  0.64781020  0.09951533
   0.32772240  0.32528124  0.10030027
   0.68159653  0.00369278  0.10032254
   0.00327693  0.67931501  0.10032599
   0.00013042  0.50000558  0.33426044
   0.16673178  0.33362968  0.33436389
   0.00000957  0.00000103  0.33385601
   0.16690365  0.83328217  0.33437566
   0.50001498  0.50013273  0.33427193
   0.66667548  0.33334263  0.33387873
   0.49988629 -0.00012081  0.33425774
   0.66638601  0.83310449  0.33436186
Direct configuration=    12
   0.00422317  0.00295808  0.11201666
   0.35900647  0.00335519  0.09976336
   0.00330964  0.35695483  0.09975709
   0.65010309  0.64783428  0.09977324
   0.32780091  0.32558817  0.10052131
   0.68129862  0.00344694  0.10055075
   0.00346141  0.67924023  0.10055529
  -0.00006769  0.50004619  0.33428901
   0.16687677  0.33362258  0.33434837
  -0.00000224  0.00001118  0.33394444
   0.16678904  0.83314571  0.33435918
   0.49997429  0.49991873  0.33429920
   0.66668580  0.33333395  0.33390256
   0.50010023  0.00007990  0.33428593
   0.66640115  0.83323137  0.33434629
Direct configuration=    13
   0.00420729  0.00290797  0.10882008
   0.35895722  0.00317360  0.10027692
   0.00355128  0.35714153  0.10026980
   0.64995808  0.64788244  0.10028905
   0.32795794  0.32620204  0.10096338
   0.68070278  0.00295528  0.10100716
   0.00383037  0.67909065  0.10101391
  -0.00046390  0.50012739  0.33434615
   0.16716674  0.33360838  0.33431732
  -0.00002585  0.00003147  0.33412129
   0.16655981  0.83287278  0.33432620
   0.49989290  0.49949074  0.33435373
   0.66670644  0.33331659  0.33395023
   0.50052812  0.00048132  0.33434230
   0.66643145  0.83348515  0.33431515
Direct configuration=    14
   0.00420558  0.00289316  0.10787809
   0.35893785  0.00310292  0.10040902
   0.00366954  0.35720188  0.10040245
   0.64987721  0.64791453  0.10042057
   0.32791397  0.32629739  0.10111074
   0.68060494  0.00283447  0.10115596
   0.00394376  0.67910157  0.10116265
  -0.00016122  0.50000429  0.33434533
   0.16681825  0.33346446  0.33431571
   0.00001279  0.00001189  0.33418220
   0.16667972  0.83321317  0.33432327
   0.50002670  0.49984542  0.33435133
   0.66668259  0.33334185  0.33400019
   0.50018418  0.00018784  0.33434143
   0.66656479  0.83335249  0.33431372
Direct configuration=    15
   0.00420434  0.00288237  0.10719167
   0.35892374  0.00305141  0.10050529
   0.00375571  0.35724586  0.10049912
   0.64981829  0.64793792  0.10051642
   0.32788193  0.32636687  0.10121813
   0.68053364  0.00274643  0.10126439
   0.00402639  0.67910953  0.10127103
   0.00005935  0.49991460  0.33434473
   0.16656432  0.33335959  0.33431453
   0.00004095 -0.00000238  0.33422659
   0.16676710  0.83346121  0.33432113
   0.50012421  0.50010388  0.33434958
   0.66666520  0.33336025  0.33403659
   0.49993356 -0.00002602  0.33434080
   0.66666196  0.83325583  0.33431267
Direct configuration=    16
   0.00420311  0.00287401  0.10694956
   0.35897239  0.00303388  0.10054170
   0.00380120  0.35730547  0.10053639
   0.64972419  0.64790214  0.10055149
   0.32782667  0.32630131  0.10125046
   0.68059479  0.00278688  0.10129396
   0.00401749  0.67913412  0.10129987
   0.00010757  0.49998751  0.33432820
   0.16662082  0.33336727  0.33432683
   0.00002153  0.00001033  0.33423964
   0.16676891  0.83341043  0.33433272
   0.50004594  0.50012547  0.33433228
   0.66668619  0.33334751  0.33407982
   0.49990648 -0.00007818  0.33432451
   0.66666337  0.83325920  0.33432521
Direct configuration=    17
   0.00420114  0.00286056  0.10655977
   0.35905072  0.00300564  0.10060033
   0.00387444  0.35740145  0.10059639
   0.64957270  0.64784454  0.10060796
   0.32773771  0.32619575  0.10130252
   0.68069325  0.00285201  0.10134157
   0.00400317  0.67917372  0.10134631
   0.00018521  0.50010489  0.33430160
   0.16671180  0.33337962  0.33434664
  -0.00000975  0.00003078  0.33426066
   0.16677184  0.83332867  0.33435139
   0.49991993  0.50016023  0.33430441
   0.66671998  0.33332699  0.33414943
   0.49986288 -0.00016215  0.33429828
   0.66666564  0.83326464  0.33434541
Direct configuration=    18
   0.00418790  0.00282404  0.10625857
   0.35915272  0.00299093  0.10065699
   0.00392167  0.35751253  0.10065454
   0.64941559  0.64776090  0.10066198
   0.32771777  0.32611649  0.10132697
   0.68077921  0.00295278  0.10135966
   0.00395186  0.67917208  0.10136290
   0.00008718  0.50006518  0.33428236
   0.16674129  0.33342268  0.33436439
   0.00001603  0.00001432  0.33427866
   0.16671883  0.83329278  0.33436819
   0.49996895  0.50003911  0.33428409
   0.66669307  0.33334461  0.33421028
   0.49999383 -0.00005449  0.33427950
   0.66661478  0.83331339  0.33436358
Direct configuration=    19
   0.00418175  0.00280709  0.10611879
   0.35920005  0.00298410  0.10068329
   0.00394358  0.35756408  0.10068153
   0.64934268  0.64772209  0.10068705
   0.32770852  0.32607971  0.10133832
   0.68081909  0.00299954  0.10136805
   0.00392805  0.67917132  0.10137060
   0.00004169  0.50004675  0.33427344
   0.16675497  0.33344266  0.33437262
   0.00002800  0.00000669  0.33428701
   0.16669423  0.83327613  0.33437599
   0.49999170  0.49998290  0.33427467
   0.66668058  0.33335278  0.33423852
   0.50005460 -0.00000453  0.33427079
   0.66659117  0.83333602  0.33437201
Direct configuration=    20
   0.00416297  0.00276318  0.10596326
   0.35924864  0.00299012  0.10072533
   0.00394287  0.35761274  0.10072449
   0.64928707  0.64768067  0.10072715
   0.32777384  0.32609308  0.10133293
   0.68082301  0.00306041  0.10135713
   0.00388044  0.67912488  0.10135849
  -0.00000690  0.49996729  0.33428119
   0.16668763  0.33341539  0.33437432
   0.00002802  0.00000869  0.33430218
   0.16674224  0.83334704  0.33437752
   0.50007195  0.50001828  0.33428222
   0.66668202  0.33335202  0.33425359
   0.50001964  0.00004271  0.33427890
   0.66661723  0.83329085  0.33437398
Direct configuration=    21
   0.00415087  0.00273488  0.10586305
   0.35927995  0.00299400  0.10075241
   0.00394241  0.35764409  0.10075218
   0.64925124  0.64765398  0.10075299
   0.32781593  0.32610169  0.10132946
   0.68082553  0.00309963  0.10135009
   0.00384977  0.67909495  0.10135069
  -0.00003821  0.49991609  0.33428618
   0.16664424  0.33339782  0.33437541
   0.00002804  0.00000999  0.33431195
   0.16677317  0.83339273  0.33437850
   0.50012365  0.50004107  0.33428709
   0.66668294  0.33335153  0.33426330
   0.49999712  0.00007314  0.33428412
   0.66663402  0.83326175  0.33437525
Direct configuration=    22
   0.00413492  0.00269799  0.10569696
   0.35929557  0.00301775  0.10080242
   0.00392171  0.35764289  0.10080316
   0.64925174  0.64764394  0.10080074
   0.32788181  0.32612293  0.10131346
   0.68081757  0.00314715  0.10132689
   0.00380596  0.67904678  0.10132598
   0.00002243  0.49996773  0.33430998
   0.16666127  0.33338707  0.33437296
   0.00001754  0.00001729  0.33432911
   0.16677475  0.83337977  0.33437625
   0.50007011  0.50007725  0.33431111
   0.66669549  0.33334449  0.33426224
   0.49995894  0.00001111  0.33430832
   0.66665084  0.83326319  0.33437308
Direct configuration=    23
   0.00411923  0.00266173  0.10553365
   0.35931094  0.00304109  0.10085160
   0.00390136  0.35764171  0.10085329
   0.64925224  0.64763407  0.10084770
   0.32794659  0.32614381  0.10129772
   0.68080975  0.00319388  0.10130408
   0.00376289  0.67899942  0.10130168
   0.00008205  0.50001850  0.33433337
   0.16667802  0.33337650  0.33437056
   0.00000722  0.00002447  0.33434598
   0.16677631  0.83336704  0.33437404
   0.50001746  0.50011282  0.33433474
   0.66670782  0.33333757  0.33426120
   0.49992141 -0.00004989  0.33433211
   0.66666737  0.83326460  0.33437096
Direct configuration=    24
   0.00412697  0.00267807  0.10535760
   0.35928258  0.00307831  0.10089411
   0.00387499  0.35757166  0.10089657
   0.64931134  0.64766498  0.10088819
   0.32791570  0.32611738  0.10128569
   0.68082265  0.00319538  0.10128472
   0.00376116  0.67900503  0.10128080
   0.00008476  0.50004290  0.33435978
   0.16671620  0.33341597  0.33437718
   0.00003442  0.00000735  0.33435275
   0.16670572  0.83332045  0.33438113
   0.50000192  0.50002536  0.33436185
   0.66668181  0.33335699  0.33425579
   0.50001794 -0.00004157  0.33435878
   0.66662250  0.83332904  0.33437771
Direct configuration=    25
   0.00412735  0.00267886  0.10534902
   0.35928120  0.00308012  0.10089618
   0.00387371  0.35756825  0.10089868
   0.64931422  0.64766649  0.10089017
   0.32791419  0.32611609  0.10128511
   0.68082328  0.00319546  0.10128378
   0.00376107  0.67900530  0.10127978
   0.00008489  0.50004409  0.33436107
   0.16671806  0.33341790  0.33437750
   0.00003575  0.00000652  0.33435308
   0.16670228  0.83331818  0.33438148
   0.50000116  0.50002109  0.33436317
   0.66668054  0.33335794  0.33425553
   0.50002265 -0.00004116  0.33436008
   0.66662031  0.83333219  0.33437804
Direct configuration=    26
   0.00414692  0.00272380  0.10521017
   0.35925031  0.00310501  0.10091415
   0.00385421  0.35750390  0.10091688
   0.64937010  0.64769251  0.10090722
   0.32784794  0.32609470  0.10128525
   0.68082171  0.00315085  0.10127921
   0.00379678  0.67903528  0.10127426
   0.00001565  0.49999851  0.33437623
   0.16670874  0.33341847  0.33439538
   0.00002971  0.00001282  0.33434713
   0.16673455  0.83333189  0.33439982
   0.50004562  0.50001528  0.33437910
   0.66668853  0.33335321  0.33425667
   0.50002780  0.00002631  0.33437529
   0.66662210  0.83330480  0.33439590
Direct configuration=    27
   0.00415760  0.00274833  0.10513436
   0.35923344  0.00311860  0.10092397
   0.00384357  0.35746877  0.10092682
   0.64940061  0.64770671  0.10091653
   0.32781176  0.32608302  0.10128533
   0.68082086  0.00312650  0.10127671
   0.00381628  0.67905165  0.10127125
  -0.00002216  0.49997362  0.33438451
   0.16670365  0.33341878  0.33440514
   0.00002642  0.00001625  0.33434389
   0.16675217  0.83333938  0.33440984
   0.50006989  0.50001210  0.33438779
   0.66669289  0.33335062  0.33425729
   0.50003061  0.00006315  0.33438359
   0.66662308  0.83328985  0.33440566
Direct configuration=    28
   0.00416746  0.00277541  0.10498719
   0.35923295  0.00312130  0.10093016
   0.00382611  0.35746490  0.10093285
   0.64941613  0.64769351  0.10092251
   0.32780413  0.32612666  0.10129306
   0.68076900  0.00305891  0.10128104
   0.00386001  0.67905740  0.10127494
   0.00002010  0.49998534  0.33439586
   0.16668851  0.33340540  0.33443058
   0.00002086  0.00002051  0.33433675
   0.16677281  0.83335886  0.33443564
   0.50005871  0.50006000  0.33439979
   0.66670053  0.33334664  0.33426646
   0.49998299  0.00002041  0.33439486
   0.66664036  0.83327210  0.33443100
Direct configuration=    29
   0.00417892  0.00280687  0.10481619
   0.35923239  0.00312444  0.10093735
   0.00380582  0.35746040  0.10093985
   0.64943417  0.64767817  0.10092945
   0.32779527  0.32617737  0.10130205
   0.68070874  0.00298038  0.10128606
   0.00391082  0.67906409  0.10127923
   0.00006920  0.49999895  0.33440905
   0.16667092  0.33338987  0.33446015
   0.00001441  0.00002545  0.33432846
   0.16679680  0.83338149  0.33446560
   0.50004573  0.50011565  0.33441373
   0.66670940  0.33334201  0.33427711
   0.49992767 -0.00002926  0.33440795
   0.66666044  0.83325147  0.33446044
Direct configuration=    30
   0.00417705  0.00280852  0.10469331
   0.35924733  0.00311216  0.10093946
   0.00379624  0.35749117  0.10094166
   0.64942214  0.64765177  0.10093177
   0.32781721  0.32622087  0.10130858
   0.68066794  0.00294063  0.10129087
   0.00393080  0.67906172  0.10128376
   0.00008737  0.50001794  0.33441984
   0.16668234  0.33339567  0.33447845
   0.00002663  0.00001839  0.33433126
   0.16676065  0.83336720  0.33448394
   0.50003149  0.50008671  0.33442478
   0.66669883  0.33335078  0.33428775
   0.49996128 -0.00004179  0.33441860
   0.66665336  0.83328559  0.33447861
Direct configuration=    31
   0.00417473  0.00281056  0.10454107
   0.35926585  0.00309693  0.10094208
   0.00378438  0.35752930  0.10094391
   0.64940725  0.64761907  0.10093463
   0.32784441  0.32627478  0.10131668
   0.68061738  0.00289138  0.10129684
   0.00395556  0.67905878  0.10128937
   0.00010987  0.50004146  0.33443322
   0.16669649  0.33340287  0.33450113
   0.00004178  0.00000965  0.33433474
   0.16671586  0.83334949  0.33450667
   0.50001385  0.50005085  0.33443847
   0.66668574  0.33336166  0.33430094
   0.50000293 -0.00005731  0.33443181
   0.66664458  0.83332786  0.33450112
Direct configuration=    32
   0.00416774  0.00280095  0.10442013
   0.35928242  0.00307511  0.10094473
   0.00378582  0.35756910  0.10094619
   0.64938084  0.64759685  0.10093785
   0.32785754  0.32627458  0.10131842
   0.68062062  0.00289421  0.10129839
   0.00394656  0.67906485  0.10129092
   0.00005989  0.50002811  0.33444800
   0.16671303  0.33340813  0.33451189
   0.00003677  0.00001547  0.33435338
   0.16672350  0.83333655  0.33451714
   0.50002630  0.50002876  0.33445314
   0.66669299  0.33335794  0.33431435
   0.50002415 -0.00000776  0.33444641
   0.66664250  0.83332449  0.33451173
Direct configuration=    33
   0.00415655  0.00278557  0.10422668
   0.35930892  0.00304020  0.10094897
   0.00378812  0.35763276  0.10094985
   0.64933860  0.64756131  0.10094301
   0.32787855  0.32627426  0.10132120
   0.68062580  0.00289873  0.10130087
   0.00393217  0.67907457  0.10129339
  -0.00002007  0.50000675  0.33447164
   0.16673948  0.33341655  0.33452910
   0.00002876  0.00002477  0.33438320
   0.16673571  0.83331586  0.33453390
   0.50004622  0.49999342  0.33447660
   0.66670457  0.33335199  0.33433579
   0.50005810  0.00007149  0.33446976
   0.66663917  0.83331911  0.33452869
Direct configuration=    34
   0.00415406  0.00278413  0.10410578
   0.35931562  0.00302204  0.10095482
   0.00379847  0.35765324  0.10095539
   0.64931417  0.64755405  0.10094956
   0.32786998  0.32623586  0.10131638
   0.68065985  0.00293150  0.10129693
   0.00390789  0.67908101  0.10128967
  -0.00000671  0.49999462  0.33448826
   0.16672283  0.33341836  0.33453666
   0.00002933  0.00002540  0.33441074
   0.16675731  0.83333510  0.33454102
   0.50006030  0.50002142  0.33449287
   0.66670625  0.33335209  0.33435226
   0.50003231  0.00005948  0.33448620
   0.66663901  0.83329906  0.33453612
Direct configuration=    35
   0.00414779  0.00278051  0.10380138
   0.35933249  0.00297630  0.10096956
   0.00382451  0.35770480  0.10096934
   0.64925268  0.64753575  0.10096606
   0.32784841  0.32613917  0.10130425
   0.68074556  0.00301401  0.10128702
   0.00384675  0.67909721  0.10128031
   0.00002693  0.49996409  0.33453009
   0.16668091  0.33342292  0.33455570
   0.00003078  0.00002697  0.33448007
   0.16681168  0.83338354  0.33455892
   0.50009574  0.50009191  0.33453383
   0.66671048  0.33335235  0.33439372
   0.49996737  0.00002923  0.33452759
   0.66663859  0.83324858  0.33455483
Direct configuration=    36
   0.00415080  0.00278842  0.10363200
   0.35932676  0.00296772  0.10098378
   0.00384345  0.35769866  0.10098328
   0.64923066  0.64754295  0.10098118
   0.32784261  0.32609794  0.10128700
   0.68077720  0.00306737  0.10127221
   0.00381356  0.67907626  0.10126602
   0.00008037  0.50000757  0.33455080
   0.16669239  0.33341350  0.33457044
   0.00004146  0.00002087  0.33451825
   0.16676597  0.83337096  0.33457309
   0.50005843  0.50007880  0.33455398
   0.66670243  0.33336038  0.33442303
   0.49998581 -0.00001794  0.33454814
   0.66664875  0.83329389  0.33456947
Direct configuration=    37
   0.00415295  0.00279406  0.10351108
   0.35932267  0.00296160  0.10099393
   0.00385697  0.35769427  0.10099323
   0.64921494  0.64754808  0.10099198
   0.32783846  0.32606851  0.10127468
   0.68079978  0.00310547  0.10126163
   0.00378987  0.67906131  0.10125581
   0.00011853  0.50003861  0.33456558
   0.16670059  0.33340677  0.33458097
   0.00004909  0.00001651  0.33454551
   0.16673334  0.83336198  0.33458320
   0.50003180  0.50006944  0.33456837
   0.66669669  0.33336611  0.33444395
   0.49999898 -0.00005162  0.33456280
   0.66665601  0.83332624  0.33457993
Direct configuration=    38
   0.00415252  0.00278988  0.10336773
   0.35930676  0.00297217  0.10101095
   0.00386837  0.35766729  0.10101022
   0.64921558  0.64756606  0.10100958
   0.32786321  0.32608733  0.10125088
   0.68078014  0.00312658  0.10124091
   0.00377667  0.67901601  0.10123572
   0.00008127  0.50004635  0.33457904
   0.16672491  0.33339827  0.33460186
   0.00004156  0.00002481  0.33456965
   0.16672775  0.83334235  0.33460389
   0.50002328  0.50004617  0.33458147
   0.66670771  0.33336088  0.33447369
   0.50002112 -0.00001441  0.33457624
   0.66666981  0.83333760  0.33460084
Direct configuration=    39
   0.00415201  0.00278492  0.10319766
   0.35928789  0.00298471  0.10103115
   0.00388189  0.35763528  0.10103038
   0.64921634  0.64758739  0.10103046
   0.32789257  0.32610966  0.10122264
   0.68075684  0.00315162  0.10121632
   0.00376101  0.67896228  0.10121188
   0.00003706  0.50005552  0.33459499
   0.16675377  0.33338818  0.33462664
   0.00003263  0.00003465  0.33459829
   0.16672112  0.83331906  0.33462843
   0.50001316  0.50001856  0.33459701
   0.66672078  0.33335467  0.33450897
   0.50004740  0.00002974  0.33459218
   0.66668620  0.83335109  0.33462566
Direct configuration=    40
   0.00414303  0.00276110  0.10305559
   0.35927286  0.00300247  0.10104727
   0.00388305  0.35761088  0.10104661
   0.64923249  0.64760718  0.10104690
   0.32791435  0.32614723  0.10119760
   0.68072485  0.00314057  0.10119466
   0.00376482  0.67893792  0.10119096
   0.00003400  0.50001683  0.33460887
   0.16672666  0.33340855  0.33465151
   0.00004055  0.00003129  0.33461545
   0.16675490  0.83334780  0.33465342
   0.50005626  0.50004096  0.33461074
   0.66671648  0.33335974  0.33453630
   0.50003028  0.00003690  0.33460615
   0.66666609  0.83331792  0.33465063
Direct configuration=    41
   0.00413729  0.00274591  0.10296495
   0.35926326  0.00301380  0.10105756
   0.00388380  0.35759531  0.10105696
   0.64924279  0.64761981  0.10105740
   0.32792824  0.32617119  0.10118162
   0.68070444  0.00313352  0.10118084
   0.00376725  0.67892237  0.10117761
   0.00003204  0.49999213  0.33461773
   0.16670937  0.33342155  0.33466737
   0.00004561  0.00002914  0.33462640
   0.16677646  0.83336614  0.33466936
   0.50008376  0.50005526  0.33461951
   0.66671374  0.33336297  0.33455374
   0.50001936  0.00004147  0.33461507
   0.66665326  0.83329676  0.33466655
Direct configuration=    42
   0.00412810  0.00272519  0.10289592
   0.35926820  0.00302590  0.10106053
   0.00387291  0.35759618  0.10106011
   0.64925480  0.64761926  0.10106022
   0.32790995  0.32617900  0.10117261
   0.68069967  0.00310094  0.10117336
   0.00378627  0.67895080  0.10117046
   0.00006942  0.50000853  0.33462906
   0.16670663  0.33342196  0.33468016
   0.00004984  0.00002625  0.33463031
   0.16677069  0.83336969  0.33468258
   0.50007064  0.50006825  0.33463101
   0.66671056  0.33336597  0.33456031
   0.50000949  0.00000667  0.33462654
   0.66665348  0.83330273  0.33467949
Direct configuration=    43
   0.00411719  0.00270057  0.10281388
   0.35927406  0.00304028  0.10106407
   0.00385998  0.35759722  0.10106386
   0.64926908  0.64761860  0.10106357
   0.32788822  0.32618828  0.10116190
   0.68069401  0.00306222  0.10116448
   0.00380887  0.67898457  0.10116196
   0.00011384  0.50002802  0.33464252
   0.16670338  0.33342245  0.33469537
   0.00005486  0.00002281  0.33463496
   0.16676384  0.83337391  0.33469828
   0.50005505  0.50008369  0.33464468
   0.66670678  0.33336954  0.33456811
   0.49999776 -0.00003468  0.33464018
   0.66665374  0.83330983  0.33469485
Direct configuration=    44
   0.00411374  0.00269415  0.10274241
   0.35929355  0.00305404  0.10106272
   0.00384477  0.35760606  0.10106278
   0.64926716  0.64759971  0.10106184
   0.32785889  0.32618958  0.10115584
   0.68069116  0.00302770  0.10115970
   0.00383405  0.67901541  0.10115744
   0.00009821  0.50003938  0.33465798
   0.16671745  0.33340993  0.33470779
   0.00004909  0.00002876  0.33463844
   0.16675732  0.83336313  0.33471131
   0.50004295  0.50007302  0.33466046
   0.66671477  0.33336545  0.33457065
   0.50000755 -0.00001939  0.33465585
   0.66666999  0.83332041  0.33470747
Direct configuration=    45
   0.00410958  0.00268641  0.10265630
   0.35931703  0.00307061  0.10106110
   0.00382645  0.35761671  0.10106148
   0.64926484  0.64757696  0.10105976
   0.32782356  0.32619114  0.10114854
   0.68068773  0.00298611  0.10115393
   0.00386439  0.67905255  0.10115199
   0.00007939  0.50005308  0.33467660
   0.16673440  0.33339483  0.33472276
   0.00004213  0.00003593  0.33464263
   0.16674946  0.83335015  0.33472700
   0.50002838  0.50006016  0.33467947
   0.66672439  0.33336052  0.33457372
   0.50001935 -0.00000097  0.33467472
   0.66668958  0.83333315  0.33472267
Direct configuration=    46
   0.00411705  0.00270633  0.10257526
   0.35934548  0.00308165  0.10105562
   0.00381179  0.35762755  0.10105634
   0.64924228  0.64754028  0.10105367
   0.32780568  0.32619369  0.10114417
   0.68067774  0.00296910  0.10115042
   0.00388351  0.67905559  0.10114866
   0.00005542  0.50002286  0.33469600
   0.16672297  0.33340889  0.33473600
   0.00004988  0.00003327  0.33464895
   0.16676035  0.83336137  0.33474085
   0.50006164  0.50005167  0.33469923
   0.66671989  0.33336573  0.33457701
   0.50003142  0.00002690  0.33469436
   0.66667553  0.83332246  0.33473613
Direct configuration=    47
   0.00412030  0.00271500  0.10254000
   0.35935786  0.00308645  0.10105324
   0.00380542  0.35763226  0.10105410
   0.64923247  0.64752433  0.10105102
   0.32779791  0.32619479  0.10114227
   0.68067339  0.00296171  0.10114889
   0.00389183  0.67905691  0.10114720
   0.00004499  0.50000971  0.33470444
   0.16671801  0.33341500  0.33474176
   0.00005325  0.00003212  0.33465171
   0.16676509  0.83336625  0.33474688
   0.50007611  0.50004798  0.33470782
   0.66671793  0.33336799  0.33457844
   0.50003668  0.00003902  0.33470290
   0.66666943  0.83331781  0.33474199
Direct configuration=    48
   0.00412175  0.00271887  0.10252427
   0.35936339  0.00308860  0.10105218
   0.00380257  0.35763436  0.10105310
   0.64922809  0.64751721  0.10104984
   0.32779444  0.32619529  0.10114142
   0.68067145  0.00295840  0.10114821
   0.00389554  0.67905750  0.10114656
   0.00004034  0.50000384  0.33470821
   0.16671579  0.33341773  0.33474434
   0.00005475  0.00003160  0.33465293
   0.16676721  0.83336843  0.33474957
   0.50008257  0.50004633  0.33471166
   0.66671706  0.33336900  0.33457907
   0.50003902  0.00004444  0.33470671
   0.66666670  0.83331573  0.33474460
Direct configuration=    49
   0.00413040  0.00274320  0.10245451
   0.35937034  0.00308414  0.10104544
   0.00379696  0.35763652  0.10104661
   0.64921142  0.64749830  0.10104255
   0.32780450  0.32619587  0.10113727
   0.68066391  0.00297071  0.10114407
   0.00388993  0.67903535  0.10114241
   0.00006393  0.50000955  0.33472391
   0.16671518  0.33342737  0.33475633
   0.00005656  0.00003078  0.33466277
   0.16677665  0.83337143  0.33476184
   0.50007974  0.50006330  0.33472749
   0.66671723  0.33337025  0.33458814
   0.50002492  0.00002289  0.33472257
   0.66665899  0.83330765  0.33475676
Direct configuration=    50
   0.00413592  0.00275876  0.10240990
   0.35937479  0.00308129  0.10104114
   0.00379337  0.35763791  0.10104246
   0.64920076  0.64748621  0.10103788
   0.32781094  0.32619625  0.10113461
   0.68065909  0.00297859  0.10114142
   0.00388634  0.67902118  0.10113976
   0.00007902  0.50001320  0.33473395
   0.16671479  0.33343354  0.33476400
   0.00005771  0.00003026  0.33466905
   0.16678269  0.83337335  0.33476968
   0.50007793  0.50007415  0.33473761