  15  15   0   4
  0.1978729E+02  0.4780000E-09  0.4780000E-09  0.1500000E-08  0.5000000E-15
  1.000000000000000E-004
  CAR 
 Lattice                                 
     10.56683107    -21.85780721  301     -0.11976787      1.00000000
    -21.858  0.0000E+00  0.0000E+00  0.0000E+00  0.0000E+00
    -21.750  0.0000E+00  0.0000E+00  0.0000E+00  0.0000E+00
    -21.642  0.0000E+00  0.0000E+00  0.0000E+00  0.0000E+00
    -21.534  0.0000E+00  0.0000E+00  0.0000E+00  0.0000E+00
    -21.425  0.0000E+00  0.0000E+00  0.0000E+00  0.0000E+00
    -21.317  0.0000E+00  0.0000E+00  0.0000E+00  0.0000E+00
    -21.209  0.0000E+00  0.0000E+00  0.0000E+00  0.0000E+00
    -21.101  0.0000E+00  0.0000E+00  0.0000E+00  0.0000E+00
    -20.993  0.0000E+00  0.0000E+00  0.0000E+00  0.0000E+00
    -20.885  0.3652E-15  0.3652E-15  0.3947E-16  0.3947E-16
    -20.777  0.7859E-11  0.7859E-11  0.8494E-12  0.8494E-12
    -20.669  0.1919E-07  0.1919E-07  0.2075E-08  0.2075E-08
    -20.561  0.5885E-05  0.5885E-05  0.6381E-06  0.6381E-06
    -20.453  0.2552E-03  0.2552E-03  0.2823E-04  0.2823E-04
    -20.345  0.1921E-02  0.1921E-02  0.2358E-03  0.2358E-03
    -20.237  0.4066E-02  0.4066E-02  0.6754E-03  0.6754E-03
    -20.128  0.4395E-02  0.4395E-02  0.1150E-02  0.1150E-02
    -20.020  0.4853E-02  0.4853E-02  0.1675E-02  0.1675E-02
    -19.912  0.4016E-02  0.4016E-02  0.2109E-02  0.2109E-02
    -19.804  0.5245E-02  0.5245E-02  0.2676E-02  0.2676E-02
    -19.696  0.4227E-02  0.4227E-02  0.3133E-02  0.3133E-02
    -19.588  0.3962E-02  0.3962E-02  0.3561E-02  0.3561E-02
    -19.480  0.5916E-02  0.5916E-02  0.4200E-02  0.4200E-02
    -19.372  0.3964E-02  0.3964E-02  0.4629E-02  0.4629E-02
    -19.264  0.3483E-02  0.3483E-02  0.5005E-02  0.5005E-02
    -19.156  0.5897E-02  0.5897E-02  0.5642E-02  0.5642E-02
    -19.048  0.5330E-02  0.5330E-02  0.6219E-02  0.6219E-02
    -18.940  0.3154E-02  0.3154E-02  0.6559E-02  0.6559E-02
    -18.832  0.3597E-02  0.3597E-02  0.6948E-02  0.6948E-02
    -18.723  0.6818E-02  0.6818E-02  0.7685E-02  0.7685E-02
    -18.615  0.4872E-02  0.4872E-02  0.8212E-02  0.8212E-02
    -18.507  0.3815E-02  0.3815E-02  0.8624E-02  0.8624E-02
    -18.399  0.2769E-02  0.2769E-02  0.8923E-02  0.8923E-02
    -18.291  0.5572E-02  0.5572E-02  0.9526E-02  0.9526E-02
    -18.183  0.7050E-02  0.7050E-02  0.1029E-01  0.1029E-01
    -18.075  0.4118E-02  0.4118E-02  0.1073E-01  0.1073E-01
    -17.967  0.2836E-02  0.2836E-02  0.1104E-01  0.1104E-01
    -17.859  0.3898E-02  0.3898E-02  0.1146E-01  0.1146E-01
    -17.751  0.5223E-02  0.5223E-02  0.1203E-01  0.1203E-01
    -17.643  0.7089E-02  0.7089E-02  0.1279E-01  0.1279E-01
    -17.535  0.6636E-02  0.6636E-02  0.1351E-01  0.1351E-01
    -17.426  0.8241E-02  0.8241E-02  0.1440E-01  0.1440E-01
    -17.318  0.9298E-02  0.9298E-02  0.1540E-01  0.1540E-01
    -17.210  0.1353E-01  0.1353E-01  0.1687E-01  0.1687E-01
    -17.102  0.1601E-01  0.1601E-01  0.1860E-01  0.1860E-01
    -16.994  0.1789E-01  0.1789E-01  0.2053E-01  0.2053E-01
    -16.886  0.2093E-01  0.2093E-01  0.2279E-01  0.2279E-01
    -16.778  0.1470E-01  0.1470E-01  0.2438E-01  0.2438E-01
    -16.670  0.3907E-02  0.3907E-02  0.2480E-01  0.2480E-01
    -16.562  0.4098E-02  0.4098E-02  0.2525E-01  0.2525E-01
    -16.454  0.9005E-02  0.9005E-02  0.2622E-01  0.2622E-01
    -16.346  0.5536E-02  0.5536E-02  0.2682E-01  0.2682E-01
    -16.238  0.4213E-02  0.4213E-02  0.2727E-01  0.2727E-01
    -16.129  0.3639E-02  0.3639E-02  0.2767E-01  0.2767E-01
    -16.021  0.4048E-02  0.4048E-02  0.2810E-01  0.2810E-01
    -15.913  0.3100E-02  0.3100E-02  0.2844E-01  0.2844E-01
    -15.805  0.5250E-02  0.5250E-02  0.2901E-01  0.2901E-01
    -15.697  0.8810E-02  0.8810E-02  0.2996E-01  0.2996E-01
    -15.589  0.5981E-02  0.5981E-02  0.3061E-01  0.3061E-01
    -15.481  0.3475E-02  0.3475E-02  0.3098E-01  0.3098E-01
    -15.373  0.3444E-02  0.3444E-02  0.3135E-01  0.3135E-01
    -15.265  0.3368E-02  0.3368E-02  0.3172E-01  0.3172E-01
    -15.157  0.5420E-02  0.5420E-02  0.3230E-01  0.3230E-01
    -15.049  0.1012E-01  0.1012E-01  0.3340E-01  0.3340E-01
    -14.941  0.1648E-01  0.1648E-01  0.3518E-01  0.3518E-01
    -14.832  0.2017E-01  0.2017E-01  0.3736E-01  0.3736E-01
    -14.724  0.1557E-01  0.1557E-01  0.3904E-01  0.3904E-01
    -14.616  0.1294E-01  0.1294E-01  0.4044E-01  0.4044E-01
    -14.508  0.9330E-02  0.9330E-02  0.4145E-01  0.4145E-01
    -14.400  0.9667E-02  0.9667E-02  0.4249E-01  0.4249E-01
    -14.292  0.1313E-01  0.1313E-01  0.4391E-01  0.4391E-01
    -14.184  0.1675E-01  0.1675E-01  0.4572E-01  0.4572E-01
    -14.076  0.1241E-01  0.1241E-01  0.4706E-01  0.4706E-01
    -13.968  0.1179E-01  0.1179E-01  0.4834E-01  0.4834E-01
    -13.860  0.1801E-01  0.1801E-01  0.5029E-01  0.5029E-01
    -13.752  0.1757E-01  0.1757E-01  0.5218E-01  0.5218E-01
    -13.644  0.1707E-01  0.1707E-01  0.5403E-01  0.5403E-01
    -13.535  0.1367E-01  0.1367E-01  0.5551E-01  0.5551E-01
    -13.427  0.8022E-02  0.8022E-02  0.5637E-01  0.5637E-01
    -13.319  0.3308E-02  0.3308E-02  0.5673E-01  0.5673E-01
    -13.211  0.2894E-02  0.2894E-02  0.5704E-01  0.5704E-01
    -13.103  0.5198E-02  0.5198E-02  0.5761E-01  0.5761E-01
    -12.995  0.6876E-02  0.6876E-02  0.5835E-01  0.5835E-01
    -12.887  0.5568E-02  0.5568E-02  0.5895E-01  0.5895E-01
    -12.779  0.5294E-02  0.5294E-02  0.5952E-01  0.5952E-01
    -12.671  0.5876E-02  0.5876E-02  0.6016E-01  0.6016E-01
    -12.563  0.6321E-02  0.6321E-02  0.6084E-01  0.6084E-01
    -12.455  0.5858E-02  0.5858E-02  0.6147E-01  0.6147E-01
    -12.347  0.4522E-02  0.4522E-02  0.6196E-01  0.6196E-01
    -12.238  0.3823E-02  0.3823E-02  0.6238E-01  0.6238E-01
    -12.130  0.7397E-02  0.7397E-02  0.6318E-01  0.6318E-01
    -12.022  0.5964E-02  0.5964E-02  0.6382E-01  0.6382E-01
    -11.914  0.3268E-02  0.3268E-02  0.6417E-01  0.6417E-01
    -11.806  0.3808E-02  0.3808E-02  0.6459E-01  0.6459E-01
    -11.698  0.3335E-02  0.3335E-02  0.6495E-01  0.6495E-01
    -11.590  0.5612E-02  0.5612E-02  0.6555E-01  0.6555E-01
    -11.482  0.6837E-02  0.6837E-02  0.6629E-01  0.6629E-01
    -11.374  0.3673E-02  0.3673E-02  0.6669E-01  0.6669E-01
    -11.266  0.2062E-02  0.2062E-02  0.6691E-01  0.6691E-01
    -11.158  0.4990E-02  0.4990E-02  0.6745E-01  0.6745E-01
    -11.050  0.7302E-02  0.7302E-02  0.6824E-01  0.6824E-01
    -10.942  0.6848E-02  0.6848E-02  0.6898E-01  0.6898E-01
    -10.833  0.5440E-02  0.5440E-02  0.6957E-01  0.6957E-01
    -10.725  0.5945E-02  0.5945E-02  0.7021E-01  0.7021E-01
    -10.617  0.7102E-02  0.7102E-02  0.7098E-01  0.7098E-01
    -10.509  0.1206E-01  0.1206E-01  0.7228E-01  0.7228E-01
    -10.401  0.1404E-01  0.1404E-01  0.7380E-01  0.7380E-01
    -10.293  0.1675E-01  0.1675E-01  0.7561E-01  0.7561E-01
    -10.185  0.1757E-01  0.1757E-01  0.7751E-01  0.7751E-01
    -10.077  0.1560E-01  0.1560E-01  0.7919E-01  0.7919E-01
     -9.969  0.1403E-01  0.1403E-01  0.8071E-01  0.8071E-01
     -9.861  0.9598E-02  0.9598E-02  0.8175E-01  0.8175E-01
     -9.753  0.1146E-01  0.1146E-01  0.8299E-01  0.8299E-01
     -9.645  0.1382E-01  0.1382E-01  0.8448E-01  0.8448E-01
     -9.536  0.9238E-02  0.9238E-02  0.8548E-01  0.8548E-01
     -9.428  0.1372E-01  0.1372E-01  0.8696E-01  0.8696E-01
     -9.320  0.2047E-01  0.2047E-01  0.8917E-01  0.8917E-01
     -9.212  0.1617E-01  0.1617E-01  0.9092E-01  0.9092E-01
     -9.104  0.9331E-02  0.9331E-02  0.9193E-01  0.9193E-01
     -8.996  0.6046E-02  0.6046E-02  0.9258E-01  0.9258E-01
     -8.888  0.1087E-01  0.1087E-01  0.9376E-01  0.9376E-01
     -8.780  0.2346E-01  0.2346E-01  0.9629E-01  0.9629E-01
     -8.672  0.1691E-01  0.1691E-01  0.9812E-01  0.9812E-01
     -8.564  0.8733E-02  0.8733E-02  0.9906E-01  0.9906E-01
     -8.456  0.1106E-01  0.1106E-01  0.1003E+00  0.1003E+00
     -8.348  0.1759E-01  0.1759E-01  0.1022E+00  0.1022E+00
     -8.239  0.1903E-01  0.1903E-01  0.1042E+00  0.1042E+00
     -8.131  0.1463E-01  0.1463E-01  0.1058E+00  0.1058E+00
     -8.023  0.1383E-01  0.1383E-01  0.1073E+00  0.1073E+00
     -7.915  0.2120E-01  0.2120E-01  0.1096E+00  0.1096E+00
     -7.807  0.2439E-01  0.2439E-01  0.1122E+00  0.1122E+00
     -7.699  0.2078E-01  0.2078E-01  0.1145E+00  0.1145E+00
     -7.591  0.1433E-01  0.1433E-01  0.1160E+00  0.1160E+00
     -7.483  0.8972E-02  0.8972E-02  0.1170E+00  0.1170E+00
     -7.375  0.1400E-01  0.1400E-01  0.1185E+00  0.1185E+00
     -7.267  0.1516E-01  0.1516E-01  0.1201E+00  0.1201E+00
     -7.159  0.1270E-01  0.1270E-01  0.1215E+00  0.1215E+00
     -7.051  0.1519E-01  0.1519E-01  0.1232E+00  0.1232E+00
     -6.942  0.1611E-01  0.1611E-01  0.1249E+00  0.1249E+00
     -6.834  0.1751E-01  0.1751E-01  0.1268E+00  0.1268E+00
     -6.726  0.1609E-01  0.1609E-01  0.1285E+00  0.1285E+00
     -6.618  0.2099E-01  0.2099E-01  0.1308E+00  0.1308E+00
     -6.510  0.2654E-01  0.2654E-01  0.1337E+00  0.1337E+00
     -6.402  0.2007E-01  0.2007E-01  0.1358E+00  0.1358E+00
     -6.294  0.1699E-01  0.1699E-01  0.1377E+00  0.1377E+00
     -6.186  0.1690E-01  0.1690E-01  0.1395E+00  0.1395E+00
     -6.078  0.1851E-01  0.1851E-01  0.1415E+00  0.1415E+00
     -5.970  0.3172E-01  0.3172E-01  0.1449E+00  0.1449E+00
     -5.862  0.2932E-01  0.2932E-01  0.1481E+00  0.1481E+00
     -5.754  0.2098E-01  0.2098E-01  0.1504E+00  0.1504E+00
     -5.645  0.1987E-01  0.1987E-01  0.1525E+00  0.1525E+00
     -5.537  0.2593E-01  0.2593E-01  0.1553E+00  0.1553E+00
     -5.429  0.2753E-01  0.2753E-01  0.1583E+00  0.1583E+00
     -5.321  0.2855E-01  0.2855E-01  0.1614E+00  0.1614E+00
     -5.213  0.2614E-01  0.2614E-01  0.1642E+00  0.1642E+00
     -5.105  0.1624E-01  0.1624E-01  0.1660E+00  0.1660E+00
     -4.997  0.1031E-01  0.1031E-01  0.1671E+00  0.1671E+00
     -4.889  0.6123E-02  0.6123E-02  0.1677E+00  0.1677E+00
     -4.781  0.1163E-01  0.1163E-01  0.1690E+00  0.1690E+00
     -4.673  0.1609E-01  0.1609E-01  0.1707E+00  0.1707E+00
     -4.565  0.1091E-01  0.1091E-01  0.1719E+00  0.1719E+00
     -4.457  0.8511E-02  0.8511E-02  0.1728E+00  0.1728E+00
     -4.349  0.9526E-02  0.9526E-02  0.1739E+00  0.1739E+00
     -4.240  0.1865E-01  0.1865E-01  0.1759E+00  0.1759E+00
     -4.132  0.2364E-01  0.2364E-01  0.1784E+00  0.1784E+00
     -4.024  0.2126E-01  0.2126E-01  0.1807E+00  0.1807E+00
     -3.916  0.2203E-01  0.2203E-01  0.1831E+00  0.1831E+00
     -3.808  0.2367E-01  0.2367E-01  0.1857E+00  0.1857E+00
     -3.700  0.2078E-01  0.2078E-01  0.1879E+00  0.1879E+00
     -3.592  0.1942E-01  0.1942E-01  0.1900E+00  0.1900E+00
     -3.484  0.1729E-01  0.1729E-01  0.1919E+00  0.1919E+00
     -3.376  0.1648E-01  0.1648E-01  0.1937E+00  0.1937E+00
     -3.268  0.1040E-01  0.1040E-01  0.1948E+00  0.1948E+00
     -3.160  0.1615E-01  0.1615E-01  0.1965E+00  0.1965E+00
     -3.052  0.1979E-01  0.1979E-01  0.1987E+00  0.1987E+00
     -2.943  0.1542E-01  0.1542E-01  0.2003E+00  0.2003E+00
     -2.835  0.1336E-01  0.1336E-01  0.2018E+00  0.2018E+00
     -2.727  0.1199E-01  0.1199E-01  0.2031E+00  0.2031E+00
     -2.619  0.8505E-02  0.8505E-02  0.2040E+00  0.2040E+00
     -2.511  0.1028E-01  0.1028E-01  0.2051E+00  0.2051E+00
     -2.403  0.1575E-01  0.1575E-01  0.2068E+00  0.2068E+00
     -2.295  0.1618E-01  0.1618E-01  0.2086E+00  0.2086E+00
     -2.187  0.4769E-02  0.4769E-02  0.2091E+00  0.2091E+00
     -2.079  0.6892E-02  0.6892E-02  0.2098E+00  0.2098E+00
     -1.971  0.9655E-02  0.9655E-02  0.2109E+00  0.2109E+00
     -1.863  0.8476E-02  0.8476E-02  0.2118E+00  0.2118E+00
     -1.755  0.9981E-02  0.9981E-02  0.2129E+00  0.2129E+00
     -1.646  0.1001E-01  0.1001E-01  0.2139E+00  0.2139E+00
     -1.538  0.1022E-01  0.1022E-01  0.2150E+00  0.2150E+00
     -1.430  0.8651E-02  0.8651E-02  0.2160E+00  0.2160E+00
     -1.322  0.2947E-02  0.2947E-02  0.2163E+00  0.2163E+00
     -1.214  0.3944E-02  0.3944E-02  0.2167E+00  0.2167E+00
     -1.106  0.4661E-02  0.4661E-02  0.2172E+00  0.2172E+00
     -0.998  0.2829E-02  0.2829E-02  0.2175E+00  0.2175E+00
     -0.890  0.4065E-02  0.4065E-02  0.2180E+00  0.2180E+00
     -0.782  0.4661E-02  0.4661E-02  0.2185E+00  0.2185E+00
     -0.674  0.1469E-02  0.1469E-02  0.2186E+00  0.2186E+00
     -0.566  0.1126E-03  0.1126E-03  0.2186E+00  0.2186E+00
     -0.458  0.1784E-05  0.1783E-05  0.2186E+00  0.2186E+00
     -0.349  0.1167E-05  0.1167E-05  0.2186E+00  0.2186E+00
     -0.241  0.8463E-04  0.8463E-04  0.2187E+00  0.2187E+00
     -0.133  0.7658E-03  0.7658E-03  0.2187E+00  0.2187E+00
     -0.025  0.9744E-03  0.9744E-03  0.2188E+00  0.2188E+00
      0.083  0.1777E-03  0.1777E-03  0.2189E+00  0.2189E+00
      0.191  0.4167E-05  0.4167E-05  0.2189E+00  0.2189E+00
      0.299  0.1317E-06  0.1317E-06  0.2189E+00  0.2189E+00
      0.407  0.2974E-04  0.2974E-04  0.2189E+00  0.2189E+00
      0.515  0.8544E-03  0.8544E-03  0.2190E+00  0.2190E+00
      0.623  0.3239E-02  0.3239E-02  0.2193E+00  0.2193E+00
      0.731  0.2110E-02  0.2110E-02  0.2195E+00  0.2195E+00
      0.839  0.3570E-02  0.3570E-02  0.2199E+00  0.2199E+00
      0.948  0.7294E-02  0.7294E-02  0.2207E+00  0.2207E+00
      1.056  0.1072E-01  0.1072E-01  0.2219E+00  0.2219E+00
      1.164  0.2000E-01  0.2000E-01  0.2240E+00  0.2240E+00
      1.272  0.1830E-01  0.1830E-01  0.2260E+00  0.2260E+00
      1.380  0.7902E-02  0.7902E-02  0.2269E+00  0.2269E+00
      1.488  0.1367E-02  0.1367E-02  0.2270E+00  0.2270E+00
      1.596  0.2385E-02  0.2385E-02  0.2273E+00  0.2273E+00
      1.704  0.1018E-01  0.1018E-01  0.2284E+00  0.2284E+00
      1.812  0.1978E-01  0.1978E-01  0.2305E+00  0.2305E+00
      1.920  0.1530E-01  0.1530E-01  0.2322E+00  0.2322E+00
      2.028  0.1012E-01  0.1012E-01  0.2332E+00  0.2332E+00
      2.136  0.9060E-02  0.9060E-02  0.2342E+00  0.2342E+00
      2.245  0.1063E-01  0.1063E-01  0.2354E+00  0.2354E+00
      2.353  0.8123E-02  0.8123E-02  0.2363E+00  0.2363E+00
      2.461  0.7348E-02  0.7348E-02  0.2370E+00  0.2370E+00
      2.569  0.7748E-02  0.7748E-02  0.2379E+00  0.2379E+00
      2.677  0.5599E-02  0.5599E-02  0.2385E+00  0.2385E+00
      2.785  0.8236E-02  0.8236E-02  0.2394E+00  0.2394E+00
      2.893  0.1229E-01  0.1229E-01  0.2407E+00  0.2407E+00
      3.001  0.9749E-02  0.9746E-02  0.2418E+00  0.2418E+00
      3.109  0.9095E-02  0.9095E-02  0.2427E+00  0.2427E+00
      3.217  0.7191E-02  0.7192E-02  0.2435E+00  0.2435E+00
      3.325  0.1110E-01  0.1110E-01  0.2447E+00  0.2447E+00
      3.433  0.1113E-01  0.1113E-01  0.2459E+00  0.2459E+00
      3.541  0.8517E-02  0.8518E-02  0.2468E+00  0.2468E+00
      3.650  0.1014E-01  0.1014E-01  0.2479E+00  0.2479E+00
      3.758  0.9107E-02  0.9109E-02  0.2489E+00  0.2489E+00
      3.866  0.1849E-01  0.1849E-01  0.2509E+00  0.2509E+00
      3.974  0.2598E-01  0.2598E-01  0.2537E+00  0.2537E+00
      4.082  0.1764E-01  0.1764E-01  0.2556E+00  0.2556E+00
      4.190  0.1228E-01  0.1229E-01  0.2570E+00  0.2570E+00
      4.298  0.1907E-01  0.1907E-01  0.2590E+00  0.2590E+00
      4.406  0.2397E-01  0.2397E-01  0.2616E+00  0.2616E+00
      4.514  0.2525E-01  0.2525E-01  0.2643E+00  0.2643E+00
      4.622  0.2655E-01  0.2655E-01  0.2672E+00  0.2672E+00
      4.730  0.2965E-01  0.2965E-01  0.2704E+00  0.2704E+00
      4.838  0.2804E-01  0.2804E-01  0.2735E+00  0.2735E+00
      4.947  0.2251E-01  0.2252E-01  0.2759E+00  0.2759E+00
      5.055  0.2352E-01  0.2352E-01  0.2784E+00  0.2784E+00
      5.163  0.2868E-01  0.2868E-01  0.2815E+00  0.2815E+00
      5.271  0.2538E-01  0.2539E-01  0.2843E+00  0.2843E+00
      5.379  0.2411E-01  0.2410E-01  0.2869E+00  0.2869E+00
      5.487  0.2322E-01  0.2323E-01  0.2894E+00  0.2894E+00
      5.595  0.1449E-01  0.1449E-01  0.2910E+00  0.2910E+00
      5.703  0.1703E-01  0.1702E-01  0.2928E+00  0.2928E+00
      5.811  0.3313E-01  0.3312E-01  0.2964E+00  0.2964E+00
      5.919  0.3432E-01  0.3433E-01  0.3001E+00  0.3001E+00
      6.027  0.2012E-01  0.2013E-01  0.3023E+00  0.3023E+00
      6.135  0.1348E-01  0.1348E-01  0.3037E+00  0.3037E+00
      6.244  0.1791E-01  0.1791E-01  0.3057E+00  0.3057E+00
      6.352  0.2046E-01  0.2046E-01  0.3079E+00  0.3079E+00
      6.460  0.2026E-01  0.2026E-01  0.3101E+00  0.3101E+00
      6.568  0.1665E-01  0.1666E-01  0.3119E+00  0.3119E+00
      6.676  0.2161E-01  0.2161E-01  0.3142E+00  0.3142E+00
      6.784  0.2780E-01  0.2779E-01  0.3172E+00  0.3172E+00
      6.892  0.3008E-01  0.3008E-01  0.3204E+00  0.3204E+00
      7.000  0.2645E-01  0.2645E-01  0.3233E+00  0.3233E+00
      7.108  0.3109E-01  0.3108E-01  0.3267E+00  0.3267E+00
      7.216  0.2908E-01  0.2910E-01  0.3298E+00  0.3298E+00
      7.324  0.2388E-01  0.2388E-01  0.3324E+00  0.3324E+00
      7.432  0.2295E-01  0.2295E-01  0.3349E+00  0.3349E+00
      7.541  0.1417E-01  0.1416E-01  0.3364E+00  0.3364E+00
      7.649  0.2059E-01  0.2058E-01  0.3386E+00  0.3386E+00
      7.757  0.2328E-01  0.2329E-01  0.3411E+00  0.3411E+00
      7.865  0.1964E-01  0.1964E-01  0.3433E+00  0.3433E+00
      7.973  0.2581E-01  0.2579E-01  0.3461E+00  0.3461E+00
      8.081  0.2576E-01  0.2576E-01  0.3488E+00  0.3488E+00
      8.189  0.2440E-01  0.2441E-01  0.3515E+00  0.3515E+00
      8.297  0.3290E-01  0.3291E-01  0.3550E+00  0.3550E+00
      8.405  0.3034E-01  0.3035E-01  0.3583E+00  0.3583E+00
      8.513  0.3007E-01  0.3007E-01  0.3616E+00  0.3616E+00
      8.621  0.3341E-01  0.3341E-01  0.3652E+00  0.3652E+00
      8.729  0.2459E-01  0.2460E-01  0.3678E+00  0.3678E+00
      8.838  0.1753E-01  0.1754E-01  0.3697E+00  0.3697E+00
      8.946  0.2060E-01  0.2060E-01  0.3720E+00  0.3720E+00
      9.054  0.1929E-01  0.1929E-01  0.3740E+00  0.3740E+00
      9.162  0.7859E-02  0.7860E-02  0.3749E+00  0.3749E+00
      9.270  0.1019E-02  0.1019E-02  0.3750E+00  0.3750E+00
      9.378  0.2652E-04  0.2653E-04  0.3750E+00  0.3750E+00
      9.486  0.9869E-07  0.9879E-07  0.3750E+00  0.3750E+00
      9.594  0.4391E-10  0.4398E-10  0.3750E+00  0.3750E+00
      9.702  0.2121E-14  0.2126E-14  0.3750E+00  0.3750E+00
      9.810  0.0000E+00  0.0000E+00  0.3750E+00  0.3750E+00
      9.918  0.0000E+00  0.0000E+00  0.3750E+00  0.3750E+00
     10.026  0.0000E+00  0.0000E+00  0.3750E+00  0.3750E+00
     10.135  0.0000E+00  0.0000E+00  0.3750E+00  0.3750E+00
     10.243  0.0000E+00  0.0000E+00  0.3750E+00  0.3750E+00
     10.351  0.0000E+00  0.0000E+00  0.3750E+00  0.3750E+00
     10.459  0.0000E+00  0.0000E+00  0.3750E+00  0.3750E+00
     10.567  0.0000E+00  0.0000E+00  0.3750E+00  0.3750E+00
