<?xml version="1.0" encoding="ISO-8859-1"?>
<modeling>
 <generator>
  <i name="program" type="string">vasp </i>
  <i name="version" type="string">6.3.2  </i>
  <i name="subversion" type="string">27Jun22 (build Dec 22 2022 13:13:19) complex                          parallel </i>
  <i name="platform" type="string">LinuxIFC </i>
  <i name="date" type="string">2023 08 21 </i>
  <i name="time" type="string">19:19:39 </i>
 </generator>
 <incar>
  <i type="string" name="SYSTEM">Lattice</i>
  <i type="int" name="ISTART">     0</i>
  <i type="string" name="PREC">Accurate</i>
  <i type="string" name="ALGO">Normal</i>
  <i type="int" name="ISPIN">     2</i>
  <i type="int" name="ICHARG">     2</i>
  <i type="int" name="NELM">    64</i>
  <i type="int" name="IBRION">     2</i>
  <i name="EDIFF">      0.00000100</i>
  <i name="EDIFFG">     -0.00100000</i>
  <i type="int" name="NSW">   128</i>
  <i type="int" name="ISIF">     2</i>
  <i name="ENCUT">    450.00000000</i>
  <i name="POTIM">      0.50000000</i>
  <i type="int" name="ISMEAR">     0</i>
  <i name="SIGMA">      0.10000000</i>
  <i type="logical" name="LWAVE"> F  </i>
  <i type="logical" name="LCHARG"> F  </i>
  <i type="string" name="GGA">PE</i>
  <i type="int" name="IVDW">    12</i>
 </incar>
 <primitive_cell>
  <structure name="primitive_cell" >
   <crystal>
    <varray name="basis" >
     <v>       4.13960143       2.39000000       0.00000000 </v>
     <v>      -4.13960143       2.39000000       0.00000000 </v>
     <v>       0.00000000       0.00000000      15.00000000 </v>
    </varray>
    <i name="volume">    296.80942254 </i>
    <varray name="rec_basis" >
     <v>       0.12078458       0.20920502       0.00000000 </v>
     <v>      -0.12078458       0.20920502       0.00000000 </v>
     <v>       0.00000000       0.00000000       0.06666667 </v>
    </varray>
   </crystal>
   <varray name="positions" >
    <v>       0.00415361       0.00267210       0.12034134 </v>
    <v>       0.35695335       0.00285503       0.09748893 </v>
    <v>       0.00423858       0.35550699       0.09749256 </v>
    <v>       0.65142295       0.65006557       0.09747688 </v>
    <v>       0.32808646       0.32671938       0.10030508 </v>
    <v>       0.68027775       0.00278085       0.10027562 </v>
    <v>       0.00416530       0.67883808       0.10026559 </v>
    <v>       0.16666600       0.33333300       0.33720000 </v>
    <v>       0.33333300       0.16666600       0.33720000 </v>
    <v>       0.16666600       0.83333300       0.33720000 </v>
    <v>       0.33333300       0.66666600       0.33720000 </v>
    <v>       0.66666600       0.33333300       0.33720000 </v>
    <v>       0.83333300       0.16666600       0.33720000 </v>
    <v>       0.66666600       0.83333300       0.33720000 </v>
    <v>       0.83333300       0.66666600       0.33720000 </v>
   </varray>
  </structure>
  <varray name="primitive_index" >
   <v type="int" >        1 </v>
   <v type="int" >        2 </v>
   <v type="int" >        3 </v>
   <v type="int" >        4 </v>
   <v type="int" >        5 </v>
   <v type="int" >        6 </v>
   <v type="int" >        7 </v>
   <v type="int" >        8 </v>
   <v type="int" >        9 </v>
   <v type="int" >       10 </v>
   <v type="int" >       11 </v>
   <v type="int" >       12 </v>
   <v type="int" >       13 </v>
   <v type="int" >       14 </v>
   <v type="int" >       15 </v>
  </varray>
 </primitive_cell>
 <kpoints>
  <generation param="Gamma">
   <v type="int" name="divisions">      12       12        1 </v>
   <v name="usershift">      0.00000000       0.00000000       0.00000000 </v>
   <v name="genvec1">      0.08333333       0.00000000       0.00000000 </v>
   <v name="genvec2">      0.00000000       0.08333333       0.00000000 </v>
   <v name="genvec3">      0.00000000       0.00000000       1.00000000 </v>
   <v name="shift">      0.00000000       0.00000000       0.00000000 </v>
  </generation>
  <varray name="kpointlist" >
   <v>       0.00000000       0.00000000       0.00000000 </v>
   <v>       0.08333333      -0.00000000       0.00000000 </v>
   <v>      -0.00000000       0.08333333       0.00000000 </v>
   <v>      -0.08333333       0.08333333       0.00000000 </v>
   <v>       0.16666667      -0.00000000       0.00000000 </v>
   <v>       0.00000000       0.16666667       0.00000000 </v>
   <v>      -0.16666667       0.16666667       0.00000000 </v>
   <v>       0.25000000      -0.00000000       0.00000000 </v>
   <v>      -0.00000000       0.25000000       0.00000000 </v>
   <v>      -0.25000000       0.25000000       0.00000000 </v>
   <v>       0.33333333      -0.00000000       0.00000000 </v>
   <v>      -0.00000000       0.33333333       0.00000000 </v>
   <v>      -0.33333333       0.33333333       0.00000000 </v>
   <v>       0.41666667      -0.00000000       0.00000000 </v>
   <v>      -0.00000000       0.41666667       0.00000000 </v>
   <v>      -0.41666667       0.41666667       0.00000000 </v>
   <v>       0.50000000      -0.00000000       0.00000000 </v>
   <v>      -0.00000000       0.50000000       0.00000000 </v>
   <v>       0.50000000       0.50000000       0.00000000 </v>
   <v>       0.08333333       0.08333333       0.00000000 </v>
   <v>      -0.08333333       0.16666667       0.00000000 </v>
   <v>      -0.16666667       0.08333333       0.00000000 </v>
   <v>       0.16666667       0.08333333       0.00000000 </v>
   <v>      -0.08333333       0.25000000       0.00000000 </v>
   <v>      -0.25000000       0.16666667       0.00000000 </v>
   <v>      -0.16666667       0.25000000       0.00000000 </v>
   <v>       0.08333333       0.16666667       0.00000000 </v>
   <v>       0.25000000      -0.08333333       0.00000000 </v>
   <v>       0.25000000       0.08333333       0.00000000 </v>
   <v>      -0.08333333       0.33333333       0.00000000 </v>
   <v>      -0.33333333       0.25000000       0.00000000 </v>
   <v>      -0.25000000       0.33333333       0.00000000 </v>
   <v>       0.08333333       0.25000000       0.00000000 </v>
   <v>       0.33333333      -0.08333333       0.00000000 </v>
   <v>       0.33333333       0.08333333       0.00000000 </v>
   <v>      -0.08333333       0.41666667       0.00000000 </v>
   <v>      -0.41666667       0.33333333       0.00000000 </v>
   <v>      -0.33333333       0.41666667       0.00000000 </v>
   <v>       0.08333333       0.33333333       0.00000000 </v>
   <v>       0.41666667      -0.08333333       0.00000000 </v>
   <v>       0.41666667       0.08333333       0.00000000 </v>
   <v>      -0.08333333       0.50000000       0.00000000 </v>
   <v>       0.50000000       0.41666667       0.00000000 </v>
   <v>      -0.41666667       0.50000000       0.00000000 </v>
   <v>       0.08333333       0.41666667       0.00000000 </v>
   <v>       0.50000000      -0.08333333       0.00000000 </v>
   <v>       0.16666667       0.16666667       0.00000000 </v>
   <v>      -0.16666667       0.33333333       0.00000000 </v>
   <v>      -0.33333333       0.16666667       0.00000000 </v>
   <v>       0.25000000       0.16666667       0.00000000 </v>
   <v>      -0.16666667       0.41666667       0.00000000 </v>
   <v>      -0.41666667       0.25000000       0.00000000 </v>
   <v>      -0.25000000       0.41666667       0.00000000 </v>
   <v>       0.16666667       0.25000000       0.00000000 </v>
   <v>       0.41666667      -0.16666667       0.00000000 </v>
   <v>       0.33333333       0.16666667       0.00000000 </v>
   <v>      -0.16666667       0.50000000       0.00000000 </v>
   <v>       0.50000000       0.33333333       0.00000000 </v>
   <v>      -0.33333333       0.50000000       0.00000000 </v>
   <v>       0.16666667       0.33333333       0.00000000 </v>
   <v>       0.50000000      -0.16666667       0.00000000 </v>
   <v>       0.41666667       0.16666667       0.00000000 </v>
   <v>      -0.16666667      -0.41666667       0.00000000 </v>
   <v>       0.41666667       0.41666667       0.00000000 </v>
   <v>       0.25000000       0.25000000       0.00000000 </v>
   <v>      -0.25000000       0.50000000       0.00000000 </v>
   <v>       0.50000000       0.25000000       0.00000000 </v>
   <v>       0.33333333       0.25000000       0.00000000 </v>
   <v>      -0.25000000      -0.41666667       0.00000000 </v>
   <v>       0.41666667       0.33333333       0.00000000 </v>
   <v>      -0.33333333      -0.41666667       0.00000000 </v>
   <v>       0.25000000       0.33333333       0.00000000 </v>
   <v>      -0.41666667      -0.25000000       0.00000000 </v>
   <v>       0.33333333       0.33333333       0.00000000 </v>
  </varray>
  <varray name="weights" >
   <v>       0.00694444 </v>
   <v>       0.01388889 </v>
   <v>       0.01388889 </v>
   <v>       0.01388889 </v>
   <v>       0.01388889 </v>
   <v>       0.01388889 </v>
   <v>       0.01388889 </v>
   <v>       0.01388889 </v>
   <v>       0.01388889 </v>
   <v>       0.01388889 </v>
   <v>       0.01388889 </v>
   <v>       0.01388889 </v>
   <v>       0.01388889 </v>
   <v>       0.01388889 </v>
   <v>       0.01388889 </v>
   <v>       0.01388889 </v>
   <v>       0.00694444 </v>
   <v>       0.00694444 </v>
   <v>       0.00694444 </v>
   <v>       0.01388889 </v>
   <v>       0.01388889 </v>
   <v>       0.01388889 </v>
   <v>       0.01388889 </v>
   <v>       0.01388889 </v>
   <v>       0.01388889 </v>
   <v>       0.01388889 </v>
   <v>       0.01388889 </v>
   <v>       0.01388889 </v>
   <v>       0.01388889 </v>
   <v>       0.01388889 </v>
   <v>       0.01388889 </v>
   <v>       0.01388889 </v>
   <v>       0.01388889 </v>
   <v>       0.01388889 </v>
   <v>       0.01388889 </v>
   <v>       0.01388889 </v>
   <v>       0.01388889 </v>
   <v>       0.01388889 </v>
   <v>       0.01388889 </v>
   <v>       0.01388889 </v>
   <v>       0.01388889 </v>
   <v>       0.01388889 </v>
   <v>       0.01388889 </v>
   <v>       0.01388889 </v>
   <v>       0.01388889 </v>
   <v>       0.01388889 </v>
   <v>       0.01388889 </v>
   <v>       0.01388889 </v>
   <v>       0.01388889 </v>
   <v>       0.01388889 </v>
   <v>       0.01388889 </v>
   <v>       0.01388889 </v>
   <v>       0.01388889 </v>
   <v>       0.01388889 </v>
   <v>       0.01388889 </v>
   <v>       0.01388889 </v>
   <v>       0.01388889 </v>
   <v>       0.01388889 </v>
   <v>       0.01388889 </v>
   <v>       0.01388889 </v>
   <v>       0.01388889 </v>
   <v>       0.01388889 </v>
   <v>       0.01388889 </v>
   <v>       0.01388889 </v>
   <v>       0.01388889 </v>
   <v>       0.01388889 </v>
   <v>       0.01388889 </v>
   <v>       0.01388889 </v>
   <v>       0.01388889 </v>
   <v>       0.01388889 </v>
   <v>       0.01388889 </v>
   <v>       0.01388889 </v>
   <v>       0.01388889 </v>
   <v>       0.01388889 </v>
  </varray>
 </kpoints>
 <parameters>
  <separator name="general" >
   <i type="string" name="SYSTEM">Lattice</i>
   <i type="logical" name="LCOMPAT"> F  </i>
  </separator>
  <separator name="electronic" >
   <i type="string" name="PREC">accura</i>
   <i name="ENMAX">    450.00000000</i>
   <i name="ENAUG">    644.87300000</i>
   <i name="EDIFF">      0.00000100</i>
   <i type="int" name="IALGO">    38</i>
   <i type="int" name="IWAVPR">    11</i>
   <i type="int" name="NBANDS">    48</i>
   <i type="int" name="NBANDSLOW">    -1</i>
   <i type="int" name="NBANDSHIGH">    -1</i>
   <i name="NELECT">     56.00000000</i>
   <i type="int" name="TURBO">     0</i>
   <i type="int" name="IRESTART">     0</i>
   <i type="int" name="NREBOOT">     0</i>
   <i type="int" name="NMIN">     0</i>
   <i name="EREF">      0.00000000</i>
   <separator name="electronic smearing" >
    <i type="int" name="ISMEAR">     0</i>
    <i name="SIGMA">      0.10000000</i>
    <i name="KSPACING">      0.50000000</i>
    <i type="logical" name="KGAMMA"> T  </i>
    <i type="logical" name="KBLOWUP"> T  </i>
   </separator>
   <separator name="electronic projectors" >
    <i type="logical" name="LREAL"> F  </i>
    <v name="ROPT">      0.00000000      0.00000000</v>
    <i type="int" name="LMAXPAW">  -100</i>
    <i type="int" name="LMAXMIX">     2</i>
    <i type="logical" name="NLSPLINE"> F  </i>
   </separator>
   <separator name="electronic startup" >
    <i type="int" name="ISTART">     0</i>
    <i type="int" name="ICHARG">     2</i>
    <i type="int" name="INIWAV">     1</i>
   </separator>
   <separator name="electronic spin" >
    <i type="int" name="ISPIN">     2</i>
    <i type="logical" name="LNONCOLLINEAR"> F  </i>
    <v name="MAGMOM">      1.00000000      1.00000000      1.00000000      1.00000000      1.00000000      1.00000000      1.00000000      1.00000000      1.00000000      1.00000000      1.00000000      1.00000000      1.00000000      1.00000000      1.00000000</v>
    <i name="NUPDOWN">     -1.00000000</i>
    <i type="logical" name="LSORBIT"> F  </i>
    <v name="SAXIS">      0.00000000      0.00000000      1.00000000</v>
    <i type="logical" name="LSPIRAL"> F  </i>
    <v name="QSPIRAL">      0.00000000      0.00000000      0.00000000</v>
    <i type="logical" name="LZEROZ"> F  </i>
   </separator>
   <separator name="electronic exchange-correlation" >
    <i type="logical" name="LASPH"> F  </i>
    <i type="logical" name="LMETAGGA"> F  </i>
   </separator>
   <separator name="electronic convergence" >
    <i type="int" name="NELM">    64</i>
    <i type="int" name="NELMDL">    -5</i>
    <i type="int" name="NELMIN">     2</i>
    <i name="ENINI">    450.00000000</i>
    <separator name="electronic convergence detail" >
     <i type="logical" name="LDIAG"> T  </i>
     <i type="logical" name="LSUBROT"> F  </i>
     <i name="WEIMIN">      0.00100000</i>
     <i name="EBREAK">      0.00000001</i>
     <i name="DEPER">      0.30000000</i>
     <i type="int" name="NRMM">     4</i>
     <i name="TIME">      0.40000000</i>
    </separator>
   </separator>
   <separator name="electronic mixer" >
    <i name="AMIX">      0.40000000</i>
    <i name="BMIX">      1.00000000</i>
    <i name="AMIN">      0.10000000</i>
    <i name="AMIX_MAG">      1.60000000</i>
    <i name="BMIX_MAG">      1.00000000</i>
    <separator name="electronic mixer details" >
     <i type="int" name="IMIX">     4</i>
     <i type="logical" name="MIXFIRST"> F  </i>
     <i type="int" name="MAXMIX">   -45</i>
     <i name="WC">    100.00000000</i>
     <i type="int" name="INIMIX">     1</i>
     <i type="int" name="MIXPRE">     1</i>
     <i type="int" name="MREMOVE">     5</i>
    </separator>
   </separator>
   <separator name="electronic dipolcorrection" >
    <i type="logical" name="LDIPOL"> F  </i>
    <i type="logical" name="LMONO"> F  </i>
    <i type="int" name="IDIPOL">     0</i>
    <i name="EPSILON">      1.00000000</i>
    <v name="DIPOL">   -100.00000000   -100.00000000   -100.00000000</v>
    <i name="EFIELD">      0.00000000</i>
   </separator>
  </separator>
  <separator name="grids" >
   <i type="int" name="NGX">    36</i>
   <i type="int" name="NGY">    36</i>
   <i type="int" name="NGZ">   108</i>
   <i type="int" name="NGXF">    72</i>
   <i type="int" name="NGYF">    72</i>
   <i type="int" name="NGZF">   216</i>
   <i type="logical" name="ADDGRID"> F  </i>
  </separator>
  <separator name="ionic" >
   <i type="int" name="NSW">   128</i>
   <i type="int" name="IBRION">     2</i>
   <i type="int" name="MDALGO">     0</i>
   <i type="int" name="ISIF">     2</i>
   <i name="PSTRESS">      0.00000000</i>
   <i name="EDIFFG">     -0.00100000</i>
   <i type="int" name="NFREE">     1</i>
   <i name="POTIM">      0.50000000</i>
   <i name="SMASS">     -3.00000000</i>
   <i name="SCALEE">      1.00000000</i>
  </separator>
  <separator name="ionic md" >
   <i name="TEBEG">      0.00010000</i>
   <i name="TEEND">      0.00010000</i>
   <i type="int" name="NBLOCK">     1</i>
   <i type="int" name="KBLOCK">   128</i>
   <i type="int" name="NPACO">   256</i>
   <i name="APACO">     10.00000000</i>
  </separator>
  <separator name="symmetry" >
   <i type="int" name="ISYM">     2</i>
   <i name="SYMPREC">      0.00001000</i>
  </separator>
  <separator name="dos" >
   <i type="int" name="LORBIT">     0</i>
   <v name="RWIGS">     -1.00000000     -1.00000000</v>
   <i type="int" name="NEDOS">   301</i>
   <i name="EMIN">     10.00000000</i>
   <i name="EMAX">    -10.00000000</i>
   <i name="EFERMI">      0.00000000</i>
  </separator>
  <separator name="writing" >
   <i type="int" name="NWRITE">     2</i>
   <i type="logical" name="LWAVE"> F  </i>
   <i type="logical" name="LDOWNSAMPLE"> F  </i>
   <i type="logical" name="LCHARG"> F  </i>
   <i type="logical" name="LPARD"> F  </i>
   <i type="logical" name="LVTOT"> F  </i>
   <i type="logical" name="LVHAR"> F  </i>
   <i type="logical" name="LELF"> F  </i>
   <i type="logical" name="LOPTICS"> F  </i>
   <v name="STM">      0.00000000      0.00000000      0.00000000      0.00000000      0.00000000      0.00000000      0.00000000</v>
  </separator>
  <separator name="performance" >
   <i type="int" name="NPAR">    48</i>
   <i type="int" name="NSIM">     4</i>
   <i type="int" name="NBLK">    -1</i>
   <i type="logical" name="LPLANE"> T  </i>
   <i type="logical" name="LSCALAPACK"> T  </i>
   <i type="logical" name="LSCAAWARE"> F  </i>
   <i type="logical" name="LSCALU"> F  </i>
   <i type="logical" name="LASYNC"> F  </i>
   <i type="logical" name="LORBITALREAL"> F  </i>
  </separator>
  <separator name="miscellaneous" >
   <i type="int" name="IDIOT">     3</i>
   <i type="int" name="PHON_NSTRUCT">    -1</i>
   <i type="logical" name="LMUSIC"> F  </i>
   <v name="POMASS">     10.81100000     12.01100000</v>
   <v name="DARWINR">      0.00000000      0.00000000</v>
   <v name="DARWINV">      1.00000000      1.00000000</v>
   <i type="logical" name="LCORR"> T  </i>
  </separator>
  <i type="logical" name="GGA_COMPAT"> T  </i>
  <i type="logical" name="LBERRY"> F  </i>
  <i type="int" name="ICORELEVEL">     0</i>
  <i type="logical" name="LDAU"> F  </i>
  <i type="int" name="I_CONSTRAINED_M">     0</i>
  <separator name="electronic exchange-correlation" >
   <i type="string" name="GGA">PE</i>
   <i type="int" name="VOSKOWN">     0</i>
   <i type="logical" name="LHFCALC"> F  </i>
   <i type="string" name="PRECFOCK"></i>
   <i type="logical" name="LSYMGRAD"> F  </i>
   <i type="logical" name="LHFONE"> F  </i>
   <i type="logical" name="LRHFCALC"> F  </i>
   <i type="logical" name="LTHOMAS"> F  </i>
   <i type="logical" name="LMODELHF"> F  </i>
   <i type="logical" name="LFOCKACE"> F  </i>
   <i name="ENCUT4O">     -1.00000000</i>
   <i type="int" name="EXXOEP">     0</i>
   <i type="int" name="FOURORBIT">     0</i>
   <i name="AEXX">      0.00000000</i>
   <i name="HFALPHA">      0.00000000</i>
   <i name="MCALPHA">      0.00000000</i>
   <i name="ALDAX">      1.00000000</i>
   <i name="AGGAX">      1.00000000</i>
   <i name="ALDAC">      1.00000000</i>
   <i name="AGGAC">      1.00000000</i>
   <i type="int" name="NKREDX">     1</i>
   <i type="int" name="NKREDY">     1</i>
   <i type="int" name="NKREDZ">     1</i>
   <i type="logical" name="SHIFTRED"> F  </i>
   <i type="logical" name="ODDONLY"> F  </i>
   <i type="logical" name="EVENONLY"> F  </i>
   <i type="int" name="LMAXFOCK">     0</i>
   <i type="int" name="NMAXFOCKAE">     0</i>
   <i type="logical" name="LFOCKAEDFT"> F  </i>
   <i name="HFSCREEN">      0.00000000</i>
   <i name="HFSCREENC">      0.00000000</i>
   <i type="int" name="NBANDSGWLOW">     0</i>
  </separator>
  <separator name="vdW DFT" >
   <i type="logical" name="LUSE_VDW"> F  </i>
   <i name="Zab_VDW">     -0.84910000</i>
   <i name="PARAM1">      0.12340000</i>
   <i name="PARAM2">      1.00000000</i>
   <i name="PARAM3">      0.00000000</i>
  </separator>
  <separator name="model GW" >
   <i type="int" name="MODEL_GW">     0</i>
   <i name="MODEL_EPS0">     11.87237690</i>
   <i name="MODEL_ALPHA">      1.00000000</i>
  </separator>
  <separator name="linear response parameters" >
   <i type="logical" name="LEPSILON"> F  </i>
   <i type="logical" name="LRPA"> F  </i>
   <i type="logical" name="LNABLA"> F  </i>
   <i type="logical" name="LVEL"> F  </i>
   <i name="CSHIFT">      0.10000000</i>
   <i name="OMEGAMAX">     -1.00000000</i>
   <i name="DEG_THRESHOLD">      0.00200000</i>
   <i name="RTIME">     -0.10000000</i>
   <i name="WPLASMAI">      0.00000000</i>
   <v name="DFIELD">      0.00000000      0.00000000      0.00000000</v>
   <v name="WPLASMA">      0.00000000      0.00000000      0.00000000      0.00000000      0.00000000      0.00000000      0.00000000      0.00000000      0.00000000</v>
  </separator>
  <separator name="orbital magnetization" >
   <i type="logical" name="NUCIND"> F  </i>
   <v name="MAGPOS">      0.00000000      0.00000000      0.00000000</v>
   <i type="logical" name="LNICSALL"> T  </i>
   <i type="logical" name="ORBITALMAG"> F  </i>
   <i type="logical" name="LMAGBLOCH"> F  </i>
   <i type="logical" name="LCHIMAG"> F  </i>
   <i type="logical" name="LGAUGE"> T  </i>
   <i type="int" name="MAGATOM">     0</i>
   <v name="MAGDIPOL">      0.00000000      0.00000000      0.00000000</v>
   <v name="AVECCONST">      0.00000000      0.00000000      0.00000000</v>
  </separator>
  <separator name="response functions" >
   <i type="logical" name="LFINITE_TEMPERATURE"> F  </i>
   <i type="logical" name="LADDER"> F  </i>
   <i type="logical" name="LRPAFORCE"> F  </i>
   <i type="logical" name="LFXC"> F  </i>
   <i type="logical" name="LHARTREE"> T  </i>
   <i type="int" name="IBSE">     0</i>
   <v type="int" name="KPOINT">    -1     0     0     0</v>
   <i type="logical" name="LTCTC"> F  </i>
   <i type="logical" name="LTCTE"> F  </i>
   <i type="logical" name="LTETE"> F  </i>
   <i type="logical" name="LTRIPLET"> F  </i>
   <i type="logical" name="LFXCEPS"> F  </i>
   <i type="logical" name="LFXHEG"> F  </i>
   <i type="int" name="NATURALO">     2</i>
   <i type="logical" name="LHOLEGF"> F  </i>
   <i type="logical" name="L2ORDER"> F  </i>
   <i type="logical" name="LDMP1"> F  </i>
   <i type="logical" name="LMP2LT"> F  </i>
   <i type="logical" name="LSMP2LT"> F  </i>
   <i type="logical" name="LGWLF"> F  </i>
   <i name="ENCUTGW">     -2.00000000</i>
   <i name="ENCUTGWSOFT">     -2.00000000</i>
   <i name="ENCUTLF">     -1.00000000</i>
   <i type="logical" name="LESF_SPLINES"> F  </i>
   <i type="int" name="LMAXMP2">    -1</i>
   <i name="SCISSOR">      0.00000000</i>
   <i type="int" name="NOMEGA">     0</i>
   <i type="int" name="NOMEGAR">     0</i>
   <i type="int" name="NBANDSGW">    -1</i>
   <i type="int" name="NBANDSO">    -1</i>
   <i type="int" name="NBANDSV">    -1</i>
   <i type="int" name="NELMGW">     1</i>
   <i type="int" name="NELMHF">     1</i>
   <i type="int" name="DIM">     3</i>
   <i type="int" name="IESPILON">     4</i>
   <i type="int" name="ANTIRES">     0</i>
   <i name="OMEGAMAX">    -30.00000000</i>
   <i name="OMEGAMIN">    -30.00000000</i>
   <i name="OMEGATL">   -200.00000000</i>
   <i type="int" name="OMEGAGRID">     0</i>
   <i name="CSHIFT">     -0.10000000</i>
   <i type="logical" name="LSELFENERGY"> F  </i>
   <i type="logical" name="LSPECTRAL"> F  </i>
   <i type="logical" name="LSPECTRALGW"> F  </i>
   <i type="logical" name="LSINGLES"> F  </i>
   <i type="logical" name="LFERMIGW"> F  </i>
   <i type="logical" name="ODDONLYGW"> F  </i>
   <i type="logical" name="EVENONLYGW"> F  </i>
   <i type="int" name="NKREDLFX">     1</i>
   <i type="int" name="NKREDLFY">     1</i>
   <i type="int" name="NKREDLFZ">     1</i>
   <i type="int" name="MAXMEM">  2800</i>
   <i type="int" name="TELESCOPE">     0</i>
   <i type="int" name="NTAUPAR">    -1</i>
   <i type="int" name="NOMEGAPAR">    -1</i>
   <i name="DAMP_NEWTON">      0.80000001</i>
   <i name="LAMBDA">      1.00000000</i>
  </separator>
  <separator name="External order field" >
   <i name="OFIELD_KAPPA">      0.00000000</i>
   <v name="OFIELD_K">      0.00000000      0.00000000      0.00000000</v>
   <i name="OFIELD_Q6_NEAR">      0.00000000</i>
   <i name="OFIELD_Q6_FAR">      0.00000000</i>
   <i name="OFIELD_A">      0.00000000</i>
  </separator>
  <separator name="optional k-points parameters" >
   <i type="int" name="KPOINTS_OPT_MODE">     1</i>
   <i type="logical" name="LKPOINTS_OPT"> F  </i>
  </separator>
  <separator name="solvation model" >
   <i type="logical" name="LSOL"> F  </i>
  </separator>
 </parameters>
 <atominfo>
  <atoms>      15 </atoms>
  <types>       2 </types>
  <array name="atoms" >
   <dimension dim="1">ion</dimension>
   <field type="string">element</field>
   <field type="int">atomtype</field>
   <set>
    <rc><c>B </c><c>   1</c></rc>
    <rc><c>B </c><c>   1</c></rc>
    <rc><c>B </c><c>   1</c></rc>
    <rc><c>B </c><c>   1</c></rc>
    <rc><c>C </c><c>   2</c></rc>
    <rc><c>C </c><c>   2</c></rc>
    <rc><c>C </c><c>   2</c></rc>
    <rc><c>C </c><c>   2</c></rc>
    <rc><c>C </c><c>   2</c></rc>
    <rc><c>C </c><c>   2</c></rc>
    <rc><c>C </c><c>   2</c></rc>
    <rc><c>C </c><c>   2</c></rc>
    <rc><c>C </c><c>   2</c></rc>
    <rc><c>C </c><c>   2</c></rc>
    <rc><c>C </c><c>   2</c></rc>
   </set>
  </array>
  <array name="atomtypes" >
   <dimension dim="1">type</dimension>
   <field type="int">atomspertype</field>
   <field type="string">element</field>
   <field>mass</field>
   <field>valence</field>
   <field type="string">pseudopotential</field>
   <set>
    <rc><c>   4</c><c>B </c><c>     10.81100000</c><c>      3.00000000</c><c>  PAW_PBE B 06Sep2000                   </c></rc>
    <rc><c>  11</c><c>C </c><c>     12.01100000</c><c>      4.00000000</c><c>  PAW_PBE C 08Apr2002                   </c></rc>
   </set>
  </array>
 </atominfo>
 <structure name="initialpos" >
  <crystal>
   <varray name="basis" >
    <v>       4.13960143       2.39000000       0.00000000 </v>
    <v>      -4.13960143       2.39000000       0.00000000 </v>
    <v>       0.00000000       0.00000000      15.00000000 </v>
   </varray>
   <i name="volume">    296.80942254 </i>
   <varray name="rec_basis" >
    <v>       0.12078458       0.20920502       0.00000000 </v>
    <v>      -0.12078458       0.20920502       0.00000000 </v>
    <v>       0.00000000       0.00000000       0.06666667 </v>
   </varray>
  </crystal>
  <varray name="positions" >
   <v>       0.00415361       0.00267210       0.12034134 </v>
   <v>       0.35695335       0.00285503       0.09748893 </v>
   <v>       0.00423858       0.35550699       0.09749256 </v>
   <v>       0.65142295       0.65006557       0.09747688 </v>
   <v>       0.32808646       0.32671938       0.10030508 </v>
   <v>       0.68027775       0.00278085       0.10027562 </v>
   <v>       0.00416530       0.67883808       0.10026559 </v>
   <v>       0.16666600       0.33333300       0.33720000 </v>
   <v>       0.33333300       0.16666600       0.33720000 </v>
   <v>       0.16666600       0.83333300       0.33720000 </v>
   <v>       0.33333300       0.66666600       0.33720000 </v>
   <v>       0.66666600       0.33333300       0.33720000 </v>
   <v>       0.83333300       0.16666600       0.33720000 </v>
   <v>       0.66666600       0.83333300       0.33720000 </v>
   <v>       0.83333300       0.66666600       0.33720000 </v>
  </varray>
 </structure>
 <calculation>
  <scstep>
   <time name="dav">    5.49    5.55</time>
   <time name="total">    5.53    5.60</time>
   <energy>
    <i name="alphaZ">     59.92833613 </i>
    <i name="ewald">   4867.03862919 </i>
    <i name="hartreedc">  -6412.74585638 </i>
    <i name="XCdc">    176.38197378 </i>
    <i name="pawpsdc">   1365.87943566 </i>
    <i name="pawaedc">  -1368.52100941 </i>
    <i name="eentropy">     -0.01624744 </i>
    <i name="bandstr">   -386.42737668 </i>
    <i name="atom">   1903.26342058 </i>
    <i name="e_fr_energy">    204.78130543 </i>
    <i name="e_wo_entrp">    204.79755286 </i>
    <i name="e_0_energy">    204.78942915 </i>
   </energy>
  </scstep>
  <scstep>
   <time name="dav">    7.80    7.87</time>
   <time name="total">    7.80    7.87</time>
   <energy>
    <i name="e_fr_energy">   -117.31174287 </i>
    <i name="e_wo_entrp">   -117.30960025 </i>
    <i name="e_0_energy">   -117.31067156 </i>
   </energy>
  </scstep>
  <scstep>
   <time name="dav">   11.34   11.42</time>
   <time name="total">   11.34   11.43</time>
   <energy>
    <i name="e_fr_energy">   -130.35492932 </i>
    <i name="e_wo_entrp">   -130.35187345 </i>
    <i name="e_0_energy">   -130.35340138 </i>
   </energy>
  </scstep>
  <scstep>
   <time name="dav">    7.53    7.60</time>
   <time name="total">    7.53    7.60</time>
   <energy>
    <i name="e_fr_energy">   -130.37562859 </i>
    <i name="e_wo_entrp">   -130.37260506 </i>
    <i name="e_0_energy">   -130.37411683 </i>
   </energy>
  </scstep>
  <scstep>
   <time name="dav">   10.91   10.99</time>
   <time name="total">   11.17   11.27</time>
   <energy>
    <i name="e_fr_energy">   -130.37569489 </i>
    <i name="e_wo_entrp">   -130.37267138 </i>
    <i name="e_0_energy">   -130.37418313 </i>
   </energy>
  </scstep>
  <scstep>
   <time name="dav">   10.56   10.66</time>
   <time name="total">   10.86   10.97</time>
   <energy>
    <i name="e_fr_energy">    -92.26928898 </i>
    <i name="e_wo_entrp">    -92.26323732 </i>
    <i name="e_0_energy">    -92.26626315 </i>
   </energy>
  </scstep>
  <scstep>
   <time name="dav">    9.11    9.18</time>
   <time name="total">    9.41    9.49</time>
   <energy>
    <i name="e_fr_energy">   -100.75108257 </i>
    <i name="e_wo_entrp">   -100.74569765 </i>
    <i name="e_0_energy">   -100.74839011 </i>
   </energy>
  </scstep>
  <scstep>
   <time name="dav">   10.89   10.98</time>
   <time name="total">   11.18   11.28</time>
   <energy>
    <i name="e_fr_energy">   -110.35096095 </i>
    <i name="e_wo_entrp">   -110.35091203 </i>
    <i name="e_0_energy">   -110.35093649 </i>
   </energy>
  </scstep>
  <scstep>
   <time name="dav">    7.78    7.85</time>
   <time name="total">    8.07    8.15</time>
   <energy>
    <i name="e_fr_energy">   -117.01241147 </i>
    <i name="e_wo_entrp">   -117.01240782 </i>
    <i name="e_0_energy">   -117.01240964 </i>
   </energy>
  </scstep>
  <scstep>
   <time name="dav">   10.28   10.34</time>
   <time name="total">   10.58   10.65</time>
   <energy>
    <i name="e_fr_energy">   -123.21705339 </i>
    <i name="e_wo_entrp">   -123.21649082 </i>
    <i name="e_0_energy">   -123.21677211 </i>
   </energy>
  </scstep>
  <scstep>
   <time name="dav">    9.58    9.64</time>
   <time name="total">    9.88    9.95</time>
   <energy>
    <i name="e_fr_energy">   -125.09689148 </i>
    <i name="e_wo_entrp">   -125.09572821 </i>
    <i name="e_0_energy">   -125.09630985 </i>
   </energy>
  </scstep>
  <scstep>
   <time name="dav">    8.26    8.32</time>
   <time name="total">    8.56    8.62</time>
   <energy>
    <i name="e_fr_energy">   -125.26687030 </i>
    <i name="e_wo_entrp">   -125.26539696 </i>
    <i name="e_0_energy">   -125.26613363 </i>
   </energy>
  </scstep>
  <scstep>
   <time name="dav">    6.42    6.46</time>
   <time name="total">    6.71    6.77</time>
   <energy>
    <i name="e_fr_energy">   -125.29483211 </i>
    <i name="e_wo_entrp">   -125.29327168 </i>
    <i name="e_0_energy">   -125.29405190 </i>
   </energy>
  </scstep>
  <scstep>
   <time name="dav">    8.45    8.51</time>
   <time name="total">    8.74    8.81</time>
   <energy>
    <i name="e_fr_energy">   -125.31755201 </i>
    <i name="e_wo_entrp">   -125.31598567 </i>
    <i name="e_0_energy">   -125.31676884 </i>
   </energy>
  </scstep>
  <scstep>
   <time name="dav">    7.08    7.12</time>
   <time name="total">    7.37    7.42</time>
   <energy>
    <i name="e_fr_energy">   -125.32568099 </i>
    <i name="e_wo_entrp">   -125.32411382 </i>
    <i name="e_0_energy">   -125.32489740 </i>
   </energy>
  </scstep>
  <scstep>
   <time name="dav">    6.68    6.72</time>
   <time name="total">    6.97    7.02</time>
   <energy>
    <i name="e_fr_energy">   -125.32772572 </i>
    <i name="e_wo_entrp">   -125.32615853 </i>
    <i name="e_0_energy">   -125.32694213 </i>
   </energy>
  </scstep>
  <scstep>
   <time name="dav">    6.57    6.62</time>
   <time name="total">    6.86    6.92</time>
   <energy>
    <i name="e_fr_energy">   -125.32906623 </i>
    <i name="e_wo_entrp">   -125.32749906 </i>
    <i name="e_0_energy">   -125.32828265 </i>
   </energy>
  </scstep>
  <scstep>
   <time name="dav">    6.64    6.69</time>
   <time name="total">    6.93    6.99</time>
   <energy>
    <i name="e_fr_energy">   -125.32976955 </i>
    <i name="e_wo_entrp">   -125.32820239 </i>
    <i name="e_0_energy">   -125.32898597 </i>
   </energy>
  </scstep>
  <scstep>
   <time name="dav">    8.04    8.09</time>
   <time name="total">    8.33    8.40</time>
   <energy>
    <i name="e_fr_energy">   -125.33024245 </i>
    <i name="e_wo_entrp">   -125.32867527 </i>
    <i name="e_0_energy">   -125.32945886 </i>
   </energy>
  </scstep>
  <scstep>
   <time name="dav">    9.50    9.57</time>
   <time name="total">    9.79    9.87</time>
   <energy>
    <i name="e_fr_energy">   -125.33027825 </i>
    <i name="e_wo_entrp">   -125.32871106 </i>
    <i name="e_0_energy">   -125.32949465 </i>
   </energy>
  </scstep>
  <scstep>
   <time name="dav">    9.29    9.35</time>
   <time name="total">    9.57    9.65</time>
   <energy>
    <i name="e_fr_energy">   -125.33030944 </i>
    <i name="e_wo_entrp">   -125.32874225 </i>
    <i name="e_0_energy">   -125.32952584 </i>
   </energy>
  </scstep>
  <scstep>
   <time name="dav">    8.25    8.30</time>
   <time name="total">    8.54    8.61</time>
   <energy>
    <i name="e_fr_energy">   -125.33033194 </i>
    <i name="e_wo_entrp">   -125.32876475 </i>
    <i name="e_0_energy">   -125.32954834 </i>
   </energy>
  </scstep>
  <scstep>
   <time name="dav">    8.98    9.05</time>
   <time name="total">    9.27    9.34</time>
   <energy>
    <i name="e_fr_energy">   -125.33034982 </i>
    <i name="e_wo_entrp">   -125.32878263 </i>
    <i name="e_0_energy">   -125.32956623 </i>
   </energy>
  </scstep>
  <scstep>
   <time name="dav">    8.67    8.73</time>
   <time name="total">    8.96    9.02</time>
   <energy>
    <i name="e_fr_energy">   -125.33035354 </i>
    <i name="e_wo_entrp">   -125.32878634 </i>
    <i name="e_0_energy">   -125.32956994 </i>
   </energy>
  </scstep>
  <scstep>
   <time name="dav">    9.19    9.25</time>
   <time name="total">    9.48    9.55</time>
   <energy>
    <i name="e_fr_energy">   -125.33035456 </i>
    <i name="e_wo_entrp">   -125.32878736 </i>
    <i name="e_0_energy">   -125.32957096 </i>
   </energy>
  </scstep>
  <scstep>
   <time name="dav">    9.00    9.06</time>
   <time name="total">    9.04    9.11</time>
   <energy>
    <i name="alphaZ">     59.92833613 </i>
    <i name="ewald">   4867.03862919 </i>
    <i name="hartreedc">  -6628.87021186 </i>
    <i name="XCdc">    182.17013457 </i>
    <i name="pawpsdc">   6126.17656842 </i>
    <i name="pawaedc">  -6130.74164044 </i>
    <i name="eentropy">     -0.00156719 </i>
    <i name="bandstr">   -504.29402443 </i>
    <i name="atom">   1903.26342058 </i>
    <i name="e_fr_energy">   -125.33035504 </i>
    <i name="e_wo_entrp">   -125.32878785 </i>
    <i name="e_0_energy">   -125.32957145 </i>
   </energy>
  </scstep>
  <structure>
   <crystal>
    <varray name="basis" >
     <v>       4.13960143       2.39000000       0.00000000 </v>
     <v>      -4.13960143       2.39000000       0.00000000 </v>
     <v>       0.00000000       0.00000000      15.00000000 </v>
    </varray>
    <i name="volume">    296.80942254 </i>
    <varray name="rec_basis" >
     <v>       0.12078458       0.20920502       0.00000000 </v>
     <v>      -0.12078458       0.20920502       0.00000000 </v>
     <v>       0.00000000       0.00000000       0.06666667 </v>
    </varray>
   </crystal>
   <varray name="positions" >
    <v>       0.00415361       0.00267210       0.12034134 </v>
    <v>       0.35695335       0.00285503       0.09748893 </v>
    <v>       0.00423858       0.35550699       0.09749256 </v>
    <v>       0.65142295       0.65006557       0.09747688 </v>
    <v>       0.32808646       0.32671938       0.10030508 </v>
    <v>       0.68027775       0.00278085       0.10027562 </v>
    <v>       0.00416530       0.67883808       0.10026559 </v>
    <v>       0.16666600       0.33333300       0.33720000 </v>
    <v>       0.33333300       0.16666600       0.33720000 </v>
    <v>       0.16666600       0.83333300       0.33720000 </v>
    <v>       0.33333300       0.66666600       0.33720000 </v>
    <v>       0.66666600       0.33333300       0.33720000 </v>
    <v>       0.83333300       0.16666600       0.33720000 </v>
    <v>       0.66666600       0.83333300       0.33720000 </v>
    <v>       0.83333300       0.66666600       0.33720000 </v>
   </varray>
  </structure>
  <varray name="forces" >
   <v>      -0.00486524       0.00632783      -0.27390323 </v>
   <v>      -0.04630183      -0.03257079       0.07185655 </v>
   <v>       0.04571190      -0.03143031       0.07168407 </v>
   <v>       0.00310301       0.05444758       0.07406742 </v>
   <v>       0.00351433      -0.20096459       0.00087976 </v>
   <v>       0.17219269       0.10171592       0.00376305 </v>
   <v>      -0.17289923       0.10379896       0.00469053 </v>
   <v>      -0.01338849       0.00183718       0.01673573 </v>
   <v>       0.01318564       0.00201123       0.01703958 </v>
   <v>       0.00875110       0.00962548       0.01757654 </v>
   <v>      -0.00039002       0.00039446      -0.02773475 </v>
   <v>       0.00061034       0.00017623      -0.02773954 </v>
   <v>      -0.00875285       0.00937531       0.01756186 </v>
   <v>       0.00445981      -0.01226756       0.01690732 </v>
   <v>      -0.00493115      -0.01247694       0.01661511 </v>
  </varray>
  <varray name="stress" >
   <v>      65.77782312       0.00848248      -0.01718306 </v>
   <v>       0.00848245      65.77394665      -0.01324023 </v>
   <v>      -0.01718308      -0.01324025      -1.75018380 </v>
  </varray>
  <energy>
   <i name="e_fr_energy">   -126.92184344 </i>
   <i name="e_wo_entrp">   -126.92027625 </i>
   <i name="e_0_energy">   -126.92105985 </i>
  </energy>
  <time name="totalsc">  233.06  234.99</time>
 </calculation>
 <calculation>
  <scstep>
   <time name="dav">    5.50    5.54</time>
   <time name="total">    5.79    5.84</time>
   <energy>
    <i name="alphaZ">     59.92833613 </i>
    <i name="ewald">   4868.61738364 </i>
    <i name="hartreedc">  -6629.59680228 </i>
    <i name="XCdc">    182.21895806 </i>
    <i name="pawpsdc">   6126.18447103 </i>
    <i name="pawaedc">  -6130.74954480 </i>
    <i name="eentropy">     -0.00156719 </i>
    <i name="bandstr">   -505.19869714 </i>
    <i name="atom">   1903.26342058 </i>
    <i name="e_fr_energy">   -125.33404199 </i>
    <i name="e_wo_entrp">   -125.33247480 </i>
    <i name="e_0_energy">   -125.33325839 </i>
   </energy>
  </scstep>
  <scstep>
   <time name="dav">   11.06   11.13</time>
   <time name="total">   11.34   11.43</time>
   <energy>
    <i name="e_fr_energy">   -125.33104274 </i>
    <i name="e_wo_entrp">   -125.32947555 </i>
    <i name="e_0_energy">   -125.33025914 </i>
   </energy>
  </scstep>
  <scstep>
   <time name="dav">    8.41    8.46</time>
   <time name="total">    8.69    8.76</time>
   <energy>
    <i name="e_fr_energy">   -125.33070372 </i>
    <i name="e_wo_entrp">   -125.32913653 </i>
    <i name="e_0_energy">   -125.32992013 </i>
   </energy>
  </scstep>
  <scstep>
   <time name="dav">   10.66   10.72</time>
   <time name="total">   10.94   11.01</time>
   <energy>
    <i name="e_fr_energy">   -125.33069313 </i>
    <i name="e_wo_entrp">   -125.32912594 </i>
    <i name="e_0_energy">   -125.32990953 </i>
   </energy>
  </scstep>
  <scstep>
   <time name="dav">    9.76    9.82</time>
   <time name="total">   10.05   10.12</time>
   <energy>
    <i name="e_fr_energy">   -125.33069488 </i>
    <i name="e_wo_entrp">   -125.32912768 </i>
    <i name="e_0_energy">   -125.32991128 </i>
   </energy>
  </scstep>
  <scstep>
   <time name="dav">    9.49    9.55</time>
   <time name="total">    9.53    9.60</time>
   <energy>
    <i name="alphaZ">     59.92833613 </i>
    <i name="ewald">   4868.61738364 </i>
    <i name="hartreedc">  -6630.01680088 </i>
    <i name="XCdc">    182.22836411 </i>
    <i name="pawpsdc">   6143.07531380 </i>
    <i name="pawaedc">  -6147.64567183 </i>
    <i name="eentropy">     -0.00156719 </i>
    <i name="bandstr">   -504.77947344 </i>
    <i name="atom">   1903.26342058 </i>
    <i name="e_fr_energy">   -125.33069508 </i>
    <i name="e_wo_entrp">   -125.32912789 </i>
    <i name="e_0_energy">   -125.32991149 </i>
   </energy>
  </scstep>
  <structure>
   <crystal>
    <varray name="basis" >
     <v>       4.13960143       2.39000000       0.00000000 </v>
     <v>      -4.13960143       2.39000000       0.00000000 </v>
     <v>       0.00000000       0.00000000      15.00000000 </v>
    </varray>
    <i name="volume">    296.80942254 </i>
    <varray name="rec_basis" >
     <v>       0.12078458       0.20920502       0.00000000 </v>
     <v>      -0.12078458       0.20920502       0.00000000 </v>
     <v>       0.00000000       0.00000000       0.06666667 </v>
    </varray>
   </crystal>
   <varray name="positions" >
    <v>       0.00418912       0.00276432       0.11946042 </v>
    <v>       0.35635483       0.00279611       0.09772004 </v>
    <v>       0.00418772       0.35492342       0.09772311 </v>
    <v>       0.65199055       0.65059701       0.09771509 </v>
    <v>       0.32607868       0.32467064       0.10030791 </v>
    <v>       0.68230769       0.00280407       0.10028772 </v>
    <v>       0.00420542       0.68089316       0.10028067 </v>
    <v>       0.16660653       0.33342956       0.33725383 </v>
    <v>       0.33343013       0.16660947       0.33725480 </v>
    <v>       0.16681414       0.83337915       0.33725653 </v>
    <v>       0.33333471       0.66667225       0.33711080 </v>
    <v>       0.66667134       0.33333122       0.33711078 </v>
    <v>       0.83337662       0.16681162       0.33725648 </v>
    <v>       0.66656818       0.83318320       0.33725438 </v>
    <v>       0.83317834       0.66656881       0.33725344 </v>
   </varray>
  </structure>
  <varray name="forces" >
   <v>      -0.00066266      -0.00186823      -0.13218115 </v>
   <v>       0.18106974       0.10341420       0.04330078 </v>
   <v>      -0.18215497       0.10576258       0.04310134 </v>
   <v>       0.00122306      -0.20200776       0.04495331 </v>
   <v>      -0.00001079       0.39150035      -0.01664693 </v>
   <v>      -0.33665046      -0.19800945      -0.01443706 </v>
   <v>       0.33758524      -0.19764917      -0.01400901 </v>
   <v>       0.05806196      -0.00646602       0.00887590 </v>
   <v>      -0.05791770      -0.00705911       0.00897464 </v>
   <v>      -0.03657213      -0.04491284       0.00912387 </v>
   <v>       0.00157139      -0.00215577      -0.00392127 </v>
   <v>      -0.00284196      -0.00130179      -0.00391716 </v>
   <v>       0.03606800      -0.04388618       0.00910288 </v>
   <v>      -0.02233590       0.05193767       0.00887869 </v>
   <v>       0.02356717       0.05270151       0.00880119 </v>
  </varray>
  <varray name="stress" >
   <v>      67.40914789       0.00056556      -0.01000679 </v>
   <v>       0.00056554      67.39357792      -0.02836316 </v>
   <v>      -0.01000680      -0.02836313      -1.51485229 </v>
  </varray>
  <energy>
   <i name="e_fr_energy">   -126.92178876 </i>
   <i name="e_wo_entrp">   -126.92022157 </i>
   <i name="e_0_energy">   -126.92100517 </i>
  </energy>
  <time name="totalsc">   60.93   61.38</time>
 </calculation>
 <calculation>
  <scstep>
   <time name="dav">    5.46    5.50</time>
   <time name="total">    5.75    5.80</time>
   <energy>
    <i name="alphaZ">     59.92833613 </i>
    <i name="ewald">   4867.81375706 </i>
    <i name="hartreedc">  -6629.64445813 </i>
    <i name="XCdc">    182.20344809 </i>
    <i name="pawpsdc">   6143.07818090 </i>
    <i name="pawaedc">  -6147.64852544 </i>
    <i name="eentropy">     -0.00156719 </i>
    <i name="bandstr">   -504.32670728 </i>
    <i name="atom">   1903.26342058 </i>
    <i name="e_fr_energy">   -125.33411528 </i>
    <i name="e_wo_entrp">   -125.33254809 </i>
    <i name="e_0_energy">   -125.33333169 </i>
   </energy>
  </scstep>
  <scstep>
   <time name="dav">   10.47   10.54</time>
   <time name="total">   10.76   10.84</time>
   <energy>
    <i name="e_fr_energy">   -125.33333957 </i>
    <i name="e_wo_entrp">   -125.33177237 </i>
    <i name="e_0_energy">   -125.33255597 </i>
   </energy>
  </scstep>
  <scstep>
   <time name="dav">    9.66    9.72</time>
   <time name="total">    9.96   10.03</time>
   <energy>
    <i name="e_fr_energy">   -125.33325729 </i>
    <i name="e_wo_entrp">   -125.33169010 </i>
    <i name="e_0_energy">   -125.33247369 </i>
   </energy>
  </scstep>
  <scstep>
   <time name="dav">    8.96    9.03</time>
   <time name="total">    9.25    9.33</time>
   <energy>
    <i name="e_fr_energy">   -125.33325497 </i>
    <i name="e_wo_entrp">   -125.33168778 </i>
    <i name="e_0_energy">   -125.33247138 </i>
   </energy>
  </scstep>
  <scstep>
   <time name="dav">    8.54    8.59</time>
   <time name="total">    8.57    8.62</time>
   <energy>
    <i name="alphaZ">     59.92833613 </i>
    <i name="ewald">   4867.81375706 </i>
    <i name="hartreedc">  -6629.44442385 </i>
    <i name="XCdc">    182.19873880 </i>
    <i name="pawpsdc">   6134.39229130 </i>
    <i name="pawaedc">  -6138.95988678 </i>
    <i name="eentropy">     -0.00156719 </i>
    <i name="bandstr">   -504.52392143 </i>
    <i name="atom">   1903.26342058 </i>
    <i name="e_fr_energy">   -125.33325538 </i>
    <i name="e_wo_entrp">   -125.33168819 </i>
    <i name="e_0_energy">   -125.33247179 </i>
   </energy>
  </scstep>
  <structure>
   <crystal>
    <varray name="basis" >
     <v>       4.13960143       2.39000000       0.00000000 </v>
     <v>      -4.13960143       2.39000000       0.00000000 </v>
     <v>       0.00000000       0.00000000      15.00000000 </v>
    </varray>
    <i name="volume">    296.80942254 </i>
    <varray name="rec_basis" >
     <v>       0.12078458       0.20920502       0.00000000 </v>
     <v>      -0.12078458       0.20920502       0.00000000 </v>
     <v>       0.00000000       0.00000000       0.06666667 </v>
    </varray>
   </crystal>
   <varray name="positions" >
    <v>       0.00417127       0.00271797       0.11990315 </v>
    <v>       0.35665563       0.00282572       0.09760389 </v>
    <v>       0.00421328       0.35521671       0.09760724 </v>
    <v>       0.65170529       0.65032992       0.09759537 </v>
    <v>       0.32708775       0.32570029       0.10030649 </v>
    <v>       0.68128749       0.00279240       0.10028164 </v>
    <v>       0.00418526       0.67986032       0.10027309 </v>
    <v>       0.16663642       0.33338103       0.33722677 </v>
    <v>       0.33338132       0.16663788       0.33722726 </v>
    <v>       0.16673969       0.83335596       0.33722812 </v>
    <v>       0.33333385       0.66666911       0.33715563 </v>
    <v>       0.66666865       0.33333212       0.33715562 </v>
    <v>       0.83335470       0.16673844       0.33722810 </v>
    <v>       0.66661734       0.83325849       0.33722705 </v>
    <v>       0.83325607       0.66661765       0.33722658 </v>
   </varray>
  </structure>
  <varray name="forces" >
   <v>      -0.00286696       0.00239856      -0.20280566 </v>
   <v>       0.06759325       0.03546974       0.05759291 </v>
   <v>      -0.06846053       0.03720268       0.05740716 </v>
   <v>       0.00218033      -0.07406104       0.05952885 </v>
   <v>       0.00180490       0.09234610      -0.00794654 </v>
   <v>      -0.07982539      -0.04665400      -0.00541533 </v>
   <v>       0.08001102      -0.04546227      -0.00475877 </v>
   <v>       0.02204216      -0.00234804       0.01283325 </v>
   <v>      -0.02207385      -0.00255567       0.01303591 </v>
   <v>      -0.01378105      -0.01738115       0.01338026 </v>
   <v>       0.00057951      -0.00087230      -0.01593389 </v>
   <v>      -0.00110240      -0.00055921      -0.01593422 </v>
   <v>       0.01352615      -0.01699644       0.01336208 </v>
   <v>      -0.00876791       0.01959829       0.01291994 </v>
   <v>       0.00914077       0.01987476       0.01273405 </v>
  </varray>
  <varray name="stress" >
   <v>      66.54783735       0.00429331      -0.01370795 </v>
   <v>       0.00429329      66.53634053      -0.02051679 </v>
   <v>      -0.01370798      -0.02051679      -1.62113872 </v>
  </varray>
  <energy>
   <i name="e_fr_energy">   -126.92454730 </i>
   <i name="e_wo_entrp">   -126.92298011 </i>
   <i name="e_0_energy">   -126.92376370 </i>
  </energy>
  <time name="totalsc">   48.88   49.24</time>
 </calculation>
 <calculation>
  <scstep>
   <time name="dav">    5.45    5.49</time>
   <time name="total">    5.74    5.79</time>
   <energy>
    <i name="alphaZ">     59.92833613 </i>
    <i name="ewald">   4867.33552501 </i>
    <i name="hartreedc">  -6628.73997580 </i>
    <i name="XCdc">    182.21420744 </i>
    <i name="pawpsdc">   6134.37606059 </i>
    <i name="pawaedc">  -6138.94365665 </i>
    <i name="eentropy">     -0.00156719 </i>
    <i name="bandstr">   -504.76945175 </i>
    <i name="atom">   1903.26342058 </i>
    <i name="e_fr_energy">   -125.33710166 </i>
    <i name="e_wo_entrp">   -125.33553447 </i>
    <i name="e_0_energy">   -125.33631806 </i>
   </energy>
  </scstep>
  <scstep>
   <time name="dav">   11.27   11.34</time>
   <time name="total">   11.56   11.64</time>
   <energy>
    <i name="e_fr_energy">   -125.33713048 </i>
    <i name="e_wo_entrp">   -125.33556329 </i>
    <i name="e_0_energy">   -125.33634688 </i>
   </energy>
  </scstep>
  <scstep>
   <time name="dav">    7.93    7.98</time>
   <time name="total">    8.22    8.28</time>
   <energy>
    <i name="e_fr_energy">   -125.33712419 </i>
    <i name="e_wo_entrp">   -125.33555700 </i>
    <i name="e_0_energy">   -125.33634059 </i>
   </energy>
  </scstep>
  <scstep>
   <time name="dav">   10.82   10.89</time>
   <time name="total">   11.11   11.19</time>
   <energy>
    <i name="e_fr_energy">   -125.33712495 </i>
    <i name="e_wo_entrp">   -125.33555776 </i>
    <i name="e_0_energy">   -125.33634136 </i>
   </energy>
  </scstep>
  <scstep>
   <time name="dav">    9.39    9.45</time>
   <time name="total">    9.43    9.49</time>
   <energy>
    <i name="alphaZ">     59.92833613 </i>
    <i name="ewald">   4867.33552501 </i>
    <i name="hartreedc">  -6628.74067405 </i>
    <i name="XCdc">    182.21413277 </i>
    <i name="pawpsdc">   6139.26643132 </i>
    <i name="pawaedc">  -6143.83570200 </i>
    <i name="eentropy">     -0.00156719 </i>
    <i name="bandstr">   -504.76702784 </i>
    <i name="atom">   1903.26342058 </i>
    <i name="e_fr_energy">   -125.33712527 </i>
    <i name="e_wo_entrp">   -125.33555808 </i>
    <i name="e_0_energy">   -125.33634167 </i>
   </energy>
  </scstep>
  <structure>
   <crystal>
    <varray name="basis" >
     <v>       4.13960143       2.39000000       0.00000000 </v>
     <v>      -4.13960143       2.39000000       0.00000000 </v>
     <v>       0.00000000       0.00000000      15.00000000 </v>
    </varray>
    <i name="volume">    296.80942254 </i>
    <varray name="rec_basis" >
     <v>       0.12078458       0.20920502       0.00000000 </v>
     <v>      -0.12078458       0.20920502       0.00000000 </v>
     <v>       0.00000000       0.00000000       0.06666667 </v>
    </varray>
   </crystal>
   <varray name="positions" >
    <v>       0.00419194       0.00279092       0.11897114 </v>
    <v>       0.35709729       0.00277035       0.09786109 </v>
    <v>       0.00417226       0.35568450       0.09786369 </v>
    <v>       0.65126687       0.64985447       0.09786096 </v>
    <v>       0.32714851       0.32572608       0.10028461 </v>
    <v>       0.68124128       0.00279636       0.10027072 </v>
    <v>       0.00420763       0.67983382       0.10026524 </v>
    <v>       0.16670732       0.33328203       0.33728500 </v>
    <v>       0.33328049       0.16670821       0.33728645 </v>
    <v>       0.16656774       0.83328849       0.33728899 </v>
    <v>       0.33332964       0.66666061       0.33707457 </v>
    <v>       0.66665989       0.33333212       0.33707455 </v>
    <v>       0.83328839       0.16657033       0.33728889 </v>
    <v>       0.66671095       0.83342364       0.33728574 </v>
    <v>       0.83342378       0.66671207       0.33728437 </v>
   </varray>
  </structure>
  <varray name="forces" >
   <v>       0.00093723      -0.00158266      -0.18361132 </v>
   <v>       0.03100516       0.01890701       0.03214368 </v>
   <v>      -0.03078483       0.02014910       0.03205453 </v>
   <v>       0.00015294      -0.03396830       0.03294411 </v>
   <v>      -0.00119941       0.09131755       0.01331786 </v>
   <v>      -0.07630889      -0.04685222       0.01497679 </v>
   <v>       0.07659777      -0.04679652       0.01529036 </v>
   <v>      -0.05572162       0.00011894       0.00472196 </v>
   <v>       0.05563746       0.00037526       0.00472370 </v>
   <v>       0.03041915       0.04722661       0.00468989 </v>
   <v>      -0.00202953       0.00106402       0.00736212 </v>
   <v>       0.00256165       0.00041075       0.00736732 </v>
   <v>      -0.03029241       0.04633797       0.00467450 </v>
   <v>       0.02736905      -0.04810802       0.00466417 </v>
   <v>      -0.02834372      -0.04859950       0.00468035 </v>
  </varray>
  <varray name="stress" >
   <v>      66.97594499      -0.00041993      -0.00712869 </v>
   <v>      -0.00041994      66.98901878      -0.02702277 </v>
   <v>      -0.00712870      -0.02702272      -1.64175158 </v>
  </varray>
  <energy>
   <i name="e_fr_energy">   -126.92819471 </i>
   <i name="e_wo_entrp">   -126.92662752 </i>
   <i name="e_0_energy">   -126.92741112 </i>
  </energy>
  <time name="totalsc">   50.64   51.01</time>
 </calculation>
 <calculation>
  <scstep>
   <time name="dav">    5.47    5.50</time>
   <time name="total">    5.76    5.81</time>
   <energy>
    <i name="alphaZ">     59.92833613 </i>
    <i name="ewald">   4865.99660196 </i>
    <i name="hartreedc">  -6626.92598039 </i>
    <i name="XCdc">    182.24631827 </i>
    <i name="pawpsdc">   6139.29734860 </i>
    <i name="pawaedc">  -6143.86663845 </i>
    <i name="eentropy">     -0.00156714 </i>
    <i name="bandstr">   -505.27896793 </i>
    <i name="atom">   1903.26342058 </i>
    <i name="e_fr_energy">   -125.34112839 </i>
    <i name="e_wo_entrp">   -125.33956125 </i>
    <i name="e_0_energy">   -125.34034482 </i>
   </energy>
  </scstep>
  <scstep>
   <time name="dav">   10.41   10.49</time>
   <time name="total">   10.70   10.78</time>
   <energy>
    <i name="e_fr_energy">   -125.34132911 </i>
    <i name="e_wo_entrp">   -125.33976196 </i>
    <i name="e_0_energy">   -125.34054553 </i>
   </energy>
  </scstep>
  <scstep>
   <time name="dav">    8.03    8.09</time>
   <time name="total">    8.33    8.40</time>
   <energy>
    <i name="e_fr_energy">   -125.34128675 </i>
    <i name="e_wo_entrp">   -125.33971960 </i>
    <i name="e_0_energy">   -125.34050317 </i>
   </energy>
  </scstep>
  <scstep>
   <time name="dav">   11.55   11.63</time>
   <time name="total">   11.84   11.93</time>
   <energy>
    <i name="e_fr_energy">   -125.34128962 </i>
    <i name="e_wo_entrp">   -125.33972247 </i>
    <i name="e_0_energy">   -125.34050604 </i>
   </energy>
  </scstep>
  <scstep>
   <time name="dav">    9.11    9.17</time>
   <time name="total">    9.40    9.47</time>
   <energy>
    <i name="e_fr_energy">   -125.34129114 </i>
    <i name="e_wo_entrp">   -125.33972399 </i>
    <i name="e_0_energy">   -125.34050757 </i>
   </energy>
  </scstep>
  <scstep>
   <time name="dav">   10.02   10.09</time>
   <time name="total">   10.05   10.12</time>
   <energy>
    <i name="alphaZ">     59.92833613 </i>
    <i name="ewald">   4865.99660196 </i>
    <i name="hartreedc">  -6626.91977208 </i>
    <i name="XCdc">    182.24607141 </i>
    <i name="pawpsdc">   6149.60824089 </i>
    <i name="pawaedc">  -6154.18115302 </i>
    <i name="eentropy">     -0.00156715 </i>
    <i name="bandstr">   -505.28146981 </i>
    <i name="atom">   1903.26342058 </i>
    <i name="e_fr_energy">   -125.34129111 </i>
    <i name="e_wo_entrp">   -125.33972396 </i>
    <i name="e_0_energy">   -125.34050754 </i>
   </energy>
  </scstep>
  <structure>
   <crystal>
    <varray name="basis" >
     <v>       4.13960143       2.39000000       0.00000000 </v>
     <v>      -4.13960143       2.39000000       0.00000000 </v>
     <v>       0.00000000       0.00000000      15.00000000 </v>
    </varray>
    <i name="volume">    296.80942254 </i>
    <varray name="rec_basis" >
     <v>       0.12078458       0.20920502       0.00000000 </v>
     <v>      -0.12078458       0.20920502       0.00000000 </v>
     <v>       0.00000000       0.00000000       0.06666667 </v>
    </varray>
   </crystal>
   <varray name="positions" >
    <v>       0.00424009       0.00296083       0.11680030 </v>
    <v>       0.35812601       0.00264137       0.09846016 </v>
    <v>       0.00407671       0.35677410       0.09846101 </v>
    <v>       0.65024571       0.64874706       0.09847957 </v>
    <v>       0.32729005       0.32578615       0.10023364 </v>
    <v>       0.68113366       0.00280557       0.10024528 </v>
    <v>       0.00425975       0.67977208       0.10024695 </v>
    <v>       0.16687246       0.33305145       0.33742061 </v>
    <v>       0.33304566       0.16687203       0.33742433 </v>
    <v>       0.16616723       0.83313135       0.33743076 </v>
    <v>       0.33331983       0.66664080       0.33688576 </v>
    <v>       0.66663948       0.33333213       0.33688573 </v>
    <v>       0.83313396       0.16617877       0.33743050 </v>
    <v>       0.66692900       0.83380831       0.33742244 </v>
    <v>       0.83381441       0.66693200       0.33741896 </v>
   </varray>
  </structure>
  <varray name="forces" >
   <v>       0.01013658      -0.01144136      -0.15217336 </v>
   <v>      -0.06240795      -0.02477720      -0.02310737 </v>
   <v>       0.06461101      -0.02460268      -0.02294247 </v>
   <v>      -0.00441847       0.06876854      -0.02490319 </v>
   <v>      -0.00776311       0.08207525       0.06290568 </v>
   <v>      -0.06153436      -0.04330537       0.06262140 </v>
   <v>       0.06174993      -0.04567318       0.06220742 </v>
   <v>      -0.23819808       0.00701991      -0.01409066 </v>
   <v>       0.23797279       0.00836127      -0.01454727 </v>
   <v>       0.13496007       0.19825422      -0.01548528 </v>
   <v>      -0.00807953       0.00555533       0.06175375 </v>
   <v>       0.01104673       0.00265128       0.06177252 </v>
   <v>      -0.13391199       0.19433812      -0.01550525 </v>
   <v>       0.11111283      -0.20743686      -0.01449751 </v>
   <v>      -0.11527644      -0.20978727      -0.01400840 </v>
  </varray>
  <varray name="stress" >
   <v>      67.93592174      -0.00921377       0.00622059 </v>
   <v>      -0.00921380      67.99729758      -0.03918415 </v>
   <v>       0.00622058      -0.03918416      -1.69628957 </v>
  </varray>
  <energy>
   <i name="e_fr_energy">   -126.93183749 </i>
   <i name="e_wo_entrp">   -126.93027034 </i>
   <i name="e_0_energy">   -126.93105391 </i>
  </energy>
  <time name="totalsc">   60.68   61.16</time>
 </calculation>
 <calculation>
  <scstep>
   <time name="dav">    5.70    5.73</time>
   <time name="total">    5.98    6.03</time>
   <energy>
    <i name="alphaZ">     59.92833613 </i>
    <i name="ewald">   4865.80969574 </i>
    <i name="hartreedc">  -6626.67415332 </i>
    <i name="XCdc">    182.24975537 </i>
    <i name="pawpsdc">   6149.60581910 </i>
    <i name="pawaedc">  -6154.17873371 </i>
    <i name="eentropy">     -0.00156717 </i>
    <i name="bandstr">   -505.34511993 </i>
    <i name="atom">   1903.26342058 </i>
    <i name="e_fr_energy">   -125.34254722 </i>
    <i name="e_wo_entrp">   -125.34098005 </i>
    <i name="e_0_energy">   -125.34176364 </i>
   </energy>
  </scstep>
  <scstep>
   <time name="dav">   10.50   10.57</time>
   <time name="total">   10.79   10.87</time>
   <energy>
    <i name="e_fr_energy">   -125.34254716 </i>
    <i name="e_wo_entrp">   -125.34097998 </i>
    <i name="e_0_energy">   -125.34176357 </i>
   </energy>
  </scstep>
  <scstep>
   <time name="dav">    7.73    7.79</time>
   <time name="total">    8.02    8.10</time>
   <energy>
    <i name="e_fr_energy">   -125.34254345 </i>
    <i name="e_wo_entrp">   -125.34097628 </i>
    <i name="e_0_energy">   -125.34175987 </i>
   </energy>
  </scstep>
  <scstep>
   <time name="dav">   11.25   11.33</time>
   <time name="total">   11.29   11.36</time>
   <energy>
    <i name="alphaZ">     59.92833613 </i>
    <i name="ewald">   4865.80969574 </i>
    <i name="hartreedc">  -6626.67082200 </i>
    <i name="XCdc">    182.24946370 </i>
    <i name="pawpsdc">   6150.60932297 </i>
    <i name="pawaedc">  -6155.18263303 </i>
    <i name="eentropy">     -0.00156717 </i>
    <i name="bandstr">   -505.34776074 </i>
    <i name="atom">   1903.26342058 </i>
    <i name="e_fr_energy">   -125.34254382 </i>
    <i name="e_wo_entrp">   -125.34097665 </i>
    <i name="e_0_energy">   -125.34176024 </i>
   </energy>
  </scstep>
  <structure>
   <crystal>
    <varray name="basis" >
     <v>       4.13960143       2.39000000       0.00000000 </v>
     <v>      -4.13960143       2.39000000       0.00000000 </v>
     <v>       0.00000000       0.00000000      15.00000000 </v>
    </varray>
    <i name="volume">    296.80942254 </i>
    <varray name="rec_basis" >
     <v>       0.12078458       0.20920502       0.00000000 </v>
     <v>      -0.12078458       0.20920502       0.00000000 </v>
     <v>       0.00000000       0.00000000       0.06666667 </v>
    </varray>
   </crystal>
   <varray name="positions" >
    <v>       0.00424265       0.00297141       0.11649680 </v>
    <v>       0.35821747       0.00263217       0.09853096 </v>
    <v>       0.00407262       0.35687254       0.09853161 </v>
    <v>       0.65015858       0.64865226       0.09855246 </v>
    <v>       0.32735635       0.32584780       0.10023976 </v>
    <v>       0.68107086       0.00280187       0.10025455 </v>
    <v>       0.00426004       0.67971349       0.10025703 </v>
    <v>       0.16681169       0.33311276       0.33743488 </v>
    <v>       0.33310719       0.16681202       0.33743878 </v>
    <v>       0.16628941       0.83318677       0.33744551 </v>
    <v>       0.33331915       0.66664469       0.33687430 </v>
    <v>       0.66664255       0.33332980       0.33687427 </v>
    <v>       0.83318765       0.16629925       0.33744523 </v>
    <v>       0.66686690       0.83368700       0.33743676 </v>
    <v>       0.83369088       0.66687016       0.33743311 </v>
   </varray>
  </structure>
  <varray name="forces" >
   <v>       0.01063390      -0.01156671      -0.14726609 </v>
   <v>      -0.06976686      -0.02825753      -0.02714637 </v>
   <v>       0.07218711      -0.02850988      -0.02693680 </v>
   <v>      -0.00488326       0.07627929      -0.02922709 </v>
   <v>      -0.00809139       0.07085359       0.06597164 </v>
   <v>      -0.05223291      -0.03754559       0.06539990 </v>
   <v>       0.05252762      -0.04022423       0.06490806 </v>
   <v>      -0.18105967       0.00854884      -0.01563520 </v>
   <v>       0.18078393       0.00971377      -0.01613151 </v>
   <v>       0.10509514       0.14828595      -0.01712692 </v>
   <v>      -0.00594145       0.00451466       0.06595859 </v>
   <v>       0.00838067       0.00218964       0.06597756 </v>
   <v>      -0.10427391       0.14527894      -0.01714602 </v>
   <v>       0.08100745      -0.15886102      -0.01606378 </v>
   <v>      -0.08436636      -0.16069973      -0.01553595 </v>
  </varray>
  <varray name="stress" >
   <v>      68.04740126      -0.01029845       0.00668943 </v>
   <v>      -0.01029843      68.09185881      -0.03870534 </v>
   <v>       0.00668941      -0.03870533      -1.70253482 </v>
  </varray>
  <energy>
   <i name="e_fr_energy">   -126.93301600 </i>
   <i name="e_wo_entrp">   -126.93144883 </i>
   <i name="e_0_energy">   -126.93223242 </i>
  </energy>
  <time name="totalsc">   40.71   41.02</time>
 </calculation>
 <calculation>
  <scstep>
   <time name="dav">    5.44    5.48</time>
   <time name="total">    5.73    5.78</time>
   <energy>
    <i name="alphaZ">     59.92833613 </i>
    <i name="ewald">   4865.21855848 </i>
    <i name="hartreedc">  -6625.91654425 </i>
    <i name="XCdc">    182.26016847 </i>
    <i name="pawpsdc">   6150.72881130 </i>
    <i name="pawaedc">  -6155.30214129 </i>
    <i name="eentropy">     -0.00156719 </i>
    <i name="bandstr">   -505.52400185 </i>
    <i name="atom">   1903.26342058 </i>
    <i name="e_fr_energy">   -125.34495962 </i>
    <i name="e_wo_entrp">   -125.34339243 </i>
    <i name="e_0_energy">   -125.34417602 </i>
   </energy>
  </scstep>
  <scstep>
   <time name="dav">   10.34   10.42</time>
   <time name="total">   10.64   10.72</time>
   <energy>
    <i name="e_fr_energy">   -125.34495970 </i>
    <i name="e_wo_entrp">   -125.34339251 </i>
    <i name="e_0_energy">   -125.34417610 </i>
   </energy>
  </scstep>
  <scstep>
   <time name="dav">    7.72    7.78</time>
   <time name="total">    8.01    8.08</time>
   <energy>
    <i name="e_fr_energy">   -125.34492584 </i>
    <i name="e_wo_entrp">   -125.34335865 </i>
    <i name="e_0_energy">   -125.34414224 </i>
   </energy>
  </scstep>
  <scstep>
   <time name="dav">   10.60   10.68</time>
   <time name="total">   10.89   10.98</time>
   <energy>
    <i name="e_fr_energy">   -125.34492817 </i>
    <i name="e_wo_entrp">   -125.34336098 </i>
    <i name="e_0_energy">   -125.34414457 </i>
   </energy>
  </scstep>
  <scstep>
   <time name="dav">    7.73    7.78</time>
   <time name="total">    7.76    7.81</time>
   <energy>
    <i name="alphaZ">     59.92833613 </i>
    <i name="ewald">   4865.21855848 </i>
    <i name="hartreedc">  -6625.93028595 </i>
    <i name="XCdc">    182.25953452 </i>
    <i name="pawpsdc">   6154.13803463 </i>
    <i name="pawaedc">  -6158.71261579 </i>
    <i name="eentropy">     -0.00156719 </i>
    <i name="bandstr">   -505.50834398 </i>
    <i name="atom">   1903.26342058 </i>
    <i name="e_fr_energy">   -125.34492858 </i>
    <i name="e_wo_entrp">   -125.34336139 </i>
    <i name="e_0_energy">   -125.34414498 </i>
   </energy>
  </scstep>
  <structure>
   <crystal>
    <varray name="basis" >
     <v>       4.13960143       2.39000000       0.00000000 </v>
     <v>      -4.13960143       2.39000000       0.00000000 </v>
     <v>       0.00000000       0.00000000      15.00000000 </v>
    </varray>
    <i name="volume">    296.80942254 </i>
    <varray name="rec_basis" >
     <v>       0.12078458       0.20920502       0.00000000 </v>
     <v>      -0.12078458       0.20920502       0.00000000 </v>
     <v>       0.00000000       0.00000000       0.06666667 </v>
    </varray>
   </crystal>
   <varray name="positions" >
    <v>       0.00425035       0.00300313       0.11558629 </v>
    <v>       0.35849186       0.00260458       0.09874333 </v>
    <v>       0.00406036       0.35716785       0.09874342 </v>
    <v>       0.64989718       0.64836786       0.09877114 </v>
    <v>       0.32755525       0.32603275       0.10025810 </v>
    <v>       0.68088243       0.00279076       0.10028236 </v>
    <v>       0.00426093       0.67953772       0.10028729 </v>
    <v>       0.16662938       0.33329669       0.33747766 </v>
    <v>       0.33329178       0.16663197       0.33748214 </v>
    <v>       0.16665595       0.83335304       0.33748979 </v>
    <v>       0.33331712       0.66665637       0.33683991 </v>
    <v>       0.66665177       0.33332282       0.33683988 </v>
    <v>       0.83334873       0.16666070       0.33748943 </v>
    <v>       0.66668060       0.83332308       0.33747971 </v>
    <v>       0.83332030       0.66668467       0.33747555 </v>
   </varray>
  </structure>
  <varray name="forces" >
   <v>       0.01213651      -0.01197253      -0.13442859 </v>
   <v>      -0.09315169      -0.03939329      -0.03900084 </v>
   <v>       0.09618583      -0.04096961      -0.03866514 </v>
   <v>      -0.00627619       0.10021437      -0.04191007 </v>
   <v>      -0.00901293       0.03610036       0.07547616 </v>
   <v>      -0.02330302      -0.01968551       0.07409493 </v>
   <v>       0.02378289      -0.02329066       0.07339359 </v>
   <v>      -0.01202110       0.01346839      -0.02033099 </v>
   <v>       0.01158965       0.01410548      -0.02094436 </v>
   <v>       0.01694568       0.00025322      -0.02210674 </v>
   <v>       0.00047805       0.00139663       0.07875022 </v>
   <v>       0.00038759       0.00079866       0.07876930 </v>
   <v>      -0.01676754      -0.00007787      -0.02211824 </v>
   <v>      -0.00847589      -0.01529354      -0.02080920 </v>
   <v>       0.00750216      -0.01565412      -0.02017003 </v>
  </varray>
  <varray name="stress" >
   <v>      68.38814958      -0.01325566       0.00803238 </v>
   <v>      -0.01325565      68.38133117      -0.03714198 </v>
   <v>       0.00803242      -0.03714198      -1.73791464 </v>
  </varray>
  <energy>
   <i name="e_fr_energy">   -126.93517217 </i>
   <i name="e_wo_entrp">   -126.93360498 </i>
   <i name="e_0_energy">   -126.93438858 </i>
  </energy>
  <time name="totalsc">   47.64   48.00</time>
 </calculation>
 <calculation>
  <scstep>
   <time name="dav">    5.44    5.48</time>
   <time name="total">    5.73    5.78</time>
   <energy>
    <i name="alphaZ">     59.92833613 </i>
    <i name="ewald">   4863.89800195 </i>
    <i name="hartreedc">  -6624.31503676 </i>
    <i name="XCdc">    182.27867485 </i>
    <i name="pawpsdc">   6154.32532324 </i>
    <i name="pawaedc">  -6158.89991482 </i>
    <i name="eentropy">     -0.00156700 </i>
    <i name="bandstr">   -505.82104426 </i>
    <i name="atom">   1903.26342058 </i>
    <i name="e_fr_energy">   -125.34380610 </i>
    <i name="e_wo_entrp">   -125.34223910 </i>
    <i name="e_0_energy">   -125.34302260 </i>
   </energy>
  </scstep>
  <scstep>
   <time name="dav">   10.44   10.51</time>
   <time name="total">   10.73   10.81</time>
   <energy>
    <i name="e_fr_energy">   -125.34381142 </i>
    <i name="e_wo_entrp">   -125.34224440 </i>
    <i name="e_0_energy">   -125.34302791 </i>
   </energy>
  </scstep>
  <scstep>
   <time name="dav">    7.77    7.82</time>
   <time name="total">    8.06    8.12</time>
   <energy>
    <i name="e_fr_energy">   -125.34367005 </i>
    <i name="e_wo_entrp">   -125.34210302 </i>
    <i name="e_0_energy">   -125.34288653 </i>
   </energy>
  </scstep>
  <scstep>
   <time name="dav">   11.34   11.41</time>
   <time name="total">   11.64   11.72</time>
   <energy>
    <i name="e_fr_energy">   -125.34367867 </i>
    <i name="e_wo_entrp">   -125.34211164 </i>
    <i name="e_0_energy">   -125.34289515 </i>
   </energy>
  </scstep>
  <scstep>
   <time name="dav">    8.50    8.56</time>
   <time name="total">    8.79    8.86</time>
   <energy>
    <i name="e_fr_energy">   -125.34368012 </i>
    <i name="e_wo_entrp">   -125.34211309 </i>
    <i name="e_0_energy">   -125.34289661 </i>
   </energy>
  </scstep>
  <scstep>
   <time name="dav">   10.33   10.39</time>
   <time name="total">   10.37   10.43</time>
   <energy>
    <i name="alphaZ">     59.92833613 </i>
    <i name="ewald">   4863.89800195 </i>
    <i name="hartreedc">  -6624.36264265 </i>
    <i name="XCdc">    182.27780187 </i>
    <i name="pawpsdc">   6160.88262693 </i>
    <i name="pawaedc">  -6165.45962299 </i>
    <i name="eentropy">     -0.00156703 </i>
    <i name="bandstr">   -505.77003436 </i>
    <i name="atom">   1903.26342058 </i>
    <i name="e_fr_energy">   -125.34367959 </i>
    <i name="e_wo_entrp">   -125.34211255 </i>
    <i name="e_0_energy">   -125.34289607 </i>
   </energy>
  </scstep>
  <structure>
   <crystal>
    <varray name="basis" >
     <v>       4.13960143       2.39000000       0.00000000 </v>
     <v>      -4.13960143       2.39000000       0.00000000 </v>
     <v>       0.00000000       0.00000000      15.00000000 </v>
    </varray>
    <i name="volume">    296.80942254 </i>
    <varray name="rec_basis" >
     <v>       0.12078458       0.20920502       0.00000000 </v>
     <v>      -0.12078458       0.20920502       0.00000000 </v>
     <v>       0.00000000       0.00000000       0.06666667 </v>
    </varray>
   </crystal>
   <varray name="positions" >
    <v>       0.00426575       0.00306659       0.11376528 </v>
    <v>       0.35904064       0.00254939       0.09916808 </v>
    <v>       0.00403583       0.35775849       0.09916703 </v>
    <v>       0.64937439       0.64779907       0.09920849 </v>
    <v>       0.32795306       0.32640266       0.10029478 </v>
    <v>       0.68050559       0.00276856       0.10033797 </v>
    <v>       0.00426270       0.67918618       0.10034780 </v>
    <v>       0.16626475       0.33366454       0.33756323 </v>
    <v>       0.33366096       0.16627186       0.33756887 </v>
    <v>       0.16738904       0.83368557       0.33757834 </v>
    <v>       0.33331305       0.66667973       0.33677113 </v>
    <v>       0.66667022       0.33330886       0.33677111 </v>
    <v>       0.83367090       0.16738359       0.33757783 </v>
    <v>       0.66630800       0.83259523       0.33756561 </v>
    <v>       0.83257912       0.66631368       0.33756045 </v>
   </varray>
  </structure>
  <varray name="forces" >
   <v>       0.01517019      -0.01280126      -0.11623382 </v>
   <v>      -0.14585959      -0.06521925      -0.06038199 </v>
   <v>       0.15004960      -0.06937097      -0.05980797 </v>
   <v>      -0.00899697       0.15498166      -0.06487400 </v>
   <v>      -0.01079039      -0.03917211       0.09452460 </v>
   <v>       0.03969291       0.01894937       0.09155577 </v>
   <v>      -0.03891994       0.01357894       0.09043427 </v>
   <v>       0.31923299       0.02370526      -0.02954366 </v>
   <v>      -0.32000014       0.02328967      -0.03039143 </v>
   <v>      -0.15572348      -0.28997165      -0.03185243 </v>
   <v>       0.01346830      -0.00491604       0.10387336 </v>
   <v>      -0.01577489      -0.00201835       0.10389281 </v>
   <v>       0.15474185      -0.28510718      -0.03184315 </v>
   <v>      -0.18451990       0.26584127      -0.03010439 </v>
   <v>       0.18822946       0.26823065      -0.02924799 </v>
  </varray>
  <varray name="stress" >
   <v>      69.09435182      -0.01864589       0.00991283 </v>
   <v>      -0.01864589      68.98202409      -0.03360224 </v>
   <v>       0.00991283      -0.03360226      -1.81425499 </v>
  </varray>
  <energy>
   <i name="e_fr_energy">   -126.93343372 </i>
   <i name="e_wo_entrp">   -126.93186669 </i>
   <i name="e_0_energy">   -126.93265021 </i>
  </energy>
  <time name="totalsc">   59.90   60.33</time>
 </calculation>
 <calculation>
  <scstep>
   <time name="dav">    5.44    5.48</time>
   <time name="total">    5.74    5.79</time>
   <energy>
    <i name="alphaZ">     59.92833613 </i>
    <i name="ewald">   4864.86179702 </i>
    <i name="hartreedc">  -6625.53270459 </i>
    <i name="XCdc">    182.26481505 </i>
    <i name="pawpsdc">   6160.92688169 </i>
    <i name="pawaedc">  -6165.50387679 </i>
    <i name="eentropy">     -0.00156718 </i>
    <i name="bandstr">   -505.55255248 </i>
    <i name="atom">   1903.26342058 </i>
    <i name="e_fr_energy">   -125.34545057 </i>
    <i name="e_wo_entrp">   -125.34388339 </i>
    <i name="e_0_energy">   -125.34466698 </i>
   </energy>
  </scstep>
  <scstep>
   <time name="dav">   10.82   10.89</time>
   <time name="total">   11.11   11.19</time>
   <energy>
    <i name="e_fr_energy">   -125.34544676 </i>
    <i name="e_wo_entrp">   -125.34387958 </i>
    <i name="e_0_energy">   -125.34466317 </i>
   </energy>
  </scstep>
  <scstep>
   <time name="dav">    8.34    8.40</time>
   <time name="total">    8.64    8.70</time>
   <energy>
    <i name="e_fr_energy">   -125.34537391 </i>
    <i name="e_wo_entrp">   -125.34380674 </i>
    <i name="e_0_energy">   -125.34459032 </i>
   </energy>
  </scstep>
  <scstep>
   <time name="dav">    8.87    8.94</time>
   <time name="total">    9.16    9.24</time>
   <energy>
    <i name="e_fr_energy">   -125.34537847 </i>
    <i name="e_wo_entrp">   -125.34381129 </i>
    <i name="e_0_energy">   -125.34459488 </i>
   </energy>
  </scstep>
  <scstep>
   <time name="dav">    7.73    7.79</time>
   <time name="total">    8.03    8.09</time>
   <energy>
    <i name="e_fr_energy">   -125.34537951 </i>
    <i name="e_wo_entrp">   -125.34381233 </i>
    <i name="e_0_energy">   -125.34459592 </i>
   </energy>
  </scstep>
  <scstep>
   <time name="dav">    9.10    9.16</time>
   <time name="total">    9.14    9.20</time>
   <energy>
    <i name="alphaZ">     59.92833613 </i>
    <i name="ewald">   4864.86179702 </i>
    <i name="hartreedc">  -6625.50423903 </i>
    <i name="XCdc">    182.26485045 </i>
    <i name="pawpsdc">   6156.30522121 </i>
    <i name="pawaedc">  -6160.88049388 </i>
    <i name="eentropy">     -0.00156717 </i>
    <i name="bandstr">   -505.58270485 </i>
    <i name="atom">   1903.26342058 </i>
    <i name="e_fr_energy">   -125.34537956 </i>
    <i name="e_wo_entrp">   -125.34381239 </i>
    <i name="e_0_energy">   -125.34459597 </i>
   </energy>
  </scstep>
  <structure>
   <crystal>
    <varray name="basis" >
     <v>       4.13960143       2.39000000       0.00000000 </v>
     <v>      -4.13960143       2.39000000       0.00000000 </v>
     <v>       0.00000000       0.00000000      15.00000000 </v>
    </varray>
    <i name="volume">    296.80942254 </i>
    <varray name="rec_basis" >
     <v>       0.12078458       0.20920502       0.00000000 </v>
     <v>      -0.12078458       0.20920502       0.00000000 </v>
     <v>       0.00000000       0.00000000       0.06666667 </v>
    </varray>
   </crystal>
   <varray name="positions" >
    <v>       0.00425473       0.00302118       0.11506833 </v>
    <v>       0.35864795       0.00258888       0.09886414 </v>
    <v>       0.00405338       0.35733585       0.09886391 </v>
    <v>       0.64974848       0.64820608       0.09889554 </v>
    <v>       0.32766840       0.32613797       0.10026853 </v>
    <v>       0.68077525       0.00278445       0.10029817 </v>
    <v>       0.00426143       0.67943773       0.10030450 </v>
    <v>       0.16652567       0.33340132       0.33750200 </v>
    <v>       0.33339679       0.16652954       0.33750681 </v>
    <v>       0.16686447       0.83344762       0.33751497 </v>
    <v>       0.33331596       0.66666302       0.33682034 </v>
    <v>       0.66665702       0.33331885       0.33682032 </v>
    <v>       0.83344037       0.16686632       0.33751457 </v>
    <v>       0.66657462       0.83311605       0.33750415 </v>
    <v>       0.83310948       0.66657915       0.33749970 </v>
   </varray>
  </structure>
  <varray name="forces" >
   <v>       0.01298652      -0.01220148      -0.12788141 </v>
   <v>      -0.10726035      -0.04622188      -0.04523353 </v>
   <v>       0.11062656      -0.04853218      -0.04482790 </v>
   <v>      -0.00705418       0.11477630      -0.04860237 </v>
   <v>      -0.00952430       0.01557257       0.08069999 </v>
   <v>      -0.00617082      -0.00914181       0.07886513 </v>
   <v>       0.00675764      -0.01326684       0.07803602 </v>
   <v>       0.08261823       0.01611025      -0.02299344 </v>
[...]
       <r>     2.8930     1.5730    30.8110 </r>
       <r>     3.0011     1.2479    30.9458 </r>
       <r>     3.1092     1.1642    31.0717 </r>
       <r>     3.2172     0.9205    31.1712 </r>
       <r>     3.3253     1.4214    31.3248 </r>
       <r>     3.4334     1.4241    31.4787 </r>
       <r>     3.5415     1.0902    31.5965 </r>
       <r>     3.6496     1.2975    31.7368 </r>
       <r>     3.7577     1.1657    31.8628 </r>
       <r>     3.8657     2.3663    32.1185 </r>
       <r>     3.9738     3.3250    32.4779 </r>
       <r>     4.0819     2.2578    32.7219 </r>
       <r>     4.1900     1.5724    32.8919 </r>
       <r>     4.2981     2.4410    33.1557 </r>
       <r>     4.4061     3.0679    33.4873 </r>
       <r>     4.5142     3.2323    33.8366 </r>
       <r>     4.6223     3.3984    34.2040 </r>
       <r>     4.7304     3.7958    34.6142 </r>
       <r>     4.8385     3.5896    35.0022 </r>
       <r>     4.9466     2.8818    35.3136 </r>
       <r>     5.0546     3.0111    35.6391 </r>
       <r>     5.1627     3.6706    36.0358 </r>
       <r>     5.2708     3.2491    36.3870 </r>
       <r>     5.3789     3.0859    36.7205 </r>
       <r>     5.4870     2.9720    37.0417 </r>
       <r>     5.5951     1.8541    37.2421 </r>
       <r>     5.7031     2.1792    37.4777 </r>
       <r>     5.8112     4.2405    37.9360 </r>
       <r>     5.9193     4.3933    38.4108 </r>
       <r>     6.0274     2.5758    38.6892 </r>
       <r>     6.1355     1.7258    38.8758 </r>
       <r>     6.2435     2.2930    39.1236 </r>
       <r>     6.3516     2.6192    39.4067 </r>
       <r>     6.4597     2.5938    39.6870 </r>
       <r>     6.5678     2.1316    39.9174 </r>
       <r>     6.6759     2.7665    40.2164 </r>
       <r>     6.7840     3.5586    40.6011 </r>
       <r>     6.8920     3.8507    41.0172 </r>
       <r>     7.0001     3.3857    41.3832 </r>
       <r>     7.1082     3.9789    41.8132 </r>
       <r>     7.2163     3.7226    42.2156 </r>
       <r>     7.3244     3.0567    42.5459 </r>
       <r>     7.4324     2.9376    42.8634 </r>
       <r>     7.5405     1.8132    43.0594 </r>
       <r>     7.6486     2.6356    43.3443 </r>
       <r>     7.7567     2.9797    43.6663 </r>
       <r>     7.8648     2.5140    43.9380 </r>
       <r>     7.9729     3.3039    44.2951 </r>
       <r>     8.0809     3.2978    44.6516 </r>
       <r>     8.1890     3.1233    44.9892 </r>
       <r>     8.2971     4.2111    45.4443 </r>
       <r>     8.4052     3.8833    45.8640 </r>
       <r>     8.5133     3.8493    46.2801 </r>
       <r>     8.6214     4.2762    46.7422 </r>
       <r>     8.7294     3.1475    47.0824 </r>
       <r>     8.8375     2.2436    47.3249 </r>
       <r>     8.9456     2.6368    47.6099 </r>
       <r>     9.0537     2.4693    47.8768 </r>
       <r>     9.1618     1.0060    47.9855 </r>
       <r>     9.2698     0.1304    47.9996 </r>
       <r>     9.3779     0.0034    48.0000 </r>
       <r>     9.4860     0.0000    48.0000 </r>
       <r>     9.5941     0.0000    48.0000 </r>
       <r>     9.7022     0.0000    48.0000 </r>
       <r>     9.8103     0.0000    48.0000 </r>
       <r>     9.9183     0.0000    48.0000 </r>
       <r>    10.0264     0.0000    48.0000 </r>
       <r>    10.1345     0.0000    48.0000 </r>
       <r>    10.2426     0.0000    48.0000 </r>
       <r>    10.3507     0.0000    48.0000 </r>
       <r>    10.4587     0.0000    48.0000 </r>
       <r>    10.5668     0.0000    48.0000 </r>
      </set>
      <set comment="spin 2">
       <r>   -21.8578     0.0000     0.0000 </r>
       <r>   -21.7497     0.0000     0.0000 </r>
       <r>   -21.6416     0.0000     0.0000 </r>
       <r>   -21.5336     0.0000     0.0000 </r>
       <r>   -21.4255     0.0000     0.0000 </r>
       <r>   -21.3174     0.0000     0.0000 </r>
       <r>   -21.2093     0.0000     0.0000 </r>
       <r>   -21.1012     0.0000     0.0000 </r>
       <r>   -20.9932     0.0000     0.0000 </r>
       <r>   -20.8851     0.0000     0.0000 </r>
       <r>   -20.7770     0.0000     0.0000 </r>
       <r>   -20.6689     0.0000     0.0000 </r>
       <r>   -20.5608     0.0008     0.0001 </r>
       <r>   -20.4527     0.0327     0.0036 </r>
       <r>   -20.3447     0.2459     0.0302 </r>
       <r>   -20.2366     0.5205     0.0864 </r>
       <r>   -20.1285     0.5626     0.1472 </r>
       <r>   -20.0204     0.6211     0.2144 </r>
       <r>   -19.9123     0.5141     0.2699 </r>
       <r>   -19.8042     0.6714     0.3425 </r>
       <r>   -19.6962     0.5410     0.4010 </r>
       <r>   -19.5881     0.5071     0.4558 </r>
       <r>   -19.4800     0.7572     0.5376 </r>
       <r>   -19.3719     0.5074     0.5925 </r>
       <r>   -19.2638     0.4458     0.6407 </r>
       <r>   -19.1558     0.7548     0.7222 </r>
       <r>   -19.0477     0.6822     0.7960 </r>
       <r>   -18.9396     0.4037     0.8396 </r>
       <r>   -18.8315     0.4604     0.8894 </r>
       <r>   -18.7234     0.8727     0.9837 </r>
       <r>   -18.6153     0.6237     1.0511 </r>
       <r>   -18.5073     0.4884     1.1039 </r>
       <r>   -18.3992     0.3545     1.1422 </r>
       <r>   -18.2911     0.7133     1.2193 </r>
       <r>   -18.1830     0.9024     1.3168 </r>
       <r>   -18.0749     0.5271     1.3738 </r>
       <r>   -17.9669     0.3630     1.4130 </r>
       <r>   -17.8588     0.4989     1.4669 </r>
       <r>   -17.7507     0.6686     1.5392 </r>
       <r>   -17.6426     0.9074     1.6373 </r>
       <r>   -17.5345     0.8494     1.7291 </r>
       <r>   -17.4264     1.0548     1.8431 </r>
       <r>   -17.3184     1.1902     1.9717 </r>
       <r>   -17.2103     1.7318     2.1589 </r>
       <r>   -17.1022     2.0496     2.3804 </r>
       <r>   -16.9941     2.2895     2.6279 </r>
       <r>   -16.8860     2.6795     2.9175 </r>
       <r>   -16.7779     1.8818     3.1209 </r>
       <r>   -16.6699     0.5001     3.1749 </r>
       <r>   -16.5618     0.5246     3.2316 </r>
       <r>   -16.4537     1.1526     3.3562 </r>
       <r>   -16.3456     0.7086     3.4328 </r>
       <r>   -16.2375     0.5392     3.4911 </r>
       <r>   -16.1295     0.4657     3.5414 </r>
       <r>   -16.0214     0.5181     3.5974 </r>
       <r>   -15.9133     0.3968     3.6403 </r>
       <r>   -15.8052     0.6720     3.7129 </r>
       <r>   -15.6971     1.1277     3.8348 </r>
       <r>   -15.5890     0.7655     3.9176 </r>
       <r>   -15.4810     0.4448     3.9656 </r>
       <r>   -15.3729     0.4408     4.0133 </r>
       <r>   -15.2648     0.4312     4.0599 </r>
       <r>   -15.1567     0.6937     4.1349 </r>
       <r>   -15.0486     1.2956     4.2749 </r>
       <r>   -14.9406     2.1092     4.5029 </r>
       <r>   -14.8325     2.5812     4.7818 </r>
       <r>   -14.7244     1.9930     4.9972 </r>
       <r>   -14.6163     1.6568     5.1763 </r>
       <r>   -14.5082     1.1943     5.3054 </r>
       <r>   -14.4001     1.2374     5.4391 </r>
       <r>   -14.2921     1.6801     5.6207 </r>
       <r>   -14.1840     2.1444     5.8525 </r>
       <r>   -14.0759     1.5888     6.0242 </r>
       <r>   -13.9678     1.5090     6.1873 </r>
       <r>   -13.8597     2.3056     6.4365 </r>
       <r>   -13.7516     2.2485     6.6795 </r>
       <r>   -13.6436     2.1849     6.9157 </r>
       <r>   -13.5355     1.7498     7.1048 </r>
       <r>   -13.4274     1.0268     7.2158 </r>
       <r>   -13.3193     0.4235     7.2616 </r>
       <r>   -13.2112     0.3705     7.3016 </r>
       <r>   -13.1032     0.6654     7.3735 </r>
       <r>   -12.9951     0.8801     7.4686 </r>
       <r>   -12.8870     0.7127     7.5457 </r>
       <r>   -12.7789     0.6776     7.6189 </r>
       <r>   -12.6708     0.7521     7.7002 </r>
       <r>   -12.5627     0.8092     7.7877 </r>
       <r>   -12.4547     0.7499     7.8687 </r>
       <r>   -12.3466     0.5788     7.9313 </r>
       <r>   -12.2385     0.4894     7.9842 </r>
       <r>   -12.1304     0.9468     8.0865 </r>
       <r>   -12.0223     0.7634     8.1690 </r>
       <r>   -11.9143     0.4184     8.2142 </r>
       <r>   -11.8062     0.4874     8.2669 </r>
       <r>   -11.6981     0.4269     8.3130 </r>
       <r>   -11.5900     0.7184     8.3907 </r>
       <r>   -11.4819     0.8751     8.4853 </r>
       <r>   -11.3738     0.4701     8.5361 </r>
       <r>   -11.2658     0.2639     8.5646 </r>
       <r>   -11.1577     0.6387     8.6336 </r>
       <r>   -11.0496     0.9347     8.7347 </r>
       <r>   -10.9415     0.8765     8.8294 </r>
       <r>   -10.8334     0.6963     8.9046 </r>
       <r>   -10.7253     0.7610     8.9869 </r>
       <r>   -10.6173     0.9090     9.0851 </r>
       <r>   -10.5092     1.5439     9.2520 </r>
       <r>   -10.4011     1.7975     9.4463 </r>
       <r>   -10.2930     2.1435     9.6780 </r>
       <r>   -10.1849     2.2491     9.9211 </r>
       <r>   -10.0769     1.9966    10.1368 </r>
       <r>    -9.9688     1.7958    10.3309 </r>
       <r>    -9.8607     1.2285    10.4637 </r>
       <r>    -9.7526     1.4663    10.6222 </r>
       <r>    -9.6445     1.7691    10.8134 </r>
       <r>    -9.5364     1.1825    10.9412 </r>
       <r>    -9.4284     1.7557    11.1310 </r>
       <r>    -9.3203     2.6197    11.4141 </r>
       <r>    -9.2122     2.0694    11.6378 </r>
       <r>    -9.1041     1.1943    11.7669 </r>
       <r>    -8.9960     0.7739    11.8505 </r>
       <r>    -8.8880     1.3913    12.0009 </r>
       <r>    -8.7799     3.0035    12.3255 </r>
       <r>    -8.6718     2.1646    12.5595 </r>
       <r>    -8.5637     1.1179    12.6803 </r>
       <r>    -8.4556     1.4163    12.8334 </r>
       <r>    -8.3475     2.2516    13.0767 </r>
       <r>    -8.2395     2.4363    13.3400 </r>
       <r>    -8.1314     1.8728    13.5425 </r>
       <r>    -8.0233     1.7705    13.7338 </r>
       <r>    -7.9152     2.7136    14.0271 </r>
       <r>    -7.8071     3.1221    14.3646 </r>
       <r>    -7.6990     2.6602    14.6521 </r>
       <r>    -7.5910     1.8339    14.8503 </r>
       <r>    -7.4829     1.1484    14.9744 </r>
       <r>    -7.3748     1.7920    15.1681 </r>
       <r>    -7.2667     1.9408    15.3779 </r>
       <r>    -7.1586     1.6262    15.5536 </r>
       <r>    -7.0506     1.9439    15.7637 </r>
       <r>    -6.9425     2.0625    15.9866 </r>
       <r>    -6.8344     2.2413    16.2289 </r>
       <r>    -6.7263     2.0599    16.4515 </r>
       <r>    -6.6182     2.6866    16.7419 </r>
       <r>    -6.5101     3.3968    17.1090 </r>
       <r>    -6.4021     2.5685    17.3866 </r>
       <r>    -6.2940     2.1744    17.6217 </r>
       <r>    -6.1859     2.1626    17.8554 </r>
       <r>    -6.0778     2.3693    18.1115 </r>
       <r>    -5.9697     4.0596    18.5502 </r>
       <r>    -5.8617     3.7531    18.9559 </r>
       <r>    -5.7536     2.6856    19.2462 </r>
       <r>    -5.6455     2.5428    19.5210 </r>
       <r>    -5.5374     3.3185    19.8797 </r>
       <r>    -5.4293     3.5235    20.2605 </r>
       <r>    -5.3212     3.6547    20.6555 </r>
       <r>    -5.2132     3.3461    21.0171 </r>
       <r>    -5.1051     2.0789    21.2418 </r>
       <r>    -4.9970     1.3201    21.3845 </r>
       <r>    -4.8889     0.7837    21.4692 </r>
       <r>    -4.7808     1.4890    21.6302 </r>
       <r>    -4.6727     2.0601    21.8528 </r>
       <r>    -4.5647     1.3969    22.0038 </r>
       <r>    -4.4566     1.0894    22.1215 </r>
       <r>    -4.3485     1.2193    22.2533 </r>
       <r>    -4.2404     2.3877    22.5114 </r>
       <r>    -4.1323     3.0264    22.8385 </r>
       <r>    -4.0243     2.7216    23.1326 </r>
       <r>    -3.9162     2.8196    23.4374 </r>
       <r>    -3.8081     3.0303    23.7649 </r>
       <r>    -3.7000     2.6601    24.0524 </r>
       <r>    -3.5919     2.4851    24.3210 </r>
       <r>    -3.4838     2.2128    24.5602 </r>
       <r>    -3.3758     2.1088    24.7881 </r>
       <r>    -3.2677     1.3313    24.9320 </r>
       <r>    -3.1596     2.0671    25.1554 </r>
       <r>    -3.0515     2.5336    25.4293 </r>
       <r>    -2.9434     1.9732    25.6425 </r>
       <r>    -2.8354     1.7105    25.8274 </r>
       <r>    -2.7273     1.5344    25.9933 </r>
       <r>    -2.6192     1.0886    26.1109 </r>
       <r>    -2.5111     1.3157    26.2531 </r>
       <r>    -2.4030     2.0154    26.4710 </r>
       <r>    -2.2949     2.0716    26.6949 </r>
       <r>    -2.1869     0.6104    26.7608 </r>
       <r>    -2.0788     0.8822    26.8562 </r>
       <r>    -1.9707     1.2358    26.9897 </r>
       <r>    -1.8626     1.0850    27.1070 </r>
       <r>    -1.7545     1.2776    27.2451 </r>
       <r>    -1.6464     1.2807    27.3835 </r>
       <r>    -1.5384     1.3076    27.5248 </r>
       <r>    -1.4303     1.1073    27.6445 </r>
       <r>    -1.3222     0.3772    27.6853 </r>
       <r>    -1.2141     0.5049    27.7399 </r>
       <r>    -1.1060     0.5967    27.8044 </r>
       <r>    -0.9980     0.3621    27.8435 </r>
       <r>    -0.8899     0.5203    27.8997 </r>
       <r>    -0.7818     0.5966    27.9642 </r>
       <r>    -0.6737     0.1880    27.9845 </r>
       <r>    -0.5656     0.0144    27.9861 </r>
       <r>    -0.4575     0.0002    27.9861 </r>
       <r>    -0.3495     0.0001    27.9861 </r>
       <r>    -0.2414     0.0108    27.9873 </r>
       <r>    -0.1333     0.0980    27.9979 </r>
       <r>    -0.0252     0.1247    28.0114 </r>
       <r>     0.0829     0.0227    28.0138 </r>
       <r>     0.1909     0.0005    28.0139 </r>
       <r>     0.2990     0.0000    28.0139 </r>
       <r>     0.4071     0.0038    28.0143 </r>
       <r>     0.5152     0.1094    28.0261 </r>
       <r>     0.6233     0.4146    28.0709 </r>
       <r>     0.7314     0.2700    28.1001 </r>
       <r>     0.8394     0.4570    28.1495 </r>
       <r>     0.9475     0.9336    28.2504 </r>
       <r>     1.0556     1.3727    28.3988 </r>
       <r>     1.1637     2.5597    28.6755 </r>
       <r>     1.2718     2.3418    28.9286 </r>
       <r>     1.3799     1.0115    29.0379 </r>
       <r>     1.4879     0.1750    29.0568 </r>
       <r>     1.5960     0.3052    29.0898 </r>
       <r>     1.7041     1.3035    29.2307 </r>
       <r>     1.8122     2.5314    29.5043 </r>
       <r>     1.9203     1.9581    29.7159 </r>
       <r>     2.0283     1.2950    29.8559 </r>
       <r>     2.1364     1.1596    29.9812 </r>
       <r>     2.2445     1.3612    30.1283 </r>
       <r>     2.3526     1.0397    30.2407 </r>
       <r>     2.4607     0.9405    30.3424 </r>
       <r>     2.5688     0.9917    30.4496 </r>
       <r>     2.6768     0.7166    30.5270 </r>
       <r>     2.7849     1.0542    30.6409 </r>
       <r>     2.8930     1.5729    30.8110 </r>
       <r>     3.0011     1.2475    30.9458 </r>
       <r>     3.1092     1.1642    31.0716 </r>
       <r>     3.2172     0.9206    31.1711 </r>
       <r>     3.3253     1.4212    31.3247 </r>
       <r>     3.4334     1.4241    31.4787 </r>
       <r>     3.5415     1.0903    31.5965 </r>
       <r>     3.6496     1.2973    31.7367 </r>
       <r>     3.7577     1.1659    31.8627 </r>
       <r>     3.8657     2.3661    32.1185 </r>
       <r>     3.9738     3.3249    32.4778 </r>
       <r>     4.0819     2.2579    32.7219 </r>
       <r>     4.1900     1.5725    32.8918 </r>
       <r>     4.2981     2.4408    33.1556 </r>
       <r>     4.4061     3.0681    33.4872 </r>
       <r>     4.5142     3.2322    33.8366 </r>
       <r>     4.6223     3.3978    34.2038 </r>
       <r>     4.7304     3.7949    34.6140 </r>
       <r>     4.8385     3.5897    35.0020 </r>
       <r>     4.9466     2.8821    35.3135 </r>
       <r>     5.0546     3.0102    35.6388 </r>
       <r>     5.1627     3.6711    36.0356 </r>
       <r>     5.2708     3.2496    36.3868 </r>
       <r>     5.3789     3.0845    36.7202 </r>
       <r>     5.4870     2.9730    37.0415 </r>
       <r>     5.5951     1.8550    37.2420 </r>
       <r>     5.7031     2.1782    37.4774 </r>
       <r>     5.8112     4.2396    37.9357 </r>
       <r>     5.9193     4.3940    38.4106 </r>
       <r>     6.0274     2.5767    38.6891 </r>
       <r>     6.1355     1.7261    38.8756 </r>
       <r>     6.2435     2.2923    39.1234 </r>
       <r>     6.3516     2.6190    39.4064 </r>
       <r>     6.4597     2.5938    39.6868 </r>
       <r>     6.5678     2.1321    39.9172 </r>
       <r>     6.6759     2.7659    40.2162 </r>
       <r>     6.7840     3.5572    40.6007 </r>
       <r>     6.8920     3.8505    41.0168 </r>
       <r>     7.0001     3.3857    41.3828 </r>
       <r>     7.1082     3.9781    41.8127 </r>
       <r>     7.2163     3.7247    42.2153 </r>
       <r>     7.3244     3.0567    42.5457 </r>
       <r>     7.4324     2.9379    42.8632 </r>
       <r>     7.5405     1.8127    43.0591 </r>
       <r>     7.6486     2.6341    43.3438 </r>
       <r>     7.7567     2.9813    43.6660 </r>
       <r>     7.8648     2.5141    43.9378 </r>
       <r>     7.9729     3.3012    44.2946 </r>
       <r>     8.0809     3.2969    44.6509 </r>
       <r>     8.1890     3.1239    44.9886 </r>
       <r>     8.2971     4.2127    45.4439 </r>
       <r>     8.4052     3.8847    45.8637 </r>
       <r>     8.5133     3.8485    46.2797 </r>
       <r>     8.6214     4.2764    46.7419 </r>
       <r>     8.7294     3.1491    47.0823 </r>
       <r>     8.8375     2.2446    47.3249 </r>
       <r>     8.9456     2.6372    47.6099 </r>
       <r>     9.0537     2.4695    47.8768 </r>
       <r>     9.1618     1.0061    47.9855 </r>
       <r>     9.2698     0.1304    47.9996 </r>
       <r>     9.3779     0.0034    48.0000 </r>
       <r>     9.4860     0.0000    48.0000 </r>
       <r>     9.5941     0.0000    48.0000 </r>
       <r>     9.7022     0.0000    48.0000 </r>
       <r>     9.8103     0.0000    48.0000 </r>
       <r>     9.9183     0.0000    48.0000 </r>
       <r>    10.0264     0.0000    48.0000 </r>
       <r>    10.1345     0.0000    48.0000 </r>
       <r>    10.2426     0.0000    48.0000 </r>
       <r>    10.3507     0.0000    48.0000 </r>
       <r>    10.4587     0.0000    48.0000 </r>
       <r>    10.5668     0.0000    48.0000 </r>
      </set>
     </set>
    </array>
   </total>
  </dos>
 </calculation>
 <structure name="finalpos" >
  <crystal>
   <varray name="basis" >
    <v>       4.13960143       2.39000000       0.00000000 </v>
    <v>      -4.13960143       2.39000000       0.00000000 </v>
    <v>       0.00000000       0.00000000      15.00000000 </v>
   </varray>
   <i name="volume">    296.80942254 </i>
   <varray name="rec_basis" >
    <v>       0.12078458       0.20920502       0.00000000 </v>
    <v>      -0.12078458       0.20920502       0.00000000 </v>
    <v>       0.00000000       0.00000000       0.06666667 </v>
   </varray>
  </crystal>
  <varray name="positions" >
   <v>       0.00465645       0.00308986       0.10508034 </v>
   <v>       0.35966376       0.00308443       0.10016377 </v>
   <v>       0.00464776       0.35812070       0.10016625 </v>
   <v>       0.64958522       0.64802106       0.10017638 </v>
   <v>       0.32882547       0.32726201       0.10070383 </v>
   <v>       0.68045823       0.00307732       0.10071603 </v>
   <v>       0.00464373       0.67890189       0.10071838 </v>
   <v>       0.16625726       0.33305755       0.33797140 </v>
   <v>       0.33292506       0.16638759       0.33797320 </v>
   <v>       0.16627795       0.83308589       0.33797594 </v>
   <v>       0.33292876       0.66639835       0.33784257 </v>
   <v>       0.66626293       0.33306303       0.33784239 </v>
   <v>       0.83295278       0.16641180       0.33797503 </v>
   <v>       0.66627741       0.83306100       0.33797078 </v>
   <v>       0.83293125       0.66641151       0.33796971 </v>
  </varray>
 </structure>
</modeling>
