  15  15   0   0
  0.2033749E+02  0.4846000E-09  0.4846000E-09  0.1500000E-08  0.5000000E-15
  1.000000000000000E-004
  CAR 
 DF                                      
     81.19734428    -25.07121778 4000     -0.56686724      1.00000000
    -25.071  0.0000E+00  0.0000E+00
    -25.045  0.0000E+00  0.0000E+00
    -25.018  0.0000E+00  0.0000E+00
    -24.991  0.0000E+00  0.0000E+00
    -24.965  0.0000E+00  0.0000E+00
    -24.938  0.0000E+00  0.0000E+00
    -24.912  0.0000E+00  0.0000E+00
    -24.885  0.0000E+00  0.0000E+00
    -24.859  0.0000E+00  0.0000E+00
    -24.832  0.0000E+00  0.0000E+00
    -24.805  0.0000E+00  0.0000E+00
    -24.779  0.0000E+00  0.0000E+00
    -24.752  0.0000E+00  0.0000E+00
    -24.726  0.0000E+00  0.0000E+00
    -24.699  0.0000E+00  0.0000E+00
    -24.673  0.0000E+00  0.0000E+00
    -24.646  0.0000E+00  0.0000E+00
    -24.619  0.0000E+00  0.0000E+00
    -24.593  0.0000E+00  0.0000E+00
    -24.566  0.0000E+00  0.0000E+00
    -24.540  0.0000E+00  0.0000E+00
    -24.513  0.0000E+00  0.0000E+00
    -24.487  0.0000E+00  0.0000E+00
    -24.460  0.0000E+00  0.0000E+00
    -24.433  0.0000E+00  0.0000E+00
    -24.407  0.0000E+00  0.0000E+00
    -24.380  0.0000E+00  0.0000E+00
    -24.354  0.0000E+00  0.0000E+00
    -24.327  0.0000E+00  0.0000E+00
    -24.301  0.0000E+00  0.0000E+00
    -24.274  0.0000E+00  0.0000E+00
    -24.247  0.0000E+00  0.0000E+00
    -24.221  0.0000E+00  0.0000E+00
    -24.194  0.0000E+00  0.0000E+00
    -24.168  0.0000E+00  0.0000E+00
    -24.141  0.0000E+00  0.0000E+00
    -24.115  0.0000E+00  0.0000E+00
    -24.088  0.0000E+00  0.0000E+00
    -24.061  0.0000E+00  0.0000E+00
    -24.035  0.0000E+00  0.0000E+00
    -24.008  0.0000E+00  0.0000E+00
    -23.982  0.0000E+00  0.0000E+00
    -23.955  0.0000E+00  0.0000E+00
    -23.929  0.0000E+00  0.0000E+00
    -23.902  0.0000E+00  0.0000E+00
    -23.875  0.0000E+00  0.0000E+00
    -23.849  0.0000E+00  0.0000E+00
    -23.822  0.0000E+00  0.0000E+00
    -23.796  0.0000E+00  0.0000E+00
    -23.769  0.0000E+00  0.0000E+00
    -23.743  0.0000E+00  0.0000E+00
    -23.716  0.0000E+00  0.0000E+00
    -23.689  0.0000E+00  0.0000E+00
    -23.663  0.0000E+00  0.0000E+00
    -23.636  0.0000E+00  0.0000E+00
    -23.610  0.0000E+00  0.0000E+00
    -23.583  0.0000E+00  0.0000E+00
    -23.557  0.0000E+00  0.0000E+00
    -23.530  0.0000E+00  0.0000E+00
    -23.503  0.0000E+00  0.0000E+00
    -23.477  0.0000E+00  0.0000E+00
    -23.450  0.0000E+00  0.0000E+00
    -23.424  0.0000E+00  0.0000E+00
    -23.397  0.0000E+00  0.0000E+00
    -23.370  0.0000E+00  0.0000E+00
    -23.344  0.0000E+00  0.0000E+00
    -23.317  0.0000E+00  0.0000E+00
    -23.291  0.0000E+00  0.0000E+00
    -23.264  0.0000E+00  0.0000E+00
    -23.238  0.0000E+00  0.0000E+00
    -23.211  0.0000E+00  0.0000E+00
    -23.184  0.0000E+00  0.0000E+00
    -23.158  0.0000E+00  0.0000E+00
    -23.131  0.0000E+00  0.0000E+00
    -23.105  0.0000E+00  0.0000E+00
    -23.078  0.0000E+00  0.0000E+00
    -23.052  0.0000E+00  0.0000E+00
    -23.025  0.0000E+00  0.0000E+00
    -22.998  0.0000E+00  0.0000E+00
    -22.972  0.0000E+00  0.0000E+00
    -22.945  0.0000E+00  0.0000E+00
    -22.919  0.0000E+00  0.0000E+00
    -22.892  0.0000E+00  0.0000E+00
    -22.866  0.0000E+00  0.0000E+00
    -22.839  0.0000E+00  0.0000E+00
    -22.812  0.0000E+00  0.0000E+00
    -22.786  0.0000E+00  0.0000E+00
    -22.759  0.0000E+00  0.0000E+00
    -22.733  0.0000E+00  0.0000E+00
    -22.706  0.0000E+00  0.0000E+00
    -22.680  0.0000E+00  0.0000E+00
    -22.653  0.0000E+00  0.0000E+00
    -22.626  0.0000E+00  0.0000E+00
    -22.600  0.0000E+00  0.0000E+00
    -22.573  0.0000E+00  0.0000E+00
    -22.547  0.0000E+00  0.0000E+00
    -22.520  0.0000E+00  0.0000E+00
    -22.494  0.0000E+00  0.0000E+00
    -22.467  0.0000E+00  0.0000E+00
    -22.440  0.0000E+00  0.0000E+00
    -22.414  0.0000E+00  0.0000E+00
    -22.387  0.0000E+00  0.0000E+00
    -22.361  0.0000E+00  0.0000E+00
    -22.334  0.0000E+00  0.0000E+00
    -22.308  0.0000E+00  0.0000E+00
    -22.281  0.0000E+00  0.0000E+00
    -22.254  0.0000E+00  0.0000E+00
    -22.228  0.0000E+00  0.0000E+00
    -22.201  0.0000E+00  0.0000E+00
    -22.175  0.0000E+00  0.0000E+00
    -22.148  0.0000E+00  0.0000E+00
    -22.122  0.0000E+00  0.0000E+00
    -22.095  0.0000E+00  0.0000E+00
    -22.068  0.0000E+00  0.0000E+00
    -22.042  0.0000E+00  0.0000E+00
    -22.015  0.0000E+00  0.0000E+00
    -21.989  0.0000E+00  0.0000E+00
    -21.962  0.0000E+00  0.0000E+00
    -21.936  0.0000E+00  0.0000E+00
    -21.909  0.0000E+00  0.0000E+00
    -21.882  0.0000E+00  0.0000E+00
    -21.856  0.0000E+00  0.0000E+00
    -21.829  0.0000E+00  0.0000E+00
    -21.803  0.0000E+00  0.0000E+00
    -21.776  0.0000E+00  0.0000E+00
    -21.749  0.0000E+00  0.0000E+00
    -21.723  0.0000E+00  0.0000E+00
    -21.696  0.0000E+00  0.0000E+00
    -21.670  0.0000E+00  0.0000E+00
    -21.643  0.0000E+00  0.0000E+00
    -21.617  0.0000E+00  0.0000E+00
    -21.590  0.0000E+00  0.0000E+00
    -21.563  0.0000E+00  0.0000E+00
    -21.537  0.0000E+00  0.0000E+00
    -21.510  0.0000E+00  0.0000E+00
    -21.484  0.0000E+00  0.0000E+00
    -21.457  0.0000E+00  0.0000E+00
    -21.431  0.0000E+00  0.0000E+00
    -21.404  0.0000E+00  0.0000E+00
    -21.377  0.0000E+00  0.0000E+00
    -21.351  0.0000E+00  0.0000E+00
    -21.324  0.0000E+00  0.0000E+00
    -21.298  0.0000E+00  0.0000E+00
    -21.271  0.0000E+00  0.0000E+00
    -21.245  0.0000E+00  0.0000E+00
    -21.218  0.0000E+00  0.0000E+00
    -21.191  0.0000E+00  0.0000E+00
    -21.165  0.0000E+00  0.0000E+00
    -21.138  0.0000E+00  0.0000E+00
    -21.112  0.0000E+00  0.0000E+00
    -21.085  0.0000E+00  0.0000E+00
    -21.059  0.0000E+00  0.0000E+00
    -21.032  0.0000E+00  0.0000E+00
    -21.005  0.0000E+00  0.0000E+00
    -20.979  0.0000E+00  0.0000E+00
    -20.952  0.0000E+00  0.0000E+00
    -20.926  0.0000E+00  0.0000E+00
    -20.899  0.0000E+00  0.0000E+00
    -20.873  0.0000E+00  0.0000E+00
    -20.846  0.0000E+00  0.0000E+00
    -20.819  0.0000E+00  0.0000E+00
    -20.793  0.0000E+00  0.0000E+00
    -20.766  0.0000E+00  0.0000E+00
    -20.740  0.0000E+00  0.0000E+00
    -20.713  0.0000E+00  0.0000E+00
    -20.687  0.0000E+00  0.0000E+00
    -20.660  0.0000E+00  0.0000E+00
    -20.633  0.0000E+00  0.0000E+00
    -20.607  0.0000E+00  0.0000E+00
    -20.580  0.0000E+00  0.0000E+00
    -20.554  0.0000E+00  0.0000E+00
    -20.527  0.0000E+00  0.0000E+00
    -20.501  0.0000E+00  0.0000E+00
    -20.474  0.0000E+00  0.0000E+00
    -20.447  0.0000E+00  0.0000E+00
    -20.421  0.0000E+00  0.0000E+00
    -20.394  0.0000E+00  0.0000E+00
    -20.368  0.0000E+00  0.0000E+00
    -20.341  0.0000E+00  0.0000E+00
    -20.315  0.0000E+00  0.0000E+00
    -20.288  0.3515E-11  0.9341E-13
    -20.261  0.4798E-03  0.1275E-04
    -20.235  0.2347E+00  0.6250E-02
    -20.208  0.1507E+01  0.4630E-01
    -20.182  0.5210E+00  0.6014E-01
    -20.155  0.2024E+01  0.1139E+00
    -20.128  0.6610E+00  0.1315E+00
    -20.102  0.3417E+00  0.1406E+00
    -20.075  0.2766E+01  0.2141E+00
    -20.049  0.9997E+00  0.2406E+00
    -20.022  0.5803E+00  0.2561E+00
    -19.996  0.2149E+00  0.2618E+00
    -19.969  0.2525E+01  0.3289E+00
    -19.942  0.1947E+01  0.3806E+00
    -19.916  0.6764E-01  0.3824E+00
    -19.889  0.1463E+01  0.4213E+00
    -19.863  0.3524E-01  0.4222E+00
    -19.836  0.2301E+01  0.4834E+00
    -19.810  0.1010E+01  0.5102E+00
    -19.783  0.2893E+01  0.5871E+00
    -19.756  0.4266E-01  0.5882E+00
    -19.730  0.2421E-01  0.5889E+00
    -19.703  0.1453E+01  0.6275E+00
    -19.677  0.5281E+00  0.6415E+00
    -19.650  0.2948E+01  0.7199E+00
    -19.624  0.1297E+01  0.7543E+00
    -19.597  0.3810E+00  0.7644E+00
    -19.570  0.2729E+01  0.8370E+00
    -19.544  0.1489E-01  0.8374E+00
    -19.517  0.1963E-05  0.8374E+00
    -19.491  0.2678E+00  0.8445E+00
    -19.464  0.2674E+01  0.9155E+00
    -19.438  0.1778E+01  0.9628E+00
    -19.411  0.2863E+01  0.1039E+01
    -19.384  0.2300E+00  0.1045E+01
    -19.358  0.6459E-02  0.1045E+01
    -19.331  0.2535E+01  0.1113E+01
    -19.305  0.5833E+00  0.1128E+01
    -19.278  0.5227E-05  0.1128E+01
    -19.252  0.7370E-02  0.1128E+01
    -19.225  0.1533E+01  0.1169E+01
    -19.198  0.4593E+01  0.1291E+01
    -19.172  0.1194E+00  0.1294E+01
    -19.145  0.2291E+01  0.1355E+01
    -19.119  0.8315E+00  0.1377E+01
    -19.092  0.1831E-04  0.1377E+01
    -19.066  0.6895E-02  0.1377E+01
    -19.039  0.2552E+01  0.1445E+01
    -19.012  0.5661E+00  0.1460E+01
    -18.986  0.1380E-02  0.1460E+01
    -18.959  0.2083E+01  0.1516E+01
    -18.933  0.1179E+01  0.1547E+01
    -18.906  0.3209E+01  0.1632E+01
    -18.880  0.1336E+01  0.1668E+01
    -18.853  0.4725E-01  0.1669E+01
    -18.826  0.2896E+01  0.1746E+01
    -18.800  0.1849E+00  0.1751E+01
    -18.773  0.1623E-06  0.1751E+01
    -18.747  0.4634E-05  0.1751E+01
    -18.720  0.4921E+00  0.1764E+01
    -18.694  0.2622E+01  0.1834E+01
    -18.667  0.1215E+01  0.1866E+01
    -18.640  0.3270E+01  0.1953E+01
    -18.614  0.2146E+00  0.1958E+01
    -18.587  0.1801E+01  0.2006E+01
    -18.561  0.1364E+01  0.2043E+01
    -18.534  0.1468E+01  0.2082E+01
    -18.507  0.5629E-01  0.2083E+01
    -18.481  0.2241E+01  0.2143E+01
    -18.454  0.8817E+00  0.2166E+01
    -18.428  0.2282E-04  0.2166E+01
    -18.401  0.8674E-16  0.2166E+01
    -18.375  0.6908E-05  0.2166E+01
    -18.348  0.9276E+00  0.2191E+01
    -18.321  0.5301E+01  0.2332E+01
    -18.295  0.2340E+01  0.2394E+01
    -18.268  0.8070E+00  0.2415E+01
    -18.242  0.6884E-03  0.2415E+01
    -18.215  0.1855E+01  0.2465E+01
    -18.189  0.1269E+01  0.2498E+01
    -18.162  0.2308E+00  0.2504E+01
    -18.135  0.1327E+01  0.2540E+01
    -18.109  0.4567E-01  0.2541E+01
    -18.082  0.2888E+01  0.2618E+01
    -18.056  0.1969E+00  0.2623E+01
    -18.029  0.2571E-06  0.2623E+01
    -18.003  0.8484E-01  0.2625E+01
    -17.976  0.2175E+01  0.2683E+01
    -17.949  0.2427E+01  0.2747E+01
    -17.923  0.2551E+01  0.2815E+01
    -17.896  0.3584E+01  0.2910E+01
    -17.870  0.1160E+00  0.2913E+01
    -17.843  0.3154E-06  0.2913E+01
    -17.817  0.2216E+00  0.2919E+01
    -17.790  0.2869E+01  0.2996E+01
    -17.763  0.3449E-01  0.2997E+01
    -17.737  0.4950E-01  0.2998E+01
    -17.710  0.1468E+01  0.3037E+01
    -17.684  0.4949E-01  0.3038E+01
    -17.657  0.2454E+01  0.3103E+01
    -17.631  0.6668E+00  0.3121E+01
    -17.604  0.1371E+01  0.3158E+01
    -17.577  0.1798E+01  0.3205E+01
    -17.551  0.2899E+01  0.3282E+01
    -17.524  0.1823E+00  0.3287E+01
    -17.498  0.3878E-01  0.3288E+01
    -17.471  0.5463E+01  0.3433E+01
    -17.445  0.7482E+00  0.3453E+01
    -17.418  0.5590E-05  0.3453E+01
    -17.391  0.8634E-01  0.3456E+01
    -17.365  0.2067E+01  0.3511E+01
    -17.338  0.4299E+01  0.3625E+01
    -17.312  0.1618E+01  0.3668E+01
    -17.285  0.2244E+01  0.3727E+01
    -17.259  0.2528E+01  0.3795E+01
    -17.232  0.1613E+01  0.3837E+01
    -17.205  0.4108E+01  0.3947E+01
    -17.179  0.6580E+01  0.4121E+01
    -17.152  0.3252E+01  0.4208E+01
    -17.126  0.3095E+01  0.4290E+01
    -17.099  0.6124E+01  0.4453E+01
    -17.073  0.2941E+00  0.4461E+01
    -17.046  0.1943E+01  0.4512E+01
    -17.019  0.5001E+01  0.4645E+01
    -16.993  0.6083E+01  0.4807E+01
    -16.966  0.2504E+01  0.4873E+01
    -16.940  0.2439E+01  0.4938E+01
    -16.913  0.5146E+01  0.5075E+01
    -16.886  0.2978E+01  0.5154E+01
    -16.860  0.3849E+01  0.5256E+01
    -16.833  0.6996E+01  0.5442E+01
    -16.807  0.4922E+01  0.5573E+01
    -16.780  0.5609E+01  0.5722E+01
    -16.754  0.8178E+01  0.5939E+01
    -16.727  0.6670E+01  0.6117E+01
    -16.700  0.7168E+01  0.6307E+01
    -16.674  0.3780E+01  0.6408E+01
    -16.647  0.8638E-01  0.6410E+01
    -16.621  0.2922E+01  0.6488E+01
    -16.594  0.1434E+00  0.6491E+01
    -16.568  0.8136E-07  0.6491E+01
    -16.541  0.9165E-04  0.6491E+01
    -16.514  0.1242E+01  0.6524E+01
    -16.488  0.1911E+01  0.6575E+01
    -16.461  0.2843E+01  0.6651E+01
    -16.435  0.2546E+00  0.6657E+01
    -16.408  0.3999E-06  0.6657E+01
    -16.382  0.9166E-04  0.6657E+01
    -16.355  0.1242E+01  0.6690E+01
    -16.328  0.1882E+01  0.6740E+01
    -16.302  0.3536E+00  0.6750E+01
    -16.275  0.3005E+01  0.6830E+01
    -16.249  0.1329E+01  0.6865E+01
    -16.222  0.9246E+00  0.6890E+01
    -16.196  0.3752E+01  0.6989E+01
    -16.169  0.1037E+00  0.6992E+01
    -16.142  0.2925E+01  0.7070E+01
    -16.116  0.2044E+01  0.7124E+01
    -16.089  0.1189E+01  0.7156E+01
    -16.063  0.7583E-04  0.7156E+01
    -16.036  0.4684E-14  0.7156E+01
    -16.010  0.5645E-04  0.7156E+01
    -15.983  0.1108E+01  0.7185E+01
    -15.956  0.2016E+01  0.7239E+01
    -15.930  0.3371E+00  0.7248E+01
    -15.903  0.2771E+01  0.7321E+01
    -15.877  0.1843E-01  0.7322E+01
    -15.850  0.3011E-08  0.7322E+01
    -15.824  0.4514E-01  0.7323E+01
    -15.797  0.5561E+01  0.7471E+01
    -15.770  0.1742E+01  0.7517E+01
    -15.744  0.2026E+01  0.7571E+01
    -15.717  0.1644E-02  0.7571E+01
    -15.691  0.1459E+01  0.7610E+01
    -15.664  0.1748E+01  0.7656E+01
    -15.638  0.1455E+01  0.7695E+01
    -15.611  0.6962E-01  0.7697E+01
    -15.584  0.3193E+01  0.7782E+01
    -15.558  0.2987E+01  0.7861E+01
    -15.531  0.2634E-01  0.7862E+01
    -15.505  0.1617E-08  0.7862E+01
    -15.478  0.9235E-13  0.7862E+01
    -15.452  0.2367E-03  0.7862E+01
    -15.425  0.1461E+01  0.7900E+01
    -15.398  0.1664E+01  0.7945E+01
    -15.372  0.3268E-01  0.7945E+01
    -15.345  0.2835E+01  0.8021E+01
    -15.319  0.3283E+00  0.8030E+01
    -15.292  0.2333E+01  0.8092E+01
    -15.265  0.2284E+01  0.8152E+01
    -15.239  0.2698E+01  0.8224E+01
    -15.212  0.3545E+01  0.8318E+01
    -15.186  0.8063E-02  0.8318E+01
    -15.159  0.1539E-01  0.8319E+01
    -15.133  0.2736E+01  0.8391E+01
    -15.106  0.4749E+00  0.8404E+01
    -15.079  0.1442E+01  0.8442E+01
    -15.053  0.1292E+00  0.8446E+01
    -15.026  0.3330E+01  0.8534E+01
    -15.000  0.2797E+01  0.8609E+01
    -14.973  0.1664E+00  0.8613E+01
    -14.947  0.2912E+01  0.8690E+01
    -14.920  0.1008E+01  0.8717E+01
    -14.893  0.5276E+01  0.8857E+01
    -14.867  0.3814E+01  0.8959E+01
    -14.840  0.5163E+01  0.9096E+01
    -14.814  0.6101E+01  0.9258E+01
    -14.787  0.2536E+01  0.9326E+01
    -14.761  0.6845E+01  0.9507E+01
    -14.734  0.9473E+01  0.9759E+01
    -14.707  0.5901E+01  0.9916E+01
    -14.681  0.5539E+01  0.1006E+02
    -14.654  0.5215E+01  0.1020E+02
    -14.628  0.1781E+01  0.1025E+02
    -14.601  0.1325E+01  0.1028E+02
    -14.575  0.2056E+01  0.1034E+02
    -14.548  0.5752E+01  0.1049E+02
    -14.521  0.4653E+01  0.1062E+02
    -14.495  0.1839E+01  0.1066E+02
    -14.468  0.3302E-02  0.1066E+02
    -14.442  0.3725E+01  0.1076E+02
    -14.415  0.2523E+01  0.1083E+02
    -14.389  0.1216E+01  0.1086E+02
    -14.362  0.5286E+00  0.1088E+02
    -14.335  0.2902E+01  0.1095E+02
    -14.309  0.2456E+01  0.1102E+02
    -14.282  0.2845E+01  0.1109E+02
    -14.256  0.4689E+01  0.1122E+02
    -14.229  0.3644E+01  0.1132E+02
    -14.203  0.6241E+01  0.1148E+02
    -14.176  0.3768E+01  0.1158E+02
    -14.149  0.5286E+01  0.1172E+02
    -14.123  0.7999E+00  0.1174E+02
    -14.096  0.1855E+01  0.1179E+02
    -14.070  0.2067E+01  0.1185E+02
    -14.043  0.2325E+01  0.1191E+02
    -14.017  0.8261E+00  0.1193E+02
    -13.990  0.6738E+01  0.1211E+02
    -13.963  0.3142E+01  0.1219E+02
    -13.937  0.4521E+00  0.1221E+02
    -13.910  0.4393E+01  0.1232E+02
    -13.884  0.3092E+01  0.1241E+02
    -13.857  0.5780E+01  0.1256E+02
    -13.831  0.8541E+01  0.1279E+02
    -13.804  0.4889E+01  0.1292E+02
    -13.777  0.4807E+01  0.1304E+02
    -13.751  0.7778E+01  0.1325E+02
    -13.724  0.7798E+01  0.1346E+02
    -13.698  0.3435E+01  0.1355E+02
    -13.671  0.2031E+01  0.1360E+02
    -13.644  0.6416E+01  0.1377E+02
    -13.618  0.4131E+01  0.1388E+02
    -13.591  0.2190E+01  0.1394E+02
    -13.565  0.2961E+01  0.1402E+02
    -13.538  0.3620E+01  0.1412E+02
    -13.512  0.1449E+01  0.1415E+02
    -13.485  0.2173E+01  0.1421E+02
    -13.458  0.6077E+00  0.1423E+02
    -13.432  0.2533E+01  0.1430E+02
    -13.405  0.5076E+01  0.1443E+02
    -13.379  0.1530E+01  0.1447E+02
    -13.352  0.2285E+00  0.1448E+02
    -13.326  0.1180E-05  0.1448E+02
    -13.299  0.5436E-01  0.1448E+02
    -13.272  0.4301E+01  0.1459E+02
    -13.246  0.3325E+00  0.1460E+02
    -13.219  0.4385E-06  0.1460E+02
    -13.193  0.3743E-03  0.1460E+02
    -13.166  0.1636E+01  0.1465E+02
    -13.140  0.1507E+01  0.1469E+02
    -13.113  0.2766E+01  0.1476E+02
    -13.086  0.3465E+00  0.1477E+02
    -13.060  0.3436E+01  0.1486E+02
    -13.033  0.2726E+01  0.1493E+02
    -13.007  0.1645E+01  0.1498E+02
    -12.980  0.3485E-03  0.1498E+02
    -12.954  0.1464E-12  0.1498E+02
    -12.927  0.0000E+00  0.1498E+02
    -12.900  0.1380E-05  0.1498E+02
    -12.874  0.3860E+00  0.1499E+02
    -12.847  0.4040E+01  0.1509E+02
    -12.821  0.4230E+01  0.1521E+02
    -12.794  0.3497E+01  0.1530E+02
    -12.768  0.1909E+01  0.1535E+02
    -12.741  0.9167E-01  0.1535E+02
    -12.714  0.2937E+01  0.1543E+02
    -12.688  0.9746E-01  0.1543E+02
    -12.661  0.4545E-01  0.1543E+02
    -12.635  0.2874E+01  0.1551E+02
    -12.608  0.2455E+00  0.1552E+02
    -12.582  0.2886E+01  0.1559E+02
    -12.555  0.1350E+01  0.1563E+02
    -12.528  0.1974E+01  0.1568E+02
    -12.502  0.1824E-02  0.1568E+02
    -12.475  0.1930E+01  0.1573E+02
    -12.449  0.1194E+01  0.1576E+02
    -12.422  0.5431E+00  0.1578E+02
    -12.396  0.2662E+01  0.1585E+02
    -12.369  0.2944E+01  0.1593E+02
    -12.342  0.1368E+01  0.1596E+02
    -12.316  0.1857E+01  0.1601E+02
    -12.289  0.6768E-03  0.1601E+02
    -12.263  0.5329E-12  0.1601E+02
    -12.236  0.5184E-06  0.1601E+02
    -12.210  0.2508E+00  0.1602E+02
    -12.183  0.2840E+01  0.1610E+02
    -12.156  0.1768E+01  0.1614E+02
    -12.130  0.3428E+01  0.1623E+02
    -12.103  0.1090E+01  0.1626E+02
    -12.077  0.2140E+01  0.1632E+02
    -12.050  0.9837E+00  0.1635E+02
    -12.023  0.3965E-04  0.1635E+02
    -11.997  0.4638E-06  0.1635E+02
    -11.970  0.2689E+00  0.1635E+02
    -11.944  0.4765E+01  0.1648E+02
    -11.917  0.1216E+01  0.1651E+02
    -11.891  0.7608E-04  0.1651E+02
    -11.864  0.7967E-07  0.1651E+02
    -11.837  0.1423E+00  0.1652E+02
    -11.811  0.2922E+01  0.1659E+02
    -11.784  0.6033E-01  0.1660E+02
    -11.758  0.1273E+00  0.1660E+02
    -11.731  0.5829E+01  0.1675E+02
    -11.705  0.2938E+00  0.1676E+02
    -11.678  0.4328E-02  0.1676E+02
    -11.651  0.2427E+01  0.1683E+02
    -11.625  0.6933E+00  0.1684E+02
    -11.598  0.9501E-05  0.1684E+02
    -11.572  0.8150E-01  0.1685E+02
    -11.545  0.2935E+01  0.1692E+02
    -11.519  0.1099E+00  0.1693E+02
    -11.492  0.2128E+01  0.1698E+02
    -11.465  0.9952E+00  0.1701E+02
    -11.439  0.3650E-04  0.1701E+02
    -11.412  0.1811E-06  0.1701E+02
    -11.386  0.1328E+00  0.1701E+02
    -11.359  0.2817E+01  0.1709E+02
    -11.333  0.2056E+01  0.1714E+02
    -11.306  0.3270E+01  0.1723E+02
    -11.279  0.1099E+01  0.1726E+02
    -11.253  0.7324E-04  0.1726E+02
    -11.226  0.2472E+00  0.1727E+02
    -11.200  0.2878E+01  0.1734E+02
    -11.173  0.1490E+01  0.1738E+02
    -11.147  0.7320E-01  0.1738E+02
    -11.120  0.4297E-07  0.1738E+02
    -11.093  0.3796E-08  0.1738E+02
    -11.067  0.4256E-01  0.1739E+02
    -11.040  0.2893E+01  0.1746E+02
    -11.014  0.2125E+00  0.1747E+02
    -10.987  0.4242E+01  0.1758E+02
    -10.961  0.3542E+01  0.1767E+02
    -10.934  0.8898E-01  0.1768E+02
    -10.907  0.4245E+01  0.1779E+02
    -10.881  0.1921E+01  0.1784E+02
    -10.854  0.6477E-03  0.1784E+02
    -10.828  0.5813E-12  0.1784E+02
    -10.801  0.1094E-03  0.1784E+02
    -10.775  0.1293E+01  0.1788E+02
    -10.748  0.1832E+01  0.1792E+02
    -10.721  0.6251E-03  0.1792E+02
    -10.695  0.7019E-02  0.1792E+02
    -10.668  0.2661E+01  0.1799E+02
    -10.642  0.2342E+01  0.1806E+02
    -10.615  0.1281E+01  0.1809E+02
    -10.589  0.2747E+01  0.1816E+02
    -10.562  0.4521E+01  0.1828E+02
    -10.535  0.6629E+01  0.1846E+02
    -10.509  0.1365E+01  0.1850E+02
    -10.482  0.4342E+01  0.1861E+02
    -10.456  0.6520E+01  0.1879E+02
    -10.429  0.4441E+00  0.1880E+02
    -10.402  0.9737E+00  0.1882E+02
    -10.376  0.4276E+01  0.1894E+02
    -10.349  0.6978E+01  0.1912E+02
    -10.323  0.2074E+01  0.1918E+02
    -10.296  0.1543E+01  0.1922E+02
    -10.270  0.3578E+01  0.1931E+02
    -10.243  0.9497E+01  0.1957E+02
    -10.216  0.1007E+01  0.1959E+02
    -10.190  0.2806E+01  0.1967E+02
    -10.163  0.1875E+01  0.1972E+02
    -10.137  0.9204E+01  0.1996E+02
    -10.110  0.3282E+01  0.2005E+02
    -10.084  0.8909E-02  0.2005E+02
    -10.057  0.4475E+01  0.2017E+02
    -10.030  0.8277E+01  0.2039E+02
    -10.004  0.6990E+01  0.2057E+02
     -9.977  0.2345E+01  0.2064E+02
     -9.951  0.3957E+01  0.2074E+02
     -9.924  0.2634E+01  0.2081E+02
     -9.898  0.3770E+01  0.2091E+02
     -9.871  0.3594E+00  0.2092E+02
     -9.844  0.1295E+01  0.2095E+02
     -9.818  0.4563E+00  0.2097E+02
     -9.791  0.1833E+01  0.2102E+02
     -9.765  0.4194E+01  0.2113E+02
     -9.738  0.6296E+00  0.2114E+02
     -9.712  0.1123E+02  0.2144E+02
     -9.685  0.6885E+01  0.2163E+02
     -9.658  0.3198E+01  0.2171E+02
     -9.632  0.5440E+01  0.2185E+02
     -9.605  0.3191E+01  0.2194E+02
     -9.579  0.7041E+00  0.2196E+02
     -9.552  0.1357E-03  0.2196E+02
     -9.526  0.6478E+00  0.2198E+02
     -9.499  0.1742E+01  0.2202E+02
     -9.472  0.1180E+01  0.2205E+02
     -9.446  0.7196E+01  0.2224E+02
     -9.419  0.1546E+01  0.2229E+02
     -9.393  0.8232E+01  0.2250E+02
     -9.366  0.6607E+01  0.2268E+02
     -9.340  0.7263E+01  0.2287E+02
     -9.313  0.4524E+01  0.2299E+02
     -9.286  0.5283E+01  0.2313E+02
     -9.260  0.1434E+01  0.2317E+02
     -9.233  0.1790E+00  0.2318E+02
     -9.207  0.5487E-06  0.2318E+02
     -9.180  0.1251E-09  0.2318E+02
     -9.154  0.1068E-01  0.2318E+02
     -9.127  0.4784E+01  0.2330E+02
     -9.100  0.1460E+01  0.2334E+02
     -9.074  0.5132E+01  0.2348E+02
     -9.047  0.9261E+01  0.2373E+02
     -9.021  0.2449E+01  0.2379E+02
     -8.994  0.7805E+01  0.2400E+02
     -8.968  0.4035E+01  0.2410E+02
     -8.941  0.2556E+01  0.2417E+02
     -8.914  0.1775E+00  0.2418E+02
     -8.888  0.8634E+01  0.2441E+02
     -8.861  0.3683E+01  0.2450E+02
     -8.835  0.1152E+01  0.2454E+02
     -8.808  0.5096E+01  0.2467E+02
     -8.781  0.1578E+01  0.2471E+02
     -8.755  0.3639E-03  0.2471E+02
     -8.728  0.1309E+01  0.2475E+02
     -8.702  0.3403E+01  0.2484E+02
     -8.675  0.3202E+01  0.2492E+02
     -8.649  0.3355E+01  0.2501E+02
     -8.622  0.8120E+01  0.2523E+02
     -8.595  0.7073E+01  0.2542E+02
     -8.569  0.4775E+01  0.2554E+02
     -8.542  0.4541E+01  0.2566E+02
     -8.516  0.1451E+01  0.2570E+02
     -8.489  0.2208E+01  0.2576E+02
     -8.463  0.1188E+01  0.2579E+02
     -8.436  0.2052E-02  0.2579E+02
     -8.409  0.1664E+01  0.2584E+02
     -8.383  0.3105E+01  0.2592E+02
     -8.356  0.3543E+01  0.2601E+02
     -8.330  0.6938E+01  0.2620E+02
     -8.303  0.9010E+01  0.2644E+02
     -8.277  0.4728E+01  0.2656E+02
     -8.250  0.2061E+01  0.2662E+02
     -8.223  0.5460E+01  0.2676E+02
     -8.197  0.9853E+01  0.2702E+02
     -8.170  0.2387E+01  0.2709E+02
     -8.144  0.3344E+01  0.2718E+02
     -8.117  0.1294E+01  0.2721E+02
     -8.091  0.7861E+00  0.2723E+02
     -8.064  0.4586E+01  0.2735E+02
     -8.037  0.1196E+02  0.2767E+02
     -8.011  0.2390E+01  0.2774E+02
     -7.984  0.5634E+01  0.2788E+02
     -7.958  0.4639E+01  0.2801E+02
     -7.931  0.1250E+01  0.2804E+02
     -7.905  0.2321E+01  0.2810E+02
     -7.878  0.9950E+01  0.2837E+02
     -7.851  0.1131E+02  0.2867E+02
     -7.825  0.7416E+01  0.2887E+02
     -7.798  0.7109E+01  0.2905E+02
     -7.772  0.6941E+01  0.2924E+02
     -7.745  0.1140E+01  0.2927E+02
     -7.719  0.8696E+00  0.2929E+02
     -7.692  0.3780E+01  0.2939E+02
     -7.665  0.8610E+01  0.2962E+02
     -7.639  0.1769E+01  0.2967E+02
     -7.612  0.2989E+01  0.2975E+02
     -7.586  0.2992E+01  0.2983E+02
     -7.559  0.2530E+00  0.2983E+02
     -7.533  0.4131E+00  0.2984E+02
     -7.506  0.7245E+01  0.3004E+02
     -7.479  0.3285E+00  0.3005E+02
     -7.453  0.2254E+01  0.3011E+02
     -7.426  0.6138E+01  0.3027E+02
     -7.400  0.7195E+01  0.3046E+02
     -7.373  0.7651E+01  0.3066E+02
     -7.347  0.3288E-01  0.3066E+02
     -7.320  0.3488E+01  0.3076E+02
     -7.293  0.6417E+01  0.3093E+02
     -7.267  0.1025E+01  0.3096E+02
     -7.240  0.3509E-04  0.3096E+02
     -7.214  0.3180E+00  0.3096E+02
     -7.187  0.3053E+01  0.3104E+02
     -7.160  0.4573E+01  0.3117E+02
     -7.134  0.4660E+01  0.3129E+02
     -7.107  0.2520E+01  0.3136E+02
     -7.081  0.7811E+01  0.3156E+02
     -7.054  0.5866E+01  0.3172E+02
     -7.028  0.4720E+01  0.3185E+02
     -7.001  0.5513E+01  0.3199E+02
     -6.974  0.3608E-01  0.3199E+02
     -6.948  0.3588E+01  0.3209E+02
     -6.921  0.6211E+01  0.3225E+02
     -6.895  0.2688E+01  0.3233E+02
     -6.868  0.3169E+01  0.3241E+02
     -6.842  0.6816E+01  0.3259E+02
     -6.815  0.3604E+01  0.3269E+02
     -6.788  0.1186E+02  0.3300E+02
     -6.762  0.6036E+01  0.3316E+02
     -6.735  0.5686E+00  0.3318E+02
     -6.709  0.2841E+01  0.3325E+02
     -6.682  0.2140E+01  0.3331E+02
     -6.656  0.9690E+01  0.3357E+02
     -6.629  0.4424E+01  0.3368E+02
     -6.602  0.4342E+01  0.3380E+02
     -6.576  0.2786E+01  0.3387E+02
     -6.549  0.6550E+01  0.3405E+02
     -6.523  0.1567E+01  0.3409E+02
     -6.496  0.1198E+02  0.3441E+02
     -6.470  0.6648E+01  0.3458E+02
     -6.443  0.1632E+01  0.3463E+02
     -6.416  0.3201E+01  0.3471E+02
     -6.390  0.1828E+01  0.3476E+02
     -6.363  0.7818E+01  0.3497E+02
     -6.337  0.2211E+01  0.3503E+02
     -6.310  0.3143E+01  0.3511E+02
     -6.284  0.9216E+01  0.3536E+02
     -6.257  0.7859E+01  0.3557E+02
     -6.230  0.3998E+01  0.3567E+02
     -6.204  0.3175E+01  0.3576E+02
     -6.177  0.2258E+01  0.3582E+02
     -6.151  0.7592E+01  0.3602E+02
     -6.124  0.7200E+01  0.3621E+02
     -6.098  0.8674E+01  0.3644E+02
     -6.071  0.6850E+01  0.3662E+02
     -6.044  0.1378E+02  0.3699E+02
     -6.018  0.5967E+00  0.3700E+02
     -5.991  0.9731E+00  0.3703E+02
     -5.965  0.1151E+02  0.3734E+02
     -5.938  0.1158E+02  0.3764E+02
     -5.912  0.5540E+01  0.3779E+02
     -5.885  0.7328E+01  0.3798E+02
     -5.858  0.3645E+01  0.3808E+02
     -5.832  0.4955E+01  0.3821E+02
     -5.805  0.5474E+01  0.3836E+02
     -5.779  0.8238E+01  0.3858E+02
     -5.752  0.8049E+01  0.3879E+02
     -5.726  0.7749E+01  0.3900E+02
     -5.699  0.1543E+01  0.3904E+02
     -5.672  0.3473E+01  0.3913E+02
     -5.646  0.3783E+01  0.3923E+02
     -5.619  0.4702E+01  0.3936E+02
     -5.593  0.2226E+01  0.3942E+02
     -5.566  0.7368E+01  0.3961E+02
     -5.539  0.8671E+01  0.3984E+02
     -5.513  0.8938E+01  0.4008E+02
     -5.486  0.1400E+02  0.4045E+02
     -5.460  0.3889E+01  0.4055E+02
     -5.433  0.1188E+02  0.4087E+02
     -5.407  0.6498E+01  0.4104E+02
     -5.380  0.8605E+01  0.4127E+02
     -5.353  0.1234E+02  0.4160E+02
     -5.327  0.8664E+01  0.4183E+02
     -5.300  0.2687E+01  0.4190E+02
     -5.274  0.5629E+01  0.4205E+02
     -5.247  0.5956E+01  0.4221E+02
     -5.221  0.2306E+01  0.4227E+02
     -5.194  0.1340E+01  0.4231E+02
     -5.167  0.5769E+01  0.4246E+02
     -5.141  0.5364E+01  0.4260E+02
     -5.114  0.6341E+01  0.4277E+02
     -5.088  0.1012E+01  0.4280E+02
     -5.061  0.4437E+01  0.4291E+02
     -5.035  0.1004E+01  0.4294E+02
     -5.008  0.2768E+01  0.4302E+02
     -4.981  0.8446E+00  0.4304E+02
     -4.955  0.1727E+01  0.4308E+02
     -4.928  0.3797E+01  0.4318E+02
     -4.902  0.1059E+01  0.4321E+02
     -4.875  0.3248E+01  0.4330E+02
     -4.849  0.3735E+01  0.4340E+02
     -4.822  0.5385E+01  0.4354E+02
     -4.795  0.2195E+01  0.4360E+02
     -4.769  0.3214E+01  0.4368E+02
     -4.742  0.3445E+00  0.4369E+02
     -4.716  0.5450E+01  0.4384E+02
     -4.689  0.2157E+01  0.4390E+02
     -4.663  0.2227E+01  0.4396E+02
     -4.636  0.8956E+00  0.4398E+02
     -4.609  0.1606E+01  0.4402E+02
     -4.583  0.3195E+01  0.4411E+02
     -4.556  0.6610E+01  0.4428E+02
     -4.530  0.1090E+01  0.4431E+02
     -4.503  0.1416E+01  0.4435E+02
     -4.477  0.8691E+01  0.4458E+02
     -4.450  0.9110E+00  0.4460E+02
     -4.423  0.1922E+01  0.4466E+02
     -4.397  0.1365E+01  0.4469E+02
     -4.370  0.3113E+01  0.4477E+02
     -4.344  0.4034E+01  0.4488E+02
     -4.317  0.7760E+01  0.4509E+02
     -4.291  0.1304E+01  0.4512E+02
     -4.264  0.6822E+01  0.4530E+02
     -4.237  0.9927E+01  0.4557E+02
     -4.211  0.6596E+01  0.4574E+02
     -4.184  0.3949E+01  0.4585E+02
     -4.158  0.5573E+01  0.4600E+02
     -4.131  0.1382E+02  0.4636E+02
     -4.105  0.2461E+01  0.4643E+02
     -4.078  0.3385E+01  0.4652E+02
     -4.051  0.4417E+01  0.4664E+02
     -4.025  0.5618E+01  0.4679E+02
     -3.998  0.8870E+01  0.4702E+02
     -3.972  0.2202E+01  0.4708E+02
     -3.945  0.4438E+01  0.4720E+02
     -3.918  0.2485E+01  0.4726E+02
     -3.892  0.3516E+01  0.4736E+02
     -3.865  0.1005E+02  0.4762E+02
     -3.839  0.5217E+01  0.4776E+02
     -3.812  0.3909E+01  0.4787E+02
     -3.786  0.2069E+01  0.4792E+02
     -3.759  0.1539E+01  0.4796E+02
     -3.732  0.5779E+01  0.4812E+02
     -3.706  0.7174E+01  0.4831E+02
     -3.679  0.1048E+02  0.4858E+02
     -3.653  0.1798E+01  0.4863E+02
     -3.626  0.5738E+01  0.4879E+02
     -3.600  0.5201E+01  0.4892E+02
     -3.573  0.3354E+01  0.4901E+02
     -3.546  0.7132E+01  0.4920E+02
     -3.520  0.3471E+01  0.4929E+02
     -3.493  0.9618E+01  0.4955E+02
     -3.467  0.2868E+01  0.4963E+02
     -3.440  0.1026E+01  0.4965E+02
     -3.414  0.3374E+01  0.4974E+02
     -3.387  0.2547E+01  0.4981E+02
     -3.360  0.3955E+01  0.4992E+02
     -3.334  0.1773E+01  0.4996E+02
     -3.307  0.3387E+01  0.5005E+02
     -3.281  0.7740E+01  0.5026E+02
     -3.254  0.3751E+01  0.5036E+02
     -3.228  0.3263E+01  0.5044E+02
     -3.201  0.4640E+01  0.5057E+02
     -3.174  0.3779E+01  0.5067E+02
     -3.148  0.2015E+01  0.5072E+02