Lattice                                 
           1
     4.339653    2.505500    0.000000
    -4.339653    2.505500    0.000000
     0.000000    0.000000   15.000000
   B    C 
     8     8
Direct configuration=     1
   0.66888689  0.00000000  0.10000000
   0.33111211  0.00000000  0.10000000
   0.00000000  0.33111211  0.10000000
   0.00000000  0.66888689  0.10000000
   0.33111211  0.33111211  0.10000000
   0.66888689  0.66888689  0.10000000
   0.66666600  0.33333300  0.09922189
   0.33333300  0.66666600  0.10077811
   0.24999933  0.24999967  0.46906667
   0.41666633  0.08333267  0.46906667
   0.24999933  0.74999967  0.46906667
   0.41666633  0.58333267  0.46906667
   0.74999933  0.24999967  0.46906667
   0.91666633  0.08333267  0.46906667
   0.74999933  0.74999967  0.46906667
   0.91666633  0.58333267  0.46906667
Direct configuration=     2
   0.66978786 -0.00000016  0.10002618
   0.33021129 -0.00000017  0.10002627
   0.00000016  0.33021114  0.10002618
   0.00000017  0.66978771  0.10002627
   0.33021096  0.33021091  0.10002628
   0.66978809  0.66978804  0.10002628
   0.66666607  0.33333293  0.09925302
   0.33333255  0.66666645  0.10080649
   0.24999514  0.24999498  0.46903982
   0.41666304  0.08333419  0.46903927
   0.24999891  0.75000009  0.46903887
   0.41666707  0.58333193  0.46903951
   0.75000218  0.24999682  0.46903964
   0.91666735  0.08333165  0.46904018
   0.75000402  0.75000386  0.46903982
   0.91666481  0.58333596  0.46903927
Direct configuration=     3
   0.66938372 -0.00000009  0.10001444
   0.33061536 -0.00000009  0.10001448
   0.00000009  0.33061528  0.10001444
   0.00000009  0.66938364  0.10001448
   0.33061518  0.33061516  0.10001449
   0.66938384  0.66938382  0.10001449
   0.66666604  0.33333296  0.09923905
   0.33333275  0.66666625  0.10079376
   0.24999702  0.24999708  0.46905186
   0.41666452  0.08333350  0.46905156
   0.24999910  0.74999990  0.46905134
   0.41666674  0.58333226  0.46905169
   0.75000090  0.24999810  0.46905177
   0.91666689  0.08333211  0.46905206
   0.75000192  0.75000198  0.46905186
   0.91666550  0.58333448  0.46905156
Direct configuration=     4
   0.66938733 -0.00000009  0.10001454
   0.33061175 -0.00000009  0.10001459
   0.00000009  0.33061167  0.10001454
   0.00000009  0.66938725  0.10001459
   0.33061157  0.33061154  0.10001460
   0.66938746  0.66938743  0.10001460
   0.66666604  0.33333296  0.09923918
   0.33333275  0.66666625  0.10079388
   0.24999700  0.24999706  0.46905175
   0.41666450  0.08333351  0.46905145
   0.24999910  0.74999990  0.46905123
   0.41666674  0.58333226  0.46905158
   0.75000091  0.24999809  0.46905166
   0.91666690  0.08333210  0.46905195
   0.75000194  0.75000200  0.46905175
   0.91666549  0.58333450  0.46905145
Direct configuration=     5
   0.66938753 -0.00000012  0.10003908
   0.33061170 -0.00000007  0.10003920
   0.00000012  0.33061147  0.10003908
   0.00000007  0.66938730  0.10003920
   0.33061155  0.33061150  0.10003922
   0.66938750  0.66938745  0.10003922
   0.66666601  0.33333299  0.09926975
   0.33333272  0.66666628  0.10081829
   0.25000000  0.25000116  0.46902663
   0.41666739  0.08333180  0.46902593
   0.24999900  0.75000000  0.46902545
   0.41666642  0.58333258  0.46902623
   0.74999817  0.25000083  0.46902641
   0.91666646  0.08333254  0.46902707
   0.74999784  0.74999900  0.46902663
   0.91666720  0.58333161  0.46902593
Direct configuration=     6
   0.66938814 -0.00000020  0.10011269
   0.33061156  0.00000001  0.10011304
   0.00000020  0.33061086  0.10011269
  -0.00000001  0.66938744  0.10011304
   0.33061149  0.33061137  0.10011310
   0.66938763  0.66938751  0.10011310
   0.66666592  0.33333308  0.09936146
   0.33333264  0.66666636  0.10089153
   0.25000898  0.25001345  0.46895125
   0.41667604  0.08332668  0.46894939
   0.24999868  0.75000032  0.46894814
   0.41666545  0.58333355  0.46895018
   0.74998994  0.25000906  0.46895066
   0.91666513  0.08333387  0.46895240
   0.74998555  0.74999002  0.46895125
   0.91667232  0.58332296  0.46894939
Direct configuration=     7
   0.66938936 -0.00000038  0.10025991
   0.33061128  0.00000015  0.10026073
   0.00000038  0.33060964  0.10025991
  -0.00000015  0.66938772  0.10026073
   0.33061138  0.33061111  0.10026085
   0.66938789  0.66938762  0.10026085
   0.66666573  0.33333327  0.09954489
   0.33333248  0.66666652  0.10103802
   0.25002694  0.25003804  0.46880048
   0.41669335  0.08331644  0.46879631
   0.24999806  0.75000094  0.46879351
   0.41666350  0.58333550  0.46879809
   0.74997347  0.25002553  0.46879918
   0.91666247  0.08333653  0.46880308
   0.74996096  0.74997206  0.46880048
   0.91668256  0.58330565  0.46879631
