 vasp.6.3.2 27Jun22 (build Dec 22 2022 13:13:19) complex                        
  
 executed on             LinuxIFC date 2023.08.22  23:25:06
 running   48 mpi-ranks, with    1 threads/rank
 distrk:  each k-point on   48 cores,    1 groups
 distr:  one band on NCORE=   1 cores,   48 groups


--------------------------------------------------------------------------------------------------------


 INCAR:
   SYSTEM = Lattice
   ISTART = 0
   ICHARG = 2
   PREC = Accurate
   ENCUT = 450
   LCHARG = .FALSE.
   LWAVE = .FALSE.
   ALGO = Normal
   NELM = 64
   EDIFF = 1E-6
   EDIFFG = -1E-3
   SIGMA = 0.1
   ISMEAR = 0
   ISPIN = 2
   NSW = 128
   IBRION = 2
   POTIM = .5
   ISIF = 2
   GGA = PE
   IVDW = 12

 POTCAR:    PAW_PBE B 06Sep2000                   
 POTCAR:    PAW_PBE C 08Apr2002                   
 -----------------------------------------------------------------------------
|                                                                             |
|           W    W    AA    RRRRR   N    N  II  N    N   GGGG   !!!           |
|           W    W   A  A   R    R  NN   N  II  NN   N  G    G  !!!           |
|           W    W  A    A  R    R  N N  N  II  N N  N  G       !!!           |
|           W WW W  AAAAAA  RRRRR   N  N N  II  N  N N  G  GGG   !            |
|           WW  WW  A    A  R   R   N   NN  II  N   NN  G    G                |
|           W    W  A    A  R    R  N    N  II  N    N   GGGG   !!!           |
|                                                                             |
|     You use a magnetic or noncollinear calculation, but did not specify     |
|     the initial magnetic moment with the MAGMOM tag. Note that a            |
|     default of 1 will be used for all atoms. This ferromagnetic setup       |
|     may break the symmetry of the crystal, in particular it may rule        |
|     out finding an antiferromagnetic solution. Thence, we recommend         |
|     setting the initial magnetic moment manually or verifying carefully     |
|     that this magnetic setup is desired.                                    |
|                                                                             |
 -----------------------------------------------------------------------------

 POTCAR:    PAW_PBE B 06Sep2000                   
   SHA256 =  a32ced30f5ae56fd4d10b4325ff17eb3e4e38ee0f4288bc219fb012fddfa6e97 B/POTCAR              
   COPYR  = (c) Copyright 06Sep2000 Georg Kresse                                                    
   COPYR  = This file is part of the software VASP. Any use, copying, and all other rights are regul
   COPYR  = If you do not have a valid VASP license, you may not use, copy or distribute this file. 
   VRHFIN =B: s2p1                                                                                  
   LEXCH  = PE                                                                                      
   EATOM  =    71.1703 eV,    5.2309 Ry                                                             
                                                                                                    
   TITEL  = PAW_PBE B 06Sep2000                                                                     
   LULTRA =        F    use ultrasoft PP ?                                                          
   IUNSCR =        1    unscreen: 0-lin 1-nonlin 2-no                                               
   RPACOR =    1.200    partial core radius                                                         
   POMASS =   10.811; ZVAL   =    3.000    mass and valenz                                          
   RCORE  =    1.700    outmost cutoff radius                                                       
   RWIGS  =    1.710; RWIGS  =    0.905    wigner-seitz radius (au A)                               
   ENMAX  =  318.614; ENMIN  =  238.960 eV                                                          
   ICORE  =        2    local potential                                                             
   LCOR   =        T    correct aug charges                                                         
   LPAW   =        T    paw PP                                                                      
   EAUG   =  535.514                                                                                
   DEXC   =    0.000                                                                                
   RMAX   =    1.732    core radius for proj-oper                                                   
   RAUG   =    1.300    factor for augmentation sphere                                              
   RDEP   =    1.757    radius for radial grids                                                     
   RDEPT  =    1.436    core radius for aug-charge                                                  
                                                                                                    
   Atomic configuration                                                                             
    4 entries                                                                                       
     n  l   j            E        occ.                                                              
     1  0  0.50      -180.5896   2.0000                                                             
     2  0  0.50        -9.4431   2.0000                                                             
     2  1  0.50        -3.6068   1.0000                                                             
     3  2  1.50        -4.0817   0.0000                                                             
   Description                                                                                      
     l       E           TYP  RCUT    TYP  RCUT                                                     
     0     -9.4430752     23  1.500                                                                 
     0      0.8675899     23  1.500                                                                 
     1     -3.6067955     23  1.700                                                                 
     1      6.1086146     23  1.700                                                                 
     2     -4.0817478      7  1.700                                                                 
  local pseudopotential read in
  partial core-charges read in
  partial kinetic energy density read in
  atomic valenz-charges read in
  non local Contribution for L=           0  read in
    real space projection operators read in
  non local Contribution for L=           0  read in
    real space projection operators read in
  non local Contribution for L=           1  read in
    real space projection operators read in
  non local Contribution for L=           1  read in
    real space projection operators read in
    PAW grid and wavefunctions read in
 
   number of l-projection  operators is LMAX  =           4
   number of lm-projection operators is LMMAX =           8
 
 POTCAR:    PAW_PBE C 08Apr2002                   
   SHA256 =  253f7b50bb8d59471dbedb8285d89021f4a42ed1a2c5d38a03a736e69125dd95 C/POTCAR              
   COPYR  = (c) Copyright 08Apr2002 Georg Kresse                                                    
   COPYR  = This file is part of the software VASP. Any use, copying, and all other rights are regul
   COPYR  = If you do not have a valid VASP license, you may not use, copy or distribute this file. 
   VRHFIN =C: s2p2                                                                                  
   LEXCH  = PE                                                                                      
   EATOM  =   147.1560 eV,   10.8157 Ry                                                             
                                                                                                    
   TITEL  = PAW_PBE C 08Apr2002                                                                     
   LULTRA =        F    use ultrasoft PP ?                                                          
   IUNSCR =        1    unscreen: 0-lin 1-nonlin 2-no                                               
   RPACOR =    1.200    partial core radius                                                         
   POMASS =   12.011; ZVAL   =    4.000    mass and valenz                                          
   RCORE  =    1.500    outmost cutoff radius                                                       
   RWIGS  =    1.630; RWIGS  =    0.863    wigner-seitz radius (au A)                               
   ENMAX  =  400.000; ENMIN  =  300.000 eV                                                          
   ICORE  =        2    local potential                                                             
   LCOR   =        T    correct aug charges                                                         
   LPAW   =        T    paw PP                                                                      
   EAUG   =  644.873                                                                                
   DEXC   =    0.000                                                                                
   RMAX   =    1.529    core radius for proj-oper                                                   
   RAUG   =    1.300    factor for augmentation sphere                                              
   RDEP   =    1.501    radius for radial grids                                                     
   RDEPT  =    1.300    core radius for aug-charge                                                  
                                                                                                    
   Atomic configuration                                                                             
    4 entries                                                                                       
     n  l   j            E        occ.                                                              
     1  0  0.50      -273.3789   2.0000                                                             
     2  0  0.50       -13.7508   2.0000                                                             
     2  1  0.50        -5.2854   2.0000                                                             
     3  2  1.50        -5.4423   0.0000                                                             
   Description                                                                                      
     l       E           TYP  RCUT    TYP  RCUT                                                     
     0    -13.7508458     23  1.200                                                                 
     0     -8.2022199     23  1.200                                                                 
     1     -5.2854383     23  1.500                                                                 
     1     34.0145650     23  1.500                                                                 
     2     -5.4423304      7  1.500                                                                 
  local pseudopotential read in
  partial core-charges read in
  partial kinetic energy density read in
  atomic valenz-charges read in
  non local Contribution for L=           0  read in
    real space projection operators read in
  non local Contribution for L=           0  read in
    real space projection operators read in
  non local Contribution for L=           1  read in
    real space projection operators read in
  non local Contribution for L=           1  read in
    real space projection operators read in
    PAW grid and wavefunctions read in
 
   number of l-projection  operators is LMAX  =           4
   number of lm-projection operators is LMMAX =           8
 
  PAW_PBE B 06Sep2000                   :
 energy of atom  1       EATOM=  -71.1703
 kinetic energy error for atom=    0.0015 (will be added to EATOM!!)
  PAW_PBE C 08Apr2002                   :
 energy of atom  2       EATOM= -147.1560
 kinetic energy error for atom=    0.0116 (will be added to EATOM!!)
 
 
 POSCAR: Graphene-B4C3 Hollow 2 with lattice para
  positions in direct lattice
  No initial velocities read in
 exchange correlation table for  LEXCH =        8
   RHO(1)=    0.500       N(1)  =     2000
   RHO(2)=  100.500       N(2)  =     4000

 VTST: version 4.2, (08/11/21)

 CHAIN: initializing optimizer
 
 OPT: Using VASP Conjugate-Gradient optimizer
 CHAIN: Read ICHAIN            0
 
 POSCAR: Graphene-B4C3 Hollow 2 with lattice para
  positions in direct lattice
  No initial velocities read in
 


--------------------------------------------------------------------------------------------------------


 ion  position               nearest neighbor table
   1  0.004  0.003  0.120-   7 1.60   6 1.60   5 1.60   4 1.74   2 1.74   3 1.74
   2  0.357  0.003  0.097-   6 1.57   5 1.64   7 1.64   1 1.74
   3  0.004  0.356  0.097-   7 1.57   5 1.64   6 1.64   1 1.74
   4  0.651  0.650  0.097-   5 1.57   6 1.64   7 1.64   1 1.74
   5  0.328  0.327  0.100-   4 1.57   1 1.60   3 1.64   2 1.64
   6  0.680  0.003  0.100-   2 1.57   1 1.60   4 1.64   3 1.64
   7  0.004  0.679  0.100-   3 1.57   1 1.60   4 1.64   2 1.64
   8  0.167  0.333  0.337-  13 1.40  11 1.40   9 1.40
   9  0.333  0.167  0.337-  12 1.40  10 1.40   8 1.40
  10  0.167  0.833  0.337-  15 1.40   9 1.40  11 1.40
  11  0.333  0.667  0.337-  14 1.40   8 1.40  10 1.40
  12  0.667  0.333  0.337-   9 1.40  15 1.40  13 1.40
  13  0.833  0.167  0.337-   8 1.40  14 1.40  12 1.40
  14  0.667  0.833  0.337-  11 1.40  13 1.40  15 1.40
  15  0.833  0.667  0.337-  10 1.40  12 1.40  14 1.40
 
  LATTYP: Found a hexagonal cell.
 ALAT       =     4.8400000000
 C/A-ratio  =     3.0991735537
  
  Lattice vectors:
  
 A1 = (   4.1915629543,   2.4200000000,   0.0000000000)
 A2 = (  -4.1915629543,   2.4200000000,   0.0000000000)
 A3 = (   0.0000000000,   0.0000000000,  15.0000000000)


Analysis of symmetry for initial positions (statically):
=====================================================================
 Subroutine PRICEL returns:
 Original cell was already a primitive cell.
 

 Routine SETGRP: Setting up the symmetry group for a 
 hexagonal supercell.


 Subroutine GETGRP returns: Found  1 space group operations
 (whereof  1 operations were pure point group operations)
 out of a pool of 24 trial point group operations.


The static configuration has the point symmetry C_1 .


Analysis of symmetry for dynamics (positions and initial velocities):
=====================================================================
 Subroutine PRICEL returns:
 Original cell was already a primitive cell.
 

 Routine SETGRP: Setting up the symmetry group for a 
 hexagonal supercell.


 Subroutine GETGRP returns: Found  1 space group operations
 (whereof  1 operations were pure point group operations)
 out of a pool of 24 trial point group operations.


The dynamic configuration has the point symmetry C_1 .


Analysis of structural, dynamic, and magnetic symmetry:
=====================================================================
 Subroutine PRICEL returns:
 Original cell was already a primitive cell.
 

 Routine SETGRP: Setting up the symmetry group for a 
 hexagonal supercell.


 Subroutine GETGRP returns: Found  1 space group operations
 (whereof  1 operations were pure point group operations)
 out of a pool of 24 trial point group operations.


The overall configuration has the point symmetry C_1 .


 Subroutine INISYM returns: Found  1 space group operations
 (whereof  1 operations are pure point group operations),
 and found     1 'primitive' translations


----------------------------------------------------------------------------------------

                                     Primitive cell                                     

  volume of cell :     304.3075

  direct lattice vectors                    reciprocal lattice vectors
     4.191562954  2.420000000  0.000000000     0.119287246  0.206611570  0.000000000
    -4.191562954  2.420000000  0.000000000    -0.119287246  0.206611570  0.000000000
     0.000000000  0.000000000 15.000000000     0.000000000  0.000000000  0.066666667

  length of vectors
     4.840000000  4.840000000 15.000000000     0.238574491  0.238574491  0.066666667

  position of ions in fractional coordinates (direct lattice)
     0.004153607  0.002672102  0.120341338
     0.356953351  0.002855031  0.097488934
     0.004238577  0.355506992  0.097492564
     0.651422953  0.650065570  0.097476879
     0.328086463  0.326719375  0.100305078
     0.680277748  0.002780852  0.100275621
     0.004165300  0.678838078  0.100265587
     0.166666000  0.333333000  0.337200000
     0.333333000  0.166666000  0.337200000
     0.166666000  0.833333000  0.337200000
     0.333333000  0.666666000  0.337200000
     0.666666000  0.333333000  0.337200000
     0.833333000  0.166666000  0.337200000
     0.666666000  0.833333000  0.337200000
     0.833333000  0.666666000  0.337200000

  ion indices of the primitive-cell ions
   primitive index   ion index
                 1           1
                 2           2
                 3           3
                 4           4
                 5           5
                 6           6
                 7           7
                 8           8
                 9           9
                10          10
                11          11
                12          12
                13          13
                14          14
                15          15

----------------------------------------------------------------------------------------

 
 
 KPOINTS: k-points                                

Automatic generation of k-mesh.
 Grid dimensions read from file:
 generate k-points for:   12   12    1

 Generating k-lattice:

  Cartesian coordinates                     Fractional coordinates (reciprocal lattice)
     0.009940604  0.017217631  0.000000000     0.083333333  0.000000000  0.000000000
    -0.009940604  0.017217631  0.000000000     0.000000000  0.083333333  0.000000000
     0.000000000  0.000000000  0.066666667     0.000000000  0.000000000  1.000000000

  Length of vectors
     0.019881208  0.019881208  0.066666667

  Shift w.r.t. Gamma in fractional coordinates (k-lattice)
     0.000000000  0.000000000  0.000000000

 
 Subroutine IBZKPT returns following result:
 ===========================================
 
 Found     74 irreducible k-points:
 
 Following reciprocal coordinates:
            Coordinates               Weight
  0.000000  0.000000  0.000000      1.000000
  0.083333  0.000000  0.000000      2.000000
  0.000000  0.083333  0.000000      2.000000
 -0.083333  0.083333  0.000000      2.000000
  0.166667  0.000000  0.000000      2.000000
  0.000000  0.166667  0.000000      2.000000
 -0.166667  0.166667  0.000000      2.000000
  0.250000  0.000000  0.000000      2.000000
  0.000000  0.250000  0.000000      2.000000
 -0.250000  0.250000  0.000000      2.000000
  0.333333  0.000000  0.000000      2.000000
 -0.000000  0.333333  0.000000      2.000000
 -0.333333  0.333333  0.000000      2.000000
  0.416667  0.000000  0.000000      2.000000
 -0.000000  0.416667  0.000000      2.000000
 -0.416667  0.416667  0.000000      2.000000
  0.500000  0.000000  0.000000      1.000000
  0.000000  0.500000  0.000000      1.000000
  0.500000  0.500000  0.000000      1.000000
  0.083333  0.083333  0.000000      2.000000
 -0.083333  0.166667  0.000000      2.000000
 -0.166667  0.083333  0.000000      2.000000
  0.166667  0.083333  0.000000      2.000000
 -0.083333  0.250000  0.000000      2.000000
 -0.250000  0.166667  0.000000      2.000000
 -0.166667  0.250000  0.000000      2.000000
  0.083333  0.166667  0.000000      2.000000
  0.250000 -0.083333  0.000000      2.000000
  0.250000  0.083333  0.000000      2.000000
 -0.083333  0.333333  0.000000      2.000000
 -0.333333  0.250000  0.000000      2.000000
 -0.250000  0.333333  0.000000      2.000000
  0.083333  0.250000  0.000000      2.000000
  0.333333 -0.083333  0.000000      2.000000
  0.333333  0.083333  0.000000      2.000000
 -0.083333  0.416667  0.000000      2.000000
 -0.416667  0.333333  0.000000      2.000000
 -0.333333  0.416667  0.000000      2.000000
  0.083333  0.333333  0.000000      2.000000
  0.416667 -0.083333  0.000000      2.000000
  0.416667  0.083333  0.000000      2.000000
 -0.083333  0.500000  0.000000      2.000000
  0.500000  0.416667  0.000000      2.000000
 -0.416667  0.500000  0.000000      2.000000
  0.083333  0.416667  0.000000      2.000000
  0.500000 -0.083333  0.000000      2.000000
  0.166667  0.166667  0.000000      2.000000
 -0.166667  0.333333  0.000000      2.000000
 -0.333333  0.166667  0.000000      2.000000
  0.250000  0.166667  0.000000      2.000000
 -0.166667  0.416667  0.000000      2.000000
 -0.416667  0.250000  0.000000      2.000000
 -0.250000  0.416667  0.000000      2.000000
  0.166667  0.250000  0.000000      2.000000
  0.416667 -0.166667  0.000000      2.000000
  0.333333  0.166667  0.000000      2.000000
 -0.166667  0.500000  0.000000      2.000000
  0.500000  0.333333  0.000000      2.000000
 -0.333333  0.500000  0.000000      2.000000
  0.166667  0.333333  0.000000      2.000000
  0.500000 -0.166667  0.000000      2.000000
  0.416667  0.166667  0.000000      2.000000
 -0.166667 -0.416667  0.000000      2.000000
  0.416667  0.416667  0.000000      2.000000
  0.250000  0.250000  0.000000      2.000000
 -0.250000  0.500000  0.000000      2.000000
  0.500000  0.250000  0.000000      2.000000
  0.333333  0.250000  0.000000      2.000000
 -0.250000 -0.416667  0.000000      2.000000
  0.416667  0.333333  0.000000      2.000000
 -0.333333 -0.416667  0.000000      2.000000
  0.250000  0.333333  0.000000      2.000000
 -0.416667 -0.250000  0.000000      2.000000
  0.333333  0.333333  0.000000      2.000000
 
 Following cartesian coordinates:
            Coordinates               Weight
  0.000000  0.000000  0.000000      1.000000
  0.009941  0.017218  0.000000      2.000000
 -0.009941  0.017218  0.000000      2.000000
 -0.019881 -0.000000  0.000000      2.000000
  0.019881  0.034435  0.000000      2.000000
 -0.019881  0.034435  0.000000      2.000000
 -0.039762  0.000000  0.000000      2.000000
  0.029822  0.051653  0.000000      2.000000
 -0.029822  0.051653  0.000000      2.000000
 -0.059644 -0.000000  0.000000      2.000000
  0.039762  0.068871  0.000000      2.000000
 -0.039762  0.068871  0.000000      2.000000
 -0.079525 -0.000000  0.000000      2.000000
  0.049703  0.086088  0.000000      2.000000
 -0.049703  0.086088  0.000000      2.000000
 -0.099406 -0.000000  0.000000      2.000000
  0.059644  0.103306  0.000000      1.000000
 -0.059644  0.103306  0.000000      1.000000
  0.000000  0.206612  0.000000      1.000000
 -0.000000  0.034435  0.000000      2.000000
 -0.029822  0.017218  0.000000      2.000000
 -0.029822 -0.017218  0.000000      2.000000
  0.009941  0.051653  0.000000      2.000000
 -0.039762  0.034435  0.000000      2.000000
 -0.049703 -0.017218  0.000000      2.000000
 -0.049703  0.017218  0.000000      2.000000
 -0.009941  0.051653  0.000000      2.000000
  0.039762  0.034435  0.000000      2.000000
  0.019881  0.068871  0.000000      2.000000
 -0.049703  0.051653  0.000000      2.000000
 -0.069584 -0.017218  0.000000      2.000000
 -0.069584  0.017218  0.000000      2.000000
 -0.019881  0.068871  0.000000      2.000000
  0.049703  0.051653  0.000000      2.000000
  0.029822  0.086088  0.000000      2.000000
 -0.059644  0.068871  0.000000      2.000000
 -0.089465 -0.017218  0.000000      2.000000
 -0.089465  0.017218  0.000000      2.000000
 -0.029822  0.086088  0.000000      2.000000
  0.059644  0.068871  0.000000      2.000000
  0.039762  0.103306  0.000000      2.000000
 -0.069584  0.086088  0.000000      2.000000
  0.009941  0.189394  0.000000      2.000000
 -0.109347  0.017218  0.000000      2.000000
 -0.039762  0.103306  0.000000      2.000000
  0.069584  0.086088  0.000000      2.000000
 -0.000000  0.068871  0.000000      2.000000
 -0.059644  0.034435  0.000000      2.000000
 -0.059644 -0.034435  0.000000      2.000000
  0.009941  0.086088  0.000000      2.000000
 -0.069584  0.051653  0.000000      2.000000
 -0.079525 -0.034435  0.000000      2.000000
 -0.079525  0.034435  0.000000      2.000000
 -0.009941  0.086088  0.000000      2.000000
  0.069584  0.051653  0.000000      2.000000
  0.019881  0.103306  0.000000      2.000000
 -0.079525  0.068871  0.000000      2.000000
  0.019881  0.172176  0.000000      2.000000
 -0.099406  0.034435  0.000000      2.000000
 -0.019881  0.103306  0.000000      2.000000
  0.079525  0.068871  0.000000      2.000000
  0.029822  0.120523  0.000000      2.000000
  0.029822 -0.120523  0.000000      2.000000
  0.000000  0.172176  0.000000      2.000000
  0.000000  0.103306  0.000000      2.000000
 -0.089465  0.051653  0.000000      2.000000
  0.029822  0.154959  0.000000      2.000000
  0.009941  0.120523  0.000000      2.000000
  0.019881 -0.137741  0.000000      2.000000
  0.009941  0.154959  0.000000      2.000000
  0.009941 -0.154959  0.000000      2.000000
 -0.009941  0.120523  0.000000      2.000000
 -0.019881 -0.137741  0.000000      2.000000
 -0.000000  0.137741  0.000000      2.000000
 


--------------------------------------------------------------------------------------------------------




 Dimension of arrays:
   k-points           NKPTS =     74   k-points in BZ     NKDIM =     74   number of bands    NBANDS=     48
   number of dos      NEDOS =    301   number of ions     NIONS =     15
   non local maximal  LDIM  =      4   non local SUM 2l+1 LMDIM =      8
   total plane-waves  NPLWV = 139968
   max r-space proj   IRMAX =      1   max aug-charges    IRDMAX=   7371
   dimension x,y,z NGX =    36 NGY =   36 NGZ =  108
   dimension x,y,z NGXF=    72 NGYF=   72 NGZF=  216
   support grid    NGXF=    72 NGYF=   72 NGZF=  216
   ions per type =               4  11
   NGX,Y,Z   is equivalent  to a cutoff of  12.37, 12.37, 11.97 a.u.
   NGXF,Y,Z  is equivalent  to a cutoff of  24.73, 24.73, 23.94 a.u.

 SYSTEM =  Lattice                                 
 POSCAR =  Graphene-B4C3 Hollow 2 with lattice para

 Startparameter for this run:
   NWRITE =      2    write-flag & timer
   PREC   = accura    normal or accurate (medium, high low for compatibility)
   ISTART =      0    job   : 0-new  1-cont  2-samecut
   ICHARG =      2    charge: 1-file 2-atom 10-const
   ISPIN  =      2    spin polarized calculation?
   LNONCOLLINEAR =      F non collinear calculations
   LSORBIT =      F    spin-orbit coupling
   INIWAV =      1    electr: 0-lowe 1-rand  2-diag
   LASPH  =      F    aspherical Exc in radial PAW
 Electronic Relaxation 1
   ENCUT  =  450.0 eV  33.07 Ry    5.75 a.u.   8.37  8.37 25.95*2*pi/ulx,y,z
   ENINI  =  450.0     initial cutoff
   ENAUG  =  644.9 eV  augmentation charge cutoff
   NELM   =     64;   NELMIN=  2; NELMDL= -5     # of ELM steps 
   EDIFF  = 0.1E-05   stopping-criterion for ELM
   LREAL  =      F    real-space projection
   NLSPLINE    = F    spline interpolate recip. space projectors
   LCOMPAT=      F    compatible to vasp.4.4
   GGA_COMPAT  = T    GGA compatible to vasp.4.4-vasp.4.6
   LMAXPAW     = -100 max onsite density
   LMAXMIX     =    2 max onsite mixed and CHGCAR
   VOSKOWN=      0    Vosko Wilk Nusair interpolation
   ROPT   =    0.00000   0.00000
 Ionic relaxation
   EDIFFG = -.1E-02   stopping-criterion for IOM
   NSW    =    128    number of steps for IOM
   NBLOCK =      1;   KBLOCK =    128    inner block; outer block 
   IBRION =      2    ionic relax: 0-MD 1-quasi-New 2-CG
   NFREE  =      1    steps in history (QN), initial steepest desc. (CG)
   ISIF   =      2    stress and relaxation
   IWAVPR =     11    prediction:  0-non 1-charg 2-wave 3-comb
   ISYM   =      2    0-nonsym 1-usesym 2-fastsym
   LCORR  =      T    Harris-Foulkes like correction to forces

   POTIM  = 0.5000    time-step for ionic-motion
   TEIN   =    0.0    initial temperature
   TEBEG  =    0.0;   TEEND  =   0.0 temperature during run
   SMASS  =  -3.00    Nose mass-parameter (am)
   estimated Nose-frequenzy (Omega)   =  0.10E-29 period in steps = 0.13E+47 mass=  -0.535E-27a.u.
   SCALEE = 1.0000    scale energy and forces
   NPACO  =    256;   APACO  = 10.0  distance and # of slots for P.C.
   PSTRESS=    0.0 pullay stress

  Mass of Ions in am
   POMASS =  10.81 12.01
  Ionic Valenz
   ZVAL   =   3.00  4.00
  Atomic Wigner-Seitz radii
   RWIGS  =  -1.00 -1.00
  virtual crystal weights 
   VCA    =   1.00  1.00
   NELECT =      56.0000    total number of electrons
   NUPDOWN=      -1.0000    fix difference up-down

 DOS related values:
   EMIN   =  10.00;   EMAX   =-10.00  energy-range for DOS
   EFERMI =   0.00
   ISMEAR =     0;   SIGMA  =   0.10  broadening in eV -4-tet -1-fermi 0-gaus

 Electronic relaxation 2 (details)
   IALGO  =     38    algorithm
   LDIAG  =      T    sub-space diagonalisation (order eigenvalues)
   LSUBROT=      F    optimize rotation matrix (better conditioning)
   TURBO    =      0    0=normal 1=particle mesh
   IRESTART =      0    0=no restart 2=restart with 2 vectors
   NREBOOT  =      0    no. of reboots
   NMIN     =      0    reboot dimension
   EREF     =   0.00    reference energy to select bands
   IMIX   =      4    mixing-type and parameters
     AMIX     =   0.40;   BMIX     =  1.00
     AMIX_MAG =   1.60;   BMIX_MAG =  1.00
     AMIN     =   0.10
     WC   =   100.;   INIMIX=   1;  MIXPRE=   1;  MAXMIX= -45

 Intra band minimization:
   WEIMIN = 0.0010     energy-eigenvalue tresh-hold
   EBREAK =  0.52E-08  absolut break condition
   DEPER  =   0.30     relativ break condition  

   TIME   =   0.40     timestep for ELM

  volume/ion in A,a.u.               =      20.29       136.90
  Fermi-wavevector in a.u.,A,eV,Ry     =   0.931179  1.759674 11.797542  0.867095
  Thomas-Fermi vector in A             =   2.057645
 
 Write flags
   LWAVE        =      F    write WAVECAR
   LDOWNSAMPLE  =      F    k-point downsampling of WAVECAR
   LCHARG       =      F    write CHGCAR
   LVTOT        =      F    write LOCPOT, total local potential
   LVHAR        =      F    write LOCPOT, Hartree potential only
   LELF         =      F    write electronic localiz. function (ELF)
   LORBIT       =      0    0 simple, 1 ext, 2 COOP (PROOUT), +10 PAW based schemes


 Dipole corrections
   LMONO  =      F    monopole corrections only (constant potential shift)
   LDIPOL =      F    correct potential (dipole corrections)
   IDIPOL =      0    1-x, 2-y, 3-z, 4-all directions 
   EPSILON=  1.0000000 bulk dielectric constant

 Exchange correlation treatment:
   GGA     =    PE    GGA type
   LEXCH   =     8    internal setting for exchange type
   LIBXC   =     F    Libxc                    
   VOSKOWN =     0    Vosko Wilk Nusair interpolation
   LHFCALC =     F    Hartree Fock is set to
   LHFONE  =     F    Hartree Fock one center treatment
   AEXX    =    0.0000 exact exchange contribution

 Linear response parameters
   LEPSILON=     F    determine dielectric tensor
   LRPA    =     F    only Hartree local field effects (RPA)
   LNABLA  =     F    use nabla operator in PAW spheres
   LVEL    =     F    velocity operator in full k-point grid
   CSHIFT  =0.1000    complex shift for real part using Kramers Kronig
   OMEGAMAX=  -1.0    maximum frequency
   DEG_THRESHOLD= 0.2000000E-02 threshold for treating states as degnerate
   RTIME   =   -0.100 relaxation time in fs
  (WPLASMAI=    0.000 imaginary part of plasma frequency in eV, 0.658/RTIME)
   DFIELD  = 0.0000000 0.0000000 0.0000000 field for delta impulse in time
 
  Optional k-point grid parameters
   LKPOINTS_OPT  =     F    use optional k-point grid
   KPOINTS_OPT_MODE=     1    mode for optional k-point grid
 
 Orbital magnetization related:
   ORBITALMAG=     F  switch on orbital magnetization
   LCHIMAG   =     F  perturbation theory with respect to B field
   DQ        =  0.001000  dq finite difference perturbation B field
   LLRAUG    =     F  two centre corrections for induced B field



--------------------------------------------------------------------------------------------------------


 conjugate gradient relaxation of ions
 charge density and potential will be updated during run
 spin polarized calculation
 Variant of blocked Davidson
 Davidson routine will perform the subspace rotation
 perform sub-space diagonalisation
    after iterative eigenvector-optimisation
 modified Broyden-mixing scheme, WC =      100.0
 initial mixing is a Kerker type mixing with AMIX =  0.4000 and BMIX =      1.0000
 Hartree-type preconditioning will be used
 using additional bands           20
 reciprocal scheme for non local part
 use partial core corrections
 calculate Harris-corrections to forces 
   (improved forces if not selfconsistent)
 use gradient corrections 
 use of overlap-Matrix (Vanderbilt PP)
 Gauss-broadening in eV      SIGMA  =   0.10


--------------------------------------------------------------------------------------------------------


  energy-cutoff  :      450.00
  volume of cell :      304.31
      direct lattice vectors                 reciprocal lattice vectors
     4.191562954  2.420000000  0.000000000     0.119287246  0.206611570  0.000000000
    -4.191562954  2.420000000  0.000000000    -0.119287246  0.206611570  0.000000000
     0.000000000  0.000000000 15.000000000     0.000000000  0.000000000  0.066666667

  length of vectors
     4.840000000  4.840000000 15.000000000     0.238574491  0.238574491  0.066666667


 
 k-points in units of 2pi/SCALE and weight: k-points                                
   0.00000000  0.00000000  0.00000000       0.007
   0.00994060  0.01721763  0.00000000       0.014
  -0.00994060  0.01721763  0.00000000       0.014
  -0.01988121 -0.00000000  0.00000000       0.014
   0.01988121  0.03443526  0.00000000       0.014
  -0.01988121  0.03443526  0.00000000       0.014
  -0.03976242  0.00000000  0.00000000       0.014
   0.02982181  0.05165289  0.00000000       0.014
  -0.02982181  0.05165289  0.00000000       0.014
  -0.05964362 -0.00000000  0.00000000       0.014
   0.03976242  0.06887052  0.00000000       0.014
  -0.03976242  0.06887052  0.00000000       0.014
  -0.07952483 -0.00000000  0.00000000       0.014
   0.04970302  0.08608815  0.00000000       0.014
  -0.04970302  0.08608815  0.00000000       0.014
  -0.09940604 -0.00000000  0.00000000       0.014
   0.05964362  0.10330579  0.00000000       0.007
  -0.05964362  0.10330579  0.00000000       0.007
   0.00000000  0.20661157  0.00000000       0.007
  -0.00000000  0.03443526  0.00000000       0.014
  -0.02982181  0.01721763  0.00000000       0.014
  -0.02982181 -0.01721763  0.00000000       0.014
   0.00994060  0.05165289  0.00000000       0.014
  -0.03976242  0.03443526  0.00000000       0.014
  -0.04970302 -0.01721763  0.00000000       0.014
  -0.04970302  0.01721763  0.00000000       0.014
  -0.00994060  0.05165289  0.00000000       0.014
   0.03976242  0.03443526  0.00000000       0.014
   0.01988121  0.06887052  0.00000000       0.014
  -0.04970302  0.05165289  0.00000000       0.014
  -0.06958423 -0.01721763  0.00000000       0.014
  -0.06958423  0.01721763  0.00000000       0.014
  -0.01988121  0.06887052  0.00000000       0.014
   0.04970302  0.05165289  0.00000000       0.014
   0.02982181  0.08608815  0.00000000       0.014
  -0.05964362  0.06887052  0.00000000       0.014
  -0.08946543 -0.01721763  0.00000000       0.014
  -0.08946543  0.01721763  0.00000000       0.014
  -0.02982181  0.08608815  0.00000000       0.014
   0.05964362  0.06887052  0.00000000       0.014
   0.03976242  0.10330579  0.00000000       0.014
  -0.06958423  0.08608815  0.00000000       0.014
   0.00994060  0.18939394  0.00000000       0.014
  -0.10934664  0.01721763  0.00000000       0.014
  -0.03976242  0.10330579  0.00000000       0.014
   0.06958423  0.08608815  0.00000000       0.014
  -0.00000000  0.06887052  0.00000000       0.014
  -0.05964362  0.03443526  0.00000000       0.014
  -0.05964362 -0.03443526  0.00000000       0.014
   0.00994060  0.08608815  0.00000000       0.014
  -0.06958423  0.05165289  0.00000000       0.014
  -0.07952483 -0.03443526  0.00000000       0.014
  -0.07952483  0.03443526  0.00000000       0.014
  -0.00994060  0.08608815  0.00000000       0.014
   0.06958423  0.05165289  0.00000000       0.014
   0.01988121  0.10330579  0.00000000       0.014
  -0.07952483  0.06887052  0.00000000       0.014
   0.01988121  0.17217631  0.00000000       0.014
  -0.09940604  0.03443526  0.00000000       0.014
  -0.01988121  0.10330579  0.00000000       0.014
   0.07952483  0.06887052  0.00000000       0.014
   0.02982181  0.12052342  0.00000000       0.014
   0.02982181 -0.12052342  0.00000000       0.014
   0.00000000  0.17217631  0.00000000       0.014
   0.00000000  0.10330579  0.00000000       0.014
  -0.08946543  0.05165289  0.00000000       0.014
   0.02982181  0.15495868  0.00000000       0.014
   0.00994060  0.12052342  0.00000000       0.014
   0.01988121 -0.13774105  0.00000000       0.014
   0.00994060  0.15495868  0.00000000       0.014
   0.00994060 -0.15495868  0.00000000       0.014
  -0.00994060  0.12052342  0.00000000       0.014
  -0.01988121 -0.13774105  0.00000000       0.014
  -0.00000000  0.13774105  0.00000000       0.014
 
 k-points in reciprocal lattice and weights: k-points                                
   0.00000000  0.00000000  0.00000000       0.007
   0.08333333  0.00000000  0.00000000       0.014
   0.00000000  0.08333333  0.00000000       0.014
  -0.08333333  0.08333333  0.00000000       0.014
   0.16666667  0.00000000  0.00000000       0.014
   0.00000000  0.16666667  0.00000000       0.014
  -0.16666667  0.16666667  0.00000000       0.014
   0.25000000  0.00000000  0.00000000       0.014
   0.00000000  0.25000000  0.00000000       0.014
  -0.25000000  0.25000000  0.00000000       0.014
   0.33333333  0.00000000  0.00000000       0.014
  -0.00000000  0.33333333  0.00000000       0.014
  -0.33333333  0.33333333  0.00000000       0.014
   0.41666667  0.00000000  0.00000000       0.014
  -0.00000000  0.41666667  0.00000000       0.014
  -0.41666667  0.41666667  0.00000000       0.014
   0.50000000  0.00000000  0.00000000       0.007
   0.00000000  0.50000000  0.00000000       0.007
   0.50000000  0.50000000  0.00000000       0.007
   0.08333333  0.08333333  0.00000000       0.014
  -0.08333333  0.16666667  0.00000000       0.014
  -0.16666667  0.08333333  0.00000000       0.014
   0.16666667  0.08333333  0.00000000       0.014
  -0.08333333  0.25000000  0.00000000       0.014
  -0.25000000  0.16666667  0.00000000       0.014
  -0.16666667  0.25000000  0.00000000       0.014
   0.08333333  0.16666667  0.00000000       0.014
   0.25000000 -0.08333333  0.00000000       0.014
   0.25000000  0.08333333  0.00000000       0.014
  -0.08333333  0.33333333  0.00000000       0.014
  -0.33333333  0.25000000  0.00000000       0.014
  -0.25000000  0.33333333  0.00000000       0.014
   0.08333333  0.25000000  0.00000000       0.014
   0.33333333 -0.08333333  0.00000000       0.014
   0.33333333  0.08333333  0.00000000       0.014
  -0.08333333  0.41666667  0.00000000       0.014
  -0.41666667  0.33333333  0.00000000       0.014
  -0.33333333  0.41666667  0.00000000       0.014
   0.08333333  0.33333333  0.00000000       0.014
   0.41666667 -0.08333333  0.00000000       0.014
   0.41666667  0.08333333  0.00000000       0.014
  -0.08333333  0.50000000  0.00000000       0.014
   0.50000000  0.41666667  0.00000000       0.014
  -0.41666667  0.50000000  0.00000000       0.014
   0.08333333  0.41666667  0.00000000       0.014
   0.50000000 -0.08333333  0.00000000       0.014
   0.16666667  0.16666667  0.00000000       0.014
  -0.16666667  0.33333333  0.00000000       0.014
  -0.33333333  0.16666667  0.00000000       0.014
   0.25000000  0.16666667  0.00000000       0.014
  -0.16666667  0.41666667  0.00000000       0.014
  -0.41666667  0.25000000  0.00000000       0.014
  -0.25000000  0.41666667  0.00000000       0.014
   0.16666667  0.25000000  0.00000000       0.014
   0.41666667 -0.16666667  0.00000000       0.014
   0.33333333  0.16666667  0.00000000       0.014
  -0.16666667  0.50000000  0.00000000       0.014
   0.50000000  0.33333333  0.00000000       0.014
  -0.33333333  0.50000000  0.00000000       0.014
   0.16666667  0.33333333  0.00000000       0.014
   0.50000000 -0.16666667  0.00000000       0.014
   0.41666667  0.16666667  0.00000000       0.014
  -0.16666667 -0.41666667  0.00000000       0.014
   0.41666667  0.41666667  0.00000000       0.014
   0.25000000  0.25000000  0.00000000       0.014
  -0.25000000  0.50000000  0.00000000       0.014
   0.50000000  0.25000000  0.00000000       0.014
   0.33333333  0.25000000  0.00000000       0.014
  -0.25000000 -0.41666667  0.00000000       0.014
   0.41666667  0.33333333  0.00000000       0.014
  -0.33333333 -0.41666667  0.00000000       0.014
   0.25000000  0.33333333  0.00000000       0.014
  -0.41666667 -0.25000000  0.00000000       0.014
   0.33333333  0.33333333  0.00000000       0.014
 
 position of ions in fractional coordinates (direct lattice) 
   0.00415361  0.00267210  0.12034134
   0.35695335  0.00285503  0.09748893
   0.00423858  0.35550699  0.09749256
   0.65142295  0.65006557  0.09747688
   0.32808646  0.32671938  0.10030508
   0.68027775  0.00278085  0.10027562
   0.00416530  0.67883808  0.10026559
   0.16666600  0.33333300  0.33720000
   0.33333300  0.16666600  0.33720000
   0.16666600  0.83333300  0.33720000
   0.33333300  0.66666600  0.33720000
   0.66666600  0.33333300  0.33720000
   0.83333300  0.16666600  0.33720000
   0.66666600  0.83333300  0.33720000
   0.83333300  0.66666600  0.33720000
 
 position of ions in cartesian coordinates  (Angst):
   0.00620982  0.01651822  1.80512007
   1.48422540  0.87073628  1.46233401
  -1.47236367  0.87058428  1.46238846
   0.00568955  3.14960223  1.46215318
   0.00573023  1.58463013  1.50457617
   2.83977089  1.65300181  1.50413432
  -2.82793342  1.65286818  1.50398380
  -0.69859522  1.20999758  5.05800000
   0.69859522  1.20999758  5.05800000
  -2.79437670  2.41999758  5.05800000
  -1.39718625  2.41999758  5.05800000
   1.39718625  2.41999758  5.05800000
   2.79437670  2.41999758  5.05800000
  -0.69859522  3.62999758  5.05800000
   0.69859522  3.62999758  5.05800000
 


--------------------------------------------------------------------------------------------------------


 k-point   1 :   0.0000 0.0000 0.0000  plane waves:    6645
 k-point   2 :   0.0833 0.0000 0.0000  plane waves:    6613
 k-point   3 :   0.0000 0.0833 0.0000  plane waves:    6613
 k-point   4 :  -0.0833 0.0833 0.0000  plane waves:    6613
 k-point   5 :   0.1667 0.0000 0.0000  plane waves:    6635
 k-point   6 :   0.0000 0.1667 0.0000  plane waves:    6635
 k-point   7 :  -0.1667 0.1667 0.0000  plane waves:    6635
 k-point   8 :   0.2500 0.0000 0.0000  plane waves:    6599
 k-point   9 :   0.0000 0.2500 0.0000  plane waves:    6599
 k-point  10 :  -0.2500 0.2500 0.0000  plane waves:    6599
 k-point  11 :   0.3333 0.0000 0.0000  plane waves:    6580
 k-point  12 :  -0.0000 0.3333 0.0000  plane waves:    6580
 k-point  13 :  -0.3333 0.3333 0.0000  plane waves:    6580
 k-point  14 :   0.4167 0.0000 0.0000  plane waves:    6578
 k-point  15 :  -0.0000 0.4167 0.0000  plane waves:    6578
 k-point  16 :  -0.4167 0.4167 0.0000  plane waves:    6578
 k-point  17 :   0.5000 0.0000 0.0000  plane waves:    6594
 k-point  18 :   0.0000 0.5000 0.0000  plane waves:    6594
 k-point  19 :   0.5000 0.5000 0.0000  plane waves:    6594
 k-point  20 :   0.0833 0.0833 0.0000  plane waves:    6621
 k-point  21 :  -0.0833 0.1667 0.0000  plane waves:    6621
 k-point  22 :  -0.1667 0.0833 0.0000  plane waves:    6621
 k-point  23 :   0.1667 0.0833 0.0000  plane waves:    6616
 k-point  24 :  -0.0833 0.2500 0.0000  plane waves:    6616
 k-point  25 :  -0.2500 0.1667 0.0000  plane waves:    6616
 k-point  26 :  -0.1667 0.2500 0.0000  plane waves:    6616
 k-point  27 :   0.0833 0.1667 0.0000  plane waves:    6616
 k-point  28 :   0.2500-0.0833 0.0000  plane waves:    6616
 k-point  29 :   0.2500 0.0833 0.0000  plane waves:    6583
 k-point  30 :  -0.0833 0.3333 0.0000  plane waves:    6583
 k-point  31 :  -0.3333 0.2500 0.0000  plane waves:    6583
 k-point  32 :  -0.2500 0.3333 0.0000  plane waves:    6583
 k-point  33 :   0.0833 0.2500 0.0000  plane waves:    6583
 k-point  34 :   0.3333-0.0833 0.0000  plane waves:    6583
 k-point  35 :   0.3333 0.0833 0.0000  plane waves:    6572
 k-point  36 :  -0.0833 0.4167 0.0000  plane waves:    6572
 k-point  37 :  -0.4167 0.3333 0.0000  plane waves:    6572
 k-point  38 :  -0.3333 0.4167 0.0000  plane waves:    6572
 k-point  39 :   0.0833 0.3333 0.0000  plane waves:    6572
 k-point  40 :   0.4167-0.0833 0.0000  plane waves:    6572
 k-point  41 :   0.4167 0.0833 0.0000  plane waves:    6586
 k-point  42 :  -0.0833 0.5000 0.0000  plane waves:    6586
 k-point  43 :   0.5000 0.4167 0.0000  plane waves:    6586
 k-point  44 :  -0.4167 0.5000 0.0000  plane waves:    6586
 k-point  45 :   0.0833 0.4167 0.0000  plane waves:    6586
 k-point  46 :   0.5000-0.0833 0.0000  plane waves:    6586
 k-point  47 :   0.1667 0.1667 0.0000  plane waves:    6585
 k-point  48 :  -0.1667 0.3333 0.0000  plane waves:    6585
 k-point  49 :  -0.3333 0.1667 0.0000  plane waves:    6585
 k-point  50 :   0.2500 0.1667 0.0000  plane waves:    6578
 k-point  51 :  -0.1667 0.4167 0.0000  plane waves:    6578
 k-point  52 :  -0.4167 0.2500 0.0000  plane waves:    6578
 k-point  53 :  -0.2500 0.4167 0.0000  plane waves:    6578
 k-point  54 :   0.1667 0.2500 0.0000  plane waves:    6578
 k-point  55 :   0.4167-0.1667 0.0000  plane waves:    6578
 k-point  56 :   0.3333 0.1667 0.0000  plane waves:    6593
 k-point  57 :  -0.1667 0.5000 0.0000  plane waves:    6593
 k-point  58 :   0.5000 0.3333 0.0000  plane waves:    6593
 k-point  59 :  -0.3333 0.5000 0.0000  plane waves:    6593
 k-point  60 :   0.1667 0.3333 0.0000  plane waves:    6593
 k-point  61 :   0.5000-0.1667 0.0000  plane waves:    6593
 k-point  62 :   0.4167 0.1667 0.0000  plane waves:    6574
 k-point  63 :  -0.1667-0.4167 0.0000  plane waves:    6574
 k-point  64 :   0.4167 0.4167 0.0000  plane waves:    6574
 k-point  65 :   0.2500 0.2500 0.0000  plane waves:    6586
 k-point  66 :  -0.2500 0.5000 0.0000  plane waves:    6586
 k-point  67 :   0.5000 0.2500 0.0000  plane waves:    6586
 k-point  68 :   0.3333 0.2500 0.0000  plane waves:    6588
 k-point  69 :  -0.2500-0.4167 0.0000  plane waves:    6588
 k-point  70 :   0.4167 0.3333 0.0000  plane waves:    6588
 k-point  71 :  -0.3333-0.4167 0.0000  plane waves:    6588
 k-point  72 :   0.2500 0.3333 0.0000  plane waves:    6588
 k-point  73 :  -0.4167-0.2500 0.0000  plane waves:    6588
 k-point  74 :   0.3333 0.3333 0.0000  plane waves:    6588

 maximum and minimum number of plane-waves per node :      6645     6572

 maximum number of plane-waves:      6645
 maximum index in each direction: 
   IXMAX=    8   IYMAX=    8   IZMAX=   25
   IXMIN=   -8   IYMIN=   -8   IZMIN=  -25


 serial   3D FFT for wavefunctions
 parallel 3D FFT for charge:
    minimum data exchange during FFTs selected (reduces bandwidth)


 total amount of memory used by VASP MPI-rank0   126335. kBytes
=======================================================================

   base      :      30000. kBytes
   nonl-proj :      64798. kBytes
   fftplans  :       1560. kBytes
   grid      :      13745. kBytes
   one-center:         92. kBytes
   wavefun   :      16140. kBytes
 
     INWAV:  cpu time      0.0000: real time      0.0000
 Broyden mixing: mesh for mixing (old mesh)
   NGX = 17   NGY = 17   NGZ = 51
  (NGX  = 72   NGY  = 72   NGZ  =216)
  gives a total of  14739 points

 initial charge density was supplied:
 charge density of overlapping atoms calculated
 number of electron      56.0000000 magnetization      15.0000000
 keeping initial charge density in first step


--------------------------------------------------------------------------------------------------------


 Maximum index for augmentation-charges          395 (set IRDMAX)


--------------------------------------------------------------------------------------------------------


 First call to EWALD:  gamma=   0.264
 Maximum number of real-space cells 4x 4x 2
 Maximum number of reciprocal cells 2x 2x 6

    FEWALD:  cpu time      0.0017: real time      0.0017


--------------------------------------- Iteration      1(   1)  ---------------------------------------


    POTLOK:  cpu time      0.0402: real time      0.0411
    SETDIJ:  cpu time      0.0042: real time      0.0043
     EDDAV:  cpu time      5.4965: real time      5.5581
       DOS:  cpu time      0.0018: real time      0.0035
    --------------------------------------------
      LOOP:  cpu time      5.5428: real time      5.6070

 eigenvalue-minimisations  : 14208
 total energy-change (2. order) : 0.2030203E+03  (-0.2571052E+04)
 number of electron      56.0000000 magnetization      15.0000000
 augmentation part       56.0000000 magnetization      15.0000000

 Free energy of the ion-electron system (eV)
  ---------------------------------------------------
  alpha Z        PSCENC =        58.45171928
  Ewald energy   TEWEN  =      4703.69383946
  -Hartree energ DENC   =     -6259.09648260
  -exchange      EXHF   =         0.00000000
  -V(xc)+E(xc)   XCENC  =       175.20419937
  PAW double counting   =      1365.87943566    -1368.52100941
  entropy T*S    EENTRO =        -0.01648119
  eigenvalues    EBANDS =      -375.83832010
  atomic energy  EATOM  =      1903.26342058
  Solvation  Ediel_sol  =         0.00000000
  ---------------------------------------------------
  free energy    TOTEN  =       203.02032105 eV

  energy without entropy =      203.03680224  energy(sigma->0) =      203.02856164


--------------------------------------------------------------------------------------------------------




--------------------------------------- Iteration      1(   2)  ---------------------------------------


     EDDAV:  cpu time      8.0628: real time      8.1412
       DOS:  cpu time      0.0011: real time      0.0011
    --------------------------------------------
      LOOP:  cpu time      8.0639: real time      8.1424

 eigenvalue-minimisations  : 20544
 total energy-change (2. order) :-0.3198555E+03  (-0.3185297E+03)
 number of electron      56.0000000 magnetization      15.0000000
 augmentation part       56.0000000 magnetization      15.0000000

 Free energy of the ion-electron system (eV)
  ---------------------------------------------------
  alpha Z        PSCENC =        58.45171928
  Ewald energy   TEWEN  =      4703.69383946
  -Hartree energ DENC   =     -6259.09648260
  -exchange      EXHF   =         0.00000000
  -V(xc)+E(xc)   XCENC  =       175.20419937
  PAW double counting   =      1365.87943566    -1368.52100941
  entropy T*S    EENTRO =        -0.00078836
  eigenvalues    EBANDS =      -695.70954096
  atomic energy  EATOM  =      1903.26342058
  Solvation  Ediel_sol  =         0.00000000
  ---------------------------------------------------
  free energy    TOTEN  =      -116.83520697 eV

  energy without entropy =     -116.83441861  energy(sigma->0) =     -116.83481279


--------------------------------------------------------------------------------------------------------




--------------------------------------- Iteration      1(   3)  ---------------------------------------


     EDDAV:  cpu time     11.0858: real time     11.1650
       DOS:  cpu time      0.0011: real time      0.0011
    --------------------------------------------
      LOOP:  cpu time     11.0869: real time     11.1662

 eigenvalue-minimisations  : 26400
 total energy-change (2. order) :-0.1263753E+02  (-0.1262621E+02)
 number of electron      56.0000000 magnetization      15.0000000
 augmentation part       56.0000000 magnetization      15.0000000

 Free energy of the ion-electron system (eV)
  ---------------------------------------------------
  alpha Z        PSCENC =        58.45171928
  Ewald energy   TEWEN  =      4703.69383946
  -Hartree energ DENC   =     -6259.09648260
  -exchange      EXHF   =         0.00000000
  -V(xc)+E(xc)   XCENC  =       175.20419937
  PAW double counting   =      1365.87943566    -1368.52100941
  entropy T*S    EENTRO =        -0.00309256
  eigenvalues    EBANDS =      -708.34477145
  atomic energy  EATOM  =      1903.26342058
  Solvation  Ediel_sol  =         0.00000000
  ---------------------------------------------------
  free energy    TOTEN  =      -129.47274167 eV

  energy without entropy =     -129.46964911  energy(sigma->0) =     -129.47119539


--------------------------------------------------------------------------------------------------------




--------------------------------------- Iteration      1(   4)  ---------------------------------------


     EDDAV:  cpu time      8.4051: real time      8.4885
       DOS:  cpu time      0.0010: real time      0.0011
    --------------------------------------------
      LOOP:  cpu time      8.4061: real time      8.4896

 eigenvalue-minimisations  : 20784
 total energy-change (2. order) :-0.2416010E-01  (-0.2415941E-01)
 number of electron      56.0000000 magnetization      15.0000000
 augmentation part       56.0000000 magnetization      15.0000000

 Free energy of the ion-electron system (eV)
  ---------------------------------------------------
  alpha Z        PSCENC =        58.45171928
  Ewald energy   TEWEN  =      4703.69383946
  -Hartree energ DENC   =     -6259.09648260
  -exchange      EXHF   =         0.00000000
  -V(xc)+E(xc)   XCENC  =       175.20419937
  PAW double counting   =      1365.87943566    -1368.52100941
  entropy T*S    EENTRO =        -0.00309106
  eigenvalues    EBANDS =      -708.36893305
  atomic energy  EATOM  =      1903.26342058
  Solvation  Ediel_sol  =         0.00000000
  ---------------------------------------------------
  free energy    TOTEN  =      -129.49690178 eV

  energy without entropy =     -129.49381071  energy(sigma->0) =     -129.49535624


--------------------------------------------------------------------------------------------------------




--------------------------------------- Iteration      1(   5)  ---------------------------------------


     EDDAV:  cpu time     10.4859: real time     10.5593
       DOS:  cpu time      0.0011: real time      0.0011
    CHARGE:  cpu time      0.2760: real time      0.2850
    MIXING:  cpu time      0.0015: real time      0.0022
    --------------------------------------------
      LOOP:  cpu time     10.7645: real time     10.8476

 eigenvalue-minimisations  : 25152
 total energy-change (2. order) :-0.5617012E-04  (-0.5617035E-04)
 number of electron      55.9999998 magnetization      11.4640771
 augmentation part        1.2085511 magnetization      11.2824212

 Broyden mixing:
  rms(total) = 0.24479E+01    rms(broyden)= 0.24477E+01
  rms(prec ) = 0.26233E+01
  weight for this iteration     100.00

 Free energy of the ion-electron system (eV)
  ---------------------------------------------------
  alpha Z        PSCENC =        58.45171928
  Ewald energy   TEWEN  =      4703.69383946
  -Hartree energ DENC   =     -6259.09648260
  -exchange      EXHF   =         0.00000000
  -V(xc)+E(xc)   XCENC  =       175.20419937
  PAW double counting   =      1365.87943566    -1368.52100941
  entropy T*S    EENTRO =        -0.00309133
  eigenvalues    EBANDS =      -708.36898896
  atomic energy  EATOM  =      1903.26342058
  Solvation  Ediel_sol  =         0.00000000
  ---------------------------------------------------
  free energy    TOTEN  =      -129.49695795 eV

  energy without entropy =     -129.49386662  energy(sigma->0) =     -129.49541228


--------------------------------------------------------------------------------------------------------




--------------------------------------- Iteration      1(   6)  ---------------------------------------


    POTLOK:  cpu time      0.0354: real time      0.0386
    SETDIJ:  cpu time      0.0033: real time      0.0036
     EDDAV:  cpu time     10.8792: real time     10.9614
       DOS:  cpu time      0.0011: real time      0.0011
    CHARGE:  cpu time      0.2767: real time      0.2840
    MIXING:  cpu time      0.0009: real time      0.0011
    --------------------------------------------
      LOOP:  cpu time     11.1965: real time     11.2897

 eigenvalue-minimisations  : 26064
 total energy-change (2. order) : 0.3743371E+02  (-0.7190495E+01)
 number of electron      55.9999999 magnetization       7.8584508
 augmentation part        1.1550383 magnetization       7.4910154

 Broyden mixing:
  rms(total) = 0.13904E+01    rms(broyden)= 0.13904E+01
  rms(prec ) = 0.15030E+01
  weight for this iteration     100.00

 eigenvalues of (default mixing * dielectric matrix)
  average eigenvalue GAMMA=   1.0714
  1.0714

 Free energy of the ion-electron system (eV)
  ---------------------------------------------------
  alpha Z        PSCENC =        58.45171928
  Ewald energy   TEWEN  =      4703.69383946
  -Hartree energ DENC   =     -6334.19210252
  -exchange      EXHF   =         0.00000000
  -V(xc)+E(xc)   XCENC  =       199.42292655
  PAW double counting   =      2644.39668363    -2648.25428843
  entropy T*S    EENTRO =        -0.00668290
  eigenvalues    EBANDS =      -618.83876793
  atomic energy  EATOM  =      1903.26342058
  Solvation  Ediel_sol  =         0.00000000
  ---------------------------------------------------
  free energy    TOTEN  =       -92.06325230 eV

  energy without entropy =      -92.05656939  energy(sigma->0) =      -92.05991084


--------------------------------------------------------------------------------------------------------




--------------------------------------- Iteration      1(   7)  ---------------------------------------


    POTLOK:  cpu time      0.0357: real time      0.0429
    SETDIJ:  cpu time      0.0032: real time      0.0033
     EDDAV:  cpu time      9.1779: real time      9.2442
       DOS:  cpu time      0.0011: real time      0.0011
    CHARGE:  cpu time      0.2766: real time      0.2832
    MIXING:  cpu time      0.0010: real time      0.0012
    --------------------------------------------
      LOOP:  cpu time      9.4956: real time      9.5758

 eigenvalue-minimisations  : 22320
 total energy-change (2. order) :-0.8437850E+01  (-0.9988472E+00)
 number of electron      55.9999999 magnetization       4.2923155
 augmentation part        1.0941983 magnetization       4.0132287

 Broyden mixing:
  rms(total) = 0.81055E+00    rms(broyden)= 0.81046E+00
  rms(prec ) = 0.84380E+00
  weight for this iteration     100.00

 eigenvalues of (default mixing * dielectric matrix)
  average eigenvalue GAMMA=   1.3845
  0.8832  1.8858

 Free energy of the ion-electron system (eV)
  ---------------------------------------------------
  alpha Z        PSCENC =        58.45171928
  Ewald energy   TEWEN  =      4703.69383946
  -Hartree energ DENC   =     -6407.48113017
  -exchange      EXHF   =         0.00000000
  -V(xc)+E(xc)   XCENC  =       193.67389605
  PAW double counting   =      4176.01566273    -4180.55386971
  entropy T*S    EENTRO =        -0.00583720
  eigenvalues    EBANDS =      -547.55880378
  atomic energy  EATOM  =      1903.26342058
  Solvation  Ediel_sol  =         0.00000000
  ---------------------------------------------------
  free energy    TOTEN  =      -100.50110277 eV

  energy without entropy =     -100.49526557  energy(sigma->0) =     -100.49818417


--------------------------------------------------------------------------------------------------------




--------------------------------------- Iteration      1(   8)  ---------------------------------------


    POTLOK:  cpu time      0.0302: real time      0.0318
    SETDIJ:  cpu time      0.0033: real time      0.0034
     EDDAV:  cpu time      9.6853: real time      9.7605
       DOS:  cpu time      0.0010: real time      0.0010
    CHARGE:  cpu time      0.2772: real time      0.2861
    MIXING:  cpu time      0.0008: real time      0.0008
    --------------------------------------------
      LOOP:  cpu time      9.9977: real time     10.0836

 eigenvalue-minimisations  : 23376
 total energy-change (2. order) :-0.9977991E+01  (-0.8802512E+00)
 number of electron      55.9999999 magnetization       2.8220598
 augmentation part        1.0491387 magnetization       2.7248864

 Broyden mixing:
  rms(total) = 0.43388E+00    rms(broyden)= 0.43382E+00
  rms(prec ) = 0.44580E+00
  weight for this iteration     100.00

 eigenvalues of (default mixing * dielectric matrix)
  average eigenvalue GAMMA=   1.3754
  2.4024  1.0615  0.6624

 Free energy of the ion-electron system (eV)
  ---------------------------------------------------
  alpha Z        PSCENC =        58.45171928
  Ewald energy   TEWEN  =      4703.69383946
  -Hartree energ DENC   =     -6457.11937558
  -exchange      EXHF   =         0.00000000
  -V(xc)+E(xc)   XCENC  =       189.60183840
  PAW double counting   =      5641.38176145    -5646.14558024
  entropy T*S    EENTRO =        -0.00003782
  eigenvalues    EBANDS =      -503.60667893
  atomic energy  EATOM  =      1903.26342058
  Solvation  Ediel_sol  =         0.00000000
  ---------------------------------------------------
  free energy    TOTEN  =      -110.47909339 eV

  energy without entropy =     -110.47905557  energy(sigma->0) =     -110.47907448


--------------------------------------------------------------------------------------------------------




--------------------------------------- Iteration      1(   9)  ---------------------------------------


    POTLOK:  cpu time      0.0324: real time      0.0337
    SETDIJ:  cpu time      0.0033: real time      0.0034
     EDDAV:  cpu time      8.1098: real time      8.1721
       DOS:  cpu time      0.0009: real time      0.0009
    CHARGE:  cpu time      0.2741: real time      0.2816
    MIXING:  cpu time      0.0008: real time      0.0010
    --------------------------------------------
      LOOP:  cpu time      8.4214: real time      8.4928

 eigenvalue-minimisations  : 20208
 total energy-change (2. order) :-0.6687027E+01  (-0.3836617E+00)
 number of electron      55.9999999 magnetization       1.5032866
 augmentation part        1.0375674 magnetization       1.4231309

 Broyden mixing:
  rms(total) = 0.27719E+00    rms(broyden)= 0.27715E+00
  rms(prec ) = 0.29049E+00
  weight for this iteration     100.00

 eigenvalues of (default mixing * dielectric matrix)
  average eigenvalue GAMMA=   1.4492
  2.5921  1.7339  0.8598  0.6110

 Free energy of the ion-electron system (eV)
  ---------------------------------------------------
  alpha Z        PSCENC =        58.45171928
  Ewald energy   TEWEN  =      4703.69383946
  -Hartree energ DENC   =     -6463.50623053
  -exchange      EXHF   =         0.00000000
  -V(xc)+E(xc)   XCENC  =       185.76947633
  PAW double counting   =      5935.02961000    -5939.69555864
  entropy T*S    EENTRO =        -0.00000413
  eigenvalues    EBANDS =      -500.17239232
  atomic energy  EATOM  =      1903.26342058
  Solvation  Ediel_sol  =         0.00000000
  ---------------------------------------------------
  free energy    TOTEN  =      -117.16611998 eV

  energy without entropy =     -117.16611585  energy(sigma->0) =     -117.16611792


--------------------------------------------------------------------------------------------------------




--------------------------------------- Iteration      1(  10)  ---------------------------------------


    POTLOK:  cpu time      0.0297: real time      0.0300
    SETDIJ:  cpu time      0.0034: real time      0.0034
     EDDAV:  cpu time      9.9457: real time     10.0161
       DOS:  cpu time      0.0010: real time      0.0011
    CHARGE:  cpu time      0.2765: real time      0.2814
    MIXING:  cpu time      0.0009: real time      0.0009
    --------------------------------------------
      LOOP:  cpu time     10.2573: real time     10.3329

 eigenvalue-minimisations  : 24192
 total energy-change (2. order) :-0.6311771E+01  (-0.8222648E+00)
 number of electron      55.9999999 magnetization       0.8363507
 augmentation part        1.0283455 magnetization       0.7941488

 Broyden mixing:
  rms(total) = 0.16116E+00    rms(broyden)= 0.16101E+00
  rms(prec ) = 0.17930E+00
  weight for this iteration     100.00

 eigenvalues of (default mixing * dielectric matrix)
  average eigenvalue GAMMA=   1.4787
  2.5297  2.5297  0.8681  0.8681  0.5978

 Free energy of the ion-electron system (eV)
  ---------------------------------------------------
  alpha Z        PSCENC =        58.45171928
  Ewald energy   TEWEN  =      4703.69383946
  -Hartree energ DENC   =     -6461.75795790
  -exchange      EXHF   =         0.00000000
  -V(xc)+E(xc)   XCENC  =       182.27341726
  PAW double counting   =      5978.56748018    -5983.03445777
  entropy T*S    EENTRO =        -0.00060662
  eigenvalues    EBANDS =      -504.93474509
  atomic energy  EATOM  =      1903.26342058
  Solvation  Ediel_sol  =         0.00000000
  ---------------------------------------------------
  free energy    TOTEN  =      -123.47789062 eV

  energy without entropy =     -123.47728400  energy(sigma->0) =     -123.47758731


--------------------------------------------------------------------------------------------------------




--------------------------------------- Iteration      1(  11)  ---------------------------------------


    POTLOK:  cpu time      0.0320: real time      0.0336
    SETDIJ:  cpu time      0.0034: real time      0.0036
     EDDAV:  cpu time     10.0139: real time     10.0878
       DOS:  cpu time      0.0010: real time      0.0010
    CHARGE:  cpu time      0.2737: real time      0.2811
    MIXING:  cpu time      0.0009: real time      0.0009
    --------------------------------------------
      LOOP:  cpu time     10.3250: real time     10.4081

 eigenvalue-minimisations  : 24336
 total energy-change (2. order) :-0.1825455E+01  (-0.3093639E+00)
 number of electron      55.9999999 magnetization       0.3834392
 augmentation part        1.0280652 magnetization       0.3645743

 Broyden mixing:
  rms(total) = 0.10117E+00    rms(broyden)= 0.10106E+00
  rms(prec ) = 0.11473E+00
  weight for this iteration     100.00

 eigenvalues of (default mixing * dielectric matrix)
  average eigenvalue GAMMA=   1.4979
  2.9538  2.3994  1.3615  0.9402  0.7222  0.6104

 Free energy of the ion-electron system (eV)
  ---------------------------------------------------
  alpha Z        PSCENC =        58.45171928
  Ewald energy   TEWEN  =      4703.69383946
  -Hartree energ DENC   =     -6458.37738751
  -exchange      EXHF   =         0.00000000
  -V(xc)+E(xc)   XCENC  =       181.11440051
  PAW double counting   =      5882.91074734    -5887.29206361
  entropy T*S    EENTRO =        -0.00118769
  eigenvalues    EBANDS =      -509.06683392
  atomic energy  EATOM  =      1903.26342058
  Solvation  Ediel_sol  =         0.00000000
  ---------------------------------------------------
  free energy    TOTEN  =      -125.30334557 eV

  energy without entropy =     -125.30215788  energy(sigma->0) =     -125.30275172


--------------------------------------------------------------------------------------------------------




--------------------------------------- Iteration      1(  12)  ---------------------------------------


    POTLOK:  cpu time      0.0305: real time      0.0319
    SETDIJ:  cpu time      0.0034: real time      0.0034
     EDDAV:  cpu time      8.2862: real time      8.3416
       DOS:  cpu time      0.0010: real time      0.0010
    CHARGE:  cpu time      0.2713: real time      0.2803
    MIXING:  cpu time      0.0010: real time      0.0010
    --------------------------------------------
      LOOP:  cpu time      8.5934: real time      8.6592

 eigenvalue-minimisations  : 20640
 total energy-change (2. order) :-0.1221597E+00  (-0.2145026E-01)
 number of electron      55.9999999 magnetization       0.1292939
 augmentation part        1.0300731 magnetization       0.1200218

 Broyden mixing:
  rms(total) = 0.49035E-01    rms(broyden)= 0.49009E-01
  rms(prec ) = 0.53905E-01
  weight for this iteration     100.00

 eigenvalues of (default mixing * dielectric matrix)
  average eigenvalue GAMMA=   1.5483
  3.5593  2.0959  2.0959  0.8763  0.8763  0.6065  0.7277

 Free energy of the ion-electron system (eV)
  ---------------------------------------------------
  alpha Z        PSCENC =        58.45171928
  Ewald energy   TEWEN  =      4703.69383946
  -Hartree energ DENC   =     -6457.43056388
  -exchange      EXHF   =         0.00000000
  -V(xc)+E(xc)   XCENC  =       180.76051077
  PAW double counting   =      5820.80370736    -5825.19328261
  entropy T*S    EENTRO =        -0.00147353
  eigenvalues    EBANDS =      -509.77338269
  atomic energy  EATOM  =      1903.26342058
  Solvation  Ediel_sol  =         0.00000000
  ---------------------------------------------------
  free energy    TOTEN  =      -125.42550526 eV

  energy without entropy =     -125.42403173  energy(sigma->0) =     -125.42476850


--------------------------------------------------------------------------------------------------------




--------------------------------------- Iteration      1(  13)  ---------------------------------------


    POTLOK:  cpu time      0.0310: real time      0.0312
    SETDIJ:  cpu time      0.0033: real time      0.0033
     EDDAV:  cpu time      6.8241: real time      6.8751
       DOS:  cpu time      0.0010: real time      0.0010
    CHARGE:  cpu time      0.2739: real time      0.2813
    MIXING:  cpu time      0.0010: real time      0.0010
    --------------------------------------------
      LOOP:  cpu time      7.1343: real time      7.1928

 eigenvalue-minimisations  : 17328
 total energy-change (2. order) :-0.2663727E-01  (-0.2133242E-02)
 number of electron      55.9999999 magnetization       0.0375327
 augmentation part        1.0299247 magnetization       0.0346669

 Broyden mixing:
  rms(total) = 0.19850E-01    rms(broyden)= 0.19846E-01
  rms(prec ) = 0.23847E-01
  weight for this iteration     100.00

 eigenvalues of (default mixing * dielectric matrix)
  average eigenvalue GAMMA=   1.5803
  3.9340  2.3138  2.3138  0.9707  0.9017  0.9017  0.6129  0.6939

 Free energy of the ion-electron system (eV)
  ---------------------------------------------------
  alpha Z        PSCENC =        58.45171928
  Ewald energy   TEWEN  =      4703.69383946
  -Hartree energ DENC   =     -6458.32558009
  -exchange      EXHF   =         0.00000000
  -V(xc)+E(xc)   XCENC  =       180.69958026
  PAW double counting   =      5808.00800045    -5812.42316320
  entropy T*S    EENTRO =        -0.00156050
  eigenvalues    EBANDS =      -508.81839876
  atomic energy  EATOM  =      1903.26342058
  Solvation  Ediel_sol  =         0.00000000
  ---------------------------------------------------
  free energy    TOTEN  =      -125.45214254 eV

  energy without entropy =     -125.45058203  energy(sigma->0) =     -125.45136229


--------------------------------------------------------------------------------------------------------




--------------------------------------- Iteration      1(  14)  ---------------------------------------


    POTLOK:  cpu time      0.0339: real time      0.0395
    SETDIJ:  cpu time      0.0034: real time      0.0034
     EDDAV:  cpu time      8.6066: real time      8.6657
       DOS:  cpu time      0.0010: real time      0.0010
    CHARGE:  cpu time      0.2714: real time      0.2825
    MIXING:  cpu time      0.0010: real time      0.0010
    --------------------------------------------
      LOOP:  cpu time      8.9172: real time      8.9930

 eigenvalue-minimisations  : 21504
 total energy-change (2. order) :-0.2393870E-01  (-0.5968344E-03)
 number of electron      55.9999999 magnetization       0.0021809
 augmentation part        1.0300378 magnetization       0.0010207

 Broyden mixing:
  rms(total) = 0.86523E-02    rms(broyden)= 0.86507E-02
  rms(prec ) = 0.12489E-01
  weight for this iteration     100.00

 eigenvalues of (default mixing * dielectric matrix)
  average eigenvalue GAMMA=   1.5571
  4.1118  2.3132  2.3132  1.3510  0.9222  0.9222  0.7915  0.6172  0.6718

 Free energy of the ion-electron system (eV)
  ---------------------------------------------------
  alpha Z        PSCENC =        58.45171928
  Ewald energy   TEWEN  =      4703.69383946
  -Hartree energ DENC   =     -6458.61243272
  -exchange      EXHF   =         0.00000000
  -V(xc)+E(xc)   XCENC  =       180.63991546
  PAW double counting   =      5783.23092583    -5787.65448380
  entropy T*S    EENTRO =        -0.00156632
  eigenvalues    EBANDS =      -508.48741899
  atomic energy  EATOM  =      1903.26342058
  Solvation  Ediel_sol  =         0.00000000
  ---------------------------------------------------
  free energy    TOTEN  =      -125.47608123 eV

  energy without entropy =     -125.47451491  energy(sigma->0) =     -125.47529807


--------------------------------------------------------------------------------------------------------




--------------------------------------- Iteration      1(  15)  ---------------------------------------


    POTLOK:  cpu time      0.0302: real time      0.0306
    SETDIJ:  cpu time      0.0034: real time      0.0034
     EDDAV:  cpu time      7.0311: real time      7.0819
       DOS:  cpu time      0.0010: real time      0.0010
    CHARGE:  cpu time      0.2708: real time      0.2826
    MIXING:  cpu time      0.0011: real time      0.0011
    --------------------------------------------
      LOOP:  cpu time      7.3377: real time      7.4006

 eigenvalue-minimisations  : 17760
 total energy-change (2. order) :-0.8087236E-02  (-0.3257508E-03)
 number of electron      55.9999999 magnetization      -0.0048304
 augmentation part        1.0301398 magnetization      -0.0049962

 Broyden mixing:
  rms(total) = 0.46205E-02    rms(broyden)= 0.46196E-02
  rms(prec ) = 0.81468E-02
  weight for this iteration     100.00

 eigenvalues of (default mixing * dielectric matrix)
  average eigenvalue GAMMA=   1.5575
  4.1977  2.2996  2.2996  2.0194  0.9764  0.8981  0.8981  0.7357  0.6253  0.6253

 Free energy of the ion-electron system (eV)
  ---------------------------------------------------
  alpha Z        PSCENC =        58.45171928
  Ewald energy   TEWEN  =      4703.69383946
  -Hartree energ DENC   =     -6459.05667632
  -exchange      EXHF   =         0.00000000
  -V(xc)+E(xc)   XCENC  =       180.61883579
  PAW double counting   =      5771.76061485    -5776.18510658
  entropy T*S    EENTRO =        -0.00156716
  eigenvalues    EBANDS =      -508.02924837
  atomic energy  EATOM  =      1903.26342058
  Solvation  Ediel_sol  =         0.00000000
  ---------------------------------------------------
  free energy    TOTEN  =      -125.48416847 eV

  energy without entropy =     -125.48260131  energy(sigma->0) =     -125.48338489


--------------------------------------------------------------------------------------------------------




--------------------------------------- Iteration      1(  16)  ---------------------------------------


    POTLOK:  cpu time      0.0304: real time      0.0307
    SETDIJ:  cpu time      0.0030: real time      0.0033
     EDDAV:  cpu time      7.0560: real time      7.1023
       DOS:  cpu time      0.0010: real time      0.0010
    CHARGE:  cpu time      0.2720: real time      0.2827
    MIXING:  cpu time      0.0010: real time      0.0010
    --------------------------------------------
      LOOP:  cpu time      7.3634: real time      7.4211

 eigenvalue-minimisations  : 17664
 total energy-change (2. order) :-0.2086308E-02  (-0.6652686E-04)
 number of electron      55.9999999 magnetization      -0.0066293
 augmentation part        1.0299808 magnetization      -0.0065830

 Broyden mixing:
  rms(total) = 0.23032E-02    rms(broyden)= 0.23029E-02
  rms(prec ) = 0.55152E-02
  weight for this iteration     100.00

 eigenvalues of (default mixing * dielectric matrix)
  average eigenvalue GAMMA=   1.5571
  4.2297  2.4028  2.4028  2.2073  1.2050  0.9245  0.9245  0.8709  0.7099  0.6252
  0.6252

 Free energy of the ion-electron system (eV)
  ---------------------------------------------------
  alpha Z        PSCENC =        58.45171928
  Ewald energy   TEWEN  =      4703.69383946
  -Hartree energ DENC   =     -6459.73444560
  -exchange      EXHF   =         0.00000000
  -V(xc)+E(xc)   XCENC  =       180.62372064
  PAW double counting   =      5771.41652258    -5775.84214316
  entropy T*S    EENTRO =        -0.00156719
  eigenvalues    EBANDS =      -507.35732136
  atomic energy  EATOM  =      1903.26342058
  Solvation  Ediel_sol  =         0.00000000
  ---------------------------------------------------
  free energy    TOTEN  =      -125.48625478 eV

  energy without entropy =     -125.48468758  energy(sigma->0) =     -125.48547118


--------------------------------------------------------------------------------------------------------




--------------------------------------- Iteration      1(  17)  ---------------------------------------


    POTLOK:  cpu time      0.0341: real time      0.0345
    SETDIJ:  cpu time      0.0035: real time      0.0035
     EDDAV:  cpu time      5.6002: real time      5.6503
       DOS:  cpu time      0.0010: real time      0.0010
    CHARGE:  cpu time      0.2764: real time      0.2810
    MIXING:  cpu time      0.0011: real time      0.0011
    --------------------------------------------
      LOOP:  cpu time      5.9162: real time      5.9714

 eigenvalue-minimisations  : 14448
 total energy-change (2. order) :-0.1300054E-02  (-0.1763093E-04)
 number of electron      55.9999999 magnetization      -0.0069655
 augmentation part        1.0298677 magnetization      -0.0068631

 Broyden mixing:
  rms(total) = 0.18023E-02    rms(broyden)= 0.18021E-02
  rms(prec ) = 0.36642E-02
  weight for this iteration     100.00

 eigenvalues of (default mixing * dielectric matrix)
  average eigenvalue GAMMA=   1.5485
  4.2686  2.5021  2.3685  2.3685  1.5619  1.0350  0.8952  0.8952  0.7613  0.6156
  0.6671  0.6426

 Free energy of the ion-electron system (eV)
  ---------------------------------------------------
  alpha Z        PSCENC =        58.45171928
  Ewald energy   TEWEN  =      4703.69383946
  -Hartree energ DENC   =     -6460.52831849
  -exchange      EXHF   =         0.00000000
  -V(xc)+E(xc)   XCENC  =       180.62478692
  PAW double counting   =      5770.68048773    -5775.10680585
  entropy T*S    EENTRO =        -0.00156718
  eigenvalues    EBANDS =      -506.56511727
  atomic energy  EATOM  =      1903.26342058
  Solvation  Ediel_sol  =         0.00000000
  ---------------------------------------------------
  free energy    TOTEN  =      -125.48755483 eV

  energy without entropy =     -125.48598765  energy(sigma->0) =     -125.48677124


--------------------------------------------------------------------------------------------------------




--------------------------------------- Iteration      1(  18)  ---------------------------------------


    POTLOK:  cpu time      0.0307: real time      0.0314
    SETDIJ:  cpu time      0.0032: real time      0.0032
     EDDAV:  cpu time      6.4528: real time      6.4965
       DOS:  cpu time      0.0010: real time      0.0010
    CHARGE:  cpu time      0.2728: real time      0.2835
    MIXING:  cpu time      0.0012: real time      0.0012
    --------------------------------------------
      LOOP:  cpu time      6.7616: real time      6.8169

 eigenvalue-minimisations  : 16368
 total energy-change (2. order) :-0.6849170E-03  (-0.8709596E-05)
[...]
      3     -17.7675      1.00000
      4     -16.6597      1.00000
      5     -14.5996      1.00000
      6     -14.2162      1.00000
      7     -13.6925      1.00000
      8     -12.7292      1.00000
      9     -11.0031      1.00000
     10      -9.4428      1.00000
     11      -9.0138      1.00000
     12      -8.7246      1.00000
     13      -8.4364      1.00000
     14      -7.8132      1.00000
     15      -7.5288      1.00000
     16      -7.4604      1.00000
     17      -6.7140      1.00000
     18      -6.6058      1.00000
     19      -6.1837      1.00000
     20      -6.0275      1.00000
     21      -5.8249      1.00000
     22      -5.4998      1.00000
     23      -5.3396      1.00000
     24      -5.1436      1.00000
     25      -3.9318      1.00000
     26      -3.5558      1.00000
     27      -3.0089      1.00000
     28      -1.0707      1.00000
     29       0.3255      0.00000
     30       2.1392      0.00000
     31       3.5958      0.00000
     32       3.8167      0.00000
     33       4.5067      0.00000
     34       4.8119      0.00000
     35       4.9682      0.00000
     36       5.1676      0.00000
     37       5.3743      0.00000
     38       5.4975      0.00000
     39       5.8905      0.00000
     40       6.1647      0.00000
     41       6.2628      0.00000
     42       6.5306      0.00000
     43       6.6661      0.00000
     44       7.0594      0.00000
     45       7.2746      0.00000
     46       7.3268      0.00000
     47       7.7019      0.00000
     48       8.2662      0.00000

 k-point    71 :      -0.3333   -0.4167    0.0000
  band No.  band energies     occupation 
      1     -18.7607      1.00000
      2     -18.2620      1.00000
      3     -17.7675      1.00000
      4     -16.6597      1.00000
      5     -14.5995      1.00000
      6     -14.2163      1.00000
      7     -13.6925      1.00000
      8     -12.7292      1.00000
      9     -11.0031      1.00000
     10      -9.4428      1.00000
     11      -9.0138      1.00000
     12      -8.7247      1.00000
     13      -8.4364      1.00000
     14      -7.8131      1.00000
     15      -7.5288      1.00000
     16      -7.4604      1.00000
     17      -6.7140      1.00000
     18      -6.6058      1.00000
     19      -6.1837      1.00000
     20      -6.0275      1.00000
     21      -5.8250      1.00000
     22      -5.4998      1.00000
     23      -5.3396      1.00000
     24      -5.1436      1.00000
     25      -3.9318      1.00000
     26      -3.5557      1.00000
     27      -3.0090      1.00000
     28      -1.0707      1.00000
     29       0.3255      0.00000
     30       2.1391      0.00000
     31       3.5958      0.00000
     32       3.8167      0.00000
     33       4.5067      0.00000
     34       4.8119      0.00000
     35       4.9683      0.00000
     36       5.1671      0.00000
     37       5.3752      0.00000
     38       5.4970      0.00000
     39       5.8905      0.00000
     40       6.1644      0.00000
     41       6.2630      0.00000
     42       6.5306      0.00000
     43       6.6662      0.00000
     44       7.0594      0.00000
     45       7.2746      0.00000
     46       7.3268      0.00000
     47       7.7019      0.00000
     48       8.2663      0.00000

 k-point    72 :       0.2500    0.3333    0.0000
  band No.  band energies     occupation 
      1     -18.7607      1.00000
      2     -18.2620      1.00000
      3     -17.7675      1.00000
      4     -16.6597      1.00000
      5     -14.5993      1.00000
      6     -14.2166      1.00000
      7     -13.6925      1.00000
      8     -12.7290      1.00000
      9     -11.0032      1.00000
     10      -9.4428      1.00000
     11      -9.0137      1.00000
     12      -8.7245      1.00000
     13      -8.4365      1.00000
     14      -7.8134      1.00000
     15      -7.5290      1.00000
     16      -7.4607      1.00000
     17      -6.7139      1.00000
     18      -6.6057      1.00000
     19      -6.1834      1.00000
     20      -6.0276      1.00000
     21      -5.8252      1.00000
     22      -5.4997      1.00000
     23      -5.3391      1.00000
     24      -5.1437      1.00000
     25      -3.9319      1.00000
     26      -3.5555      1.00000
     27      -3.0092      1.00000
     28      -1.0708      1.00000
     29       0.3257      0.00000
     30       2.1388      0.00000
     31       3.5964      0.00000
     32       3.8166      0.00000
     33       4.5067      0.00000
     34       4.8120      0.00000
     35       4.9681      0.00000
     36       5.1670      0.00000
     37       5.3752      0.00000
     38       5.4973      0.00000
     39       5.8906      0.00000
     40       6.1646      0.00000
     41       6.2627      0.00000
     42       6.5307      0.00000
     43       6.6661      0.00000
     44       7.0591      0.00000
     45       7.2748      0.00000
     46       7.3269      0.00000
     47       7.7020      0.00000
     48       8.2664      0.00000

 k-point    73 :      -0.4167   -0.2500    0.0000
  band No.  band energies     occupation 
      1     -18.7607      1.00000
      2     -18.2620      1.00000
      3     -17.7675      1.00000
      4     -16.6597      1.00000
      5     -14.5995      1.00000
      6     -14.2163      1.00000
      7     -13.6925      1.00000
      8     -12.7291      1.00000
      9     -11.0031      1.00000
     10      -9.4427      1.00000
     11      -9.0136      1.00000
     12      -8.7247      1.00000
     13      -8.4366      1.00000
     14      -7.8132      1.00000
     15      -7.5291      1.00000
     16      -7.4605      1.00000
     17      -6.7137      1.00000
     18      -6.6058      1.00000
     19      -6.1836      1.00000
     20      -6.0274      1.00000
     21      -5.8250      1.00000
     22      -5.4998      1.00000
     23      -5.3394      1.00000
     24      -5.1437      1.00000
     25      -3.9319      1.00000
     26      -3.5556      1.00000
     27      -3.0090      1.00000
     28      -1.0707      1.00000
     29       0.3256      0.00000
     30       2.1390      0.00000
     31       3.5964      0.00000
     32       3.8165      0.00000
     33       4.5065      0.00000
     34       4.8120      0.00000
     35       4.9678      0.00000
     36       5.1684      0.00000
     37       5.3732      0.00000
     38       5.4982      0.00000
     39       5.8906      0.00000
     40       6.1651      0.00000
     41       6.2623      0.00000
     42       6.5308      0.00000
     43       6.6659      0.00000
     44       7.0592      0.00000
     45       7.2746      0.00000
     46       7.3270      0.00000
     47       7.7018      0.00000
     48       8.2664      0.00000

 k-point    74 :       0.3333    0.3333    0.0000
  band No.  band energies     occupation 
      1     -18.3132      1.00000
      2     -18.2989      1.00000
      3     -18.2987      1.00000
      4     -16.6312      1.00000
      5     -14.4529      1.00000
      6     -14.4526      1.00000
      7     -13.0998      1.00000
      8     -13.0997      1.00000
      9     -11.3092      1.00000
     10      -8.9745      1.00000
     11      -8.9744      1.00000
     12      -8.1778      1.00000
     13      -8.1778      1.00000
     14      -8.1689      1.00000
     15      -8.0115      1.00000
     16      -6.9111      1.00000
     17      -6.9079      1.00000
     18      -6.9078      1.00000
     19      -6.2090      1.00000
     20      -5.9949      1.00000
     21      -5.9948      1.00000
     22      -5.5813      1.00000
     23      -5.5809      1.00000
     24      -5.1398      1.00000
     25      -3.8341      1.00000
     26      -3.3750      1.00000
     27      -3.3748      1.00000
     28      -0.3615      0.50063
     29      -0.3613      0.49937
     30       2.4162      0.00000
     31       3.7221      0.00000
     32       3.9711      0.00000
     33       3.9717      0.00000
     34       4.8681      0.00000
     35       4.8683      0.00000
     36       5.1483      0.00000
     37       5.7747      0.00000
     38       5.7748      0.00000
     39       6.1098      0.00000
     40       6.3665      0.00000
     41       6.3666      0.00000
     42       6.3704      0.00000
     43       6.5269      0.00000
     44       6.5269      0.00000
     45       6.8166      0.00000
     46       7.4629      0.00000
     47       7.4630      0.00000
     48       7.9990      0.00000


--------------------------------------------------------------------------------------------------------


 soft charge-density along one line, spin component           1
         0         1         2         3         4         5         6         7         8         9
 total charge-density along one line
 
 soft charge-density along one line, spin component           2
         0         1         2         3         4         5         6         7         8         9
 total charge-density along one line
 
 pseudopotential strength for first ion, spin component:           1
  6.780  10.349   0.000  -0.004  -0.000   0.000  -0.006  -0.000
 10.349  15.792   0.000  -0.006  -0.000   0.000  -0.009  -0.000
  0.000   0.000  -2.349  -0.000  -0.000  -4.041  -0.000  -0.000
 -0.004  -0.006  -0.000  -2.345   0.000  -0.000  -4.029   0.000
 -0.000  -0.000  -0.000   0.000  -2.349  -0.000   0.000  -4.041
  0.000   0.000  -4.041  -0.000  -0.000  -6.752  -0.000  -0.000
 -0.006  -0.009  -0.000  -4.029   0.000  -0.000  -6.727   0.000
 -0.000  -0.000  -0.000   0.000  -4.041  -0.000   0.000  -6.752
 pseudopotential strength for first ion, spin component:           2
  6.780  10.349   0.000  -0.004  -0.000   0.000  -0.006  -0.000
 10.349  15.792   0.000  -0.006  -0.000   0.000  -0.009  -0.000
  0.000   0.000  -2.349  -0.000  -0.000  -4.041  -0.000  -0.000
 -0.004  -0.006  -0.000  -2.345   0.000  -0.000  -4.029   0.000
 -0.000  -0.000  -0.000   0.000  -2.349  -0.000   0.000  -4.041
  0.000   0.000  -4.041  -0.000  -0.000  -6.752  -0.000  -0.000
 -0.006  -0.009  -0.000  -4.029   0.000  -0.000  -6.727   0.000
 -0.000  -0.000  -0.000   0.000  -4.041  -0.000   0.000  -6.752
 total augmentation occupancy for first ion, spin component:           1
  3.747  -1.086   0.000  -0.509  -0.000  -0.000   0.209   0.000
 -1.086   0.339  -0.000   0.235   0.000   0.000  -0.081  -0.000
  0.000  -0.000   4.221   0.000   0.000  -1.247  -0.000  -0.000
 -0.509   0.235   0.000   1.828  -0.000  -0.000  -0.410   0.000
 -0.000   0.000   0.000  -0.000   4.221  -0.000   0.000  -1.247
 -0.000   0.000  -1.247  -0.000  -0.000   0.379   0.000   0.000
  0.209  -0.081  -0.000  -0.410   0.000   0.000   0.096  -0.000
  0.000  -0.000  -0.000   0.000  -1.247   0.000  -0.000   0.379
 total augmentation occupancy for first ion, spin component:           2
  0.000  -0.000  -0.000   0.000   0.000   0.000   0.000  -0.000
 -0.000   0.000   0.000  -0.000  -0.000  -0.000  -0.000   0.000
 -0.000   0.000   0.000   0.000  -0.000  -0.000  -0.000   0.000
  0.000  -0.000   0.000   0.000   0.000  -0.000  -0.000   0.000
  0.000  -0.000  -0.000   0.000   0.000   0.000  -0.000  -0.000
  0.000  -0.000  -0.000  -0.000   0.000   0.000   0.000  -0.000
  0.000  -0.000  -0.000  -0.000  -0.000   0.000   0.000   0.000
 -0.000   0.000   0.000   0.000  -0.000  -0.000   0.000   0.000


------------------------ aborting loop because EDIFF is reached ----------------------------------------


    CHARGE:  cpu time      0.2733: real time      0.2848
    FORLOC:  cpu time      0.0014: real time      0.0014
    FORNL :  cpu time      0.7042: real time      0.7064
    STRESS:  cpu time      3.2587: real time      3.2688
    FORCOR:  cpu time      0.0249: real time      0.0252
    FORHAR:  cpu time      0.0037: real time      0.0037
    MIXING:  cpu time      0.0007: real time      0.0007
    OFIELD:  cpu time      0.0000: real time      0.0000

 ---------------------------------------------------------------------------------------------

         DFTD3 V3.0 Rev 1        
 Edisp (eV)   -1.58787

 E6    (eV) :    -1.0967
 E8    (eV) :    -0.4912
 % E8        : 30.94
    FORVDW:  cpu time      0.0396: real time      0.0396

  FORCE on cell =-STRESS in cart. coord.  units (eV):
  Direction    XX          YY          ZZ          XY          YZ          ZX
  --------------------------------------------------------------------------------------
  Alpha Z    58.45172    58.45172    58.45172
  Ewald    6457.00269  6457.07348 -8209.45342    -0.00387     0.01301    -0.00112
  Hartree  6378.88777  6378.89662 -6295.31528    -0.00024     0.00488    -0.00045
  E(xc)    -201.81812  -201.81792  -208.79322    -0.00001     0.00014     0.00003
  Local  -13428.85835-13428.92706 13796.47387     0.00384    -0.01696     0.00149
  n-local   -43.24180   -43.24102   -41.64428    -0.00003     0.00023     0.00015
  augment    -4.10183    -4.10174    -3.66244     0.00003     0.00002     0.00001
  Kinetic   784.20852   784.19749   904.76345     0.00053    -0.00602    -0.00168
  Fock        0.00000     0.00000     0.00000     0.00000     0.00000     0.00000
  vdW        -0.32542    -0.32544    -1.10892     0.00000     0.00002     0.00001
  -------------------------------------------------------------------------------------
  Total       0.20519     0.20612    -0.28852     0.00026    -0.00469    -0.00156
  in kB       1.08030     1.08523    -1.51908     0.00138    -0.02467    -0.00823
  external pressure =        0.22 kB  Pullay stress =        0.00 kB


 VOLUME and BASIS-vectors are now :
 -----------------------------------------------------------------------------
  energy-cutoff  :      450.00
  volume of cell :      304.31
      direct lattice vectors                 reciprocal lattice vectors
     4.191562954  2.420000000  0.000000000     0.119287246  0.206611570  0.000000000
    -4.191562954  2.420000000  0.000000000    -0.119287246  0.206611570  0.000000000
     0.000000000  0.000000000 15.000000000     0.000000000  0.000000000  0.066666667

  length of vectors
     4.840000000  4.840000000 15.000000000     0.238574491  0.238574491  0.066666667


 FORCES acting on ions
    electron-ion (+dipol)            ewald-force                    non-local-force                 convergence-correction
 -----------------------------------------------------------------------------------------------
   -.546E-03 0.119E-01 0.165E+03   0.940E-03 -.131E-01 -.163E+03   -.270E-03 0.598E-03 -.168E+01   -.370E-04 0.167E-04 -.317E-02
   -.213E+02 -.123E+02 0.239E+03   0.239E+02 0.138E+02 -.239E+03   -.252E+01 -.145E+01 0.365E+00   0.270E-03 0.157E-03 -.646E-03
   0.213E+02 -.123E+02 0.239E+03   -.239E+02 0.138E+02 -.239E+03   0.252E+01 -.145E+01 0.366E+00   -.281E-03 0.127E-03 -.631E-03
   0.498E-03 0.246E+02 0.239E+03   -.219E-03 -.276E+02 -.239E+03   0.291E-03 0.291E+01 0.366E+00   0.158E-04 -.337E-03 -.638E-03
   0.465E-02 -.379E+02 0.308E+03   -.459E-02 0.440E+02 -.310E+03   -.584E-03 -.599E+01 0.180E+01   0.581E-04 0.737E-03 -.907E-03
   0.329E+02 0.190E+02 0.308E+03   -.381E+02 -.220E+02 -.310E+03   0.519E+01 0.299E+01 0.180E+01   -.626E-03 -.306E-03 -.838E-03
   -.329E+02 0.190E+02 0.308E+03   0.381E+02 -.220E+02 -.310E+03   -.519E+01 0.299E+01 0.180E+01   0.703E-03 -.391E-03 -.857E-03
   0.849E+00 -.113E+01 -.227E+03   -.889E+00 0.115E+01 0.227E+03   -.115E-01 -.236E-01 0.831E-02   0.628E-03 0.783E-03 -.244E-02
   -.844E+00 -.113E+01 -.227E+03   0.884E+00 0.115E+01 0.227E+03   0.115E-01 -.238E-01 0.786E-02   -.633E-03 0.791E-03 -.243E-02
   -.140E+01 -.148E+00 -.227E+03   0.144E+01 0.171E+00 0.227E+03   -.140E-01 0.222E-01 0.852E-02   0.348E-03 -.974E-03 -.242E-02
   0.369E-03 -.174E-01 -.224E+03   -.159E-02 0.184E-01 0.224E+03   -.425E-03 0.118E-03 0.932E-01   0.912E-05 0.768E-05 -.337E-02
   -.115E-01 -.157E-01 -.224E+03   0.133E-01 0.162E-01 0.224E+03   0.509E-03 0.680E-04 0.932E-01   -.265E-05 0.449E-05 -.337E-02
   0.140E+01 -.146E+00 -.227E+03   -.144E+01 0.168E+00 0.227E+03   0.137E-01 0.221E-01 0.930E-02   -.343E-03 -.977E-03 -.243E-02
   0.556E+00 0.129E+01 -.227E+03   -.555E+00 -.133E+01 0.227E+03   0.262E-01 0.107E-02 0.102E-01   -.102E-02 0.182E-03 -.245E-02
   -.548E+00 0.129E+01 -.227E+03   0.546E+00 -.134E+01 0.227E+03   -.263E-01 0.116E-02 0.984E-02   0.101E-02 0.174E-03 -.245E-02
 -----------------------------------------------------------------------------------------------
   -.225E-03 0.604E-03 -.502E+01   0.477E-14 -.910E-14 -.142E-12   0.825E-04 -.554E-03 0.505E+01   0.990E-04 -.602E-05 -.290E-01
 
 
 POSITION                                       TOTAL-FORCE (eV/Angst)
 -----------------------------------------------------------------------------------
      0.00592      0.01685      1.77579         0.000089     -0.000514     -0.268051
      1.48457      0.87058      1.47036         0.050114      0.029098      0.049231
     -1.47276      0.87054      1.47040        -0.050072      0.030212      0.049159
      0.00589      3.14938      1.47036         0.000588     -0.055901      0.050080
      0.00593      1.57700      1.50439        -0.000467      0.114270      0.019953
      2.84631      1.65686      1.50419        -0.097112     -0.058015      0.021615
     -2.83449      1.65685      1.50412         0.097280     -0.057865      0.021940
     -0.69822      1.20998      5.05937        -0.051043     -0.001866      0.006132
      0.69821      1.20998      5.05939         0.050882     -0.001616      0.006136
     -2.79458      2.41966      5.05942         0.025976      0.043938      0.006092
     -1.39718      2.41997      5.05637        -0.001635      0.001141      0.009757
      1.39717      2.41998      5.05637         0.002263      0.000563      0.009761
      2.79457      2.41967      5.05942        -0.025906      0.043141      0.006064
     -0.69879      3.63031      5.05937         0.026522     -0.043059      0.006052
      0.69878      3.63031      5.05936        -0.027478     -0.043528      0.006078
 -----------------------------------------------------------------------------------
    total drift:                               -0.000044      0.000044     -0.001383


--------------------------------------------------------------------------------------------------------



  FREE ENERGIE OF THE ION-ELECTRON SYSTEM (eV)
  ---------------------------------------------------
  free  energy   TOTEN  =      -127.09167390 eV

  energy  without entropy=     -127.09010671  energy(sigma->0) =     -127.09089030
 
 d Force = 0.7295323E-02[ 0.635E-02, 0.824E-02]  d Energy = 0.7287734E-02 0.759E-05
 d Force = 0.5023640E+00[ 0.553E+00, 0.452E+00]  d Ewald  = 0.5022593E+00 0.105E-03


--------------------------------------------------------------------------------------------------------


    POTLOK:  cpu time      0.0354: real time      0.0359


--------------------------------------------------------------------------------------------------------


 stress matrix after NEB project (eV)
      0.20519      0.00026     -0.00156
      0.00026      0.20612     -0.00469
     -0.00156     -0.00469     -0.28852
  FORCES: max atom, RMS     0.268052    0.098348
  FORCE total and by dimension    0.380899    0.268051
  Stress total and by dimension    0.409735    0.288524
 Conjugate gradient step on ions:
 trial-energy change:   -0.007288  1 .order   -0.007295   -0.008244   -0.006347
  (g-gl).g = 0.910E-02      g.g   = 0.911E-02  gl.gl    = 0.272E-01
 g(Force)  = 0.911E-02   g(Stress)= 0.000E+00 ortho     = 0.170E-04
 gamma     =   0.33438
 trial     =   0.90415
 opt step  =   3.61659  (harmonic =   3.92955) maximal distance =0.02166815
 next E    =  -127.102300   (d E  =  -0.01791)


--------------------------------------------------------------------------------------------------------


    WAVPRE:  cpu time      0.0045: real time      0.0075
    FEWALD:  cpu time      0.0004: real time      0.0004
    ORTHCH:  cpu time      0.3303: real time      0.3326
     LOOP+:  cpu time     51.5552: real time     51.9384
