 ----------------------------------------------------
    OOO  PPPP  EEEEE N   N M   M PPPP
   O   O P   P E     NN  N MM MM P   P
   O   O PPPP  EEEEE N N N M M M PPPP   -- VERSION
   O   O P     E     N  NN M   M P
    OOO  P     EEEEE N   N M   M P
 ----------------------------------------------------
 running   48 mpi-ranks, with    1 threads/rank
 distrk:  each k-point on   48 cores,    1 groups
 distr:  one band on    1 cores,   48 groups
 vasp.6.3.2 27Jun22 (build Dec 22 2022 13:13:19) complex                        
  
 POSCAR found type information on POSCAR B C 
 POSCAR found :  2 types and      15 ions
 Reading from existing POTCAR
 -----------------------------------------------------------------------------
|                                                                             |
|           W    W    AA    RRRRR   N    N  II  N    N   GGGG   !!!           |
|           W    W   A  A   R    R  NN   N  II  NN   N  G    G  !!!           |
|           W    W  A    A  R    R  N N  N  II  N N  N  G       !!!           |
|           W WW W  AAAAAA  RRRRR   N  N N  II  N  N N  G  GGG   !            |
|           WW  WW  A    A  R   R   N   NN  II  N   NN  G    G                |
|           W    W  A    A  R    R  N    N  II  N    N   GGGG   !!!           |
|                                                                             |
|     You use a magnetic or noncollinear calculation, but did not specify     |
|     the initial magnetic moment with the MAGMOM tag. Note that a            |
|     default of 1 will be used for all atoms. This ferromagnetic setup       |
|     may break the symmetry of the crystal, in particular it may rule        |
|     out finding an antiferromagnetic solution. Thence, we recommend         |
|     setting the initial magnetic moment manually or verifying carefully     |
|     that this magnetic setup is desired.                                    |
|                                                                             |
 -----------------------------------------------------------------------------

 scaLAPACK will be used
 Reading from existing POTCAR
 LDA part: xc-table for Pade appr. of Perdew
 POSCAR found type information on POSCAR B C 
 POSCAR found :  2 types and      15 ions
 POSCAR, INCAR and KPOINTS ok, starting setup
 FFT: planning ... GRIDC
 FFT: planning ... GRID_SOFT
 FFT: planning ... GRID
 WAVECAR not read
 entering main loop
       N       E                     dE             d eps       ncg     rms          rms(c)
DAV:   1     0.203020321047E+03    0.20302E+03   -0.25711E+04 14208   0.859E+02
DAV:   2    -0.116835206971E+03   -0.31986E+03   -0.31853E+03 20544   0.163E+02
DAV:   3    -0.129472741672E+03   -0.12638E+02   -0.12626E+02 26400   0.425E+01
DAV:   4    -0.129496901776E+03   -0.24160E-01   -0.24159E-01 20784   0.181E+00
DAV:   5    -0.129496957946E+03   -0.56170E-04   -0.56170E-04 25152   0.843E-02    0.245E+01
DAV:   6    -0.920632522953E+02    0.37434E+02   -0.71905E+01 26064   0.255E+01    0.139E+01
DAV:   7    -0.100501102773E+03   -0.84379E+01   -0.99885E+00 22320   0.101E+01    0.811E+00
DAV:   8    -0.110479093391E+03   -0.99780E+01   -0.88025E+00 23376   0.896E+00    0.434E+00
DAV:   9    -0.117166119982E+03   -0.66870E+01   -0.38366E+00 20208   0.605E+00    0.277E+00
DAV:  10    -0.123477890619E+03   -0.63118E+01   -0.82226E+00 24192   0.700E+00    0.161E+00
DAV:  11    -0.125303345567E+03   -0.18255E+01   -0.30936E+00 24336   0.390E+00    0.101E+00
DAV:  12    -0.125425505262E+03   -0.12216E+00   -0.21450E-01 20640   0.126E+00    0.490E-01
DAV:  13    -0.125452142537E+03   -0.26637E-01   -0.21332E-02 17328   0.520E-01    0.199E-01
DAV:  14    -0.125476081233E+03   -0.23939E-01   -0.59683E-03 21504   0.266E-01    0.865E-02
DAV:  15    -0.125484168469E+03   -0.80872E-02   -0.32575E-03 17760   0.153E-01    0.462E-02
DAV:  16    -0.125486254777E+03   -0.20863E-02   -0.66527E-04 17664   0.800E-02    0.230E-02
DAV:  17    -0.125487554831E+03   -0.13001E-02   -0.17631E-04 14448   0.503E-02    0.180E-02
DAV:  18    -0.125488239748E+03   -0.68492E-03   -0.87096E-05 16368   0.367E-02    0.129E-02
DAV:  19    -0.125488709067E+03   -0.46932E-03   -0.43399E-05 19680   0.241E-02    0.768E-03
DAV:  20    -0.125488758084E+03   -0.49017E-04   -0.22526E-05 22176   0.176E-02    0.473E-03
DAV:  21    -0.125488785219E+03   -0.27134E-04   -0.66028E-06 19776   0.945E-03    0.233E-03
DAV:  22    -0.125488805054E+03   -0.19836E-04   -0.21267E-06 21360   0.548E-03    0.146E-03
DAV:  23    -0.125488822396E+03   -0.17342E-04   -0.18421E-06 20352   0.406E-03    0.771E-04
DAV:  24    -0.125488826134E+03   -0.37386E-05   -0.38938E-07 22464   0.221E-03    0.393E-04
DAV:  25    -0.125488827152E+03   -0.10174E-05   -0.12123E-07 23760   0.113E-03    0.196E-04
DAV:  26    -0.125488827690E+03   -0.53780E-06   -0.31491E-08 20688   0.594E-04
   1 F= -.12707733E+03 E0= -.12707655E+03  d E =-.127077E+03  mag=    -0.0000
 curvature:   0.00 expect dE= 0.000E+00 dE for cont linesearch  0.000E+00
 trial: gam= 0.00000 g(F)=  0.272E-01 g(S)=  0.000E+00 ort = 0.000E+00 (trialstep = 0.100E+01)
 search vector abs. value=  0.272E-01
 bond charge predicted
       N       E                     dE             d eps       ncg     rms          rms(c)
DAV:   1    -0.125498895973E+03   -0.10069E-01   -0.28548E+00 14208   0.518E+00    0.461E-01
DAV:   2    -0.125491399050E+03    0.74969E-02   -0.57577E-02 26016   0.662E-01    0.203E-01
DAV:   3    -0.125490575575E+03    0.82348E-03   -0.46576E-03 20016   0.186E-01    0.800E-02
DAV:   4    -0.125490544444E+03    0.31131E-04   -0.54887E-04 27552   0.647E-02    0.208E-02
DAV:   5    -0.125490547654E+03   -0.32097E-05   -0.14225E-05 24336   0.117E-02    0.838E-03
DAV:   6    -0.125490547865E+03   -0.21124E-06   -0.17127E-06 23088   0.394E-03
   2 F= -.12707838E+03 E0= -.12707760E+03  d E =-.105539E-02  mag=    -0.0000
 trial-energy change:   -0.001055  1 .order   -0.001083   -0.027200    0.025034
 step:   0.5207(harm=  0.5207)  dis= 0.00710  next Energy=  -127.084411 (dE=-0.708E-02)
 bond charge predicted
       N       E                     dE             d eps       ncg     rms          rms(c)
DAV:   1    -0.125498180204E+03   -0.76326E-02   -0.65536E-01 14208   0.248E+00    0.221E-01
DAV:   2    -0.125496424097E+03    0.17561E-02   -0.13202E-02 25296   0.316E-01    0.971E-02
DAV:   3    -0.125496240822E+03    0.18328E-03   -0.10633E-03 22128   0.895E-02    0.389E-02
DAV:   4    -0.125496234244E+03    0.65784E-05   -0.12338E-04 23472   0.306E-02    0.959E-03
DAV:   5    -0.125496234915E+03   -0.67141E-06   -0.40060E-06 19920   0.607E-03
   3 F= -.12708439E+03 E0= -.12708360E+03  d E =-.705750E-02  mag=    -0.0000
 curvature:  -0.26 expect dE=-0.237E-02 dE for cont linesearch -0.276E-08
 trial: gam= 0.33438 g(F)=  0.911E-02 g(S)=  0.000E+00 ort = 0.170E-04 (trialstep = 0.904E+00)
 search vector abs. value=  0.122E-01
 bond charge predicted
       N       E                     dE             d eps       ncg     rms          rms(c)
DAV:   1    -0.125503725209E+03   -0.74910E-02   -0.37599E-01 14208   0.210E+00    0.127E-01
DAV:   2    -0.125503804669E+03   -0.79460E-04   -0.22653E-03 27840   0.184E-01    0.747E-02
DAV:   3    -0.125503800201E+03    0.44679E-05   -0.22407E-04 21984   0.512E-02    0.148E-02
DAV:   4    -0.125503801713E+03   -0.15115E-05   -0.22327E-05 26400   0.174E-02    0.576E-03
DAV:   5    -0.125503802025E+03   -0.31239E-06   -0.97466E-07 21696   0.411E-03
   4 F= -.12709167E+03 E0= -.12709089E+03  d E =-.728773E-02  mag=     0.0000
 ZBRENT: can't locate minimum, use default step
 trial-energy change:   -0.007288  1 .order   -0.007295   -0.008244   -0.006347
 step:   3.6166(harm=  3.9295)  dis= 0.02167  next Energy=  -127.102300 (dE=-0.179E-01)
 bond charge predicted
       N       E                     dE             d eps       ncg     rms          rms(c)
DAV:   1    -0.125514893994E+03   -0.11092E-01   -0.34076E+00 14208   0.630E+00    0.379E-01
DAV:   2    -0.125515783444E+03   -0.88945E-03   -0.21279E-02 27024   0.561E-01    0.223E-01
DAV:   3    -0.125515727266E+03    0.56178E-04   -0.20622E-03 21024   0.155E-01    0.447E-02
DAV:   4    -0.125515743473E+03   -0.16207E-04   -0.20357E-04 27888   0.521E-02    0.174E-02
DAV:   5    -0.125515746416E+03   -0.29434E-05   -0.84197E-06 21120   0.121E-02    0.778E-03
DAV:   6    -0.125515746595E+03   -0.17882E-06   -0.61396E-06 25104   0.920E-03
   5 F= -.12710279E+03 E0= -.12710200E+03  d E =-.184021E-01  mag=     0.0000
 curvature:  -2.59 expect dE=-0.709E-01 dE for cont linesearch -0.368E-03
 trial: gam= 2.95260 g(F)=  0.274E-01 g(S)=  0.000E+00 ort = 0.131E-02 (trialstep = 0.125E+00)
 search vector abs. value=  0.141E+00
 bond charge predicted
       N       E                     dE             d eps       ncg     rms          rms(c)
DAV:   1    -0.125519191633E+03   -0.34452E-02   -0.11197E-01 14400   0.131E+00    0.788E-02
DAV:   2    -0.125519182090E+03    0.95427E-05   -0.98193E-04 25920   0.138E-01    0.438E-02
DAV:   3    -0.125519158190E+03    0.23900E-04   -0.11628E-04 20064   0.410E-02    0.126E-02
DAV:   4    -0.125519159199E+03   -0.10090E-05   -0.16822E-05 26016   0.155E-02    0.511E-03
DAV:   5    -0.125519159650E+03   -0.45084E-06   -0.79915E-07 21840   0.367E-03
   6 F= -.12710606E+03 E0= -.12710527E+03  d E =-.326764E-02  mag=    -0.0000
 trial-energy change:   -0.003268  1 .order   -0.003267   -0.003893   -0.002641
 step:   0.3877(harm=  0.3877)  dis= 0.00592  next Energy=  -127.108842 (dE=-0.605E-02)
 bond charge predicted
       N       E                     dE             d eps       ncg     rms          rms(c)
DAV:   1    -0.125522472451E+03   -0.33133E-02   -0.49914E-01 14304   0.276E+00    0.166E-01
DAV:   2    -0.125522429971E+03    0.42480E-04   -0.43287E-03 26160   0.291E-01    0.923E-02
DAV:   3    -0.125522324579E+03    0.10539E-03   -0.51672E-04 21648   0.861E-02    0.261E-02
DAV:   4    -0.125522329119E+03   -0.45395E-05   -0.70505E-05 25056   0.316E-02    0.106E-02
DAV:   5    -0.125522329874E+03   -0.75556E-06   -0.28878E-06 21504   0.701E-03
   7 F= -.12710890E+03 E0= -.12710812E+03  d E =-.611523E-02  mag=    -0.0000
 curvature:  -0.88 expect dE=-0.109E-01 dE for cont linesearch -0.156E-05
 trial: gam= 0.65729 g(F)=  0.124E-01 g(S)=  0.000E+00 ort = 0.501E-03 (trialstep = 0.177E+00)
 search vector abs. value=  0.741E-01
 bond charge predicted
       N       E                     dE             d eps       ncg     rms          rms(c)
DAV:   1    -0.125524615543E+03   -0.22864E-02   -0.96252E-02 14208   0.101E+00    0.584E-02
DAV:   2    -0.125524638967E+03   -0.23424E-04   -0.52424E-04 24384   0.818E-02    0.349E-02
DAV:   3    -0.125524637349E+03    0.16188E-05   -0.58842E-05 20496   0.227E-02    0.577E-03
DAV:   4    -0.125524637403E+03   -0.54075E-07   -0.35204E-06 24192   0.735E-03
   8 F= -.12711100E+03 E0= -.12711022E+03  d E =-.209912E-02  mag=    -0.0000
 ZBRENT: can't locate minimum, use default step
 trial-energy change:   -0.002099  1 .order   -0.002105   -0.002259   -0.001951
 step:   0.7091(harm=  1.3007)  dis= 0.00574  next Energy=  -127.117190 (dE=-0.829E-02)
 bond charge predicted
       N       E                     dE             d eps       ncg     rms          rms(c)
DAV:   1    -0.125529633519E+03   -0.49962E-02   -0.86742E-01 14208   0.303E+00    0.174E-01
DAV:   2    -0.125529845426E+03   -0.21191E-03   -0.44809E-03 27456   0.240E-01    0.104E-01
DAV:   3    -0.125529827657E+03    0.17769E-04   -0.51696E-04 21360   0.660E-02    0.158E-02
DAV:   4    -0.125529827765E+03   -0.10798E-06   -0.28378E-05 24144   0.210E-02    0.800E-03
DAV:   5    -0.125529825754E+03    0.20110E-05   -0.44317E-06 22800   0.791E-03    0.307E-03
DAV:   6    -0.125529825314E+03    0.43985E-06   -0.13037E-06 24048   0.404E-03
   9 F= -.12711557E+03 E0= -.12711479E+03  d E =-.666712E-02  mag=    -0.0000
 curvature:  -2.73 expect dE=-0.197E-01 dE for cont linesearch -0.149E-02
 ZBRENT: increasing intervall
 opt :   1.7727  next Energy=  -127.117384 (dE=-0.848E-02)
 bond charge predicted
       N       E                     dE             d eps       ncg     rms          rms(c)
DAV:   1    -0.125532810020E+03   -0.29843E-02   -0.34739E+00 14208   0.606E+00    0.344E-01
DAV:   2    -0.125533664454E+03   -0.85443E-03   -0.17401E-02 26592   0.476E-01    0.206E-01
DAV:   3    -0.125533585001E+03    0.79452E-04   -0.20881E-03 22320   0.132E-01    0.299E-02
DAV:   4    -0.125533585033E+03   -0.31596E-07   -0.11055E-04 23520   0.417E-02    0.155E-02
DAV:   5    -0.125533579511E+03    0.55222E-05   -0.17053E-05 23904   0.158E-02    0.485E-03
DAV:   6    -0.125533578840E+03    0.67094E-06   -0.56492E-06 24192   0.858E-03
  10 F= -.12711811E+03 E0= -.12711733E+03  d E =-.920593E-02  mag=     0.0000
 curvature:  -3.33 expect dE=-0.452E-01 dE for cont linesearch -0.626E-04
 trial: gam= 0.92726 g(F)=  0.136E-01 g(S)=  0.000E+00 ort =-0.118E-02 (trialstep = 0.490E+00)
 search vector abs. value=  0.751E-01
 bond charge predicted
       N       E                     dE             d eps       ncg     rms          rms(c)
DAV:   1    -0.125535371915E+03   -0.17924E-02   -0.94506E-01 14208   0.383E+00    0.216E-01
DAV:   2    -0.125535284849E+03    0.87066E-04   -0.10208E-02 26880   0.438E-01    0.125E-01
DAV:   3    -0.125535184584E+03    0.10026E-03   -0.12299E-03 18720   0.126E-01    0.473E-02
DAV:   4    -0.125535185377E+03   -0.79231E-06   -0.28571E-04 26016   0.552E-02    0.233E-02
DAV:   5    -0.125535190039E+03   -0.46628E-05   -0.15902E-05 24144   0.162E-02    0.713E-03
DAV:   6    -0.125535192063E+03   -0.20241E-05   -0.21134E-06 21696   0.604E-03    0.366E-03
DAV:   7    -0.125535193544E+03   -0.14805E-05   -0.39416E-07 24816   0.244E-03    0.137E-03
DAV:   8    -0.125535195862E+03   -0.23185E-05   -0.40719E-07 21552   0.222E-03    0.942E-04
DAV:   9    -0.125535198951E+03   -0.30884E-05   -0.41558E-07 21072   0.197E-03    0.732E-04
DAV:  10    -0.125535200864E+03   -0.19134E-05   -0.14684E-07 23280   0.111E-03    0.353E-04
DAV:  11    -0.125535201588E+03   -0.72348E-06   -0.21998E-08 22224   0.398E-04
  11 F= -.12711921E+03 E0= -.12711843E+03  d E =-.110180E-02  mag=     0.0000
 trial-energy change:   -0.001102  1 .order   -0.001090   -0.006113    0.003933
 step:   0.2988(harm=  0.2980)  dis= 0.00277  next Energy=  -127.119977 (dE=-0.187E-02)
 bond charge predicted
       N       E                     dE             d eps       ncg     rms          rms(c)
DAV:   1    -0.125535779953E+03   -0.57909E-03   -0.14364E-01 14208   0.149E+00    0.842E-02
DAV:   2    -0.125535769605E+03    0.10348E-04   -0.15775E-03 27744   0.172E-01    0.487E-02
DAV:   3    -0.125535756027E+03    0.13578E-04   -0.18222E-04 21984   0.484E-02    0.186E-02
DAV:   4    -0.125535756283E+03   -0.25593E-06   -0.41101E-05 26352   0.209E-02    0.891E-03
DAV:   5    -0.125535756951E+03   -0.66819E-06   -0.22904E-06 21696   0.616E-03
  12 F= -.12711998E+03 E0= -.12711920E+03  d E =-.187339E-02  mag=     0.0000
 curvature:  -0.90 expect dE=-0.363E-02 dE for cont linesearch -0.146E-07
 trial: gam= 0.23593 g(F)=  0.405E-02 g(S)=  0.000E+00 ort =-0.350E-04 (trialstep = 0.452E+00)
 search vector abs. value=  0.821E-02
 bond charge predicted
       N       E                     dE             d eps       ncg     rms          rms(c)
DAV:   1    -0.125537188610E+03   -0.14323E-02   -0.79327E-02 14208   0.104E+00    0.612E-02
DAV:   2    -0.125537152876E+03    0.35734E-04   -0.72221E-04 22080   0.941E-02    0.310E-02
DAV:   3    -0.125537149680E+03    0.31963E-05   -0.47009E-05 20064   0.234E-02    0.132E-02
DAV:   4    -0.125537150813E+03   -0.11337E-05   -0.66146E-06 21408   0.901E-03    0.291E-03
DAV:   5    -0.125537150917E+03   -0.10367E-06   -0.41419E-07 25536   0.236E-03
  13 F= -.12712125E+03 E0= -.12712047E+03  d E =-.127172E-02  mag=     0.0000
 trial-energy change:   -0.001272  1 .order   -0.001272   -0.001824   -0.000719
 step:   0.7454(harm=  0.7454)  dis= 0.00388  next Energy=  -127.121488 (dE=-0.151E-02)
 bond charge predicted
       N       E                     dE             d eps       ncg     rms          rms(c)
DAV:   1    -0.125537481008E+03   -0.33020E-03   -0.33685E-02 14208   0.680E-01    0.401E-02
DAV:   2    -0.125537465730E+03    0.15279E-04   -0.30607E-04 22944   0.612E-02    0.203E-02
DAV:   3    -0.125537464637E+03    0.10926E-05   -0.19037E-05 17856   0.150E-02    0.865E-03
