Lattice                                 
           1
     4.191563    2.420000    0.000000
    -4.191563    2.420000    0.000000
     0.000000    0.000000   15.000000
   B    C 
     4    11
Direct configuration=     1
   0.00415361  0.00267210  0.12034134
   0.35695335  0.00285503  0.09748893
   0.00423858  0.35550699  0.09749256
   0.65142295  0.65006557  0.09747688
   0.32808646  0.32671938  0.10030508
   0.68027775  0.00278085  0.10027562
   0.00416530  0.67883808  0.10026559
   0.16666600  0.33333300  0.33720000
   0.33333300  0.16666600  0.33720000
   0.16666600  0.83333300  0.33720000
   0.33333300  0.66666600  0.33720000
   0.66666600  0.33333300  0.33720000
   0.83333300  0.16666600  0.33720000
   0.66666600  0.83333300  0.33720000
   0.83333300  0.66666600  0.33720000
Direct configuration=     2
   0.00418509  0.00275165  0.11901697
   0.35593036  0.00280262  0.09783892
   0.00419457  0.35449714  0.09784181
   0.65241700  0.65102777  0.09783443
   0.32483086  0.32342758  0.10032051
   0.68355377  0.00280205  0.10030149
   0.00420289  0.68214045  0.10029510
   0.16659420  0.33342392  0.33726057
   0.33342438  0.16659695  0.33726161
   0.16682090  0.83339166  0.33726332
   0.33333489  0.66667220  0.33711352
   0.66667134  0.33333135  0.33711350
   0.83338901  0.16681849  0.33726321
   0.66657313  0.83317631  0.33726098
   0.83317163  0.66657387  0.33726005
Direct configuration=     3
   0.00417000  0.00271352  0.11965170
   0.35642065  0.00282774  0.09767119
   0.00421566  0.35498113  0.09767443
   0.65194059  0.65056662  0.09766307
   0.32639116  0.32500523  0.10031311
   0.68198368  0.00279189  0.10028909
   0.00418488  0.68055773  0.10028095
   0.16662861  0.33338034  0.33723154
   0.33338058  0.16663004  0.33723208
   0.16674666  0.83336354  0.33723297
   0.33333398  0.66666923  0.33715496
   0.66666878  0.33333214  0.33715496
   0.83336217  0.16674541  0.33723291
   0.66661764  0.83325141  0.33723176
   0.83324897  0.66661802  0.33723127
Direct configuration=     4
   0.00418696  0.00277465  0.11838605
   0.35696322  0.00278206  0.09802424
   0.00418173  0.35554559  0.09802668
   0.65140067  0.64999628  0.09802421
   0.32653406  0.32511906  0.10029253
   0.68185481  0.00279683  0.10027958
   0.00420498  0.68044281  0.10027470
   0.16670794  0.33328557  0.33729122
   0.33328409  0.16670867  0.33729266
   0.16657132  0.83328795  0.33729496
   0.33332898  0.66666051  0.33709118
   0.66665957  0.33333150  0.33709117
   0.83328780  0.16657378  0.33729475
   0.66670728  0.83342035  0.33729165
   0.83342059  0.66670839  0.33729041
