  15  15   0   4
  0.2007813E+02  0.4815000E-09  0.4815000E-09  0.1500000E-08  0.5000000E-15
  1.000000000000000E-004
  CAR 
 Lattice                                 
     10.41674381    -21.73867238  301     -0.19654230      1.00000000
    -21.739  0.0000E+00  0.0000E+00  0.0000E+00  0.0000E+00
    -21.631  0.0000E+00  0.0000E+00  0.0000E+00  0.0000E+00
    -21.524  0.0000E+00  0.0000E+00  0.0000E+00  0.0000E+00
    -21.417  0.0000E+00  0.0000E+00  0.0000E+00  0.0000E+00
    -21.310  0.0000E+00  0.0000E+00  0.0000E+00  0.0000E+00
    -21.203  0.0000E+00  0.0000E+00  0.0000E+00  0.0000E+00
    -21.096  0.0000E+00  0.0000E+00  0.0000E+00  0.0000E+00
    -20.988  0.0000E+00  0.0000E+00  0.0000E+00  0.0000E+00
    -20.881  0.0000E+00  0.0000E+00  0.0000E+00  0.0000E+00
    -20.774  0.5654E-15  0.5654E-15  0.6060E-16  0.6060E-16
    -20.667  0.1042E-10  0.1042E-10  0.1117E-11  0.1117E-11
    -20.560  0.2265E-07  0.2265E-07  0.2428E-08  0.2428E-08
    -20.452  0.6407E-05  0.6407E-05  0.6892E-06  0.6892E-06
    -20.345  0.2643E-03  0.2643E-03  0.2902E-04  0.2902E-04
    -20.238  0.1948E-02  0.1948E-02  0.2378E-03  0.2378E-03
    -20.131  0.4108E-02  0.4108E-02  0.6781E-03  0.6781E-03
    -20.024  0.4458E-02  0.4458E-02  0.1156E-02  0.1156E-02
    -19.917  0.4896E-02  0.4896E-02  0.1681E-02  0.1681E-02
    -19.809  0.4086E-02  0.4086E-02  0.2119E-02  0.2119E-02
    -19.702  0.5309E-02  0.5309E-02  0.2688E-02  0.2688E-02
    -19.595  0.4239E-02  0.4239E-02  0.3142E-02  0.3142E-02
    -19.488  0.4085E-02  0.4085E-02  0.3580E-02  0.3580E-02
    -19.381  0.5968E-02  0.5968E-02  0.4220E-02  0.4220E-02
    -19.273  0.3924E-02  0.3924E-02  0.4640E-02  0.4640E-02
    -19.166  0.3641E-02  0.3641E-02  0.5031E-02  0.5031E-02
    -19.059  0.5998E-02  0.5998E-02  0.5673E-02  0.5673E-02
    -18.952  0.5308E-02  0.5308E-02  0.6242E-02  0.6242E-02
    -18.845  0.3088E-02  0.3088E-02  0.6573E-02  0.6573E-02
    -18.738  0.3890E-02  0.3890E-02  0.6990E-02  0.6990E-02
    -18.630  0.6891E-02  0.6891E-02  0.7729E-02  0.7729E-02
    -18.523  0.4770E-02  0.4770E-02  0.8240E-02  0.8240E-02
    -18.416  0.3832E-02  0.3832E-02  0.8651E-02  0.8651E-02
    -18.309  0.2824E-02  0.2824E-02  0.8954E-02  0.8954E-02
    -18.202  0.6002E-02  0.6002E-02  0.9597E-02  0.9597E-02
    -18.094  0.6929E-02  0.6929E-02  0.1034E-01  0.1034E-01
    -17.987  0.3906E-02  0.3906E-02  0.1076E-01  0.1076E-01
    -17.880  0.3005E-02  0.3005E-02  0.1108E-01  0.1108E-01
    -17.773  0.3972E-02  0.3972E-02  0.1151E-01  0.1151E-01
    -17.666  0.5613E-02  0.5613E-02  0.1211E-01  0.1211E-01
    -17.558  0.7069E-02  0.7069E-02  0.1287E-01  0.1287E-01
    -17.451  0.6614E-02  0.6614E-02  0.1357E-01  0.1357E-01
    -17.344  0.8114E-02  0.8114E-02  0.1444E-01  0.1444E-01
    -17.237  0.9790E-02  0.9790E-02  0.1549E-01  0.1549E-01
    -17.130  0.1417E-01  0.1417E-01  0.1701E-01  0.1701E-01
    -17.023  0.1622E-01  0.1622E-01  0.1875E-01  0.1875E-01
    -16.915  0.1839E-01  0.1839E-01  0.2072E-01  0.2072E-01
    -16.808  0.2111E-01  0.2111E-01  0.2299E-01  0.2299E-01
    -16.701  0.1384E-01  0.1384E-01  0.2447E-01  0.2447E-01
    -16.594  0.3446E-02  0.3446E-02  0.2484E-01  0.2484E-01
    -16.487  0.5251E-02  0.5251E-02  0.2540E-01  0.2540E-01
    -16.379  0.8941E-02  0.8941E-02  0.2636E-01  0.2636E-01
    -16.272  0.5046E-02  0.5046E-02  0.2690E-01  0.2690E-01
    -16.165  0.4249E-02  0.4249E-02  0.2736E-01  0.2736E-01
    -16.058  0.3684E-02  0.3684E-02  0.2775E-01  0.2775E-01
    -15.951  0.4081E-02  0.4081E-02  0.2819E-01  0.2819E-01
    -15.844  0.3081E-02  0.3081E-02  0.2852E-01  0.2852E-01
    -15.736  0.6394E-02  0.6394E-02  0.2920E-01  0.2920E-01
    -15.629  0.8918E-02  0.8918E-02  0.3016E-01  0.3016E-01
    -15.522  0.4971E-02  0.4971E-02  0.3069E-01  0.3069E-01
    -15.415  0.3704E-02  0.3704E-02  0.3109E-01  0.3109E-01
    -15.308  0.3325E-02  0.3325E-02  0.3145E-01  0.3145E-01
    -15.200  0.3900E-02  0.3900E-02  0.3186E-01  0.3186E-01
    -15.093  0.5728E-02  0.5728E-02  0.3248E-01  0.3248E-01
    -14.986  0.1051E-01  0.1051E-01  0.3360E-01  0.3360E-01
    -14.879  0.1725E-01  0.1725E-01  0.3545E-01  0.3545E-01
    -14.772  0.1959E-01  0.1959E-01  0.3755E-01  0.3755E-01
    -14.664  0.1613E-01  0.1613E-01  0.3928E-01  0.3928E-01
    -14.557  0.1271E-01  0.1271E-01  0.4064E-01  0.4064E-01
    -14.450  0.8023E-02  0.8023E-02  0.4150E-01  0.4150E-01
    -14.343  0.1098E-01  0.1098E-01  0.4268E-01  0.4268E-01
    -14.236  0.1550E-01  0.1550E-01  0.4434E-01  0.4434E-01
    -14.129  0.1467E-01  0.1467E-01  0.4591E-01  0.4591E-01
    -14.021  0.1114E-01  0.1114E-01  0.4711E-01  0.4711E-01
    -13.914  0.1198E-01  0.1198E-01  0.4839E-01  0.4839E-01
    -13.807  0.1838E-01  0.1838E-01  0.5036E-01  0.5036E-01
    -13.700  0.1846E-01  0.1846E-01  0.5234E-01  0.5234E-01
    -13.593  0.1766E-01  0.1766E-01  0.5423E-01  0.5423E-01
    -13.485  0.1279E-01  0.1279E-01  0.5560E-01  0.5560E-01
    -13.378  0.7088E-02  0.7088E-02  0.5636E-01  0.5636E-01
    -13.271  0.3515E-02  0.3515E-02  0.5674E-01  0.5674E-01
    -13.164  0.3189E-02  0.3189E-02  0.5708E-01  0.5708E-01
    -13.057  0.5626E-02  0.5626E-02  0.5769E-01  0.5769E-01
    -12.950  0.7329E-02  0.7329E-02  0.5847E-01  0.5847E-01
    -12.842  0.5220E-02  0.5220E-02  0.5903E-01  0.5903E-01
    -12.735  0.5561E-02  0.5561E-02  0.5963E-01  0.5963E-01
    -12.628  0.6728E-02  0.6728E-02  0.6035E-01  0.6035E-01
    -12.521  0.6244E-02  0.6244E-02  0.6102E-01  0.6102E-01
    -12.414  0.5557E-02  0.5557E-02  0.6161E-01  0.6161E-01
    -12.306  0.4209E-02  0.4209E-02  0.6206E-01  0.6206E-01
    -12.199  0.4208E-02  0.4208E-02  0.6252E-01  0.6252E-01
    -12.092  0.8108E-02  0.8108E-02  0.6338E-01  0.6338E-01
    -11.985  0.5348E-02  0.5348E-02  0.6396E-01  0.6396E-01
    -11.878  0.3024E-02  0.3024E-02  0.6428E-01  0.6428E-01
    -11.770  0.3601E-02  0.3601E-02  0.6467E-01  0.6467E-01
    -11.663  0.3887E-02  0.3887E-02  0.6508E-01  0.6508E-01
    -11.556  0.6733E-02  0.6733E-02  0.6581E-01  0.6581E-01
    -11.449  0.5946E-02  0.5946E-02  0.6644E-01  0.6644E-01
    -11.342  0.2368E-02  0.2368E-02  0.6670E-01  0.6670E-01
    -11.235  0.2980E-02  0.2980E-02  0.6702E-01  0.6702E-01
    -11.127  0.5629E-02  0.5629E-02  0.6762E-01  0.6762E-01
    -11.020  0.5983E-02  0.5983E-02  0.6826E-01  0.6826E-01
    -10.913  0.6760E-02  0.6760E-02  0.6899E-01  0.6899E-01
    -10.806  0.7145E-02  0.7145E-02  0.6975E-01  0.6975E-01
    -10.699  0.3950E-02  0.3950E-02  0.7017E-01  0.7017E-01
    -10.591  0.6950E-02  0.6950E-02  0.7092E-01  0.7092E-01
    -10.484  0.1253E-01  0.1253E-01  0.7226E-01  0.7226E-01
    -10.377  0.1465E-01  0.1465E-01  0.7383E-01  0.7383E-01
    -10.270  0.1629E-01  0.1629E-01  0.7558E-01  0.7558E-01
    -10.163  0.1615E-01  0.1615E-01  0.7731E-01  0.7731E-01
    -10.056  0.1602E-01  0.1602E-01  0.7903E-01  0.7903E-01
     -9.948  0.1600E-01  0.1600E-01  0.8074E-01  0.8074E-01
     -9.841  0.1073E-01  0.1073E-01  0.8189E-01  0.8189E-01
     -9.734  0.9672E-02  0.9672E-02  0.8293E-01  0.8293E-01
     -9.627  0.1336E-01  0.1336E-01  0.8436E-01  0.8436E-01
     -9.520  0.1112E-01  0.1112E-01  0.8555E-01  0.8555E-01
     -9.412  0.1482E-01  0.1482E-01  0.8714E-01  0.8714E-01
     -9.305  0.1957E-01  0.1957E-01  0.8924E-01  0.8924E-01
     -9.198  0.1524E-01  0.1524E-01  0.9087E-01  0.9087E-01
     -9.091  0.9912E-02  0.9912E-02  0.9193E-01  0.9193E-01
     -8.984  0.5856E-02  0.5856E-02  0.9256E-01  0.9256E-01
     -8.877  0.1256E-01  0.1256E-01  0.9391E-01  0.9391E-01
     -8.769  0.2318E-01  0.2318E-01  0.9639E-01  0.9639E-01
     -8.662  0.1601E-01  0.1601E-01  0.9811E-01  0.9811E-01
     -8.555  0.8310E-02  0.8310E-02  0.9900E-01  0.9900E-01
     -8.448  0.9891E-02  0.9891E-02  0.1001E+00  0.1001E+00
     -8.341  0.1782E-01  0.1782E-01  0.1020E+00  0.1020E+00
     -8.233  0.2041E-01  0.2041E-01  0.1042E+00  0.1042E+00
     -8.126  0.1343E-01  0.1343E-01  0.1056E+00  0.1056E+00
     -8.019  0.1431E-01  0.1431E-01  0.1071E+00  0.1071E+00
     -7.912  0.2249E-01  0.2249E-01  0.1095E+00  0.1095E+00
     -7.805  0.2348E-01  0.2348E-01  0.1121E+00  0.1121E+00
     -7.697  0.2232E-01  0.2232E-01  0.1145E+00  0.1145E+00
     -7.590  0.1367E-01  0.1367E-01  0.1159E+00  0.1159E+00
     -7.483  0.6939E-02  0.6939E-02  0.1167E+00  0.1167E+00
     -7.376  0.1461E-01  0.1461E-01  0.1182E+00  0.1182E+00
     -7.269  0.1843E-01  0.1843E-01  0.1202E+00  0.1202E+00
     -7.162  0.1271E-01  0.1271E-01  0.1216E+00  0.1216E+00
     -7.054  0.1264E-01  0.1264E-01  0.1229E+00  0.1229E+00
     -6.947  0.1572E-01  0.1572E-01  0.1246E+00  0.1246E+00
     -6.840  0.1751E-01  0.1751E-01  0.1265E+00  0.1265E+00
     -6.733  0.1737E-01  0.1737E-01  0.1283E+00  0.1283E+00
     -6.626  0.2165E-01  0.2165E-01  0.1307E+00  0.1307E+00
     -6.518  0.2294E-01  0.2294E-01  0.1331E+00  0.1331E+00
     -6.411  0.2155E-01  0.2155E-01  0.1354E+00  0.1354E+00
     -6.304  0.1721E-01  0.1721E-01  0.1373E+00  0.1373E+00
     -6.197  0.1686E-01  0.1686E-01  0.1391E+00  0.1391E+00
     -6.090  0.2182E-01  0.2182E-01  0.1414E+00  0.1414E+00
     -5.983  0.2778E-01  0.2778E-01  0.1444E+00  0.1444E+00
     -5.875  0.3008E-01  0.3008E-01  0.1476E+00  0.1476E+00
     -5.768  0.2473E-01  0.2473E-01  0.1503E+00  0.1503E+00
     -5.661  0.1960E-01  0.1960E-01  0.1524E+00  0.1524E+00
     -5.554  0.2274E-01  0.2274E-01  0.1548E+00  0.1548E+00
     -5.447  0.2969E-01  0.2969E-01  0.1580E+00  0.1580E+00
     -5.339  0.3126E-01  0.3126E-01  0.1613E+00  0.1613E+00
     -5.232  0.2490E-01  0.2490E-01  0.1640E+00  0.1640E+00
     -5.125  0.1739E-01  0.1739E-01  0.1659E+00  0.1659E+00
     -5.018  0.1110E-01  0.1110E-01  0.1671E+00  0.1671E+00
     -4.911  0.7750E-02  0.7750E-02  0.1679E+00  0.1679E+00
     -4.803  0.1250E-01  0.1250E-01  0.1692E+00  0.1692E+00
     -4.696  0.1425E-01  0.1425E-01  0.1708E+00  0.1708E+00
     -4.589  0.9606E-02  0.9606E-02  0.1718E+00  0.1718E+00
     -4.482  0.8528E-02  0.8528E-02  0.1727E+00  0.1727E+00
     -4.375  0.1134E-01  0.1134E-01  0.1739E+00  0.1739E+00
     -4.268  0.2151E-01  0.2151E-01  0.1762E+00  0.1762E+00
     -4.160  0.2347E-01  0.2347E-01  0.1787E+00  0.1787E+00
     -4.053  0.1872E-01  0.1872E-01  0.1808E+00  0.1808E+00
     -3.946  0.1927E-01  0.1927E-01  0.1828E+00  0.1828E+00
     -3.839  0.2487E-01  0.2487E-01  0.1855E+00  0.1855E+00
     -3.732  0.2045E-01  0.2045E-01  0.1877E+00  0.1877E+00
     -3.624  0.1904E-01  0.1904E-01  0.1897E+00  0.1897E+00
     -3.517  0.1870E-01  0.1870E-01  0.1917E+00  0.1917E+00
     -3.410  0.1725E-01  0.1725E-01  0.1936E+00  0.1936E+00
     -3.303  0.1187E-01  0.1187E-01  0.1948E+00  0.1948E+00
     -3.196  0.1366E-01  0.1366E-01  0.1963E+00  0.1963E+00
     -3.089  0.1876E-01  0.1876E-01  0.1983E+00  0.1983E+00
     -2.981  0.1717E-01  0.1717E-01  0.2002E+00  0.2002E+00
     -2.874  0.1264E-01  0.1264E-01  0.2015E+00  0.2015E+00
     -2.767  0.1260E-01  0.1260E-01  0.2029E+00  0.2029E+00
     -2.660  0.8690E-02  0.8690E-02  0.2038E+00  0.2038E+00
     -2.553  0.9640E-02  0.9640E-02  0.2048E+00  0.2048E+00
     -2.445  0.1574E-01  0.1574E-01  0.2065E+00  0.2065E+00
     -2.338  0.1758E-01  0.1758E-01  0.2084E+00  0.2084E+00
     -2.231  0.5483E-02  0.5483E-02  0.2090E+00  0.2090E+00
     -2.124  0.5408E-02  0.5408E-02  0.2096E+00  0.2096E+00
     -2.017  0.9901E-02  0.9901E-02  0.2106E+00  0.2106E+00
     -1.909  0.9129E-02  0.9129E-02  0.2116E+00  0.2116E+00
     -1.802  0.1015E-01  0.1015E-01  0.2127E+00  0.2127E+00
     -1.695  0.1066E-01  0.1066E-01  0.2138E+00  0.2138E+00
     -1.588  0.1025E-01  0.1025E-01  0.2149E+00  0.2149E+00
     -1.481  0.9026E-02  0.9026E-02  0.2159E+00  0.2159E+00
     -1.374  0.3534E-02  0.3535E-02  0.2163E+00  0.2163E+00
     -1.266  0.3911E-02  0.3911E-02  0.2167E+00  0.2167E+00
     -1.159  0.4774E-02  0.4774E-02  0.2172E+00  0.2172E+00
     -1.052  0.2993E-02  0.2993E-02  0.2175E+00  0.2175E+00
     -0.945  0.4311E-02  0.4311E-02  0.2180E+00  0.2180E+00
     -0.838  0.4618E-02  0.4618E-02  0.2185E+00  0.2185E+00
     -0.730  0.1314E-02  0.1314E-02  0.2186E+00  0.2186E+00
     -0.623  0.1035E-03  0.1036E-03  0.2186E+00  0.2186E+00
     -0.516  0.2136E-05  0.2136E-05  0.2186E+00  0.2186E+00
     -0.409  0.2716E-05  0.2716E-05  0.2186E+00  0.2186E+00
     -0.302  0.1360E-03  0.1360E-03  0.2187E+00  0.2187E+00
     -0.195  0.8964E-03  0.8964E-03  0.2188E+00  0.2188E+00
     -0.087  0.8653E-03  0.8653E-03  0.2188E+00  0.2188E+00
      0.020  0.1220E-03  0.1220E-03  0.2189E+00  0.2189E+00
      0.127  0.2248E-05  0.2248E-05  0.2189E+00  0.2189E+00
      0.234  0.5170E-06  0.5170E-06  0.2189E+00  0.2189E+00
      0.341  0.7442E-04  0.7442E-04  0.2189E+00  0.2189E+00
      0.449  0.1336E-02  0.1336E-02  0.2190E+00  0.2190E+00
      0.556  0.3352E-02  0.3352E-02  0.2194E+00  0.2194E+00
      0.663  0.1563E-02  0.1563E-02  0.2195E+00  0.2195E+00
      0.770  0.3290E-02  0.3290E-02  0.2199E+00  0.2199E+00
      0.877  0.6859E-02  0.6859E-02  0.2206E+00  0.2206E+00
      0.984  0.9670E-02  0.9670E-02  0.2217E+00  0.2217E+00
      1.092  0.1960E-01  0.1960E-01  0.2238E+00  0.2238E+00
      1.199  0.2122E-01  0.2122E-01  0.2260E+00  0.2260E+00
      1.306  0.7739E-02  0.7740E-02  0.2269E+00  0.2269E+00
      1.413  0.2006E-02  0.2006E-02  0.2271E+00  0.2271E+00
      1.520  0.4207E-02  0.4207E-02  0.2275E+00  0.2275E+00
      1.628  0.1169E-01  0.1169E-01  0.2288E+00  0.2288E+00
      1.735  0.1983E-01  0.1983E-01  0.2309E+00  0.2309E+00
      1.842  0.1456E-01  0.1456E-01  0.2325E+00  0.2325E+00
      1.949  0.9656E-02  0.9656E-02  0.2335E+00  0.2335E+00
      2.056  0.8422E-02  0.8422E-02  0.2344E+00  0.2344E+00
      2.164  0.1037E-01  0.1037E-01  0.2355E+00  0.2355E+00
      2.271  0.7886E-02  0.7886E-02  0.2364E+00  0.2364E+00
      2.378  0.8166E-02  0.8166E-02  0.2372E+00  0.2372E+00
      2.485  0.8580E-02  0.8580E-02  0.2382E+00  0.2382E+00
      2.592  0.4910E-02  0.4910E-02  0.2387E+00  0.2387E+00
      2.699  0.9781E-02  0.9780E-02  0.2397E+00  0.2397E+00
      2.807  0.1236E-01  0.1237E-01  0.2411E+00  0.2411E+00
      2.914  0.7605E-02  0.7607E-02  0.2419E+00  0.2419E+00
      3.021  0.8146E-02  0.8148E-02  0.2427E+00  0.2427E+00
      3.128  0.8027E-02  0.8025E-02  0.2436E+00  0.2436E+00
      3.235  0.1100E-01  0.1101E-01  0.2448E+00  0.2448E+00
      3.343  0.1077E-01  0.1077E-01  0.2459E+00  0.2459E+00
      3.450  0.9853E-02  0.9851E-02  0.2470E+00  0.2470E+00
      3.557  0.8568E-02  0.8570E-02  0.2479E+00  0.2479E+00
      3.664  0.1318E-01  0.1318E-01  0.2493E+00  0.2493E+00
      3.771  0.2216E-01  0.2216E-01  0.2517E+00  0.2517E+00
      3.878  0.2247E-01  0.2247E-01  0.2541E+00  0.2541E+00
      3.986  0.1944E-01  0.1944E-01  0.2562E+00  0.2562E+00
      4.093  0.2028E-01  0.2028E-01  0.2584E+00  0.2584E+00
      4.200  0.2195E-01  0.2195E-01  0.2607E+00  0.2607E+00
      4.307  0.2566E-01  0.2567E-01  0.2635E+00  0.2635E+00
      4.414  0.2549E-01  0.2548E-01  0.2662E+00  0.2662E+00
      4.522  0.2517E-01  0.2517E-01  0.2689E+00  0.2689E+00
      4.629  0.2629E-01  0.2629E-01  0.2717E+00  0.2717E+00
      4.736  0.2137E-01  0.2138E-01  0.2740E+00  0.2740E+00
      4.843  0.2186E-01  0.2186E-01  0.2764E+00  0.2764E+00
      4.950  0.2609E-01  0.2609E-01  0.2791E+00  0.2792E+00
      5.058  0.2718E-01  0.2717E-01  0.2821E+00  0.2821E+00
      5.165  0.2457E-01  0.2458E-01  0.2847E+00  0.2847E+00
      5.272  0.2424E-01  0.2423E-01  0.2873E+00  0.2873E+00
      5.379  0.1874E-01  0.1874E-01  0.2893E+00  0.2893E+00
      5.486  0.2128E-01  0.2128E-01  0.2916E+00  0.2916E+00
      5.593  0.2456E-01  0.2455E-01  0.2942E+00  0.2942E+00
      5.701  0.3108E-01  0.3107E-01  0.2975E+00  0.2975E+00
      5.808  0.2337E-01  0.2337E-01  0.3001E+00  0.3001E+00
      5.915  0.1630E-01  0.1631E-01  0.3018E+00  0.3018E+00
      6.022  0.1899E-01  0.1899E-01  0.3038E+00  0.3038E+00
      6.129  0.2128E-01  0.2129E-01  0.3061E+00  0.3061E+00
      6.237  0.2123E-01  0.2123E-01  0.3084E+00  0.3084E+00
      6.344  0.1759E-01  0.1759E-01  0.3103E+00  0.3103E+00
      6.451  0.1568E-01  0.1568E-01  0.3120E+00  0.3120E+00
      6.558  0.2337E-01  0.2338E-01  0.3145E+00  0.3145E+00
      6.665  0.2878E-01  0.2877E-01  0.3175E+00  0.3175E+00
      6.772  0.2117E-01  0.2117E-01  0.3198E+00  0.3198E+00
      6.880  0.2392E-01  0.2391E-01  0.3224E+00  0.3224E+00
      6.987  0.3119E-01  0.3119E-01  0.3257E+00  0.3257E+00
      7.094  0.3007E-01  0.3008E-01  0.3289E+00  0.3289E+00
      7.201  0.2627E-01  0.2627E-01  0.3318E+00  0.3318E+00
      7.308  0.2402E-01  0.2402E-01  0.3343E+00  0.3343E+00
      7.416  0.1838E-01  0.1837E-01  0.3363E+00  0.3363E+00
      7.523  0.1922E-01  0.1923E-01  0.3384E+00  0.3384E+00
      7.630  0.2727E-01  0.2728E-01  0.3413E+00  0.3413E+00
      7.737  0.2159E-01  0.2158E-01  0.3436E+00  0.3436E+00
      7.844  0.2147E-01  0.2146E-01  0.3459E+00  0.3459E+00
      7.951  0.2529E-01  0.2527E-01  0.3486E+00  0.3486E+00
      8.059  0.2681E-01  0.2681E-01  0.3515E+00  0.3515E+00
      8.166  0.3664E-01  0.3667E-01  0.3554E+00  0.3554E+00
      8.273  0.3394E-01  0.3394E-01  0.3591E+00  0.3591E+00
      8.380  0.2782E-01  0.2783E-01  0.3620E+00  0.3620E+00
      8.487  0.3114E-01  0.3115E-01  0.3654E+00  0.3654E+00
      8.595  0.3053E-01  0.3051E-01  0.3686E+00  0.3686E+00
      8.702  0.2640E-01  0.2639E-01  0.3715E+00  0.3715E+00
      8.809  0.1884E-01  0.1884E-01  0.3735E+00  0.3735E+00
      8.916  0.9218E-02  0.9218E-02  0.3745E+00  0.3745E+00
      9.023  0.4003E-02  0.4003E-02  0.3749E+00  0.3749E+00
      9.131  0.7936E-03  0.7927E-03  0.3750E+00  0.3750E+00
      9.238  0.2709E-04  0.2702E-04  0.3750E+00  0.3750E+00
      9.345  0.1185E-06  0.1180E-06  0.3750E+00  0.3750E+00
      9.452  0.5999E-10  0.5964E-10  0.3750E+00  0.3750E+00
      9.559  0.3339E-14  0.3314E-14  0.3750E+00  0.3750E+00
      9.666  0.0000E+00  0.0000E+00  0.3750E+00  0.3750E+00
      9.774  0.0000E+00  0.0000E+00  0.3750E+00  0.3750E+00
      9.881  0.0000E+00  0.0000E+00  0.3750E+00  0.3750E+00
      9.988  0.0000E+00  0.0000E+00  0.3750E+00  0.3750E+00
     10.095  0.0000E+00  0.0000E+00  0.3750E+00  0.3750E+00
     10.202  0.0000E+00  0.0000E+00  0.3750E+00  0.3750E+00
     10.310  0.0000E+00  0.0000E+00  0.3750E+00  0.3750E+00
     10.417  0.0000E+00  0.0000E+00  0.3750E+00  0.3750E+00
