       N       E                     dE             d eps       ncg     rms          rms(c)
DAV:   1     0.186237778460E+03    0.18624E+03   -0.25257E+04  3648   0.862E+02
DAV:   2    -0.118463609913E+03   -0.30470E+03   -0.30363E+03  5808   0.157E+02
DAV:   3    -0.127736736421E+03   -0.92731E+01   -0.92432E+01  6432   0.364E+01
DAV:   4    -0.127756321271E+03   -0.19585E-01   -0.19584E-01  5616   0.159E+00
DAV:   5    -0.127756355014E+03   -0.33743E-04   -0.33743E-04  5856   0.654E-02    0.226E+01
DAV:   6    -0.944741902964E+02    0.33282E+02   -0.57708E+01  4944   0.216E+01    0.123E+01
DAV:   7    -0.105613726048E+03   -0.11140E+02   -0.14030E+01  5424   0.111E+01    0.669E+00
DAV:   8    -0.111420538425E+03   -0.58068E+01   -0.50484E+00  5184   0.643E+00    0.375E+00
DAV:   9    -0.116681182635E+03   -0.52606E+01   -0.27349E+00  4608   0.465E+00    0.254E+00
DAV:  10    -0.120902649103E+03   -0.42215E+01   -0.33047E+00  5472   0.478E+00    0.135E+00
DAV:  11    -0.122771806272E+03   -0.18692E+01   -0.14650E+00  5088   0.284E+00    0.819E-01
DAV:  12    -0.123765926123E+03   -0.99412E+00   -0.79942E-01  5664   0.194E+00    0.403E-01
DAV:  13    -0.124069902670E+03   -0.30398E+00   -0.18949E-01  5376   0.962E-01    0.196E-01
DAV:  14    -0.124122259456E+03   -0.52357E-01   -0.27949E-02  4560   0.399E-01    0.109E-01
DAV:  15    -0.124145427909E+03   -0.23168E-01   -0.14852E-02  4320   0.296E-01    0.585E-02
DAV:  16    -0.124147001379E+03   -0.15735E-02   -0.22907E-03  4320   0.176E-01    0.368E-02
DAV:  17    -0.124147696941E+03   -0.69556E-03   -0.74153E-04  3984   0.897E-02    0.152E-02
DAV:  18    -0.124147746473E+03   -0.49532E-04   -0.16118E-04  3936   0.459E-02    0.837E-03
DAV:  19    -0.124147801995E+03   -0.55522E-04   -0.32691E-05  3888   0.257E-02    0.510E-03
DAV:  20    -0.124147831237E+03   -0.29242E-04   -0.17355E-05  3936   0.170E-02    0.366E-03
DAV:  21    -0.124147874465E+03   -0.43229E-04   -0.14963E-05  3840   0.147E-02    0.230E-03
DAV:  22    -0.124147898833E+03   -0.24367E-04   -0.49966E-06  4224   0.845E-03    0.135E-03
DAV:  23    -0.124147903415E+03   -0.45821E-05   -0.19923E-06  5280   0.535E-03    0.637E-04
DAV:  24    -0.124147906688E+03   -0.32727E-05   -0.40148E-07  5040   0.233E-03    0.342E-04
DAV:  25    -0.124147908216E+03   -0.15282E-05   -0.20083E-07  4560   0.159E-03    0.179E-04
DAV:  26    -0.124147908613E+03   -0.39690E-06   -0.99920E-08  5328   0.122E-03
   1 F= -.12563486E+03 E0= -.12563183E+03  d E =-.125635E+03  mag=     0.0000
       N       E                     dE             d eps       ncg     rms          rms(c)
DAV:   1    -0.124150673096E+03   -0.27649E-02   -0.46622E-01  3840   0.171E+00    0.229E-01
DAV:   2    -0.124148383546E+03    0.22895E-02   -0.11116E-02  5760   0.255E-01    0.101E-01
DAV:   3    -0.124148016657E+03    0.36689E-03   -0.17144E-03  5232   0.889E-02    0.279E-02
DAV:   4    -0.124148003760E+03    0.12897E-04   -0.13163E-04  5040   0.276E-02    0.989E-03
DAV:   5    -0.124148003469E+03    0.29082E-06   -0.57974E-06  5472   0.639E-03
   2 F= -.12563517E+03 E0= -.12563215E+03  d E =-.309319E-03  mag=     0.0000
       N       E                     dE             d eps       ncg     rms          rms(c)
DAV:   1    -0.124150036382E+03   -0.20326E-02   -0.10424E-01  3744   0.809E-01    0.109E-01
DAV:   2    -0.124149523822E+03    0.51256E-03   -0.25426E-03  5520   0.122E-01    0.480E-02
DAV:   3    -0.124149442812E+03    0.81010E-04   -0.40536E-04  5088   0.430E-02    0.130E-02
DAV:   4    -0.124149440707E+03    0.21044E-05   -0.31498E-05  5040   0.134E-02    0.479E-03
DAV:   5    -0.124149440753E+03   -0.46000E-07   -0.13762E-06  5616   0.308E-03
   3 F= -.12563651E+03 E0= -.12563349E+03  d E =-.164567E-02  mag=     0.0000
       N       E                     dE             d eps       ncg     rms          rms(c)
DAV:   1    -0.124149440258E+03    0.44927E-06   -0.19031E-06  5088   0.379E-03    0.105E-03
DAV:   2    -0.124149440208E+03    0.49790E-07   -0.19393E-07  5856   0.935E-04
   4 F= -.12563651E+03 E0= -.12563349E+03  d E =-.164561E-02  mag=     0.0000
       N       E                     dE             d eps       ncg     rms          rms(c)
DAV:   1    -0.124149440413E+03   -0.15453E-06   -0.49216E-07  4848   0.170E-03    0.296E-04
DAV:   2    -0.124149440420E+03   -0.70736E-08   -0.12067E-08  4560   0.349E-04
   5 F= -.12563651E+03 E0= -.12563349E+03  d E =-.164564E-02  mag=     0.0000
       N       E                     dE             d eps       ncg     rms          rms(c)
DAV:   1    -0.124149440588E+03   -0.17562E-06   -0.23376E-07  4368   0.124E-03    0.215E-04
DAV:   2    -0.124149440593E+03   -0.45152E-08   -0.67502E-09  4464   0.218E-04
   6 F= -.12563651E+03 E0= -.12563349E+03  d E =-.164566E-02  mag=     0.0000
       N       E                     dE             d eps       ncg     rms          rms(c)
DAV:   1    -0.124149447460E+03   -0.68714E-05   -0.47268E-03  3744   0.254E-01    0.121E-02
DAV:   2    -0.124149446286E+03    0.11742E-05   -0.53964E-05  4032   0.288E-02    0.745E-03
DAV:   3    -0.124149445730E+03    0.55577E-06   -0.69629E-06  4272   0.907E-03
   7 F= -.12563656E+03 E0= -.12563354E+03  d E =-.522503E-04  mag=    -0.0000
       N       E                     dE             d eps       ncg     rms          rms(c)
DAV:   1    -0.124149474885E+03   -0.28600E-04   -0.42690E-02  3648   0.762E-01    0.370E-02
DAV:   2    -0.124149466217E+03    0.86686E-05   -0.48854E-04  4128   0.870E-02    0.228E-02
DAV:   3    -0.124149459778E+03    0.64383E-05   -0.63739E-05  4992   0.273E-02    0.550E-03
DAV:   4    -0.124149460216E+03   -0.43728E-06   -0.75205E-06  4032   0.951E-03
   8 F= -.12563672E+03 E0= -.12563370E+03  d E =-.208287E-03  mag=    -0.0000
       N       E                     dE             d eps       ncg     rms          rms(c)
DAV:   1    -0.124149544911E+03   -0.85132E-04   -0.17026E-01  3648   0.152E+00    0.727E-02
DAV:   2    -0.124149514393E+03    0.30517E-04   -0.19614E-03  4128   0.174E-01    0.447E-02
DAV:   3    -0.124149485375E+03    0.29018E-04   -0.25029E-04  4896   0.540E-02    0.110E-02
DAV:   4    -0.124149486724E+03   -0.13495E-05   -0.29005E-05  4896   0.187E-02    0.471E-03
DAV:   5    -0.124149487284E+03   -0.55928E-06   -0.13814E-06  3744   0.398E-03
   9 F= -.12563703E+03 E0= -.12563401E+03  d E =-.519316E-03  mag=    -0.0000
       N       E                     dE             d eps       ncg     rms          rms(c)
DAV:   1    -0.124149753298E+03   -0.26657E-03   -0.68083E-01  3648   0.304E+00    0.145E-01
DAV:   2    -0.124149646210E+03    0.10709E-03   -0.78628E-03  4032   0.347E-01    0.895E-02
DAV:   3    -0.124149521866E+03    0.12434E-03   -0.99955E-04  4800   0.108E-01    0.222E-02
DAV:   4    -0.124149525068E+03   -0.32018E-05   -0.11455E-04  5136   0.370E-02    0.939E-03
DAV:   5    -0.124149524247E+03    0.82118E-06   -0.52548E-06  4320   0.748E-03
  10 F= -.12563764E+03 E0= -.12563462E+03  d E =-.112819E-02  mag=    -0.0000
       N       E                     dE             d eps       ncg     rms          rms(c)
DAV:   1    -0.124150472111E+03   -0.94704E-03   -0.27234E+00  3648   0.608E+00    0.291E-01
DAV:   2    -0.124150028552E+03    0.44356E-03   -0.31472E-02  4320   0.695E-01    0.179E-01
DAV:   3    -0.124149549582E+03    0.47897E-03   -0.40057E-03  4512   0.216E-01    0.435E-02
DAV:   4    -0.124149556833E+03   -0.72512E-05   -0.45648E-04  5712   0.746E-02    0.189E-02
DAV:   5    -0.124149551204E+03    0.56283E-05   -0.20659E-05  4608   0.148E-02    0.429E-03
DAV:   6    -0.124149551083E+03    0.12101E-06   -0.35371E-06  4848   0.632E-03
  11 F= -.12563882E+03 E0= -.12563581E+03  d E =-.231408E-02  mag=    -0.0000
       N       E                     dE             d eps       ncg     rms          rms(c)
DAV:   1    -0.124153145353E+03   -0.35941E-02   -0.10887E+01  3648   0.122E+01    0.582E-01
DAV:   2    -0.124151455984E+03    0.16894E-02   -0.12625E-01  4512   0.139E+00    0.358E-01
DAV:   3    -0.124149451757E+03    0.20042E-02   -0.16083E-02  5376   0.427E-01    0.861E-02
DAV:   4    -0.124149469867E+03   -0.18110E-04   -0.16672E-03  5568   0.146E-01    0.386E-02
DAV:   5    -0.124149438126E+03    0.31741E-04   -0.80235E-05  4752   0.287E-02    0.736E-03
DAV:   6    -0.124149437314E+03    0.81145E-06   -0.17612E-05  5040   0.126E-02    0.436E-03
DAV:   7    -0.124149443494E+03   -0.61800E-05   -0.36495E-06  4752   0.727E-03    0.245E-03
DAV:   8    -0.124149459082E+03   -0.15588E-04   -0.37763E-06  4752   0.571E-03    0.188E-03
DAV:   9    -0.124149468957E+03   -0.98743E-05   -0.14452E-06  4848   0.399E-03    0.998E-04
DAV:  10    -0.124149483310E+03   -0.14353E-04   -0.48065E-06  4416   0.830E-03    0.667E-04
DAV:  11    -0.124149485466E+03   -0.21564E-05   -0.38929E-06  4944   0.839E-03    0.565E-04
DAV:  12    -0.124149489278E+03   -0.38125E-05   -0.11191E-06  4224   0.365E-03    0.160E-04
DAV:  13    -0.124149489485E+03   -0.20623E-06   -0.12596E-07  5856   0.143E-03
  12 F= -.12564114E+03 E0= -.12563813E+03  d E =-.463379E-02  mag=     0.0000
       N       E                     dE             d eps       ncg     rms          rms(c)
DAV:   1    -0.124162266994E+03   -0.12778E-01   -0.43462E+01  3648   0.243E+01    0.116E+00
DAV:   2    -0.124156621592E+03    0.56454E-02   -0.51185E-01  3936   0.281E+00    0.718E-01
DAV:   3    -0.124148647624E+03    0.79740E-02   -0.64908E-02  6144   0.862E-01    0.176E-01
DAV:   4    -0.124148712331E+03   -0.64707E-04   -0.58555E-03  5664   0.273E-01    0.791E-02
DAV:   5    -0.124148612480E+03    0.99851E-04   -0.31667E-04  4992   0.544E-02    0.153E-02
DAV:   6    -0.124148599090E+03    0.13390E-04   -0.70707E-05  5472   0.223E-02    0.713E-03
DAV:   7    -0.124148620511E+03   -0.21421E-04   -0.11208E-05  4896   0.918E-03    0.399E-03
DAV:   8    -0.124148639809E+03   -0.19298E-04   -0.27119E-06  4848   0.407E-03    0.350E-03
DAV:   9    -0.124148659001E+03   -0.19191E-04   -0.17221E-06  4800   0.286E-03    0.170E-03
DAV:  10    -0.124148681968E+03   -0.22967E-04   -0.29287E-06  4656   0.340E-03    0.109E-03
DAV:  11    -0.124148691910E+03   -0.99429E-05   -0.13644E-06  4320   0.332E-03    0.614E-04
DAV:  12    -0.124148697768E+03   -0.58575E-05   -0.15131E-06  4704   0.426E-03    0.232E-04
DAV:  13    -0.124148698526E+03   -0.75756E-06   -0.53955E-07  5184   0.303E-03
  13 F= -.12564538E+03 E0= -.12564236E+03  d E =-.886886E-02  mag=    -0.0000
       N       E                     dE             d eps       ncg     rms          rms(c)
DAV:   1    -0.124189417388E+03   -0.40720E-01   -0.17279E+02  3648   0.484E+01    0.230E+00
DAV:   2    -0.124175448203E+03    0.13969E-01   -0.21183E+00  3840   0.578E+00    0.144E+00
DAV:   3    -0.124144341785E+03    0.31106E-01   -0.25257E-01  6144   0.171E+00    0.376E-01
DAV:   4    -0.124144737901E+03   -0.39612E-03   -0.21997E-02  5472   0.527E-01    0.163E-01
DAV:   5    -0.124144229978E+03    0.50792E-03   -0.14453E-03  5664   0.106E-01    0.322E-02
DAV:   6    -0.124144178933E+03    0.51046E-04   -0.23992E-04  5424   0.415E-02    0.148E-02
DAV:   7    -0.124144235492E+03   -0.56559E-04   -0.49391E-05  4416   0.199E-02    0.809E-03
DAV:   8    -0.124144284199E+03   -0.48707E-04   -0.10940E-05  4560   0.939E-03    0.737E-03
DAV:   9    -0.124144330662E+03   -0.46463E-04   -0.67620E-06  5040   0.664E-03    0.352E-03
DAV:  10    -0.124144377872E+03   -0.47210E-04   -0.72007E-06  4752   0.640E-03    0.190E-03
DAV:  11    -0.124144397026E+03   -0.19155E-04   -0.25742E-06  5280   0.478E-03    0.173E-03
DAV:  12    -0.124144411029E+03   -0.14003E-04   -0.24201E-06  4608   0.426E-03    0.649E-04
DAV:  13    -0.124144416173E+03   -0.51436E-05   -0.91325E-07  4800   0.321E-03    0.231E-04
DAV:  14    -0.124144417761E+03   -0.15886E-05   -0.36840E-07  4656   0.232E-03    0.131E-04
DAV:  15    -0.124144418071E+03   -0.30920E-06   -0.79963E-08  5472   0.117E-03
  14 F= -.12565229E+03 E0= -.12564928E+03  d E =-.157839E-01  mag=     0.0000
       N       E                     dE             d eps       ncg     rms          rms(c)
DAV:   1    -0.124195524344E+03   -0.51107E-01   -0.67467E+02  3648   0.952E+01    0.451E+00
DAV:   2    -0.124252289376E+03   -0.56765E-01   -0.93557E+00  3744   0.125E+01    0.290E+00
DAV:   3    -0.124124091316E+03    0.12820E+00   -0.87131E-01  6048   0.322E+00    0.938E-01
DAV:   4    -0.124126298746E+03   -0.22074E-02   -0.75776E-02  5856   0.100E+00    0.332E-01
DAV:   5    -0.124124532521E+03    0.17662E-02   -0.75272E-03  5760   0.217E-01    0.577E-02
DAV:   6    -0.124124336005E+03    0.19652E-03   -0.67470E-04  5856   0.727E-02    0.286E-02
DAV:   7    -0.124124508761E+03   -0.17276E-03   -0.23009E-04  4416   0.437E-02    0.156E-02
DAV:   8    -0.124124630974E+03   -0.12221E-03   -0.42543E-05  4224   0.155E-02    0.141E-02
DAV:   9    -0.124124722590E+03   -0.91616E-04   -0.17119E-05  5280   0.978E-03    0.723E-03
DAV:  10    -0.124124809350E+03   -0.86760E-04   -0.17096E-05  4512   0.989E-03    0.410E-03
DAV:  11    -0.124124859623E+03   -0.50272E-04   -0.10484E-05  5088   0.660E-03    0.258E-03
DAV:  12    -0.124124875482E+03   -0.15859E-04   -0.22444E-06  4848   0.350E-03    0.867E-04
DAV:  13    -0.124124880521E+03   -0.50394E-05   -0.45159E-07  5088   0.220E-03    0.404E-04
DAV:  14    -0.124124882893E+03   -0.23718E-05   -0.17097E-07  4896   0.147E-03    0.211E-04
DAV:  15    -0.124124885056E+03   -0.21631E-05   -0.19778E-07  4032   0.104E-03    0.813E-05
DAV:  16    -0.124124885311E+03   -0.25442E-06   -0.23260E-08  5808   0.551E-04
  15 F= -.12566058E+03 E0= -.12565758E+03  d E =-.240716E-01  mag=     0.0000
       N       E                     dE             d eps       ncg     rms          rms(c)
DAV:   1    -0.123195131572E+03    0.92975E+00   -0.24488E+03  3648   0.177E+02    0.874E+00
DAV:   2    -0.124585868723E+03   -0.13907E+01   -0.45700E+01  3648   0.284E+01    0.574E+00
DAV:   3    -0.124109793734E+03    0.47607E+00   -0.24411E+00  6288   0.561E+00    0.282E+00
DAV:   4    -0.124043043068E+03    0.66751E-01   -0.45335E-01  6384   0.238E+00    0.625E-01
DAV:   5    -0.124038478351E+03    0.45647E-02   -0.32283E-02  5376   0.566E-01    0.143E-01
DAV:   6    -0.124037094483E+03    0.13839E-02   -0.40826E-03  6960   0.175E-01    0.686E-02
DAV:   7    -0.124037118020E+03   -0.23537E-04   -0.12229E-03  4704   0.103E-01    0.302E-02
DAV:   8    -0.124037439157E+03   -0.32114E-03   -0.24696E-04  3984   0.402E-02    0.230E-02
DAV:   9    -0.124037659008E+03   -0.21985E-03   -0.10728E-04  4560   0.263E-02    0.152E-02
DAV:  10    -0.124037748731E+03   -0.89723E-04   -0.26334E-05  4560   0.132E-02    0.122E-02
DAV:  11    -0.124037812654E+03   -0.63923E-04   -0.24064E-05  4752   0.115E-02    0.461E-03
DAV:  12    -0.124037839001E+03   -0.26348E-04   -0.50343E-06  5424   0.577E-03    0.296E-03
DAV:  13    -0.124037853102E+03   -0.14101E-04   -0.19463E-06  5904   0.375E-03    0.188E-03
DAV:  14    -0.124037858513E+03   -0.54106E-05   -0.35451E-07  5232   0.154E-03    0.905E-04
DAV:  15    -0.124037861313E+03   -0.28005E-05   -0.13119E-07  4992   0.891E-04    0.300E-04
DAV:  16    -0.124037862972E+03   -0.16584E-05   -0.88656E-08  4656   0.604E-04    0.142E-04
DAV:  17    -0.124037863325E+03   -0.35279E-06   -0.84140E-09  5664   0.179E-04
  16 F= -.12565967E+03 E0= -.12565672E+03  d E =-.231620E-01  mag=     0.0000
       N       E                     dE             d eps       ncg     rms          rms(c)
DAV:   1    -0.124179527350E+03   -0.14166E+00   -0.77089E+02  3648   0.102E+02    0.487E+00
DAV:   2    -0.124238024112E+03   -0.58497E-01   -0.10850E+01  3648   0.136E+01    0.312E+00
DAV:   3    -0.124093065398E+03    0.14496E+00   -0.90297E-01  6144   0.331E+00    0.110E+00
DAV:   4    -0.124094211008E+03   -0.11456E-02   -0.85619E-02  5664   0.108E+00    0.344E-01
DAV:   5    -0.124092832005E+03    0.13790E-02   -0.10853E-02  5568   0.269E-01    0.592E-02
DAV:   6    -0.124092640877E+03    0.19113E-03   -0.63844E-04  5712   0.746E-02    0.294E-02
DAV:   7    -0.124092606391E+03    0.34486E-04   -0.19772E-04  4176   0.424E-02    0.175E-02
DAV:   8    -0.124092649235E+03   -0.42844E-04   -0.17655E-05  4224   0.107E-02    0.135E-02
DAV:   9    -0.124092754078E+03   -0.10484E-03   -0.23018E-05  4176   0.120E-02    0.516E-03
DAV:  10    -0.124092862037E+03   -0.10796E-03   -0.14007E-05  5184   0.908E-03    0.612E-03
DAV:  11    -0.124092914725E+03   -0.52687E-04   -0.29813E-06  4704   0.538E-03    0.194E-03
DAV:  12    -0.124092937666E+03   -0.22942E-04   -0.59984E-07  5520   0.261E-03    0.101E-03
DAV:  13    -0.124092948430E+03   -0.10764E-04   -0.25493E-07  5088   0.134E-03    0.554E-04
DAV:  14    -0.124092951753E+03   -0.33227E-05   -0.55599E-08  5712   0.523E-04    0.236E-04
DAV:  15    -0.124092953262E+03   -0.15085E-05   -0.40384E-08  4656   0.361E-04    0.933E-05
DAV:  16    -0.124092953467E+03   -0.20529E-06   -0.38297E-09  5808   0.130E-04
  17 F= -.12566267E+03 E0= -.12565968E+03  d E =-.261633E-01  mag=     0.0000
       N       E                     dE             d eps       ncg     rms          rms(c)
DAV:   1    -0.124092951846E+03    0.14152E-05   -0.43299E-06  5136   0.768E-03    0.363E-04
DAV:   2    -0.124092951851E+03   -0.45902E-08   -0.47888E-08  5808   0.852E-04
  18 F= -.12566267E+03 E0= -.12565968E+03  d E =-.167852E-05  mag=    -0.0000
       N       E                     dE             d eps       ncg     rms          rms(c)
DAV:   1    -0.124092946682E+03    0.51639E-05   -0.38387E-05  5232   0.229E-02    0.114E-03
DAV:   2    -0.124092946668E+03    0.14420E-07   -0.38564E-07  5568   0.240E-03
  19 F= -.12566268E+03 E0= -.12565969E+03  d E =-.637939E-05  mag=    -0.0000
       N       E                     dE             d eps       ncg     rms          rms(c)
DAV:   1    -0.124092936336E+03    0.10347E-04   -0.15225E-04  4032   0.457E-02    0.230E-03
DAV:   2    -0.124092936281E+03    0.54861E-07   -0.16375E-06  4848   0.504E-03
  20 F= -.12566269E+03 E0= -.12565970E+03  d E =-.157619E-04  mag=    -0.0000
       N       E                     dE             d eps       ncg     rms          rms(c)
DAV:   1    -0.124092915696E+03    0.20640E-04   -0.60923E-04  3696   0.915E-02    0.461E-03
DAV:   2    -0.124092915466E+03    0.22958E-06   -0.67509E-06  4224   0.103E-02
  21 F= -.12566271E+03 E0= -.12565972E+03  d E =-.344943E-04  mag=    -0.0000
       N       E                     dE             d eps       ncg     rms          rms(c)
DAV:   1    -0.124092874689E+03    0.41007E-04   -0.24381E-03  3696   0.183E-01    0.922E-03
DAV:   2    -0.124092873948E+03    0.74134E-06   -0.27044E-05  4608   0.207E-02    0.571E-03
DAV:   3    -0.124092873746E+03    0.20159E-06   -0.35326E-06  4992   0.640E-03
  22 F= -.12566275E+03 E0= -.12565976E+03  d E =-.719005E-04  mag=     0.0000
       N       E                     dE             d eps       ncg     rms          rms(c)
DAV:   1    -0.124092793904E+03    0.80043E-04   -0.10027E-02  3648   0.369E-01    0.181E-02
DAV:   2    -0.124092791295E+03    0.26092E-05   -0.11397E-04  4416   0.421E-02    0.111E-02
DAV:   3    -0.124092790033E+03    0.12622E-05   -0.14797E-05  5088   0.130E-02    0.270E-03
DAV:   4    -0.124092790256E+03   -0.22326E-06   -0.17631E-06  4128   0.456E-03
  23 F= -.12566282E+03 E0= -.12565983E+03  d E =-.146791E-03  mag=     0.0000
       N       E                     dE             d eps       ncg     rms          rms(c)
DAV:   1    -0.124092637094E+03    0.15294E-03   -0.39910E-02  3648   0.737E-01    0.352E-02
DAV:   2    -0.124092627909E+03    0.91857E-05   -0.45592E-04  4032   0.843E-02    0.217E-02
DAV:   3    -0.124092622138E+03    0.57707E-05   -0.59269E-05  5184   0.262E-02    0.533E-03
DAV:   4    -0.124092622730E+03   -0.59211E-06   -0.68561E-06  4032   0.899E-03
  24 F= -.12566297E+03 E0= -.12565998E+03  d E =-.296540E-03  mag=     0.0000
       N       E                     dE             d eps       ncg     rms          rms(c)
DAV:   1    -0.124092341005E+03    0.28113E-03   -0.15961E-01  3648   0.147E+00    0.704E-02
DAV:   2    -0.124092310367E+03    0.30638E-04   -0.18254E-03  3648   0.169E-01    0.435E-02
DAV:   3    -0.124092284704E+03    0.25663E-04   -0.24328E-04  4704   0.537E-02    0.107E-02
DAV:   4    -0.124092286204E+03   -0.14998E-05   -0.28447E-05  4512   0.183E-02    0.459E-03
DAV:   5    -0.124092286692E+03   -0.48814E-06   -0.13150E-06  3648   0.405E-03
  25 F= -.12566327E+03 E0= -.12566028E+03  d E =-.597113E-03  mag=    -0.0000
       N       E                     dE             d eps       ncg     rms          rms(c)
DAV:   1    -0.124091830389E+03    0.45581E-03   -0.63826E-01  3648   0.295E+00    0.141E-01
DAV:   2    -0.124091718734E+03    0.11166E-03   -0.73011E-03  3648   0.337E-01    0.869E-02
DAV:   3    -0.124091606874E+03    0.11186E-03   -0.96647E-04  4128   0.108E-01    0.215E-02
DAV:   4    -0.124091611175E+03   -0.43008E-05   -0.12468E-04  6000   0.377E-02    0.899E-03
DAV:   5    -0.124091611368E+03   -0.19256E-06   -0.41395E-06  4032   0.646E-03
  26 F= -.12566388E+03 E0= -.12566089E+03  d E =-.120321E-02  mag=     0.0000
       N       E                     dE             d eps       ncg     rms          rms(c)
DAV:   1    -0.124091120159E+03    0.49102E-03   -0.25538E+00  3648   0.590E+00    0.282E-01
DAV:   2    -0.124090673799E+03    0.44636E-03   -0.29522E-02  4656   0.674E-01    0.173E-01
DAV:   3    -0.124090238128E+03    0.43567E-03   -0.36238E-03  4320   0.203E-01    0.424E-02
DAV:   4    -0.124090243261E+03   -0.51326E-05   -0.43750E-04  6144   0.724E-02    0.179E-02
DAV:   5    -0.124090238144E+03    0.51169E-05   -0.18393E-05  5520   0.132E-02    0.345E-03
DAV:   6    -0.124090238764E+03   -0.62034E-06   -0.41171E-06  4128   0.625E-03
  27 F= -.12566510E+03 E0= -.12566211E+03  d E =-.242652E-02  mag=     0.0000
       N       E                     dE             d eps       ncg     rms          rms(c)
DAV:   1    -0.124090992471E+03   -0.75433E-03   -0.10205E+01  3648   0.118E+01    0.564E-01
DAV:   2    -0.124089306662E+03    0.16858E-02   -0.11798E-01  4800   0.135E+00    0.346E-01
DAV:   3    -0.124087429490E+03    0.18772E-02   -0.14706E-02  5520   0.406E-01    0.836E-02
DAV:   4    -0.124087446242E+03   -0.16752E-04   -0.14787E-03  5952   0.136E-01    0.371E-02
DAV:   5    -0.124087423559E+03    0.22683E-04   -0.76500E-05  5664   0.281E-02    0.740E-03
DAV:   6    -0.124087423299E+03    0.25982E-06   -0.13914E-05  4272   0.131E-02    0.429E-03
DAV:   7    -0.124087427906E+03   -0.46061E-05   -0.38093E-06  4224   0.751E-03    0.216E-03
DAV:   8    -0.124087439148E+03   -0.11243E-04   -0.20664E-06  4896   0.461E-03    0.178E-03
DAV:   9    -0.124087448111E+03   -0.89630E-05   -0.99870E-07  5376   0.277E-03    0.766E-04
DAV:  10    -0.124087455279E+03   -0.71681E-05   -0.10653E-06  5040   0.364E-03    0.622E-04
DAV:  11    -0.124087458577E+03   -0.32973E-05   -0.46600E-07  5424   0.253E-03    0.498E-04
DAV:  12    -0.124087461026E+03   -0.24496E-05   -0.17377E-07  4608   0.882E-04    0.143E-04
DAV:  13    -0.124087461709E+03   -0.68301E-06   -0.27480E-08  6048   0.343E-04
  28 F= -.12566765E+03 E0= -.12566466E+03  d E =-.497598E-02  mag=    -0.0000
       N       E                     dE             d eps       ncg     rms          rms(c)
DAV:   1    -0.124094487445E+03   -0.70264E-02   -0.40749E+01  3648   0.236E+01    0.112E+00
DAV:   2    -0.124088770229E+03    0.57172E-02   -0.47860E-01  4176   0.272E+00    0.695E-01
DAV:   3    -0.124081513807E+03    0.72564E-02   -0.60877E-02  5904   0.833E-01    0.171E-01
DAV:   4    -0.124081581197E+03   -0.67391E-04   -0.57608E-03  5904   0.265E-01    0.759E-02
DAV:   5    -0.124081500449E+03    0.80748E-04   -0.30215E-04  5664   0.523E-02    0.152E-02
DAV:   6    -0.124081493569E+03    0.68798E-05   -0.62461E-05  5712   0.213E-02    0.656E-03
DAV:   7    -0.124081513455E+03   -0.19885E-04   -0.68876E-06  3840   0.809E-03    0.400E-03
DAV:   8    -0.124081529552E+03   -0.16097E-04   -0.17594E-06  5136   0.353E-03    0.336E-03
DAV:   9    -0.124081549691E+03   -0.20139E-04   -0.23952E-06  4944   0.323E-03    0.129E-03
DAV:  10    -0.124081564572E+03   -0.14881E-04   -0.18965E-06  5376   0.252E-03    0.102E-03
DAV:  11    -0.124081570291E+03   -0.57195E-05   -0.42830E-07  5376   0.127E-03    0.741E-04
DAV:  12    -0.124081574206E+03   -0.39151E-05   -0.29141E-07  5184   0.105E-03    0.243E-04
DAV:  13    -0.124081575972E+03   -0.17660E-05   -0.10495E-07  4800   0.590E-04    0.122E-04
DAV:  14    -0.124081576516E+03   -0.54417E-06   -0.19591E-08  5328   0.265E-04
  29 F= -.12567298E+03 E0= -.12567000E+03  d E =-.103069E-01  mag=     0.0000
       N       E                     dE             d eps       ncg     rms          rms(c)
DAV:   1    -0.124111942545E+03   -0.30367E-01   -0.16208E+02  3648   0.469E+01    0.223E+00
DAV:   2    -0.124097415792E+03    0.14527E-01   -0.19857E+00  4320   0.559E+00    0.140E+00
DAV:   3    -0.124068063269E+03    0.29353E-01   -0.22900E-01  5760   0.162E+00    0.372E-01
DAV:   4    -0.124068623648E+03   -0.56038E-03   -0.21649E-02  5760   0.513E-01    0.155E-01
DAV:   5    -0.124068213780E+03    0.40987E-03   -0.13648E-03  5760   0.101E-01    0.319E-02
DAV:   6    -0.124068186348E+03    0.27432E-04   -0.21249E-04  5184   0.403E-02    0.133E-02
DAV:   7    -0.124068253207E+03   -0.66859E-04   -0.46474E-05  3840   0.206E-02    0.847E-03
DAV:   8    -0.124068308924E+03   -0.55717E-04   -0.10198E-05  4992   0.810E-03    0.536E-03
DAV:   9    -0.124068343538E+03   -0.34614E-04   -0.44130E-06  4608   0.466E-03    0.256E-03
DAV:  10    -0.124068370266E+03   -0.26728E-04   -0.38782E-06  4896   0.384E-03    0.186E-03
DAV:  11    -0.124068384627E+03   -0.14361E-04   -0.19463E-06  5712   0.267E-03    0.135E-03
DAV:  12    -0.124068391256E+03   -0.66288E-05   -0.73771E-07  5472   0.191E-03    0.363E-04
DAV:  13    -0.124068392833E+03   -0.15767E-05   -0.78223E-08  5424   0.841E-04    0.212E-04
DAV:  14    -0.124068393633E+03   -0.80067E-06   -0.31432E-08  4896   0.525E-04
  30 F= -.12568463E+03 E0= -.12568168E+03  d E =-.219603E-01  mag=     0.0000
       N       E                     dE             d eps       ncg     rms          rms(c)
DAV:   1    -0.124123188336E+03   -0.54796E-01   -0.63397E+02  3648   0.924E+01    0.439E+00
DAV:   2    -0.124154658465E+03   -0.31470E-01   -0.86826E+00  4224   0.120E+01    0.281E+00
DAV:   3    -0.124033116000E+03    0.12154E+00   -0.78280E-01  6048   0.302E+00    0.911E-01
DAV:   4    -0.124035220553E+03   -0.21046E-02   -0.72330E-02  5952   0.972E-01    0.318E-01
DAV:   5    -0.124033645445E+03    0.15751E-02   -0.74574E-03  5664   0.216E-01    0.554E-02
DAV:   6    -0.124033531544E+03    0.11390E-03   -0.54200E-04  5952   0.684E-02    0.254E-02
DAV:   7    -0.124033703185E+03   -0.17164E-03   -0.22784E-04  4224   0.434E-02    0.164E-02
DAV:   8    -0.124033826754E+03   -0.12357E-03   -0.41602E-05  4512   0.158E-02    0.116E-02
DAV:   9    -0.124033919795E+03   -0.93041E-04   -0.24465E-05  4416   0.133E-02    0.480E-03
DAV:  10    -0.124033964252E+03   -0.44457E-04   -0.95458E-06  5136   0.851E-03    0.471E-03
DAV:  11    -0.124033985877E+03   -0.21626E-04   -0.51540E-06  4848   0.606E-03    0.242E-03
DAV:  12    -0.124033997586E+03   -0.11709E-04   -0.20434E-06  5760   0.389E-03    0.898E-04
DAV:  13    -0.124034000836E+03   -0.32492E-05   -0.39493E-07  5856   0.248E-03    0.511E-04
DAV:  14    -0.124034002216E+03   -0.13804E-05   -0.17730E-07  5424   0.176E-03    0.250E-04
DAV:  15    -0.124034003225E+03   -0.10087E-05   -0.77945E-08  4704   0.922E-04    0.760E-05
DAV:  16    -0.124034003577E+03   -0.35286E-06   -0.16860E-08  5280   0.428E-04
  31 F= -.12571080E+03 E0= -.12570794E+03  d E =-.481311E-01  mag=    -0.0000
       N       E                     dE             d eps       ncg     rms          rms(c)
DAV:   1    -0.123208361234E+03    0.82564E+00   -0.23163E+03  3648   0.172E+02    0.851E+00
DAV:   2    -0.124377933597E+03   -0.11696E+01   -0.42533E+01  3648   0.275E+01    0.557E+00
DAV:   3    -0.123944674758E+03    0.43326E+00   -0.22790E+00  6240   0.545E+00    0.271E+00
DAV:   4    -0.123883526881E+03    0.61148E-01   -0.40463E-01  5472   0.227E+00    0.593E-01
DAV:   5    -0.123880428549E+03    0.30983E-02   -0.28853E-02  5280   0.544E-01    0.145E-01
DAV:   6    -0.123878995601E+03    0.14329E-02   -0.39483E-03  6720   0.177E-01    0.647E-02
DAV:   7    -0.123878917871E+03    0.77730E-04   -0.12084E-03  5088   0.104E-01    0.312E-02
DAV:   8    -0.123879211898E+03   -0.29403E-03   -0.33568E-04  5088   0.467E-02    0.227E-02
DAV:   9    -0.123879376558E+03   -0.16466E-03   -0.10647E-04  4944   0.282E-02    0.158E-02
DAV:  10    -0.123879448906E+03   -0.72348E-04   -0.23306E-05  5568   0.120E-02    0.138E-02
DAV:  11    -0.123879497953E+03   -0.49047E-04   -0.30324E-05  4512   0.134E-02    0.379E-03
DAV:  12    -0.123879508983E+03   -0.11030E-04   -0.28469E-06  5712   0.406E-03    0.412E-03
DAV:  13    -0.123879517265E+03   -0.82818E-05   -0.16016E-06  5040   0.341E-03    0.186E-03
DAV:  14    -0.123879520714E+03   -0.34490E-05   -0.42157E-07  5952   0.164E-03    0.645E-04
DAV:  15    -0.123879522687E+03   -0.19731E-05   -0.20677E-07  4464   0.107E-03    0.275E-04
DAV:  16    -0.123879523331E+03   -0.64422E-06   -0.37783E-08  5232   0.522E-04
  32 F= -.12572777E+03 E0= -.12572494E+03  d E =-.650968E-01  mag=    -0.0000
       N       E                     dE             d eps       ncg     rms          rms(c)
DAV:   1    -0.124070253545E+03   -0.19073E+00   -0.86368E+02  3648   0.108E+02    0.518E+00
DAV:   2    -0.124151453415E+03   -0.81200E-01   -0.12351E+01  3840   0.147E+01    0.331E+00
DAV:   3    -0.123994348703E+03    0.15710E+00   -0.98847E-01  6624   0.344E+00    0.123E+00
DAV:   4    -0.123992751067E+03    0.15976E-02   -0.88649E-02  4848   0.113E+00    0.365E-01
DAV:   5    -0.123991134046E+03    0.16170E-02   -0.13723E-02  5280   0.317E-01    0.675E-02
DAV:   6    -0.123991009166E+03    0.12488E-03   -0.58802E-04  6048   0.803E-02    0.318E-02
DAV:   7    -0.123991009878E+03   -0.71279E-06   -0.18866E-04  4512   0.474E-02    0.202E-02
DAV:   8    -0.123991041256E+03   -0.31378E-04   -0.22799E-05  4656   0.124E-02    0.157E-02
DAV:   9    -0.123991143324E+03   -0.10207E-03   -0.28953E-05  4512   0.136E-02    0.541E-03
DAV:  10    -0.123991245779E+03   -0.10246E-03   -0.13617E-05  5664   0.856E-03    0.686E-03
DAV:  11    -0.123991308608E+03   -0.62829E-04   -0.38363E-06  5424   0.527E-03    0.354E-03
DAV:  12    -0.123991335105E+03   -0.26497E-04   -0.63584E-07  5040   0.254E-03    0.160E-03
DAV:  13    -0.123991361314E+03   -0.26209E-04   -0.52745E-07  5328   0.202E-03    0.665E-04
DAV:  14    -0.123991368875E+03   -0.75607E-05   -0.12644E-07  5664   0.931E-04    0.492E-04
DAV:  15    -0.123991371107E+03   -0.22325E-05   -0.43139E-08  5664   0.653E-04    0.208E-04
DAV:  16    -0.123991372136E+03   -0.10283E-05   -0.42164E-08  4992   0.522E-04    0.115E-04
DAV:  17    -0.123991372252E+03   -0.11657E-06   -0.73839E-09  5568   0.266E-04
  33 F= -.12573066E+03 E0= -.12572798E+03  d E =-.679817E-01  mag=    -0.0000
       N       E                     dE             d eps       ncg     rms          rms(c)
DAV:   1    -0.124005080826E+03   -0.13709E-01   -0.22262E+02  3648   0.551E+01    0.262E+00
DAV:   2    -0.123986187802E+03    0.18893E-01   -0.27833E+00  4704   0.664E+00    0.164E+00
DAV:   3    -0.123946147918E+03    0.40040E-01   -0.29307E-01  6240   0.183E+00    0.458E-01
DAV:   4    -0.123946745616E+03   -0.59770E-03   -0.27679E-02  5808   0.584E-01    0.181E-01
DAV:   5    -0.123946249294E+03    0.49632E-03   -0.18948E-03  6480   0.119E-01    0.365E-02
DAV:   6    -0.123946205536E+03    0.43758E-04   -0.24843E-04  4704   0.456E-02    0.153E-02
DAV:   7    -0.123946271775E+03   -0.66239E-04   -0.77741E-05  5184   0.260E-02    0.102E-02
DAV:   8    -0.123946331477E+03   -0.59702E-04   -0.13762E-05  3984   0.955E-03    0.756E-03
DAV:   9    -0.123946369394E+03   -0.37917E-04   -0.54787E-06  4896   0.563E-03    0.369E-03
DAV:  10    -0.123946403231E+03   -0.33837E-04   -0.65884E-06  4848   0.519E-03    0.209E-03
DAV:  11    -0.123946419161E+03   -0.15930E-04   -0.28044E-06  5520   0.317E-03    0.163E-03
DAV:  12    -0.123946424973E+03   -0.58121E-05   -0.82435E-07  5472   0.211E-03    0.592E-04
DAV:  13    -0.123946426829E+03   -0.18565E-05   -0.12570E-07  6096   0.105E-03    0.328E-04
DAV:  14    -0.123946427865E+03   -0.10355E-05   -0.70367E-08  4992   0.746E-04    0.152E-04
DAV:  15    -0.123946428247E+03   -0.38240E-06   -0.21625E-08  5088   0.424E-04
  34 F= -.12573727E+03 E0= -.12573470E+03  d E =-.745989E-01  mag=     0.0000
       N       E                     dE             d eps       ncg     rms          rms(c)
DAV:   1    -0.123974665392E+03   -0.28238E-01   -0.26981E+02  3648   0.608E+01    0.289E+00
DAV:   2    -0.123953620528E+03    0.21045E-01   -0.34015E+00  4608   0.739E+00    0.180E+00
DAV:   3    -0.123904983520E+03    0.48637E-01   -0.34053E-01  6192   0.198E+00    0.522E-01
DAV:   4    -0.123905559632E+03   -0.57611E-03   -0.32977E-02  5856   0.640E-01    0.195E-01
DAV:   5    -0.123904855475E+03    0.70416E-03   -0.24139E-03  6240   0.135E-01    0.393E-02
DAV:   6    -0.123904788068E+03    0.67407E-04   -0.31351E-04  5280   0.529E-02    0.174E-02
DAV:   7    -0.123904851767E+03   -0.63699E-04   -0.84827E-05  4944   0.284E-02    0.107E-02
DAV:   8    -0.123904911497E+03   -0.59730E-04   -0.27995E-05  4608   0.141E-02    0.105E-02
DAV:   9    -0.123904963573E+03   -0.52076E-04   -0.10430E-05  5040   0.829E-03    0.456E-03
DAV:  10    -0.123905008598E+03   -0.45025E-04   -0.98038E-06  4800   0.682E-03    0.264E-03
DAV:  11    -0.123905022991E+03   -0.14394E-04   -0.19212E-06  5712   0.288E-03    0.209E-03
DAV:  12    -0.123905034450E+03   -0.11459E-04   -0.24068E-06  4944   0.320E-03    0.100E-03
DAV:  13    -0.123905037387E+03   -0.29372E-05   -0.31618E-07  5712   0.132E-03    0.487E-04
DAV:  14    -0.123905038903E+03   -0.15155E-05   -0.14104E-07  5136   0.837E-04    0.257E-04
DAV:  15    -0.123905039316E+03   -0.41331E-06   -0.21836E-08  5712   0.379E-04
  35 F= -.12575967E+03 E0= -.12575680E+03  d E =-.223959E-01  mag=     0.0000
       N       E                     dE             d eps       ncg     rms          rms(c)
DAV:   1    -0.123896999436E+03    0.80395E-02   -0.81015E+00  3648   0.106E+01    0.504E-01
DAV:   2    -0.123895335180E+03    0.16643E-02   -0.92787E-02  5088   0.120E+00    0.306E-01
DAV:   3    -0.123893986028E+03    0.13492E-02   -0.10989E-02  5856   0.351E-01    0.772E-02
DAV:   4    -0.123893976191E+03    0.98367E-05   -0.11693E-03  6336   0.120E-01    0.321E-02
DAV:   5    -0.123893957150E+03    0.19041E-04   -0.55201E-05  6240   0.247E-02    0.687E-03
DAV:   6    -0.123893955175E+03    0.19749E-05   -0.51651E-06  4992   0.687E-03    0.403E-03
DAV:   7    -0.123893956465E+03   -0.12895E-05   -0.26008E-06  5760   0.473E-03    0.172E-03
DAV:   8    -0.123893961818E+03   -0.53529E-05   -0.18152E-06  3936   0.381E-03    0.144E-03
DAV:   9    -0.123893966752E+03   -0.49344E-05   -0.45444E-07  5808   0.150E-03    0.764E-04
DAV:  10    -0.123893972672E+03   -0.59195E-05   -0.64479E-07  5232   0.144E-03    0.435E-04
DAV:  11    -0.123893974158E+03   -0.14866E-05   -0.75185E-08  6528   0.547E-04    0.347E-04
DAV:  12    -0.123893975838E+03   -0.16799E-05   -0.15510E-07  5184   0.696E-04    0.130E-04
DAV:  13    -0.123893976250E+03   -0.41162E-06   -0.16088E-08  5856   0.265E-04
  36 F= -.12576025E+03 E0= -.12575731E+03  d E =-.229785E-01  mag=     0.0000
       N       E                     dE             d eps       ncg     rms          rms(c)
DAV:   1    -0.123927117389E+03   -0.33142E-01   -0.69419E-01  3648   0.314E+00    0.155E-01
DAV:   2    -0.123926981740E+03    0.13565E-03   -0.94147E-03  5088   0.387E-01    0.983E-02
DAV:   3    -0.123926873760E+03    0.10798E-03   -0.12991E-03  6240   0.126E-01    0.352E-02
DAV:   4    -0.123926870321E+03    0.34391E-05   -0.24190E-04  4224   0.523E-02    0.206E-02
DAV:   5    -0.123926871834E+03   -0.15132E-05   -0.13730E-05  4992   0.156E-02    0.535E-03
DAV:   6    -0.123926871758E+03    0.76210E-07   -0.35842E-06  5856   0.647E-03
  37 F= -.12579029E+03 E0= -.12578736E+03  d E =-.300361E-01  mag=     0.0000
       N       E                     dE             d eps       ncg     rms          rms(c)
DAV:   1    -0.124006619735E+03   -0.79748E-01   -0.62491E+00  3648   0.943E+00    0.469E-01
DAV:   2    -0.124005386723E+03    0.12330E-02   -0.83529E-02  6336   0.115E+00    0.294E-01
DAV:   3    -0.124004226441E+03    0.11603E-02   -0.10496E-02  5856   0.355E-01    0.101E-01
DAV:   4    -0.124004197922E+03    0.28519E-04   -0.20048E-03  4416   0.151E-01    0.580E-02
DAV:   5    -0.124004198311E+03   -0.38870E-06   -0.10022E-04  4608   0.425E-02    0.176E-02
DAV:   6    -0.124004197796E+03    0.51523E-06   -0.35801E-05  5664   0.201E-02    0.731E-03
DAV:   7    -0.124004198459E+03   -0.66371E-06   -0.25067E-06  5472   0.583E-03
  38 F= -.12585896E+03 E0= -.12585608E+03  d E =-.987075E-01  mag=    -0.0000
       N       E                     dE             d eps       ncg     rms          rms(c)
DAV:   1    -0.124073015844E+03   -0.68818E-01   -0.24982E+01  3648   0.188E+01    0.939E-01
DAV:   2    -0.124068240462E+03    0.47754E-02   -0.33794E-01  6240   0.232E+00    0.588E-01
DAV:   3    -0.124063698306E+03    0.45422E-02   -0.41775E-02  5856   0.708E-01    0.203E-01
DAV:   4    -0.124063537155E+03    0.16115E-03   -0.79614E-03  4608   0.300E-01    0.116E-01
DAV:   5    -0.124063510420E+03    0.26735E-04   -0.40900E-04  4800   0.849E-02    0.355E-02
DAV:   6    -0.124063505417E+03    0.50033E-05   -0.14394E-04  4848   0.403E-02    0.142E-02
DAV:   7    -0.124063507187E+03   -0.17699E-05   -0.11058E-05  4416   0.123E-02    0.792E-03
DAV:   8    -0.124063514506E+03   -0.73190E-05   -0.75074E-06  4704   0.899E-03    0.193E-03
DAV:   9    -0.124063521772E+03   -0.72664E-05   -0.12806E-06  4368   0.418E-03    0.287E-03
DAV:  10    -0.124063531222E+03   -0.94495E-05   -0.83778E-07  6000   0.261E-03    0.181E-03
DAV:  11    -0.124063543037E+03   -0.11815E-04   -0.96249E-07  5664   0.233E-03    0.718E-04
DAV:  12    -0.124063549132E+03   -0.60951E-05   -0.17621E-07  5040   0.131E-03    0.302E-04
DAV:  13    -0.124063552131E+03   -0.29987E-05   -0.11476E-07  5760   0.108E-03    0.189E-04
DAV:  14    -0.124063552648E+03   -0.51740E-06   -0.16376E-08  5616   0.552E-04
  39 F= -.12590070E+03 E0= -.12589789E+03  d E =-.140445E+00  mag=    -0.0000
       N       E                     dE             d eps       ncg     rms          rms(c)
DAV:   1    -0.124062620559E+03    0.93157E-03   -0.73050E-01  3648   0.323E+00    0.159E-01
DAV:   2    -0.124062515513E+03    0.10505E-03   -0.10149E-02  6336   0.398E-01    0.101E-01
DAV:   3    -0.124062376802E+03    0.13871E-03   -0.12213E-03  5904   0.122E-01    0.344E-02
DAV:   4    -0.124062372748E+03    0.40538E-05   -0.24670E-04  5472   0.524E-02    0.200E-02
DAV:   5    -0.124062372424E+03    0.32496E-06   -0.12200E-05  5232   0.144E-02    0.633E-03
DAV:   6    -0.124062371873E+03    0.55100E-06   -0.44870E-06  6720   0.709E-03
  40 F= -.12590255E+03 E0= -.12589974E+03  d E =-.142301E+00  mag=     0.0000
       N       E                     dE             d eps       ncg     rms          rms(c)
DAV:   1    -0.124062586024E+03   -0.21360E-03   -0.85394E-04  3648   0.982E-02    0.647E-03
DAV:   2    -0.124062585644E+03    0.37948E-06   -0.81446E-06  6528   0.937E-03
  41 F= -.12590279E+03 E0= -.12589998E+03  d E =-.241119E-03  mag=    -0.0000
       N       E                     dE             d eps       ncg     rms          rms(c)
DAV:   1    -0.124063202381E+03   -0.61636E-03   -0.75820E-03  3648   0.293E-01    0.199E-02
DAV:   2    -0.124063195916E+03    0.64653E-05   -0.70177E-05  7104   0.269E-02    0.107E-02
DAV:   3    -0.124063194818E+03    0.10979E-05   -0.87945E-06  4464   0.755E-03    0.316E-03
DAV:   4    -0.124063195257E+03   -0.43905E-06   -0.85464E-07  6048   0.275E-03
  42 F= -.12590348E+03 E0= -.12590066E+03  d E =-.932814E-03  mag=    -0.0000
       N       E                     dE             d eps       ncg     rms          rms(c)
DAV:   1    -0.124064301134E+03   -0.11063E-02   -0.30634E-02  3648   0.589E-01    0.383E-02
DAV:   2    -0.124064273984E+03    0.27150E-04   -0.28537E-04  6432   0.543E-02    0.204E-02
DAV:   3    -0.124064268028E+03    0.59559E-05   -0.34523E-05  4128   0.151E-02    0.622E-03
DAV:   4    -0.124064268344E+03   -0.31640E-06   -0.34425E-06  5472   0.554E-03
  43 F= -.12590472E+03 E0= -.12590188E+03  d E =-.217012E-02  mag=    -0.0000
       N       E                     dE             d eps       ncg     rms          rms(c)
DAV:   1    -0.124065984493E+03   -0.17165E-02   -0.12241E-01  3648   0.118E+00    0.764E-02
DAV:   2    -0.124065875901E+03    0.10859E-03   -0.11206E-03  6528   0.108E-01    0.407E-02
DAV:   3    -0.124065850799E+03    0.25102E-04   -0.13965E-04  4512   0.302E-02    0.122E-02
DAV:   4    -0.124065851306E+03   -0.50730E-06   -0.13076E-05  5184   0.109E-02    0.342E-03
DAV:   5    -0.124065851551E+03   -0.24488E-06   -0.54630E-07  5040   0.302E-03
  44 F= -.12590663E+03 E0= -.12590377E+03  d E =-.408202E-02  mag=     0.0000
       N       E                     dE             d eps       ncg     rms          rms(c)
DAV:   1    -0.124067365896E+03   -0.15146E-02   -0.48895E-01  3648   0.236E+00    0.152E-01
DAV:   2    -0.124066943324E+03    0.42257E-03   -0.43765E-03  6432   0.214E-01    0.814E-02
DAV:   3    -0.124066837095E+03    0.10623E-03   -0.58523E-04  5232   0.612E-02    0.233E-02
DAV:   4    -0.124066837977E+03   -0.88247E-06   -0.49098E-05  4752   0.217E-02    0.692E-03
DAV:   5    -0.124066838808E+03   -0.83051E-06   -0.24143E-06  5472   0.647E-03
  45 F= -.12590828E+03 E0= -.12590536E+03  d E =-.572771E-02  mag=    -0.0000
       N       E                     dE             d eps       ncg     rms          rms(c)
DAV:   1    -0.124067299851E+03   -0.46187E-03   -0.47768E-03  3984   0.235E-01    0.139E-02
DAV:   2    -0.124067297791E+03    0.20598E-05   -0.30437E-05  5328   0.200E-02    0.805E-03
DAV:   3    -0.124067298109E+03   -0.31831E-06   -0.69650E-06  4032   0.877E-03
  46 F= -.12590881E+03 E0= -.12590591E+03  d E =-.534360E-03  mag=     0.0000
       N       E                     dE             d eps       ncg     rms          rms(c)
DAV:   1    -0.124068579384E+03   -0.12816E-02   -0.42904E-02  3648   0.704E-01    0.421E-02
DAV:   2    -0.124068559900E+03    0.19484E-04   -0.27119E-04  5376   0.590E-02    0.243E-02
DAV:   3    -0.124068553517E+03    0.63832E-05   -0.54916E-05  4992   0.212E-02    0.506E-03
DAV:   4    -0.124068553883E+03   -0.36661E-06   -0.71746E-06  3744   0.119E-02
  47 F= -.12591029E+03 E0= -.12590741E+03  d E =-.201535E-02  mag=     0.0000
       N       E                     dE             d eps       ncg     rms          rms(c)
DAV:   1    -0.124070635405E+03   -0.20819E-02   -0.17167E-01  3648   0.141E+00    0.840E-02
DAV:   2    -0.124070554538E+03    0.80867E-04   -0.10981E-03  6672   0.117E-01    0.482E-02
DAV:   3    -0.124070525558E+03    0.28980E-04   -0.20780E-04  4800   0.392E-02    0.100E-02
DAV:   4    -0.124070526052E+03   -0.49391E-06   -0.20501E-05  3936   0.182E-02    0.436E-03
DAV:   5    -0.124070526090E+03   -0.38248E-07   -0.41252E-06  4800   0.991E-03
  48 F= -.12591272E+03 E0= -.12590987E+03  d E =-.443818E-02  mag=    -0.0000
       N       E                     dE             d eps       ncg     rms          rms(c)
DAV:   1    -0.124072734281E+03   -0.22082E-02   -0.68781E-01  3648   0.281E+00    0.168E-01
DAV:   2    -0.124072398869E+03    0.33541E-03   -0.44428E-03  6768   0.235E-01    0.955E-02
DAV:   3    -0.124072278223E+03    0.12065E-03   -0.80498E-04  4896   0.769E-02    0.205E-02
DAV:   4    -0.124072279564E+03   -0.13405E-05   -0.74419E-05  4512   0.326E-02    0.842E-03
DAV:   5    -0.124072280106E+03   -0.54211E-06   -0.94333E-06  4416   0.150E-02
  49 F= -.12591537E+03 E0= -.12591262E+03  d E =-.709415E-02  mag=     0.0000
       N       E                     dE             d eps       ncg     rms          rms(c)
DAV:   1    -0.124072218425E+03    0.61139E-04   -0.10611E-01  3648   0.110E+00    0.656E-02
DAV:   2    -0.124072166062E+03    0.52363E-04   -0.71309E-04  5856   0.952E-02    0.376E-02
DAV:   3    -0.124072153150E+03    0.12912E-04   -0.13223E-04  4944   0.350E-02    0.860E-03
DAV:   4    -0.124072155830E+03   -0.26804E-05   -0.29302E-05  3840   0.252E-02    0.389E-03
DAV:   5    -0.124072150029E+03    0.58013E-05   -0.13436E-05  4320   0.172E-02    0.196E-03
DAV:   6    -0.124072147971E+03    0.20580E-05   -0.30158E-06  4944   0.807E-03    0.752E-04
DAV:   7    -0.124072147958E+03    0.13344E-07   -0.29492E-07  5280   0.249E-03
  50 F= -.12591560E+03 E0= -.12591288E+03  d E =-.731614E-02  mag=     0.0000
       N       E                     dE             d eps       ncg     rms          rms(c)
DAV:   1    -0.124072501693E+03   -0.35372E-03   -0.58309E-02  3648   0.975E-01    0.522E-02
DAV:   2    -0.124072468184E+03    0.33509E-04   -0.71609E-04  6000   0.108E-01    0.290E-02
DAV:   3    -0.124072458407E+03    0.97774E-05   -0.75873E-05  5376   0.315E-02    0.116E-02
DAV:   4    -0.124072458110E+03    0.29673E-06   -0.12913E-05  4368   0.126E-02    0.552E-03
DAV:   5    -0.124072458375E+03   -0.26562E-06   -0.79988E-07  4272   0.382E-03
  51 F= -.12591615E+03 E0= -.12591345E+03  d E =-.556279E-03  mag=     0.0000
       N       E                     dE             d eps       ncg     rms          rms(c)
DAV:   1    -0.124072424176E+03    0.33934E-04   -0.33845E-03  4032   0.235E-01    0.127E-02
DAV:   2    -0.124072422204E+03    0.19723E-05   -0.40538E-05  4416   0.259E-02    0.700E-03
DAV:   3    -0.124072421820E+03    0.38332E-06   -0.49386E-06  4896   0.830E-03
  52 F= -.12591617E+03 E0= -.12591348E+03  d E =-.578409E-03  mag=    -0.0000
       N       E                     dE             d eps       ncg     rms          rms(c)
DAV:   1    -0.124072474392E+03   -0.52188E-04   -0.39202E-03  3648   0.241E-01    0.170E-02
DAV:   2    -0.124072465225E+03    0.91666E-05   -0.73414E-05  4224   0.301E-02    0.815E-03
DAV:   3    -0.124072464194E+03    0.10315E-05   -0.91365E-06  4416   0.935E-03    0.268E-03
DAV:   4    -0.124072464350E+03   -0.15595E-06   -0.11668E-06  4848   0.409E-03
  53 F= -.12591627E+03 E0= -.12591356E+03  d E =-.964168E-04  mag=    -0.0000
       N       E                     dE             d eps       ncg     rms          rms(c)
DAV:   1    -0.124072454741E+03    0.94524E-05   -0.57514E-03  3840   0.292E-01    0.203E-02
DAV:   2    -0.124072441306E+03    0.13435E-04   -0.10502E-04  4224   0.359E-02    0.969E-03
DAV:   3    -0.124072439807E+03    0.14992E-05   -0.12991E-05  4512   0.114E-02    0.322E-03
DAV:   4    -0.124072440025E+03   -0.21822E-06   -0.17947E-06  3792   0.538E-03
  54 F= -.12591631E+03 E0= -.12591359E+03  d E =-.137441E-03  mag=    -0.0000
       N       E                     dE             d eps       ncg     rms          rms(c)
DAV:   1    -0.124072413673E+03    0.26134E-04   -0.31215E-03  3840   0.219E-01    0.129E-02
DAV:   2    -0.124072409111E+03    0.45624E-05   -0.44785E-05  3888   0.261E-02    0.653E-03
DAV:   3    -0.124072408902E+03    0.20936E-06   -0.55310E-06  3744   0.897E-03
  55 F= -.12591635E+03 E0= -.12591362E+03  d E =-.424370E-04  mag=     0.0000
       N       E                     dE             d eps       ncg     rms          rms(c)
DAV:   1    -0.124072363804E+03    0.45307E-04   -0.20902E-03  3744   0.179E-01    0.111E-02
DAV:   2    -0.124072360487E+03    0.33179E-05   -0.31193E-05  4080   0.223E-02    0.561E-03
DAV:   3    -0.124072360546E+03   -0.59410E-07   -0.44110E-06  3888   0.856E-03
  56 F= -.12591637E+03 E0= -.12591363E+03  d E =-.542367E-04  mag=    -0.0000
       N       E                     dE             d eps       ncg     rms          rms(c)
DAV:   1    -0.124072288604E+03    0.71882E-04   -0.22371E-03  3648   0.184E-01    0.957E-03
DAV:   2    -0.124072286621E+03    0.19836E-05   -0.25370E-05  3840   0.219E-02    0.545E-03
DAV:   3    -0.124072287074E+03   -0.45355E-06   -0.55290E-06  4704   0.104E-02
  57 F= -.12591639E+03 E0= -.12591366E+03  d E =-.242173E-04  mag=     0.0000
       N       E                     dE             d eps       ncg     rms          rms(c)
DAV:   1    -0.124072208822E+03    0.77799E-04   -0.17961E-03  3648   0.165E-01    0.880E-03
DAV:   2    -0.124072207053E+03    0.17697E-05   -0.21002E-05  3648   0.205E-02    0.507E-03
DAV:   3    -0.124072207806E+03   -0.75363E-06   -0.55103E-06  4224   0.109E-02
  58 F= -.12591640E+03 E0= -.12591367E+03  d E =-.320716E-04  mag=    -0.0000
       N       E                     dE             d eps       ncg     rms          rms(c)
DAV:   1    -0.124072093521E+03    0.11353E-03   -0.22288E-03  3648   0.185E-01    0.102E-02
DAV:   2    -0.124072091118E+03    0.24035E-05   -0.32066E-05  3744   0.245E-02    0.560E-03
DAV:   3    -0.124072091335E+03   -0.21692E-06   -0.55105E-06  4320   0.108E-02
  59 F= -.12591641E+03 E0= -.12591369E+03  d E =-.133436E-04  mag=     0.0000
       N       E                     dE             d eps       ncg     rms          rms(c)
DAV:   1    -0.124072063351E+03    0.27767E-04   -0.11937E-04  3648   0.442E-02    0.299E-03
DAV:   2    -0.124072062534E+03    0.81645E-06   -0.43913E-06  3648   0.106E-02
  60 F= -.12591641E+03 E0= -.12591369E+03  d E =-.137731E-04  mag=     0.0000
       N       E                     dE             d eps       ncg     rms          rms(c)
DAV:   1    -0.124071918378E+03    0.14497E-03   -0.21456E-03  3648   0.176E-01    0.891E-03
DAV:   2    -0.124071916993E+03    0.13855E-05   -0.26050E-05  3648   0.222E-02    0.541E-03
DAV:   3    -0.124071917703E+03   -0.71043E-06   -0.59023E-06  4176   0.110E-02
  61 F= -.12591643E+03 E0= -.12591370E+03  d E =-.174533E-04  mag=    -0.0000
       N       E                     dE             d eps       ncg     rms          rms(c)
DAV:   1    -0.124071474410E+03    0.44258E-03   -0.19463E-02  3648   0.527E-01    0.260E-02
DAV:   2    -0.124071466616E+03    0.77941E-05   -0.21100E-04  3648   0.598E-02    0.156E-02
DAV:   3    -0.124071465401E+03    0.12150E-05   -0.33682E-05  4560   0.224E-02    0.391E-03
DAV:   4    -0.124071466616E+03   -0.12155E-05   -0.10244E-05  3648   0.154E-02    0.182E-03
DAV:   5    -0.124071465197E+03    0.14197E-05   -0.55469E-06  3648   0.111E-02    0.918E-04
DAV:   6    -0.124071464337E+03    0.85952E-06   -0.10781E-06  4560   0.480E-03
  62 F= -.12591646E+03 E0= -.12591371E+03  d E =-.512154E-04  mag=    -0.0000
       N       E                     dE             d eps       ncg     rms          rms(c)
DAV:   1    -0.124070530641E+03    0.93456E-03   -0.77671E-02  3648   0.105E+00    0.516E-02
DAV:   2    -0.124070499502E+03    0.31139E-04   -0.81529E-04  3648   0.114E-01    0.305E-02
DAV:   3    -0.124070487808E+03    0.11694E-04   -0.12107E-04  4560   0.374E-02    0.749E-03
DAV:   4    -0.124070488688E+03   -0.87960E-06   -0.14800E-05  4896   0.130E-02    0.315E-03
DAV:   5    -0.124070489029E+03   -0.34143E-06   -0.45094E-07  3744   0.252E-03
  63 F= -.12591646E+03 E0= -.12591368E+03  d E =-.513255E-04  mag=    -0.0000
       N       E                     dE             d eps       ncg     rms          rms(c)
DAV:   1    -0.124071017397E+03   -0.52871E-03   -0.20844E-02  3648   0.545E-01    0.268E-02
DAV:   2    -0.124071008698E+03    0.86983E-05   -0.22381E-04  3936   0.592E-02    0.159E-02
DAV:   3    -0.124071006084E+03    0.26139E-05   -0.33398E-05  6240   0.192E-02    0.381E-03
DAV:   4    -0.124071006322E+03   -0.23787E-06   -0.31476E-06  3744   0.629E-03
  64 F= -.12591647E+03 E0= -.12591371E+03  d E =-.626418E-04  mag=    -0.0000
       N       E                     dE             d eps       ncg     rms          rms(c)
DAV:   1    -0.124070914197E+03    0.91888E-04   -0.75547E-04  5088   0.103E-01    0.507E-03
DAV:   2    -0.124070913679E+03    0.51757E-06   -0.77403E-06  4416   0.109E-02
  65 F= -.12591648E+03 E0= -.12591372E+03  d E =-.979632E-05  mag=     0.0000
       N       E                     dE             d eps       ncg     rms          rms(c)
DAV:   1    -0.124070636988E+03    0.27721E-03   -0.67138E-03  3648   0.309E-01    0.155E-02
DAV:   2    -0.124070634276E+03    0.27115E-05   -0.71592E-05  3648   0.339E-02    0.939E-03
DAV:   3    -0.124070633699E+03    0.57706E-06   -0.10537E-05  4848   0.111E-02    0.230E-03
DAV:   4    -0.124070633882E+03   -0.18256E-06   -0.13326E-06  3984   0.400E-03
  66 F= -.12591651E+03 E0= -.12591374E+03  d E =-.374088E-04  mag=     0.0000
       N       E                     dE             d eps       ncg     rms          rms(c)
DAV:   1    -0.124070075739E+03    0.55796E-03   -0.27289E-02  3696   0.621E-01    0.302E-02
DAV:   2    -0.124070066131E+03    0.96078E-05   -0.29606E-04  3744   0.688E-02    0.182E-02
DAV:   3    -0.124070062586E+03    0.35456E-05   -0.42504E-05  4800   0.222E-02    0.456E-03
DAV:   4    -0.124070062941E+03   -0.35480E-06   -0.51020E-06  4128   0.787E-03
  67 F= -.12591656E+03 E0= -.12591378E+03  d E =-.816834E-04  mag=     0.0000
       N       E                     dE             d eps       ncg     rms          rms(c)
DAV:   1    -0.124068926721E+03    0.11359E-02   -0.10912E-01  3648   0.124E+00    0.602E-02
DAV:   2    -0.124068892879E+03    0.33843E-04   -0.12017E-03  3840   0.138E-01    0.363E-02
DAV:   3    -0.124068877301E+03    0.15578E-04   -0.16577E-04  4848   0.440E-02    0.915E-03
DAV:   4    -0.124068878336E+03   -0.10352E-05   -0.20476E-05  5280   0.158E-02    0.387E-03
DAV:   5    -0.124068878577E+03   -0.24045E-06   -0.10367E-06  4800   0.445E-03
  68 F= -.12591660E+03 E0= -.12591381E+03  d E =-.129153E-03  mag=     0.0000
       N       E                     dE             d eps       ncg     rms          rms(c)
DAV:   1    -0.124068656984E+03    0.22135E-03   -0.46116E-03  3648   0.255E-01    0.122E-02
DAV:   2    -0.124068655935E+03    0.10491E-05   -0.52091E-05  4512   0.290E-02    0.735E-03
DAV:   3    -0.124068655314E+03    0.62054E-06   -0.62994E-06  4080   0.877E-03
  69 F= -.12591663E+03 E0= -.12591383E+03  d E =-.286996E-04  mag=    -0.0000
       N       E                     dE             d eps       ncg     rms          rms(c)
DAV:   1    -0.124067986784E+03    0.66915E-03   -0.41500E-02  3648   0.767E-01    0.377E-02
DAV:   2    -0.124067973407E+03    0.13377E-04   -0.45539E-04  4176   0.851E-02    0.226E-02
DAV:   3    -0.124067967829E+03    0.55784E-05   -0.59681E-05  4176   0.267E-02    0.594E-03
DAV:   4    -0.124067968368E+03   -0.53916E-06   -0.87029E-06  4800   0.103E-02
  70 F= -.12591670E+03 E0= -.12591389E+03  d E =-.981506E-04  mag=     0.0000
       N       E                     dE             d eps       ncg     rms          rms(c)
DAV:   1    -0.124066586432E+03    0.13814E-02   -0.16554E-01  3648   0.153E+00    0.745E-02
DAV:   2    -0.124066537301E+03    0.49130E-04   -0.18379E-03  4608   0.170E-01    0.445E-02
DAV:   3    -0.124066512672E+03    0.24630E-04   -0.23201E-04  4800   0.522E-02    0.118E-02
DAV:   4    -0.124066513939E+03   -0.12671E-05   -0.31024E-05  5520   0.197E-02    0.489E-03
DAV:   5    -0.124066514256E+03   -0.31695E-06   -0.14470E-06  4896   0.536E-03
  71 F= -.12591676E+03 E0= -.12591393E+03  d E =-.159214E-03  mag=    -0.0000
       N       E                     dE             d eps       ncg     rms          rms(c)
DAV:   1    -0.124066004347E+03    0.50959E-03   -0.23070E-02  3648   0.571E-01    0.272E-02
DAV:   2    -0.124065998958E+03    0.53891E-05   -0.24863E-04  4896   0.631E-02    0.163E-02
DAV:   3    -0.124065996088E+03    0.28693E-05   -0.30497E-05  4080   0.189E-02    0.417E-03
DAV:   4    -0.124065996385E+03   -0.29676E-06   -0.44891E-06  4752   0.762E-03
  72 F= -.12591681E+03 E0= -.12591396E+03  d E =-.438807E-04  mag=    -0.0000
       N       E                     dE             d eps       ncg     rms          rms(c)
DAV:   1    -0.124064478089E+03    0.15180E-02   -0.20731E-01  3648   0.171E+00    0.824E-02
DAV:   2    -0.124064423824E+03    0.54265E-04   -0.22132E-03  4848   0.187E-01    0.493E-02
DAV:   3    -0.124064392477E+03    0.31347E-04   -0.28370E-04  5136   0.569E-02    0.122E-02
DAV:   4    -0.124064393561E+03   -0.10845E-05   -0.34923E-05  5040   0.208E-02    0.504E-03
DAV:   5    -0.124064393952E+03   -0.39092E-06   -0.16656E-06  5088   0.536E-03
  73 F= -.12591689E+03 E0= -.12591401E+03  d E =-.129441E-03  mag=     0.0000
       N       E                     dE             d eps       ncg     rms          rms(c)
DAV:   1    -0.124061294083E+03    0.30995E-02   -0.82910E-01  3648   0.343E+00    0.164E-01
DAV:   2    -0.124061096960E+03    0.19712E-03   -0.89240E-03  5232   0.375E-01    0.981E-02
DAV:   3    -0.124060955686E+03    0.14127E-03   -0.11294E-03  5472   0.112E-01    0.241E-02
DAV:   4    -0.124060958299E+03   -0.26126E-05   -0.12670E-04  6624   0.396E-02    0.993E-03
DAV:   5    -0.124060958221E+03    0.77678E-07   -0.52242E-06  5136   0.790E-03
  74 F= -.12591684E+03 E0= -.12591389E+03  d E =-.820744E-04  mag=    -0.0000
       N       E                     dE             d eps       ncg     rms          rms(c)
DAV:   1    -0.124063490386E+03   -0.25321E-02   -0.38485E-01  3648   0.233E+00    0.112E-01
DAV:   2    -0.124063386600E+03    0.10379E-03   -0.41479E-03  4704   0.256E-01    0.673E-02
DAV:   3    -0.124063331243E+03    0.55357E-04   -0.54977E-04  5760   0.782E-02    0.165E-02
DAV:   4    -0.124063333840E+03   -0.25969E-05   -0.58399E-05  4224   0.273E-02    0.690E-03
DAV:   5    -0.124063335450E+03   -0.16106E-05   -0.28350E-06  4800   0.666E-03    0.187E-03
DAV:   6    -0.124063335527E+03   -0.76599E-07   -0.39529E-07  5232   0.276E-03
  75 F= -.12591691E+03 E0= -.12591400E+03  d E =-.147172E-03  mag=    -0.0000
       N       E                     dE             d eps       ncg     rms          rms(c)
DAV:   1    -0.124062672780E+03    0.66267E-03   -0.40475E-02  3648   0.757E-01    0.377E-02
DAV:   2    -0.124062656390E+03    0.16390E-04   -0.47307E-04  4032   0.860E-02    0.223E-02
DAV:   3    -0.124062650036E+03    0.63545E-05   -0.61837E-05  4032   0.269E-02    0.598E-03
DAV:   4    -0.124062650706E+03   -0.67030E-06   -0.82217E-06  4704   0.964E-03
  76 F= -.12591696E+03 E0= -.12591403E+03  d E =-.498648E-04  mag=    -0.0000
       N       E                     dE             d eps       ncg     rms          rms(c)
DAV:   1    -0.124062173535E+03    0.47650E-03   -0.18476E-02  3648   0.511E-01    0.254E-02
DAV:   2    -0.124062166282E+03    0.72530E-05   -0.21310E-04  3744   0.582E-02    0.150E-02
DAV:   3    -0.124062163833E+03    0.24492E-05   -0.28233E-05  4752   0.182E-02    0.399E-03
DAV:   4    -0.124062164107E+03   -0.27408E-06   -0.34084E-06  3936   0.642E-03
  77 F= -.12591697E+03 E0= -.12591403E+03  d E =-.596299E-04  mag=    -0.0000
       N       E                     dE             d eps       ncg     rms          rms(c)
DAV:   1    -0.124061852620E+03    0.31121E-03   -0.94164E-03  3648   0.365E-01    0.171E-02
DAV:   2    -0.124061850816E+03    0.18046E-05   -0.95468E-05  3648   0.397E-02    0.104E-02
DAV:   3    -0.124061849859E+03    0.95632E-06   -0.12639E-05  4752   0.125E-02    0.260E-03
DAV:   4    -0.124061850027E+03   -0.16733E-06   -0.18040E-06  3792   0.511E-03
  78 F= -.12591700E+03 E0= -.12591405E+03  d E =-.297806E-04  mag=    -0.0000
       N       E                     dE             d eps       ncg     rms          rms(c)
DAV:   1    -0.124060907543E+03    0.94232E-03   -0.84691E-02  3648   0.110E+00    0.516E-02
DAV:   2    -0.124060890576E+03    0.16967E-04   -0.84681E-04  4128   0.117E-01    0.311E-02
DAV:   3    -0.124060879451E+03    0.11125E-04   -0.11209E-04  4848   0.368E-02    0.762E-03
DAV:   4    -0.124060880089E+03   -0.63779E-06   -0.15519E-05  5280   0.140E-02    0.318E-03
DAV:   5    -0.124060880252E+03   -0.16273E-06   -0.95951E-07  4512   0.450E-03
  79 F= -.12591706E+03 E0= -.12591409E+03  d E =-.925523E-04  mag=    -0.0000
       N       E                     dE             d eps       ncg     rms          rms(c)
DAV:   1    -0.124058929443E+03    0.19506E-02   -0.33869E-01  3648   0.219E+00    0.103E-01
DAV:   2    -0.124058865882E+03    0.63561E-04   -0.33987E-03  5184   0.233E-01    0.617E-02
DAV:   3    -0.124058817404E+03    0.48478E-04   -0.42954E-04  5616   0.702E-02    0.149E-02
DAV:   4    -0.124058818176E+03   -0.77158E-06   -0.49726E-05  5424   0.251E-02    0.621E-03
DAV:   5    -0.124058818431E+03   -0.25562E-06   -0.25978E-06  5376   0.623E-03
  80 F= -.12591707E+03 E0= -.12591406E+03  d E =-.100054E-03  mag=     0.0000
       N       E                     dE             d eps       ncg     rms          rms(c)
DAV:   1    -0.124059801862E+03   -0.98369E-03   -0.70401E-02  3648   0.100E+00    0.470E-02
DAV:   2    -0.124059787614E+03    0.14248E-04   -0.71643E-04  4800   0.107E-01    0.283E-02
DAV:   3    -0.124059779178E+03    0.84358E-05   -0.91336E-05  4704   0.325E-02    0.701E-03
DAV:   4    -0.124059779987E+03   -0.80831E-06   -0.11540E-05  4320   0.126E-02    0.311E-03
DAV:   5    -0.124059780410E+03   -0.42340E-06   -0.68461E-07  4080   0.388E-03
  81 F= -.12591709E+03 E0= -.12591409E+03  d E =-.116773E-03  mag=     0.0000
       N       E                     dE             d eps       ncg     rms          rms(c)
DAV:   1    -0.124059600251E+03    0.17974E-03   -0.31727E-03  3744   0.212E-01    0.995E-03
DAV:   2    -0.124059599545E+03    0.70565E-06   -0.33511E-05  4704   0.232E-02    0.608E-03
DAV:   3    -0.124059599265E+03    0.28027E-06   -0.43306E-06  4128   0.719E-03
  82 F= -.12591710E+03 E0= -.12591411E+03  d E =-.181586E-04  mag=    -0.0000
       N       E                     dE             d eps       ncg     rms          rms(c)
DAV:   1    -0.124059053453E+03    0.54609E-03   -0.28720E-02  3648   0.638E-01    0.303E-02
DAV:   2    -0.124059047714E+03    0.57390E-05   -0.29151E-04  4032   0.685E-02    0.184E-02
DAV:   3    -0.124059044420E+03    0.32935E-05   -0.38623E-05  4224   0.217E-02    0.468E-03
DAV:   4    -0.124059044751E+03   -0.33107E-06   -0.58718E-06  4368   0.837E-03
  83 F= -.12591715E+03 E0= -.12591414E+03  d E =-.618161E-04  mag=     0.0000
       N       E                     dE             d eps       ncg     rms          rms(c)
DAV:   1    -0.124057923650E+03    0.11208E-02   -0.11454E-01  3648   0.127E+00    0.600E-02
DAV:   2    -0.124057902305E+03    0.21346E-04   -0.11602E-03  4368   0.137E-01    0.362E-02
DAV:   3    -0.124057888131E+03    0.14174E-04   -0.15118E-04  5376   0.425E-02    0.920E-03
DAV:   4    -0.124057888617E+03   -0.48603E-06   -0.19668E-05  4896   0.157E-02    0.409E-03
DAV:   5    -0.124057888748E+03   -0.13076E-06   -0.10117E-06  4944   0.436E-03
  84 F= -.12591719E+03 E0= -.12591416E+03  d E =-.103428E-03  mag=     0.0000
       N       E                     dE             d eps       ncg     rms          rms(c)
DAV:   1    -0.124057619076E+03    0.26954E-03   -0.81179E-03  3648   0.338E-01    0.158E-02
DAV:   2    -0.124057617948E+03    0.11285E-05   -0.79159E-05  4800   0.360E-02    0.948E-03
DAV:   3    -0.124057616980E+03    0.96810E-06   -0.98188E-06  4512   0.112E-02
  85 F= -.12591723E+03 E0= -.12591419E+03  d E =-.361753E-04  mag=    -0.0000
       N       E                     dE             d eps       ncg     rms          rms(c)
DAV:   1    -0.124056813533E+03    0.80441E-03   -0.72991E-02  3648   0.101E+00    0.482E-02
DAV:   2    -0.124056799867E+03    0.13666E-04   -0.68953E-04  4848   0.106E-01    0.289E-02
DAV:   3    -0.124056791707E+03    0.81604E-05   -0.88848E-05  4848   0.325E-02    0.672E-03
DAV:   4    -0.124056792220E+03   -0.51358E-06   -0.12635E-05  5280   0.138E-02    0.284E-03
DAV:   5    -0.124056792296E+03   -0.75688E-07   -0.17909E-06  4368   0.634E-03
  86 F= -.12591733E+03 E0= -.12591428E+03  d E =-.136074E-03  mag=     0.0000
       N       E                     dE             d eps       ncg     rms          rms(c)
DAV:   1    -0.124055190092E+03    0.16021E-02   -0.29120E-01  3648   0.202E+00    0.952E-02
DAV:   2    -0.124055139372E+03    0.50721E-04   -0.27539E-03  5520   0.210E-01    0.567E-02
DAV:   3    -0.124055098084E+03    0.41288E-04   -0.34815E-04  5424   0.625E-02    0.131E-02
DAV:   4    -0.124055098502E+03   -0.41815E-06   -0.39378E-05  5664   0.222E-02    0.530E-03
DAV:   5    -0.124055098587E+03   -0.85596E-07   -0.23495E-06  5376   0.530E-03
  87 F= -.12591748E+03 E0= -.12591442E+03  d E =-.295151E-03  mag=     0.0000
       N       E                     dE             d eps       ncg     rms          rms(c)
DAV:   1    -0.124051918010E+03    0.31805E-02   -0.11637E+00  3648   0.404E+00    0.191E-01
DAV:   2    -0.124051736030E+03    0.18198E-03   -0.11096E-02  6432   0.419E-01    0.113E-01
DAV:   3    -0.124051552108E+03    0.18392E-03   -0.13578E-03  5472   0.122E-01    0.260E-02
DAV:   4    -0.124051551475E+03    0.63313E-06   -0.14600E-04  6528   0.435E-02    0.107E-02
DAV:   5    -0.124051551077E+03    0.39814E-06   -0.85174E-06  5280   0.100E-02
  88 F= -.12591766E+03 E0= -.12591458E+03  d E =-.466092E-03  mag=     0.0000
       N       E                     dE             d eps       ncg     rms          rms(c)
DAV:   1    -0.124050160869E+03    0.13906E-02   -0.17818E-01  3648   0.158E+00    0.746E-02
DAV:   2    -0.124050135752E+03    0.25116E-04   -0.17099E-03  6384   0.165E-01    0.443E-02
DAV:   3    -0.124050109872E+03    0.25881E-04   -0.20430E-04  4944   0.477E-02    0.103E-02
DAV:   4    -0.124050110226E+03   -0.35371E-06   -0.24802E-05  5376   0.180E-02    0.424E-03
DAV:   5    -0.124050110916E+03   -0.69017E-06   -0.18768E-06  4704   0.525E-03
  89 F= -.12591767E+03 E0= -.12591461E+03  d E =-.485458E-03  mag=     0.0000
       N       E                     dE             d eps       ncg     rms          rms(c)
DAV:   1    -0.124049828166E+03    0.28206E-03   -0.86282E-03  3840   0.348E-01    0.163E-02
DAV:   2    -0.124049827497E+03    0.66854E-06   -0.83823E-05  6720   0.367E-02    0.974E-03
DAV:   3    -0.124049827046E+03    0.45163E-06   -0.94914E-06  4320   0.105E-02
  90 F= -.12591771E+03 E0= -.12591466E+03  d E =-.336208E-04  mag=     0.0000
       N       E                     dE             d eps       ncg     rms          rms(c)
DAV:   1    -0.124048991941E+03    0.83556E-03   -0.77653E-02  3648   0.104E+00    0.501E-02
DAV:   2    -0.124048978565E+03    0.13377E-04   -0.73782E-04  5952   0.109E-01    0.299E-02
DAV:   3    -0.124048969297E+03    0.92677E-05   -0.89264E-05  4320   0.319E-02    0.698E-03
DAV:   4    -0.124048969815E+03   -0.51801E-06   -0.12388E-05  5664   0.128E-02    0.282E-03
DAV:   5    -0.124048970092E+03   -0.27697E-06   -0.98963E-07  4320   0.437E-03
  91 F= -.12591780E+03 E0= -.12591478E+03  d E =-.129837E-03  mag=     0.0000
       N       E                     dE             d eps       ncg     rms          rms(c)
DAV:   1    -0.124047334891E+03    0.16349E-02   -0.30968E-01  3648   0.209E+00    0.988E-02
DAV:   2    -0.124047285352E+03    0.49539E-04   -0.29560E-03  5952   0.217E-01    0.589E-02
DAV:   3    -0.124047239816E+03    0.45536E-04   -0.35671E-04  4992   0.633E-02    0.138E-02
DAV:   4    -0.124047240827E+03   -0.10110E-05   -0.44806E-05  5952   0.238E-02    0.558E-03
DAV:   5    -0.124047241080E+03   -0.25291E-06   -0.24248E-06  4992   0.591E-03
  92 F= -.12591799E+03 E0= -.12591506E+03  d E =-.310237E-03  mag=     0.0000
       N       E                     dE             d eps       ncg     rms          rms(c)
DAV:   1    -0.124044081161E+03    0.31597E-02   -0.12367E+00  3648   0.417E+00    0.197E-01
DAV:   2    -0.124043911777E+03    0.16938E-03   -0.11864E-02  6720   0.435E-01    0.118E-01
DAV:   3    -0.124043714114E+03    0.19766E-03   -0.14053E-03  5136   0.125E-01    0.276E-02
DAV:   4    -0.124043714012E+03    0.10232E-06   -0.16675E-04  6864   0.464E-02    0.111E-02
DAV:   5    -0.124043713951E+03    0.60617E-07   -0.91954E-06  5856   0.109E-02
  93 F= -.12591829E+03 E0= -.12591570E+03  d E =-.614002E-03  mag=    -0.0000
       N       E                     dE             d eps       ncg     rms          rms(c)
DAV:   1    -0.124037138907E+03    0.65751E-02   -0.49270E+00  3648   0.834E+00    0.392E-01
DAV:   2    -0.124036549446E+03    0.58946E-03   -0.47760E-02  7104   0.872E-01    0.235E-01
DAV:   3    -0.124035821268E+03    0.72818E-03   -0.55175E-03  5856   0.246E-01    0.552E-02
DAV:   4    -0.124035803714E+03    0.17554E-04   -0.61550E-04  6624   0.900E-02    0.228E-02
DAV:   5    -0.124035798788E+03    0.49261E-05   -0.38212E-05  6336   0.230E-02    0.585E-03
DAV:   6    -0.124035796808E+03    0.19796E-05   -0.81997E-06  4944   0.130E-02    0.343E-03
DAV:   7    -0.124035795795E+03    0.10129E-05   -0.26765E-06  5664   0.735E-03    0.142E-03
DAV:   8    -0.124035798080E+03   -0.22845E-05   -0.11789E-06  5568   0.405E-03    0.802E-04
DAV:   9    -0.124035801268E+03   -0.31883E-05   -0.68217E-07  5760   0.328E-03    0.485E-04
DAV:  10    -0.124035803573E+03   -0.23044E-05   -0.65587E-07  6144   0.341E-03    0.343E-04
DAV:  11    -0.124035804836E+03   -0.12636E-05   -0.24683E-07  5616   0.204E-03    0.214E-04
DAV:  12    -0.124035806609E+03   -0.17731E-05   -0.19981E-07  5376   0.929E-04    0.118E-04
DAV:  13    -0.124035807075E+03   -0.46598E-06   -0.25295E-08  6144   0.377E-04
  94 F= -.12591809E+03 E0= -.12591633E+03  d E =-.413363E-03  mag=    -0.0000
       N       E                     dE             d eps       ncg     rms          rms(c)
DAV:   1    -0.124042369721E+03   -0.65631E-02   -0.25994E+00  3648   0.606E+00    0.284E-01
DAV:   2    -0.124042081464E+03    0.28826E-03   -0.25185E-02  5184   0.637E-01    0.171E-01
DAV:   3    -0.124041704217E+03    0.37725E-03   -0.31183E-03  6336   0.187E-01    0.400E-02
DAV:   4    -0.124041709501E+03   -0.52831E-05   -0.32373E-04  5472   0.647E-02    0.169E-02
DAV:   5    -0.124041710795E+03   -0.12940E-05   -0.20362E-05  5184   0.151E-02    0.377E-03
DAV:   6    -0.124041710091E+03    0.70335E-06   -0.31272E-06  6144   0.593E-03
  95 F= -.12591839E+03 E0= -.12591604E+03  d E =-.712515E-03  mag=    -0.0000
       N       E                     dE             d eps       ncg     rms          rms(c)
DAV:   1    -0.124040132937E+03    0.15779E-02   -0.34038E-01  3648   0.219E+00    0.104E-01
DAV:   2    -0.124040088691E+03    0.44246E-04   -0.32901E-03  5760   0.230E-01    0.622E-02
DAV:   3    -0.124040040976E+03    0.47715E-04   -0.39807E-04  6240   0.661E-02    0.144E-02
DAV:   4    -0.124040041634E+03   -0.65774E-06   -0.40602E-05  4704   0.228E-02    0.591E-03
DAV:   5    -0.124040042567E+03   -0.93370E-06   -0.25497E-06  5472   0.553E-03
  96 F= -.12591870E+03 E0= -.12591662E+03  d E =-.313876E-03  mag=     0.0000
       N       E                     dE             d eps       ncg     rms          rms(c)
DAV:   1    -0.124038322585E+03    0.17190E-02   -0.34048E-01  3648   0.219E+00    0.103E-01
DAV:   2    -0.124038280930E+03    0.41655E-04   -0.32895E-03  5856   0.230E-01    0.619E-02
DAV:   3    -0.124038231940E+03    0.48990E-04   -0.39052E-04  6336   0.656E-02    0.144E-02
DAV:   4    -0.124038231998E+03   -0.57968E-07   -0.40659E-05  4656   0.230E-02    0.590E-03
DAV:   5    -0.124038232216E+03   -0.21848E-06   -0.30383E-06  5472   0.600E-03
  97 F= -.12591888E+03 E0= -.12591703E+03  d E =-.489654E-03  mag=    -0.0000
       N       E                     dE             d eps       ncg     rms          rms(c)
DAV:   1    -0.124034346764E+03    0.38852E-02   -0.13585E+00  3648   0.437E+00    0.205E-01
DAV:   2    -0.124034211961E+03    0.13480E-03   -0.13170E-02  6720   0.460E-01    0.123E-01
DAV:   3    -0.124033997599E+03    0.21436E-03   -0.15143E-03  6144   0.129E-01    0.287E-02
DAV:   4    -0.124033994492E+03    0.31078E-05   -0.15942E-04  6240   0.456E-02    0.117E-02
DAV:   5    -0.124033993679E+03    0.81222E-06   -0.11250E-05  6096   0.114E-02    0.287E-03
DAV:   6    -0.124033993144E+03    0.53578E-06   -0.12106E-06  5328   0.408E-03
  98 F= -.12591862E+03 E0= -.12591710E+03  d E =-.233125E-03  mag=    -0.0000
       N       E                     dE             d eps       ncg     rms          rms(c)
DAV:   1    -0.124037688742E+03   -0.36951E-02   -0.88064E-01  3648   0.352E+00    0.165E-01
DAV:   2    -0.124037591418E+03    0.97324E-04   -0.85187E-03  5376   0.371E-01    0.998E-02
DAV:   3    -0.124037475721E+03    0.11570E-03   -0.10252E-03  6432   0.107E-01    0.232E-02
DAV:   4    -0.124037477867E+03   -0.21463E-05   -0.10427E-04  4704   0.369E-02    0.955E-03
DAV:   5    -0.124037479455E+03   -0.15880E-05   -0.74469E-06  5184   0.934E-03    0.220E-03
DAV:   6    -0.124037479526E+03   -0.70759E-07   -0.85659E-07  5088   0.336E-03
  99 F= -.12591890E+03 E0= -.12591713E+03  d E =-.511296E-03  mag=    -0.0000
       N       E                     dE             d eps       ncg     rms          rms(c)
DAV:   1    -0.124037754153E+03   -0.27470E-03   -0.58157E-03  4464   0.302E-01    0.141E-02
DAV:   2    -0.124037752064E+03    0.20888E-05   -0.43805E-05  5568   0.272E-02    0.816E-03
DAV:   3    -0.124037751945E+03    0.11849E-06   -0.42233E-06  6336   0.745E-03
 100 F= -.12591913E+03 E0= -.12591737E+03  d E =-.232888E-03  mag=    -0.0000
       N       E                     dE             d eps       ncg     rms          rms(c)
DAV:   1    -0.124038268584E+03   -0.51652E-03   -0.52294E-02  3648   0.905E-01    0.423E-02
DAV:   2    -0.124038259917E+03    0.86668E-05   -0.43262E-04  6624   0.857E-02    0.251E-02
DAV:   3    -0.124038255847E+03    0.40700E-05   -0.35187E-05  4992   0.216E-02    0.796E-03
DAV:   4    -0.124038256905E+03   -0.10582E-05   -0.54219E-06  5472   0.837E-03    0.275E-03
DAV:   5    -0.124038257213E+03   -0.30716E-06   -0.20049E-07  5136   0.200E-03
 101 F= -.12591952E+03 E0= -.12591778E+03  d E =-.620040E-03  mag=    -0.0000
       N       E                     dE             d eps       ncg     rms          rms(c)
DAV:   1    -0.124038320139E+03   -0.63234E-04   -0.53609E-03  3648   0.290E-01    0.134E-02
DAV:   2    -0.124038318917E+03    0.12222E-05   -0.44171E-05  6240   0.275E-02    0.797E-03
DAV:   3    -0.124038318952E+03   -0.34707E-07   -0.35922E-06  4320   0.698E-03
 102 F= -.12591954E+03 E0= -.12591781E+03  d E =-.644135E-03  mag=    -0.0000
       N       E                     dE             d eps       ncg     rms          rms(c)
DAV:   1    -0.124038657772E+03   -0.33885E-03   -0.11646E-02  3648   0.435E-01    0.225E-02
DAV:   2    -0.124038652218E+03    0.55536E-05   -0.15228E-04  6240   0.510E-02    0.129E-02
DAV:   3    -0.124038651128E+03    0.10903E-05   -0.13957E-05  4848   0.142E-02    0.516E-03
DAV:   4    -0.124038651367E+03   -0.23902E-06   -0.25062E-06  4896   0.573E-03
 103 F= -.12591974E+03 E0= -.12591802E+03  d E =-.194658E-03  mag=    -0.0000
       N       E                     dE             d eps       ncg     rms          rms(c)
DAV:   1    -0.124038851411E+03   -0.20028E-03   -0.10844E-02  3648   0.419E-01    0.218E-02
DAV:   2    -0.124038846318E+03    0.50932E-05   -0.14222E-04  6240   0.493E-02    0.125E-02
DAV:   3    -0.124038845326E+03    0.99138E-06   -0.13106E-05  5472   0.137E-02    0.510E-03
DAV:   4    -0.124038845520E+03   -0.19339E-06   -0.23073E-06  4320   0.552E-03
 104 F= -.12591980E+03 E0= -.12591810E+03  d E =-.255644E-03  mag=     0.0000
       N       E                     dE             d eps       ncg     rms          rms(c)
DAV:   1    -0.124039206301E+03   -0.36097E-03   -0.70246E-03  3648   0.315E-01    0.158E-02
DAV:   2    -0.124039204605E+03    0.16956E-05   -0.64682E-05  5328   0.330E-02    0.915E-03
DAV:   3    -0.124039203959E+03    0.64554E-06   -0.71405E-06  5952   0.952E-03
 105 F= -.12591996E+03 E0= -.12591827E+03  d E =-.156798E-03  mag=     0.0000
       N       E                     dE             d eps       ncg     rms          rms(c)
DAV:   1    -0.124040138838E+03   -0.93423E-03   -0.63315E-02  3648   0.945E-01    0.483E-02
DAV:   2    -0.124040123464E+03    0.15374E-04   -0.57506E-04  6432   0.974E-02    0.278E-02
DAV:   3    -0.124040115604E+03    0.78601E-05   -0.61634E-05  6720   0.274E-02    0.832E-03
DAV:   4    -0.124040115894E+03   -0.29032E-06   -0.80017E-06  4128   0.106E-02
 106 F= -.12592026E+03 E0= -.12591863E+03  d E =-.464182E-03  mag=    -0.0000
       N       E                     dE             d eps       ncg     rms          rms(c)
DAV:   1    -0.124041278498E+03   -0.11629E-02   -0.25291E-01  3648   0.189E+00    0.958E-02
DAV:   2    -0.124041220500E+03    0.57998E-04   -0.23097E-03  7104   0.194E-01    0.549E-02
DAV:   3    -0.124041186328E+03    0.34172E-04   -0.23083E-04  6480   0.528E-02    0.166E-02
DAV:   4    -0.124041186857E+03   -0.52920E-06   -0.29713E-05  5040   0.200E-02    0.635E-03
DAV:   5    -0.124041187235E+03   -0.37841E-06   -0.18359E-06  6192   0.525E-03
 107 F= -.12592013E+03 E0= -.12591858E+03  d E =-.326852E-03  mag=     0.0000
       N       E                     dE             d eps       ncg     rms          rms(c)
DAV:   1    -0.124040659921E+03    0.52694E-03   -0.10237E-01  3648   0.120E+00    0.609E-02
DAV:   2    -0.124040634935E+03    0.24986E-04   -0.94283E-04  6576   0.125E-01    0.348E-02
DAV:   3    -0.124040622629E+03    0.12307E-04   -0.95497E-05  6096   0.344E-02    0.106E-02
DAV:   4    -0.124040623683E+03   -0.10548E-05   -0.13432E-05  4656   0.148E-02    0.404E-03
DAV:   5    -0.124040624067E+03   -0.38357E-06   -0.16015E-06  4848   0.620E-03
 108 F= -.12592033E+03 E0= -.12591873E+03  d E =-.533244E-03  mag=    -0.0000
       N       E                     dE             d eps       ncg     rms          rms(c)
DAV:   1    -0.124040827722E+03   -0.20404E-03   -0.20225E-03  4416   0.167E-01    0.826E-03
DAV:   2    -0.124040826714E+03    0.10080E-05   -0.16821E-05  4416   0.176E-02    0.482E-03
DAV:   3    -0.124040827290E+03   -0.57626E-06   -0.34712E-06  5760   0.868E-03
 109 F= -.12592042E+03 E0= -.12591883E+03  d E =-.861933E-04  mag=     0.0000
       N       E                     dE             d eps       ncg     rms          rms(c)
DAV:   1    -0.124041406873E+03   -0.58016E-03   -0.18299E-02  3648   0.503E-01    0.249E-02
DAV:   2    -0.124041403940E+03    0.29324E-05   -0.15307E-04  5712   0.508E-02    0.147E-02
DAV:   3    -0.124041402764E+03    0.11767E-05   -0.16494E-05  3792   0.160E-02    0.384E-03
DAV:   4    -0.124041403348E+03   -0.58439E-06   -0.53709E-06  3792   0.114E-02
 110 F= -.12592064E+03 E0= -.12591907E+03  d E =-.311290E-03  mag=     0.0000
       N       E                     dE             d eps       ncg     rms          rms(c)
DAV:   1    -0.124042429905E+03   -0.10271E-02   -0.73124E-02  3648   0.100E+00    0.496E-02
DAV:   2    -0.124042419760E+03    0.10144E-04   -0.60166E-04  6528   0.999E-02    0.291E-02
DAV:   3    -0.124042412067E+03    0.76931E-05   -0.58906E-05  5376   0.275E-02    0.746E-03
DAV:   4    -0.124042412885E+03   -0.81760E-06   -0.10055E-05  3744   0.145E-02    0.273E-03
DAV:   5    -0.124042413144E+03   -0.25861E-06   -0.40998E-06  4128   0.100E-02
 111 F= -.12592095E+03 E0= -.12591942E+03  d E =-.619785E-03  mag=    -0.0000
       N       E                     dE             d eps       ncg     rms          rms(c)
DAV:   1    -0.124043930652E+03   -0.15178E-02   -0.29182E-01  3648   0.201E+00    0.986E-02
DAV:   2    -0.124043895140E+03    0.35512E-04   -0.23678E-03  7104   0.197E-01    0.577E-02
DAV:   3    -0.124043857533E+03    0.37607E-04   -0.22377E-04  6192   0.509E-02    0.145E-02
DAV:   4    -0.124043858657E+03   -0.11240E-05   -0.26767E-05  4896   0.201E-02    0.516E-03
DAV:   5    -0.124043859279E+03   -0.62133E-06   -0.35170E-06  4608   0.878E-03
 112 F= -.12592100E+03 E0= -.12591952E+03  d E =-.665768E-03  mag=     0.0000
       N       E                     dE             d eps       ncg     rms          rms(c)
DAV:   1    -0.124043333048E+03    0.52561E-03   -0.55784E-02  3648   0.878E-01    0.431E-02
DAV:   2    -0.124043326327E+03    0.67218E-05   -0.45685E-04  6864   0.872E-02    0.253E-02
DAV:   3    -0.124043321653E+03    0.46734E-05   -0.45910E-05  5040   0.248E-02    0.641E-03
DAV:   4    -0.124043322855E+03   -0.12019E-05   -0.94346E-06  4272   0.149E-02    0.254E-03
DAV:   5    -0.124043321969E+03    0.88579E-06   -0.36552E-06  3744   0.949E-03
 113 F= -.12592107E+03 E0= -.12591957E+03  d E =-.740839E-03  mag=    -0.0000
       N       E                     dE             d eps       ncg     rms          rms(c)
DAV:   1    -0.124043469694E+03   -0.14684E-03   -0.15576E-03  3888   0.152E-01    0.741E-03
DAV:   2    -0.124043468855E+03    0.83874E-06   -0.15429E-05  6624   0.160E-02    0.420E-03
DAV:   3    -0.124043468992E+03   -0.13677E-06   -0.21700E-06  5616   0.542E-03
 114 F= -.12592112E+03 E0= -.12591962E+03  d E =-.467919E-04  mag=     0.0000
       N       E                     dE             d eps       ncg     rms          rms(c)
DAV:   1    -0.124043879383E+03   -0.41053E-03   -0.14079E-02  3648   0.456E-01    0.227E-02
DAV:   2    -0.124043872469E+03    0.69142E-05   -0.13451E-04  4416   0.471E-02    0.129E-02
DAV:   3    -0.124043871105E+03    0.13638E-05   -0.19795E-05  4752   0.156E-02    0.311E-03
DAV:   4    -0.124043871516E+03   -0.41146E-06   -0.30222E-06  5376   0.775E-03
 115 F= -.12592122E+03 E0= -.12591972E+03  d E =-.148769E-03  mag=     0.0000
       N       E                     dE             d eps       ncg     rms          rms(c)
DAV:   1    -0.124044528479E+03   -0.65737E-03   -0.56218E-02  3648   0.911E-01    0.450E-02
DAV:   2    -0.124044503321E+03    0.25157E-04   -0.53594E-04  4944   0.936E-02    0.255E-02
DAV:   3    -0.124044495699E+03    0.76225E-05   -0.73729E-05  4368   0.298E-02    0.616E-03
DAV:   4    -0.124044496741E+03   -0.10418E-05   -0.10822E-05  4848   0.143E-02    0.260E-03
DAV:   5    -0.124044497523E+03   -0.78223E-06   -0.32298E-06  4272   0.893E-03
 116 F= -.12592125E+03 E0= -.12591974E+03  d E =-.174337E-03  mag=    -0.0000
       N       E                     dE             d eps       ncg     rms          rms(c)
DAV:   1    -0.124044281634E+03    0.21511E-03   -0.88592E-03  3648   0.362E-01    0.178E-02
DAV:   2    -0.124044277357E+03    0.42767E-05   -0.88102E-05  5328   0.383E-02    0.101E-02
DAV:   3    -0.124044276739E+03    0.61810E-06   -0.12375E-05  5040   0.127E-02    0.245E-03
DAV:   4    -0.124044277047E+03   -0.30838E-06   -0.25201E-06  3744   0.779E-03
 117 F= -.12592126E+03 E0= -.12591976E+03  d E =-.192353E-03  mag=    -0.0000
       N       E                     dE             d eps       ncg     rms          rms(c)
DAV:   1    -0.124044515906E+03   -0.23917E-03   -0.40049E-03  3648   0.243E-01    0.111E-02
DAV:   2    -0.124044514879E+03    0.10267E-05   -0.42536E-05  4992   0.274E-02    0.673E-03
DAV:   3    -0.124044514915E+03   -0.35544E-07   -0.58807E-06  3888   0.997E-03
 118 F= -.12592132E+03 E0= -.12591982E+03  d E =-.548424E-04  mag=     0.0000
       N       E                     dE             d eps       ncg     rms          rms(c)
DAV:   1    -0.124045036110E+03   -0.52123E-03   -0.24469E-02  3648   0.600E-01    0.283E-02
DAV:   2    -0.124045031340E+03    0.47700E-05   -0.24584E-04  4944   0.651E-02    0.171E-02
DAV:   3    -0.124045029348E+03    0.19917E-05   -0.32960E-05  4368   0.216E-02    0.458E-03
DAV:   4    -0.124045029842E+03   -0.49426E-06   -0.76332E-06  4128   0.131E-02
 119 F= -.12592138E+03 E0= -.12591990E+03  d E =-.118496E-03  mag=     0.0000
       N       E                     dE             d eps       ncg     rms          rms(c)
DAV:   1    -0.124045253618E+03   -0.22427E-03   -0.29622E-03  3648   0.212E-01    0.111E-02
DAV:   2    -0.124045251795E+03    0.18231E-05   -0.45587E-05  4608   0.283E-02    0.664E-03
DAV:   3    -0.124045251972E+03   -0.17657E-06   -0.69949E-06  3744   0.115E-02
 120 F= -.12592142E+03 E0= -.12591994E+03  d E =-.358498E-04  mag=    -0.0000
       N       E                     dE             d eps       ncg     rms          rms(c)
DAV:   1    -0.124045429964E+03   -0.17817E-03   -0.23416E-03  3648   0.188E-01    0.104E-02
DAV:   2    -0.124045428123E+03    0.18415E-05   -0.35736E-05  3744   0.259E-02    0.630E-03
DAV:   3    -0.124045428694E+03   -0.57069E-06   -0.71055E-06  3744   0.120E-02
 121 F= -.12592143E+03 E0= -.12591995E+03  d E =-.477685E-04  mag=     0.0000
       N       E                     dE             d eps       ncg     rms          rms(c)
DAV:   1    -0.124045713500E+03   -0.28538E-03   -0.37432E-03  3648   0.229E-01    0.118E-02
DAV:   2    -0.124045711370E+03    0.21300E-05   -0.46442E-05  4032   0.288E-02    0.719E-03
DAV:   3    -0.124045712131E+03   -0.76098E-06   -0.80793E-06  3936   0.124E-02
 122 F= -.12592147E+03 E0= -.12591999E+03  d E =-.395195E-04  mag=    -0.0000
       N       E                     dE             d eps       ncg     rms          rms(c)
DAV:   1    -0.124046566256E+03   -0.85489E-03   -0.33540E-02  3648   0.685E-01    0.345E-02
DAV:   2    -0.124046552332E+03    0.13924E-04   -0.39803E-04  4608   0.803E-02    0.207E-02
DAV:   3    -0.124046549787E+03    0.25448E-05   -0.53459E-05  4128   0.273E-02    0.559E-03
DAV:   4    -0.124046552263E+03   -0.24756E-05   -0.15125E-05  4272   0.187E-02    0.249E-03
DAV:   5    -0.124046549897E+03    0.23658E-05   -0.70581E-06  3648   0.130E-02    0.117E-03
DAV:   6    -0.124046548199E+03    0.16985E-05   -0.13425E-06  5088   0.555E-03    0.335E-04
DAV:   7    -0.124046548267E+03   -0.67806E-07   -0.42493E-08  5232   0.933E-04
 123 F= -.12592158E+03 E0= -.12592010E+03  d E =-.144347E-03  mag=     0.0000
       N       E                     dE             d eps       ncg     rms          rms(c)
DAV:   1    -0.124048238972E+03   -0.16908E-02   -0.13371E-01  3648   0.137E+00    0.683E-02
DAV:   2    -0.124048184688E+03    0.54284E-04   -0.15554E-03  4800   0.154E-01    0.405E-02
DAV:   3    -0.124048164202E+03    0.20486E-04   -0.20197E-04  6816   0.468E-02    0.105E-02
DAV:   4    -0.124048165848E+03   -0.16459E-05   -0.19864E-05  4416   0.157E-02    0.429E-03
DAV:   5    -0.124048166652E+03   -0.80433E-06   -0.10337E-06  4608   0.393E-03
 124 F= -.12592173E+03 E0= -.12592026E+03  d E =-.302123E-03  mag=    -0.0000
       N       E                     dE             d eps       ncg     rms          rms(c)
DAV:   1    -0.124051464786E+03   -0.32989E-02   -0.53513E-01  3648   0.274E+00    0.136E-01
DAV:   2    -0.124051251526E+03    0.21326E-03   -0.62412E-03  4848   0.309E-01    0.809E-02
DAV:   3    -0.124051172999E+03    0.78527E-04   -0.80176E-04  6912   0.932E-02    0.209E-02
DAV:   4    -0.124051176361E+03   -0.33618E-05   -0.79131E-05  4512   0.316E-02    0.858E-03
DAV:   5    -0.124051178407E+03   -0.20454E-05   -0.41491E-06  4704   0.802E-03    0.159E-03
DAV:   6    -0.124051178560E+03   -0.15303E-06   -0.10660E-06  5664   0.454E-03
 125 F= -.12592183E+03 E0= -.12592037E+03  d E =-.400839E-03  mag=    -0.0000
       N       E                     dE             d eps       ncg     rms          rms(c)
DAV:   1    -0.124051375409E+03   -0.19700E-03   -0.19127E-03  3840   0.163E-01    0.825E-03
DAV:   2    -0.124051374534E+03    0.87520E-06   -0.22940E-05  4416   0.192E-02    0.487E-03
DAV:   3    -0.124051374747E+03   -0.21383E-06   -0.33024E-06  6000   0.664E-03
 126 F= -.12592186E+03 E0= -.12592039E+03  d E =-.242868E-04  mag=     0.0000
       N       E                     dE             d eps       ncg     rms          rms(c)
DAV:   1    -0.124051961413E+03   -0.58688E-03   -0.17222E-02  3648   0.490E-01    0.251E-02
DAV:   2    -0.124051953208E+03    0.82059E-05   -0.20466E-04  5088   0.566E-02    0.150E-02
DAV:   3    -0.124051951378E+03    0.18299E-05   -0.28310E-05  4416   0.182E-02    0.385E-03
DAV:   4    -0.124051952305E+03   -0.92760E-06   -0.46842E-06  5520   0.906E-03
 127 F= -.12592192E+03 E0= -.12592045E+03  d E =-.863590E-04  mag=     0.0000
       N       E                     dE             d eps       ncg     rms          rms(c)
DAV:   1    -0.124053098166E+03   -0.11468E-02   -0.68674E-02  3648   0.979E-01    0.496E-02
DAV:   2    -0.124053066579E+03    0.31587E-04   -0.80886E-04  4080   0.113E-01    0.295E-02
DAV:   3    -0.124053057174E+03    0.94055E-05   -0.11943E-04  6720   0.369E-02    0.744E-03
DAV:   4    -0.124053058823E+03   -0.16496E-05   -0.14141E-05  4656   0.160E-02    0.341E-03
DAV:   5    -0.124053060292E+03   -0.14692E-05   -0.43689E-06  4896   0.104E-02    0.113E-03
DAV:   6    -0.124053058364E+03    0.19288E-05   -0.20756E-06  4080   0.691E-03    0.466E-04
DAV:   7    -0.124053058350E+03    0.13950E-07   -0.13888E-07  6144   0.177E-03
 128 F= -.12592199E+03 E0= -.12592053E+03  d E =-.162545E-03  mag=     0.0000
