Lattice                                 
           1
     4.321467    2.495000    0.000000
    -4.321467    2.495000    0.000000
     0.000000    0.000000   15.000000
   B    C 
     8     8
Direct configuration=     1
   0.66888689  0.00000000  0.10000000
   0.33111211  0.00000000  0.10000000
   0.00000000  0.33111211  0.10000000
   0.00000000  0.66888689  0.10000000
   0.33111211  0.33111211  0.10000000
   0.66888689  0.66888689  0.10000000
   0.66666600  0.33333300  0.09922189
   0.33333300  0.66666600  0.10077811
   0.16666600  0.33333300  0.46773333
   0.33333300  0.16666600  0.46773333
   0.16666600  0.83333300  0.46773333
   0.33333300  0.66666600  0.46773333
   0.66666600  0.33333300  0.46773333
   0.83333300  0.16666600  0.46773333
   0.66666600  0.83333300  0.46773333
   0.83333300  0.66666600  0.46773333
Direct configuration=     2
   0.67030371  0.00000001  0.10002687
   0.32969531  0.00000001  0.10002687
  -0.00000001  0.32969529  0.10002687
  -0.00000001  0.67030369  0.10002687
   0.32969531  0.32969529  0.10002687
   0.67030371  0.67030369  0.10002687
   0.66666600  0.33333300  0.09924814
   0.33333300  0.66666600  0.10081208
   0.16666369  0.33332839  0.46770564
   0.33332851  0.16666375  0.46770566
   0.16666369  0.83333531  0.46770564
   0.33333300  0.66666600  0.46770563
   0.66666600  0.33333300  0.46770571
   0.83333525  0.16666375  0.46770566
   0.66667061  0.83333531  0.46770564
   0.83333525  0.66667049  0.46770566
Direct configuration=     3
   0.66963190  0.00000001  0.10001413
   0.33036711  0.00000001  0.10001413
  -0.00000001  0.33036710  0.10001413
  -0.00000001  0.66963189  0.10001413
   0.33036711  0.33036710  0.10001413
   0.66963190  0.66963189  0.10001413
   0.66666600  0.33333300  0.09923569
   0.33333300  0.66666600  0.10079597
   0.16666479  0.33333057  0.46771877
   0.33333064  0.16666482  0.46771878
   0.16666479  0.83333421  0.46771877
   0.33333300  0.66666600  0.46771877
   0.66666600  0.33333300  0.46771881
   0.83333418  0.16666482  0.46771878
   0.66666843  0.83333421  0.46771877
   0.83333418  0.66666836  0.46771878
Direct configuration=     4
   0.66963516  0.00000001  0.10001419
   0.33036385  0.00000001  0.10001419
  -0.00000001  0.33036384  0.10001419
  -0.00000001  0.66963515  0.10001419
   0.33036385  0.33036384  0.10001419
   0.66963516  0.66963515  0.10001419
   0.66666600  0.33333300  0.09923575
   0.33333300  0.66666600  0.10079605
   0.16666478  0.33333056  0.46771871
   0.33333063  0.16666481  0.46771872
   0.16666478  0.83333422  0.46771871
   0.33333300  0.66666600  0.46771870
   0.66666600  0.33333300  0.46771875
   0.83333419  0.16666481  0.46771872
   0.66666844  0.83333422  0.46771871
   0.83333419  0.66666837  0.46771872
Direct configuration=     5
   0.66963394  0.00000001  0.10001417
   0.33036506  0.00000001  0.10001417
  -0.00000001  0.33036506  0.10001417
  -0.00000001  0.66963394  0.10001417
   0.33036506  0.33036506  0.10001417
   0.66963394  0.66963394  0.10001417
   0.66666600  0.33333300  0.09923573
   0.33333300  0.66666600  0.10079602
   0.16666478  0.33333057  0.46771873
   0.33333063  0.16666482  0.46771874
   0.16666478  0.83333422  0.46771873
   0.33333300  0.66666600  0.46771873
   0.66666600  0.33333300  0.46771877
   0.83333418  0.16666482  0.46771874
   0.66666843  0.83333422  0.46771873
   0.83333418  0.66666837  0.46771874
Direct configuration=     6
   0.66963292  0.00000001  0.10001415
   0.33036609  0.00000001  0.10001415
  -0.00000001  0.33036608  0.10001415
  -0.00000001  0.66963291  0.10001415
   0.33036609  0.33036608  0.10001415
   0.66963292  0.66963291  0.10001415
   0.66666600  0.33333300  0.09923571
   0.33333300  0.66666600  0.10079600
   0.16666479  0.33333057  0.46771875
   0.33333063  0.16666482  0.46771876
   0.16666479  0.83333421  0.46771875
   0.33333300  0.66666600  0.46771875
   0.66666600  0.33333300  0.46771879
   0.83333418  0.16666482  0.46771876
   0.66666843  0.83333421  0.46771875
   0.83333418  0.66666837  0.46771876
Direct configuration=     7
   0.66963293 -0.00000002  0.10003882
   0.33036605 -0.00000002  0.10003882
   0.00000002  0.33036607  0.10003882
   0.00000002  0.66963295  0.10003882
   0.33036605  0.33036607  0.10003882
   0.66963293  0.66963295  0.10003882
   0.66666600  0.33333300  0.09926209
   0.33333300  0.66666600  0.10082404
   0.16666652  0.33333405  0.46769343
   0.33333401  0.16666650  0.46769346
   0.16666652  0.83333248  0.46769343
   0.33333300  0.66666600  0.46769342
   0.66666600  0.33333300  0.46769353
   0.83333250  0.16666650  0.46769346
   0.66666495  0.83333248  0.46769343
   0.83333250  0.66666499  0.46769346
Direct configuration=     8
   0.66963294 -0.00000011  0.10011284
   0.33036595 -0.00000011  0.10011284
   0.00000011  0.33036606  0.10011284
   0.00000011  0.66963305  0.10011284
   0.33036595  0.33036606  0.10011284
   0.66963294  0.66963305  0.10011284
   0.66666600  0.33333300  0.09934125
   0.33333300  0.66666600  0.10090816
   0.16667174  0.33334447  0.46761746
   0.33334413  0.16667157  0.46761754
   0.16667174  0.83332726  0.46761746
   0.33333300  0.66666600  0.46761746
   0.66666600  0.33333300  0.46761773
   0.83332743  0.16667157  0.46761754
   0.66665453  0.83332726  0.46761746
   0.83332743  0.66665487  0.46761754
Direct configuration=     9
   0.66963297 -0.00000029  0.10026089
   0.33036574 -0.00000029  0.10026089
   0.00000029  0.33036603  0.10026089
   0.00000029  0.66963326  0.10026089
   0.33036574  0.33036603  0.10026089
   0.66963297  0.66963326  0.10026089
   0.66666600  0.33333300  0.09949956
   0.33333300  0.66666600  0.10107640
   0.16668216  0.33336533  0.46746552
   0.33336438  0.16668169  0.46746571
   0.16668216  0.83331684  0.46746552
   0.33333300  0.66666600  0.46746553
   0.66666600  0.33333300  0.46746614
   0.83331731  0.16668169  0.46746571
   0.66663367  0.83331684  0.46746552
   0.83331731  0.66663462  0.46746571
Direct configuration=    10
   0.66963303 -0.00000065  0.10055698
   0.33036532 -0.00000065  0.10055698
   0.00000065  0.33036597  0.10055698
   0.00000065  0.66963368  0.10055698
   0.33036532  0.33036597  0.10055698
   0.66963303  0.66963368  0.10055698
   0.66666600  0.33333300  0.09981619
   0.33333300  0.66666600  0.10141288
   0.16670302  0.33340704  0.46716164
   0.33340488  0.16670194  0.46716205
   0.16670302  0.83329598  0.46716164
   0.33333300  0.66666600  0.46716168
   0.66666600  0.33333300  0.46716295
   0.83329706  0.16670194  0.46716205
   0.66659196  0.83329598  0.46716164
   0.83329706  0.66659412  0.46716205
Direct configuration=    11
   0.66963315 -0.00000136  0.10114917
   0.33036449 -0.00000136  0.10114917
   0.00000136  0.33036585  0.10114917
   0.00000136  0.66963451  0.10114917
   0.33036449  0.33036585  0.10114917
   0.66963315  0.66963451  0.10114917
   0.66666600  0.33333300  0.10044945
   0.33333300  0.66666600  0.10208585
   0.16674473  0.33349046  0.46655389
   0.33348587  0.16674244  0.46655472
   0.16674473  0.83325427  0.46655389
   0.33333300  0.66666600  0.46655397
   0.66666600  0.33333300  0.46655658
   0.83325656  0.16674244  0.46655472
   0.66650854  0.83325427  0.46655389
   0.83325656  0.66651313  0.46655472
Direct configuration=    12
   0.66963340 -0.00000279  0.10233353
   0.33036282 -0.00000279  0.10233353
   0.00000279  0.33036560  0.10233353
   0.00000279  0.66963618  0.10233353
   0.33036282  0.33036560  0.10233353
   0.66963340  0.66963618  0.10233353
   0.66666600  0.33333300  0.10171595
   0.33333300  0.66666600  0.10343178
   0.16682815  0.33365730  0.46533839
   0.33364786  0.16682343  0.46534006
   0.16682815  0.83317085  0.46533839
   0.33333300  0.66666600  0.46533855
   0.66666600  0.33333300  0.46534384
   0.83317557  0.16682343  0.46534006
   0.66634170  0.83317085  0.46533839
   0.83317557  0.66635114  0.46534006
Direct configuration=    13
   0.66963388 -0.00000564  0.10470227
   0.33035948 -0.00000564  0.10470227
   0.00000564  0.33036512  0.10470227
   0.00000564  0.66963952  0.10470227
   0.33035948  0.33036512  0.10470227
   0.66963388  0.66963952  0.10470227
   0.66666600  0.33333300  0.10424897
   0.33333300  0.66666600  0.10612364
   0.16699499  0.33399097  0.46290737
   0.33397182  0.16698541  0.46291075
   0.16699499  0.83300401  0.46290737
   0.33333300  0.66666600  0.46290770
   0.66666600  0.33333300  0.46291836
   0.83301359  0.16698541  0.46291075
   0.66600803  0.83300401  0.46290737
   0.83301359  0.66602718  0.46291075
Direct configuration=    14
   0.66963485 -0.00001134  0.10943974
   0.33035280 -0.00001134  0.10943974
   0.00001134  0.33036415  0.10943974
   0.00001134  0.66964620  0.10943974
   0.33035280  0.33036415  0.10943974
   0.66963485  0.66964620  0.10943974
   0.66666600  0.33333300  0.10931499
   0.33333300  0.66666600  0.11150736
   0.16732866  0.33465833  0.45804535
   0.33461976  0.16730938  0.45805213
   0.16732866  0.83267034  0.45804535
   0.33333300  0.66666600  0.45804602
   0.66666600  0.33333300  0.45806740
   0.83268962  0.16730938  0.45805213
   0.66534067  0.83267034  0.45804535
   0.83268962  0.66537924  0.45805213
Direct configuration=    15
   0.66963680 -0.00002275  0.11891469
   0.33033945 -0.00002275  0.11891469
   0.00002275  0.33036220  0.11891469
   0.00002275  0.66965955  0.11891469
   0.33033945  0.33036220  0.11891469
   0.66963680  0.66965955  0.11891469
   0.66666600  0.33333300  0.11944705
   0.33333300  0.66666600  0.12227480
   0.16799602  0.33599304  0.44832130
   0.33591564  0.16795732  0.44833489
   0.16799602  0.83200298  0.44832130
   0.33333300  0.66666600  0.44832264
   0.66666600  0.33333300  0.44836547
   0.83204168  0.16795732  0.44833489
   0.66400596  0.83200298  0.44832130
   0.83204168  0.66408336  0.44833489
Direct configuration=    16
   0.66964068 -0.00004557  0.13786457
   0.33031274 -0.00004557  0.13786457
   0.00004557  0.33035832  0.13786457
   0.00004557  0.66968626  0.13786457
   0.33031274  0.33035832  0.13786457
   0.66964068  0.66968626  0.13786457
   0.66666600  0.33333300  0.13971116
   0.33333300  0.66666600  0.14380969
   0.16933073  0.33866246  0.42887321
   0.33850740  0.16925320  0.42890041
   0.16933073  0.83066827  0.42887321
   0.33333300  0.66666600  0.42887590
   0.66666600  0.33333300  0.42896162
   0.83074580  0.16925320  0.42890041
   0.66133654  0.83066827  0.42887321
   0.83074580  0.66149160  0.42890041
Direct configuration=    17
   0.66963860 -0.00003335  0.12771411
   0.33032705 -0.00003335  0.12771411
   0.00003335  0.33036040  0.12771411
   0.00003335  0.66967195  0.12771411
   0.33032705  0.33036040  0.12771411
   0.66963860  0.66967195  0.12771411
   0.66666600  0.33333300  0.12885674
   0.33333300  0.66666600  0.13227458
   0.16861580  0.33723259  0.43929053
   0.33711913  0.16855907  0.43931044
   0.16861580  0.83138320  0.43929053
   0.33333300  0.66666600  0.43929250
   0.66666600  0.33333300  0.43935524
   0.83143993  0.16855907  0.43931044
   0.66276641  0.83138320  0.43929053
   0.83143993  0.66287987  0.43931044
Direct configuration=    18
   0.66963860 -0.00003335  0.12771486
   0.33032705 -0.00003335  0.12771486
   0.00003335  0.33036040  0.12771486
   0.00003335  0.66967195  0.12771486
   0.33032705  0.33036040  0.12771486
   0.66963860  0.66967195  0.12771486
   0.66666600  0.33333300  0.12885754
   0.33333300  0.66666600  0.13227543
   0.16861582  0.33723265  0.43928977
   0.33711918  0.16855909  0.43930968
   0.16861582  0.83138318  0.43928977
   0.33333300  0.66666600  0.43929173
   0.66666600  0.33333300  0.43935448
   0.83143991  0.16855909  0.43930968
   0.66276635  0.83138318  0.43928977
   0.83143991  0.66287982  0.43930968
Direct configuration=    19
   0.66963860 -0.00003336  0.12771710
   0.33032704 -0.00003336  0.12771710
   0.00003336  0.33036040  0.12771710
   0.00003336  0.66967196  0.12771710
   0.33032704  0.33036040  0.12771710
   0.66963860  0.66967196  0.12771710
   0.66666600  0.33333300  0.12885993
   0.33333300  0.66666600  0.13227797
   0.16861590  0.33723281  0.43928747
   0.33711934  0.16855917  0.43930738
   0.16861590  0.83138310  0.43928747
   0.33333300  0.66666600  0.43928944
   0.66666600  0.33333300  0.43935218
   0.83143983  0.16855917  0.43930738
   0.66276619  0.83138310  0.43928747
   0.83143983  0.66287966  0.43930738
Direct configuration=    20
   0.66963860 -0.00003336  0.12772158
   0.33032704 -0.00003336  0.12772158
   0.00003336  0.33036040  0.12772158
   0.00003336  0.66967196  0.12772158
   0.33032704  0.33036040  0.12772158
   0.66963860  0.66967196  0.12772158
   0.66666600  0.33333300  0.12886472
   0.33333300  0.66666600  0.13228306
   0.16861607  0.33723313  0.43928287
   0.33711966  0.16855933  0.43930278
   0.16861607  0.83138293  0.43928287
   0.33333300  0.66666600  0.43928484
   0.66666600  0.33333300  0.43934760
   0.83143967  0.16855933  0.43930278
   0.66276587  0.83138293  0.43928287
   0.83143967  0.66287934  0.43930278
Direct configuration=    21
   0.66963859 -0.00003338  0.12773055
   0.33032703 -0.00003338  0.12773055
   0.00003338  0.33036041  0.12773055
   0.00003338  0.66967197  0.12773055
   0.33032703  0.33036041  0.12773055
   0.66963859  0.66967197  0.12773055
   0.66666600  0.33333300  0.12887429
   0.33333300  0.66666600  0.13229323
   0.16861639  0.33723379  0.43927367
   0.33712029  0.16855965  0.43929359
   0.16861639  0.83138261  0.43927367
   0.33333300  0.66666600  0.43927564
   0.66666600  0.33333300  0.43933842
   0.83143935  0.16855965  0.43929359
   0.66276521  0.83138261  0.43927367
   0.83143935  0.66287871  0.43929359
Direct configuration=    22
   0.66963858 -0.00003340  0.12774847
   0.33032702 -0.00003340  0.12774847
   0.00003340  0.33036042  0.12774847
   0.00003340  0.66967198  0.12774847
   0.33032702  0.33036042  0.12774847
   0.66963858  0.66967198  0.12774847
   0.66666600  0.33333300  0.12889344
   0.33333300  0.66666600  0.13231358
   0.16861704  0.33723509  0.43925528
   0.33712156  0.16856028  0.43927521
   0.16861704  0.83138196  0.43925528
   0.33333300  0.66666600  0.43925725
   0.66666600  0.33333300  0.43932007
   0.83143872  0.16856028  0.43927521
   0.66276391  0.83138196  0.43925528
   0.83143872  0.66287744  0.43927521
Direct configuration=    23
   0.66963855 -0.00003346  0.12778433
   0.33032699 -0.00003346  0.12778433
   0.00003346  0.33036045  0.12778433
   0.00003346  0.66967201  0.12778433
   0.33032699  0.33036045  0.12778433
   0.66963855  0.66967201  0.12778433
   0.66666600  0.33333300  0.12893173
   0.33333300  0.66666600  0.13235428
   0.16861835  0.33723770  0.43921850
   0.33712410  0.16856155  0.43923846
   0.16861835  0.83138065  0.43921850
   0.33333300  0.66666600  0.43922047
   0.66666600  0.33333300  0.43928336
   0.83143745  0.16856155  0.43923846
   0.66276130  0.83138065  0.43921850
   0.83143745  0.66287490  0.43923846
Direct configuration=    24
   0.66963850 -0.00003356  0.12785604
   0.33032694 -0.00003356  0.12785604
   0.00003356  0.33036050  0.12785604
   0.00003356  0.66967206  0.12785604
   0.33032694  0.33036050  0.12785604
   0.66963850  0.66967206  0.12785604
   0.66666600  0.33333300  0.12900832
   0.33333300  0.66666600  0.13243567
   0.16862096  0.33724291  0.43914493
   0.33712917  0.16856408  0.43916494
   0.16862096  0.83137804  0.43914493
   0.33333300  0.66666600  0.43914690
   0.66666600  0.33333300  0.43920995
   0.83143492  0.16856408  0.43916494
   0.66275609  0.83137804  0.43914493
   0.83143492  0.66286983  0.43916494
Direct configuration=    25
   0.66963839 -0.00003378  0.12799946
   0.33032683 -0.00003378  0.12799946
   0.00003378  0.33036061  0.12799946
   0.00003378  0.66967217  0.12799946
   0.33032683  0.33036061  0.12799946
   0.66963839  0.66967217  0.12799946
   0.66666600  0.33333300  0.12916149
   0.33333300  0.66666600  0.13259845
   0.16862617  0.33725334  0.43899780
   0.33713931  0.16856916  0.43901790
   0.16862617  0.83137283  0.43899780
   0.33333300  0.66666600  0.43899977
   0.66666600  0.33333300  0.43906312
   0.83142984  0.16856916  0.43901790
   0.66274566  0.83137283  0.43899780
   0.83142984  0.66285969  0.43901790
Direct configuration=    26
   0.66963819 -0.00003421  0.12828629
   0.33032661 -0.00003421  0.12828629
   0.00003421  0.33036081  0.12828629
   0.00003421  0.66967239  0.12828629
   0.33032661  0.33036081  0.12828629
   0.66963819  0.66967239  0.12828629
   0.66666600  0.33333300  0.12946783
   0.33333300  0.66666600  0.13292402
   0.16863660  0.33727420  0.43870353
   0.33715960  0.16857930  0.43872383
   0.16863660  0.83136240  0.43870353
   0.33333300  0.66666600  0.43870552
   0.66666600  0.33333300  0.43876947
   0.83141970  0.16857930  0.43872383
   0.66272480  0.83136240  0.43870353
   0.83141970  0.66283940  0.43872383
Direct configuration=    27
   0.66963777 -0.00003507  0.12885997
   0.33032616 -0.00003507  0.12885997
   0.00003507  0.33036123  0.12885997
   0.00003507  0.66967284  0.12885997
   0.33032616  0.33036123  0.12885997
   0.66963777  0.66967284  0.12885997
   0.66666600  0.33333300  0.13008052
   0.33333300  0.66666600  0.13357515
   0.16865746  0.33731592  0.43811500
   0.33720017  0.16859959  0.43813568
   0.16865746  0.83134154  0.43811500
   0.33333300  0.66666600  0.43811700
   0.66666600  0.33333300  0.43818216
   0.83139941  0.16859959  0.43813568
   0.66268308  0.83134154  0.43811500
   0.83139941  0.66279883  0.43813568
Direct configuration=    28
   0.66963693 -0.00003679  0.13000731
   0.33032528 -0.00003679  0.13000731
   0.00003679  0.33036207  0.13000731
   0.00003679  0.66967372  0.13000731
   0.33032528  0.33036207  0.13000731
   0.66963693  0.66967372  0.13000731
   0.66666600  0.33333300  0.13130590
   0.33333300  0.66666600  0.13487741
   0.16869917  0.33739935  0.43693794
   0.33728132  0.16864016  0.43695938
   0.16869917  0.83129983  0.43693794
   0.33333300  0.66666600  0.43693997
   0.66666600  0.33333300  0.43700756
   0.83135884  0.16864016  0.43695938
   0.66259965  0.83129983  0.43693794
   0.83135884  0.66271768  0.43695938
Direct configuration=    29
   0.66963526 -0.00004023  0.13230201
   0.33032351 -0.00004023  0.13230201
   0.00004023  0.33036374  0.13230201
   0.00004023  0.66967549  0.13230201
   0.33032351  0.33036374  0.13230201
   0.66963526  0.66967549  0.13230201
   0.66666600  0.33333300  0.13375666
   0.33333300  0.66666600  0.13748193
   0.16878261  0.33756622  0.43458380
   0.33744361  0.16872130  0.43460679
   0.16878261  0.83121639  0.43458380
   0.33333300  0.66666600  0.43458590
   0.66666600  0.33333300  0.43465834
   0.83127770  0.16872130  0.43460679
   0.66243278  0.83121639  0.43458380
   0.83127770  0.66255539  0.43460679
Direct configuration=    30
   0.66963191 -0.00004712  0.13689140
   0.33031997 -0.00004712  0.13689140
   0.00004712  0.33036709  0.13689140
   0.00004712  0.66967903  0.13689140
   0.33031997  0.33036709  0.13689140
   0.66963191  0.66967903  0.13689140
   0.66666600  0.33333300  0.13865818
   0.33333300  0.66666600  0.14269098
   0.16894947  0.33789995  0.42987554
   0.33776819  0.16888359  0.42990160
   0.16894947  0.83104953  0.42987554
   0.33333300  0.66666600  0.42987777
   0.66666600  0.33333300  0.42995991
   0.83111541  0.16888359  0.42990160
   0.66209905  0.83104953  0.42987554
   0.83111541  0.66223081  0.42990160
Direct configuration=    31
   0.66962521 -0.00006089  0.14607017
   0.33031290 -0.00006089  0.14607017
   0.00006089  0.33037379  0.14607017
   0.00006089  0.66968610  0.14607017
   0.33031290  0.33037379  0.14607017
   0.66962521  0.66968610  0.14607017
   0.66666600  0.33333300  0.14846122
   0.33333300  0.66666600  0.15310907
   0.16928321  0.33856742  0.42045902
   0.33841735  0.16920817  0.42049124
   0.16928321  0.83071579  0.42045902
   0.33333300  0.66666600  0.42046150
   0.66666600  0.33333300  0.42056306
   0.83079083  0.16920817  0.42049124
   0.66143158  0.83071579  0.42045902
   0.83079083  0.66158165  0.42049124
Direct configuration=    32
   0.66961182 -0.00008843  0.16442773
   0.33029875 -0.00008843  0.16442773
   0.00008843  0.33038718  0.16442773
   0.00008843  0.66970025  0.16442773
   0.33029875  0.33038718  0.16442773
   0.66961182  0.66970025  0.16442773
   0.66666600  0.33333300  0.16806730
   0.33333300  0.66666600  0.17394526
   0.16995068  0.33990235  0.40162598
   0.33971567  0.16985733  0.40167050
   0.16995068  0.83004832  0.40162598
   0.33333300  0.66666600  0.40162896
   0.66666600  0.33333300  0.40176934
   0.83014167  0.16985733  0.40167050
   0.66009665  0.83004832  0.40162598
   0.83014167  0.66028333  0.40167050
Direct configuration=    33
   0.66961968 -0.00007227  0.15366015
   0.33030705 -0.00007227  0.15366015
   0.00007227  0.33037932  0.15366015
   0.00007227  0.66969195  0.15366015
   0.33030705  0.33037932  0.15366015
   0.66961968  0.66969195  0.15366015
   0.66666600  0.33333300  0.15656741
   0.33333300  0.66666600  0.16172385
   0.16955917  0.33911935  0.41267245
   0.33895414  0.16947657  0.41270975
   0.16955917  0.83043983  0.41267245
   0.33333300  0.66666600  0.41267514
   0.66666600  0.33333300  0.41279275
   0.83052243  0.16947657  0.41270975
   0.66087965  0.83043983  0.41267245
   0.83052243  0.66104486  0.41270975
Direct configuration=    34
   0.66961575 -0.00008035  0.15904394
   0.33030290 -0.00008035  0.15904394
   0.00008035  0.33038325  0.15904394
   0.00008035  0.66969610  0.15904394
   0.33030290  0.33038325  0.15904394
   0.66961575  0.66969610  0.15904394
   0.66666600  0.33333300  0.16231736
   0.33333300  0.66666600  0.16783455
   0.16975492  0.33951085  0.40714921
   0.33933491  0.16966695  0.40719013
   0.16975492  0.83024408  0.40714921
   0.33333300  0.66666600  0.40715205
   0.66666600  0.33333300  0.40728105
   0.83033205  0.16966695  0.40719013
   0.66048815  0.83024408  0.40714921
   0.83033205  0.66066409  0.40719013
Direct configuration=    35
   0.66958756 -0.00009835  0.16498135
   0.33031309 -0.00009835  0.16498135
   0.00009835  0.33041144  0.16498135
   0.00009835  0.66968591  0.16498135
   0.33031309  0.33041144  0.16498135
   0.66958756  0.66968591  0.16498135
   0.66666600  0.33333300  0.16863989
   0.33333300  0.66666600  0.17455342
   0.16963093  0.33926286  0.40106347
   0.33909662  0.16954781  0.40110745
   0.16963093  0.83036807  0.40106347
   0.33333300  0.66666600  0.40106652
   0.66666600  0.33333300  0.40120599
   0.83045119  0.16954781  0.40110745
   0.66073614  0.83036807  0.40106347
   0.83045119  0.66090238  0.40110745
Direct configuration=    36
   0.66958270 -0.00010145  0.16600360
   0.33031484 -0.00010145  0.16600360
   0.00010145  0.33041630  0.16600360
   0.00010145  0.66968416  0.16600360
   0.33031484  0.33041630  0.16600360
   0.66958270  0.66968416  0.16600360
   0.66666600  0.33333300  0.16972845
   0.33333300  0.66666600  0.17571022
   0.16960958  0.33922016  0.40001568
   0.33905560  0.16952730  0.40006018
   0.16960958  0.83038942  0.40001568
   0.33333300  0.66666600  0.40001877
   0.66666600  0.33333300  0.40016003
   0.83047170  0.16952730  0.40006018
   0.66077884  0.83038942  0.40001568
   0.83047170  0.66094340  0.40006018
Direct configuration=    37
   0.66955041 -0.00011178  0.16574293
   0.33033681 -0.00011178  0.16574293
   0.00011178  0.33044859  0.16574293
   0.00011178  0.66966219  0.16574293
   0.33033681  0.33044859  0.16574293
   0.66955041  0.66966219  0.16574293
   0.66666600  0.33333300  0.16942832
   0.33333300  0.66666600  0.17539154
   0.16928021  0.33856142  0.40028927
   0.33841782  0.16920841  0.40033230
   0.16928021  0.83071879  0.40028927
   0.33333300  0.66666600  0.40029316
   0.66666600  0.33333300  0.40043136
   0.83079059  0.16920841  0.40033230
   0.66143758  0.83071879  0.40028927
   0.83079059  0.66158118  0.40033230
Direct configuration=    38
   0.66945351 -0.00014277  0.16496090
   0.33040271 -0.00014277  0.16496090
   0.00014277  0.33054549  0.16496090
   0.00014277  0.66959629  0.16496090
   0.33040271  0.33054549  0.16496090
   0.66945351  0.66959629  0.16496090
   0.66666600  0.33333300  0.16852792
   0.33333300  0.66666600  0.17443552
   0.16829209  0.33658519  0.40111007
   0.33650449  0.16825174  0.40114865
   0.16829209  0.83170691  0.40111007
   0.33333300  0.66666600  0.40111635
   0.66666600  0.33333300  0.40124532
   0.83174726  0.16825174  0.40114865
   0.66341381  0.83170691  0.40111007
   0.83174726  0.66349451  0.40114865
Direct configuration=    39
   0.66925972 -0.00020476  0.16339684
   0.33053452 -0.00020476  0.16339684
   0.00020476  0.33073928  0.16339684
   0.00020476  0.66946448  0.16339684
   0.33053452  0.33073928  0.16339684
   0.66925972  0.66946448  0.16339684
   0.66666600  0.33333300  0.16672714
   0.33333300  0.66666600  0.17252348
   0.16631587  0.33263274  0.40275166
   0.33267782  0.16633841  0.40278134
   0.16631587  0.83368313  0.40275166
   0.33333300  0.66666600  0.40276274
   0.66666600  0.33333300  0.40287325
   0.83366059  0.16633841  0.40278134
   0.66736626  0.83368313  0.40275166
   0.83366059  0.66732118  0.40278134
Direct configuration=    40
   0.66929284 -0.00019417  0.16366413
   0.33051200 -0.00019417  0.16366413
   0.00019417  0.33070616  0.16366413
   0.00019417  0.66948700  0.16366413
   0.33051200  0.33070616  0.16366413
   0.66929284  0.66948700  0.16366413
   0.66666600  0.33333300  0.16703487
   0.33333300  0.66666600  0.17285022
   0.16665358  0.33330817  0.40247113
   0.33333176  0.16666538  0.40250233
   0.16665358  0.83334542  0.40247113
   0.33333300  0.66666600  0.40248139
   0.66666600  0.33333300  0.40259506
   0.83333362  0.16666538  0.40250233
   0.66669083  0.83334542  0.40247113
   0.83333362  0.66666724  0.40250233
Direct configuration=    41
   0.66927043 -0.00019721  0.16367968
   0.33053136 -0.00019721  0.16367968
   0.00019721  0.33072857  0.16367968
   0.00019721  0.66946764  0.16367968
   0.33053136  0.33072857  0.16367968
   0.66927043  0.66946764  0.16367968
   0.66666600  0.33333300  0.16699941
   0.33333300  0.66666600  0.17281454
   0.16665539  0.33331179  0.40246989
   0.33333086  0.16666493  0.40249902
   0.16665539  0.83334361  0.40246989
   0.33333300  0.66666600  0.40247998
   0.66666600  0.33333300  0.40258795
   0.83333407  0.16666493  0.40249902
   0.66668721  0.83334361  0.40246989
   0.83333407  0.66666814  0.40249902
Direct configuration=    42
   0.66920321 -0.00020634  0.16372633
   0.33058945 -0.00020634  0.16372633
   0.00020634  0.33079579  0.16372633
   0.00020634  0.66940955  0.16372633
   0.33058945  0.33079579  0.16372633
   0.66920321  0.66940955  0.16372633
   0.66666600  0.33333300  0.16689303
   0.33333300  0.66666600  0.17270747
   0.16666083  0.33332266  0.40246617
   0.33332816  0.16666358  0.40248911
   0.16666083  0.83333817  0.40246617
   0.33333300  0.66666600  0.40247575
   0.66666600  0.33333300  0.40256662
   0.83333542  0.16666358  0.40248911
   0.66667634  0.83333817  0.40246617
   0.83333542  0.66667084  0.40248911
Direct configuration=    43
   0.66906876 -0.00022461  0.16381963
   0.33070563 -0.00022461  0.16381963
   0.00022461  0.33093024  0.16381963
   0.00022461  0.66929337  0.16381963
   0.33070563  0.33093024  0.16381963
   0.66906876  0.66929337  0.16381963
   0.66666600  0.33333300  0.16668026
   0.33333300  0.66666600  0.17249334
   0.16667170  0.33334439  0.40245872
   0.33332276  0.16666088  0.40246928
   0.16667170  0.83332730  0.40245872
   0.33333300  0.66666600  0.40246729
   0.66666600  0.33333300  0.40252397
   0.83333812  0.16666088  0.40246928
   0.66665461  0.83332730  0.40245872
   0.83333812  0.66667624  0.40246928
Direct configuration=    44
   0.66879987 -0.00026115  0.16400624
   0.33093798 -0.00026115  0.16400624
   0.00026115  0.33119913  0.16400624
   0.00026115  0.66906102  0.16400624
   0.33093798  0.33119913  0.16400624
   0.66879987  0.66906102  0.16400624
   0.66666600  0.33333300  0.16625473
   0.33333300  0.66666600  0.17206507
   0.16669343  0.33338787  0.40244384
   0.33331196  0.16665548  0.40242962
   0.16669343  0.83330557  0.40244384
   0.33333300  0.66666600  0.40245037
   0.66666600  0.33333300  0.40243867
   0.83334352  0.16665548  0.40242962
   0.66661113  0.83330557  0.40244384
   0.83334352  0.66668704  0.40242962
Direct configuration=    45
   0.66826210 -0.00033422  0.16437945
   0.33140268 -0.00033422  0.16437945
   0.00033422  0.33173690  0.16437945
   0.00033422  0.66859632  0.16437945
   0.33140268  0.33173690  0.16437945
   0.66826210  0.66859632  0.16437945
   0.66666600  0.33333300  0.16540367
   0.33333300  0.66666600  0.17120854
   0.16673691  0.33347481  0.40241407
   0.33329036  0.16664468  0.40235031
   0.16673691  0.83326209  0.40241407
   0.33333300  0.66666600  0.40241654
   0.66666600  0.33333300  0.40226807
   0.83335432  0.16664468  0.40235031
   0.66652419  0.83326209  0.40241407
   0.83335432  0.66670864  0.40235031
Direct configuration=    46
   0.66830942 -0.00031433  0.16441739
   0.33137525 -0.00031433  0.16441739
   0.00031433  0.33168958  0.16441739
   0.00031433  0.66862375  0.16441739
   0.33137525  0.33168958  0.16441739
   0.66830942  0.66862375  0.16441739
   0.66666600  0.33333300  0.16531444
   0.33333300  0.66666600  0.17112266
   0.16672705  0.33345509  0.40240936
   0.33329432  0.16664666  0.40234257
   0.16672705  0.83327195  0.40240936
   0.33333300  0.66666600  0.40241378
   0.66666600  0.33333300  0.40225567
   0.83335234  0.16664666  0.40234257
   0.66654391  0.83327195  0.40240936
   0.83335234  0.66670468  0.40234257
Direct configuration=    47
   0.66845138 -0.00025467  0.16453118
   0.33129296 -0.00025467  0.16453118
   0.00025467  0.33154762  0.16453118
   0.00025467  0.66870604  0.16453118
   0.33129296  0.33154762  0.16453118
   0.66845138  0.66870604  0.16453118
   0.66666600  0.33333300  0.16504676
   0.33333300  0.66666600  0.17086503
   0.16669746  0.33339593  0.40239526
   0.33330622  0.16665261  0.40231935
   0.16669746  0.83330154  0.40239526
   0.33333300  0.66666600  0.40240548
   0.66666600  0.33333300  0.40221847