       N       E                     dE             d eps       ncg     rms          rms(c)
DAV:   1     0.202663032209E+03    0.20266E+03   -0.25607E+04 14208   0.858E+02
DAV:   2    -0.115875393259E+03   -0.31854E+03   -0.31697E+03 20304   0.162E+02
DAV:   3    -0.129030019535E+03   -0.13155E+02   -0.13140E+02 26640   0.431E+01
DAV:   4    -0.129054505628E+03   -0.24486E-01   -0.24485E-01 20688   0.181E+00
DAV:   5    -0.129054564276E+03   -0.58648E-04   -0.58648E-04 25632   0.870E-02    0.242E+01
DAV:   6    -0.918717359000E+02    0.37183E+02   -0.73070E+01 25344   0.256E+01    0.137E+01
DAV:   7    -0.100317255836E+03   -0.84455E+01   -0.96581E+00 21744   0.998E+00    0.805E+00
DAV:   8    -0.110402384605E+03   -0.10085E+02   -0.88802E+00 23712   0.898E+00    0.431E+00
DAV:   9    -0.117160491843E+03   -0.67581E+01   -0.39255E+00 19008   0.613E+00    0.276E+00
DAV:  10    -0.123483331253E+03   -0.63228E+01   -0.81583E+00 23040   0.707E+00    0.159E+00
DAV:  11    -0.125262351172E+03   -0.17790E+01   -0.28076E+00 25872   0.383E+00    0.985E-01
DAV:  12    -0.125418402322E+03   -0.15605E+00   -0.22119E-01 20496   0.136E+00    0.462E-01
DAV:  13    -0.125445325858E+03   -0.26924E-01   -0.22568E-02 17808   0.551E-01    0.187E-01
DAV:  14    -0.125467854204E+03   -0.22528E-01   -0.59911E-03 20880   0.283E-01    0.831E-02
DAV:  15    -0.125475264717E+03   -0.74105E-02   -0.30948E-03 18960   0.157E-01    0.435E-02
DAV:  16    -0.125477209031E+03   -0.19443E-02   -0.62323E-04 17472   0.810E-02    0.218E-02
DAV:  17    -0.125478433381E+03   -0.12243E-02   -0.16466E-04 14880   0.515E-02    0.167E-02
DAV:  18    -0.125479155205E+03   -0.72182E-03   -0.81250E-05 16224   0.374E-02    0.120E-02
DAV:  19    -0.125479572966E+03   -0.41776E-03   -0.39146E-05 19344   0.243E-02    0.708E-03
DAV:  20    -0.125479630883E+03   -0.57917E-04   -0.21459E-05 22416   0.176E-02    0.432E-03
DAV:  21    -0.125479649733E+03   -0.18849E-04   -0.58514E-06 21408   0.957E-03    0.215E-03
DAV:  22    -0.125479670701E+03   -0.20969E-04   -0.21870E-06 21264   0.553E-03    0.136E-03
DAV:  23    -0.125479685121E+03   -0.14420E-04   -0.16528E-06 22272   0.397E-03    0.717E-04
DAV:  24    -0.125479688040E+03   -0.29192E-05   -0.32440E-07 23376   0.214E-03    0.374E-04
DAV:  25    -0.125479688987E+03   -0.94641E-06   -0.11494E-07 22656   0.115E-03    0.185E-04
DAV:  26    -0.125479689475E+03   -0.48839E-06   -0.27914E-08 22128   0.578E-04    0.792E-05
DAV:  27    -0.125479689678E+03   -0.20299E-06   -0.80931E-09 22752   0.254E-04    0.476E-05
DAV:  28    -0.125479689793E+03   -0.11454E-06   -0.29440E-09 21408   0.143E-04    0.155E-05
DAV:  29    -0.125479689839E+03   -0.46765E-07   -0.80192E-10 22944   0.670E-05    0.695E-06
DAV:  30    -0.125479689844E+03   -0.48612E-08   -0.79230E-11 23280   0.203E-05
   1 F= -.12706715E+03 E0= -.12706637E+03  d E =-.127067E+03  mag=     0.0000
       N       E                     dE             d eps       ncg     rms          rms(c)
DAV:   1    -0.125492114916E+03   -0.12425E-01   -0.38597E+00 14208   0.602E+00    0.529E-01
DAV:   2    -0.125481922274E+03    0.10193E-01   -0.76068E-02 25920   0.775E-01    0.233E-01
DAV:   3    -0.125480807597E+03    0.11147E-02   -0.62935E-03 22032   0.220E-01    0.913E-02
DAV:   4    -0.125480756422E+03    0.51175E-04   -0.71547E-04 26208   0.754E-02    0.239E-02
DAV:   5    -0.125480759970E+03   -0.35478E-05   -0.21612E-05 26112   0.145E-02    0.833E-03
DAV:   6    -0.125480759944E+03    0.26037E-07   -0.35512E-06 20064   0.558E-03    0.373E-03
DAV:   7    -0.125480760336E+03   -0.39242E-06   -0.61550E-07 25056   0.229E-03    0.115E-03
DAV:   8    -0.125480760814E+03   -0.47785E-06   -0.10299E-07 20928   0.104E-03    0.412E-04
DAV:   9    -0.125480761218E+03   -0.40437E-06   -0.19931E-08 22704   0.424E-04    0.177E-04
DAV:  10    -0.125480761787E+03   -0.56896E-06   -0.37770E-08 21456   0.448E-04    0.144E-04
DAV:  11    -0.125480762065E+03   -0.27834E-06   -0.11835E-08 24192   0.242E-04    0.956E-05
DAV:  12    -0.125480762275E+03   -0.20989E-06   -0.78081E-09 21936   0.162E-04    0.494E-05
DAV:  13    -0.125480762351E+03   -0.76064E-07   -0.19356E-09 24048   0.765E-05    0.289E-05
DAV:  14    -0.125480762377E+03   -0.25848E-07   -0.30115E-10 24432   0.311E-05    0.157E-05
DAV:  15    -0.125480762402E+03   -0.24554E-07   -0.55475E-10 23616   0.385E-05    0.702E-06
DAV:  16    -0.125480762408E+03   -0.59836E-08   -0.96555E-11 24240   0.188E-05
   2 F= -.12706755E+03 E0= -.12706677E+03  d E =-.405796E-03  mag=     0.0000
       N       E                     dE             d eps       ncg     rms          rms(c)
DAV:   1    -0.125491705732E+03   -0.10943E-01   -0.94603E-01 14208   0.298E+00    0.262E-01
DAV:   2    -0.125489164781E+03    0.25410E-02   -0.18647E-02 25584   0.383E-01    0.115E-01
DAV:   3    -0.125488899577E+03    0.26520E-03   -0.15195E-03 24336   0.109E-01    0.457E-02
DAV:   4    -0.125488887156E+03    0.12421E-04   -0.17068E-04 22944   0.367E-02    0.116E-02
DAV:   5    -0.125488887926E+03   -0.77042E-06   -0.59430E-06 25776   0.753E-03    0.373E-03
DAV:   6    -0.125488887956E+03   -0.29417E-07   -0.13257E-06 20112   0.329E-03    0.111E-03
DAV:   7    -0.125488888138E+03   -0.18250E-06   -0.84533E-08 24240   0.916E-04    0.488E-04
DAV:   8    -0.125488888327E+03   -0.18878E-06   -0.13470E-08 20736   0.336E-04    0.214E-04
DAV:   9    -0.125488888527E+03   -0.20023E-06   -0.64175E-09 21840   0.186E-04    0.816E-05
DAV:  10    -0.125488888798E+03   -0.27025E-06   -0.13684E-08 20208   0.214E-04    0.623E-05
DAV:  11    -0.125488888979E+03   -0.18106E-06   -0.85507E-09 22272   0.155E-04    0.402E-05
DAV:  12    -0.125488889086E+03   -0.10702E-06   -0.36631E-09 21792   0.975E-05    0.259E-05
DAV:  13    -0.125488889140E+03   -0.54461E-07   -0.10516E-09 21696   0.574E-05    0.123E-05
DAV:  14    -0.125488889159E+03   -0.18592E-07   -0.27415E-10 24720   0.284E-05    0.628E-06
DAV:  15    -0.125488889165E+03   -0.66339E-08   -0.11146E-10 23136   0.191E-05
   3 F= -.12707600E+03 E0= -.12707522E+03  d E =-.885605E-02  mag=    -0.0000
       N       E                     dE             d eps       ncg     rms          rms(c)
DAV:   1    -0.125495716887E+03   -0.68277E-02   -0.33036E-01 14208   0.202E+00    0.119E-01
DAV:   2    -0.125495777189E+03   -0.60302E-04   -0.20987E-03 26784   0.186E-01    0.695E-02
DAV:   3    -0.125495775666E+03    0.15231E-05   -0.20780E-04 20688   0.518E-02    0.175E-02
DAV:   4    -0.125495776857E+03   -0.11913E-05   -0.32849E-05 27168   0.210E-02    0.662E-03
DAV:   5    -0.125495777219E+03   -0.36240E-06   -0.12375E-06 21936   0.465E-03    0.293E-03
DAV:   6    -0.125495777177E+03    0.42333E-07   -0.78404E-07 21216   0.316E-03    0.659E-04
DAV:   7    -0.125495777341E+03   -0.16390E-06   -0.22667E-07 23616   0.162E-03    0.422E-04
DAV:   8    -0.125495777620E+03   -0.27890E-06   -0.11005E-07 22272   0.104E-03    0.182E-04
DAV:   9    -0.125495777770E+03   -0.14988E-06   -0.19138E-08 24384   0.434E-04    0.125E-04
DAV:  10    -0.125495777890E+03   -0.11991E-06   -0.52840E-09 22896   0.202E-04    0.626E-05
DAV:  11    -0.125495778039E+03   -0.14890E-06   -0.38547E-09 24336   0.131E-04    0.423E-05
DAV:  12    -0.125495778275E+03   -0.23690E-06   -0.66242E-09 20448   0.145E-04    0.229E-05
DAV:  13    -0.125495778379E+03   -0.10364E-06   -0.20047E-09 22848   0.832E-05    0.177E-05
DAV:  14    -0.125495778425E+03   -0.46314E-07   -0.77415E-10 21264   0.565E-05    0.915E-06
DAV:  15    -0.125495778434E+03   -0.83446E-08   -0.13593E-10 25152   0.235E-05
   4 F= -.12708276E+03 E0= -.12708198E+03  d E =-.675898E-02  mag=    -0.0000
       N       E                     dE             d eps       ncg     rms          rms(c)
DAV:   1    -0.125504293844E+03   -0.85154E-02   -0.27120E+00 14208   0.577E+00    0.339E-01
DAV:   2    -0.125504910372E+03   -0.61653E-03   -0.17592E-02 27936   0.537E-01    0.198E-01
DAV:   3    -0.125504883598E+03    0.26773E-04   -0.17002E-03 22080   0.147E-01    0.495E-02
DAV:   4    -0.125504894453E+03   -0.10855E-04   -0.25829E-04 27744   0.587E-02    0.190E-02
DAV:   5    -0.125504898258E+03   -0.38050E-05   -0.89436E-06 22848   0.126E-02    0.830E-03
DAV:   6    -0.125504898134E+03    0.12378E-06   -0.56378E-06 24480   0.839E-03    0.178E-03
DAV:   7    -0.125504898806E+03   -0.67174E-06   -0.13249E-06 22368   0.395E-03    0.107E-03
DAV:   8    -0.125504899656E+03   -0.85050E-06   -0.67996E-07 23232   0.256E-03    0.448E-04
DAV:   9    -0.125504900291E+03   -0.63455E-06   -0.13798E-07 23712   0.116E-03    0.281E-04
DAV:  10    -0.125504900756E+03   -0.46548E-06   -0.31773E-08 25632   0.494E-04    0.168E-04
DAV:  11    -0.125504901228E+03   -0.47198E-06   -0.18159E-08 23808   0.292E-04    0.107E-04
DAV:  12    -0.125504901658E+03   -0.43005E-06   -0.16971E-08 24672   0.242E-04    0.545E-05
DAV:  13    -0.125504901908E+03   -0.24963E-06   -0.75783E-09 22992   0.158E-04    0.422E-05
DAV:  14    -0.125504902090E+03   -0.18170E-06   -0.47552E-09 22944   0.137E-04    0.233E-05
DAV:  15    -0.125504902165E+03   -0.75778E-07   -0.16653E-09 21072   0.821E-05    0.103E-05
DAV:  16    -0.125504902174E+03   -0.81545E-08   -0.14534E-10 26400   0.284E-05
   5 F= -.12709150E+03 E0= -.12709071E+03  d E =-.154927E-01  mag=    -0.0000
       N       E                     dE             d eps       ncg     rms          rms(c)
DAV:   1    -0.125507089482E+03   -0.21873E-02   -0.34501E-02 14208   0.696E-01    0.404E-02
DAV:   2    -0.125507092415E+03   -0.29324E-05   -0.28061E-04 28416   0.718E-02    0.226E-02
DAV:   3    -0.125507090679E+03    0.17362E-05   -0.26946E-05 19584   0.196E-02    0.684E-03
DAV:   4    -0.125507090995E+03   -0.31604E-06   -0.46228E-06 22752   0.786E-03    0.275E-03
DAV:   5    -0.125507091142E+03   -0.14725E-06   -0.18413E-07 21792   0.176E-03    0.111E-03
DAV:   6    -0.125507091138E+03    0.42364E-08   -0.79938E-08 23088   0.108E-03
   6 F= -.12709365E+03 E0= -.12709287E+03  d E =-.215457E-02  mag=    -0.0000
       N       E                     dE             d eps       ncg     rms          rms(c)
DAV:   1    -0.125512074511E+03   -0.49834E-02   -0.31116E-01 14208   0.209E+00    0.121E-01
DAV:   2    -0.125512106005E+03   -0.31494E-04   -0.25230E-03 27216   0.215E-01    0.676E-02
DAV:   3    -0.125512086603E+03    0.19402E-04   -0.24686E-04 20832   0.593E-02    0.205E-02
DAV:   4    -0.125512088138E+03   -0.15351E-05   -0.41225E-05 25200   0.234E-02    0.826E-03
DAV:   5    -0.125512088971E+03   -0.83341E-06   -0.14175E-06 20880   0.501E-03    0.334E-03
DAV:   6    -0.125512088803E+03    0.16871E-06   -0.77943E-07 22368   0.338E-03    0.674E-04
DAV:   7    -0.125512088723E+03    0.79283E-07   -0.16603E-07 21648   0.148E-03    0.425E-04
DAV:   8    -0.125512088690E+03    0.33053E-07   -0.64672E-08 21792   0.837E-04    0.245E-04
DAV:   9    -0.125512088707E+03   -0.17171E-07   -0.21251E-08 24480   0.477E-04    0.125E-04
DAV:  10    -0.125512088789E+03   -0.81932E-07   -0.66467E-09 22128   0.265E-04    0.624E-05
DAV:  11    -0.125512088901E+03   -0.11124E-06   -0.37751E-09 20832   0.155E-04    0.419E-05
DAV:  12    -0.125512088973E+03   -0.72112E-07   -0.16903E-09 22032   0.831E-05    0.212E-05
DAV:  13    -0.125512089013E+03   -0.39878E-07   -0.72502E-10 21408   0.522E-05    0.144E-05
DAV:  14    -0.125512089031E+03   -0.18878E-07   -0.39844E-10 22368   0.361E-05    0.838E-06
DAV:  15    -0.125512089036E+03   -0.44547E-08   -0.92824E-11 23808   0.188E-05
   7 F= -.12709854E+03 E0= -.12709775E+03  d E =-.704014E-02  mag=     0.0000
       N       E                     dE             d eps       ncg     rms          rms(c)
DAV:   1    -0.125515042418E+03   -0.29534E-02   -0.12487E+00 14208   0.418E+00    0.241E-01
DAV:   2    -0.125515191930E+03   -0.14951E-03   -0.10305E-02 27936   0.434E-01    0.135E-01
DAV:   3    -0.125515111106E+03    0.80824E-04   -0.97413E-04 21408   0.118E-01    0.410E-02
DAV:   4    -0.125515116904E+03   -0.57979E-05   -0.16256E-04 26208   0.464E-02    0.164E-02
DAV:   5    -0.125515120319E+03   -0.34150E-05   -0.51223E-06 21216   0.960E-03    0.664E-03
DAV:   6    -0.125515119760E+03    0.55816E-06   -0.29213E-06 22560   0.653E-03    0.130E-03
DAV:   7    -0.125515119573E+03    0.18711E-06   -0.56062E-07 21888   0.273E-03    0.761E-04
DAV:   8    -0.125515119466E+03    0.10714E-06   -0.28828E-07 22944   0.174E-03    0.283E-04
DAV:   9    -0.125515119498E+03   -0.31952E-07   -0.53704E-08 24144   0.776E-04    0.185E-04
DAV:  10    -0.125515119583E+03   -0.84851E-07   -0.12455E-08 23568   0.349E-04    0.122E-04
DAV:  11    -0.125515119691E+03   -0.10809E-06   -0.50769E-09 20976   0.189E-04    0.737E-05
DAV:  12    -0.125515119885E+03   -0.19348E-06   -0.62066E-09 18912   0.146E-04    0.294E-05
DAV:  13    -0.125515119973E+03   -0.88414E-07   -0.25491E-09 22608   0.824E-05    0.222E-05
DAV:  14    -0.125515120010E+03   -0.37050E-07   -0.95445E-10 20160   0.552E-05    0.129E-05
DAV:  15    -0.125515120018E+03   -0.76379E-08   -0.18664E-10 25632   0.261E-05
   8 F= -.12710130E+03 E0= -.12710054E+03  d E =-.980612E-02  mag=    -0.0000
       N       E                     dE             d eps       ncg     rms          rms(c)
DAV:   1    -0.125515247494E+03   -0.12748E-03   -0.50412E-02 14208   0.839E-01    0.483E-02
DAV:   2    -0.125515252732E+03   -0.52383E-05   -0.42149E-04 27072   0.877E-02    0.271E-02
DAV:   3    -0.125515250069E+03    0.26632E-05   -0.39661E-05 18720   0.239E-02    0.830E-03
DAV:   4    -0.125515250463E+03   -0.39419E-06   -0.68640E-06 26592   0.953E-03    0.333E-03
DAV:   5    -0.125515250616E+03   -0.15329E-06   -0.20217E-07 20976   0.189E-03    0.133E-03
DAV:   6    -0.125515250586E+03    0.30817E-07   -0.11054E-07 24192   0.126E-03    0.263E-04
DAV:   7    -0.125515250578E+03    0.71732E-08   -0.19601E-08 22032   0.517E-04
   9 F= -.12710149E+03 E0= -.12710072E+03  d E =-.999422E-02  mag=    -0.0000
       N       E                     dE             d eps       ncg     rms          rms(c)
DAV:   1    -0.125517104605E+03   -0.18540E-02   -0.65398E-02 14208   0.856E-01    0.483E-02
DAV:   2    -0.125517115549E+03   -0.10943E-04   -0.34945E-04 28128   0.692E-02    0.288E-02
DAV:   3    -0.125517113761E+03    0.17880E-05   -0.42909E-05 17376   0.205E-02    0.464E-03
DAV:   4    -0.125517113997E+03   -0.23607E-06   -0.30404E-06 21120   0.661E-03    0.235E-03
DAV:   5    -0.125517113841E+03    0.15612E-06   -0.38102E-07 22656   0.231E-03    0.727E-04
DAV:   6    -0.125517113754E+03    0.86253E-07   -0.11473E-07 25824   0.117E-03    0.327E-04
DAV:   7    -0.125517113744E+03    0.10580E-07   -0.42746E-08 22320   0.637E-04    0.259E-04
DAV:   8    -0.125517113781E+03   -0.36605E-07   -0.40189E-08 22896   0.584E-04    0.139E-04
DAV:   9    -0.125517113860E+03   -0.79617E-07   -0.80737E-09 19872   0.271E-04    0.696E-05
DAV:  10    -0.125517113950E+03   -0.89873E-07   -0.41864E-09 21024   0.155E-04    0.384E-05
DAV:  11    -0.125517114014E+03   -0.64008E-07   -0.19779E-09 20544   0.828E-05    0.214E-05
DAV:  12    -0.125517114041E+03   -0.26551E-07   -0.69418E-10 22416   0.512E-05    0.141E-05
DAV:  13    -0.125517114053E+03   -0.12828E-07   -0.37676E-10 20928   0.356E-05    0.822E-06
DAV:  14    -0.125517114058E+03   -0.47912E-08   -0.18023E-10 22848   0.243E-05
  10 F= -.12710325E+03 E0= -.12710247E+03  d E =-.175625E-02  mag=    -0.0000
       N       E                     dE             d eps       ncg     rms          rms(c)
DAV:   1    -0.125521289284E+03   -0.41752E-02   -0.58917E-01 14208   0.257E+00    0.144E-01
DAV:   2    -0.125521401392E+03   -0.11211E-03   -0.30690E-03 27936   0.206E-01    0.860E-02
DAV:   3    -0.125521377588E+03    0.23804E-04   -0.39674E-04 20640   0.619E-02    0.132E-02
DAV:   4    -0.125521378137E+03   -0.54915E-06   -0.24868E-05 22368   0.194E-02    0.701E-03
DAV:   5    -0.125521376810E+03    0.13268E-05   -0.31994E-06 21504   0.679E-03    0.214E-03
DAV:   6    -0.125521376184E+03    0.62648E-06   -0.10322E-06 26016   0.354E-03    0.890E-04
DAV:   7    -0.125521376292E+03   -0.10812E-06   -0.92521E-07 22128   0.287E-03    0.528E-04
DAV:   8    -0.125521376921E+03   -0.62903E-06   -0.16397E-07 18384   0.126E-03    0.297E-04
DAV:   9    -0.125521377750E+03   -0.82957E-06   -0.71780E-08 19008   0.776E-04    0.172E-04
DAV:  10    -0.125521378074E+03   -0.32340E-06   -0.11320E-08 24048   0.332E-04    0.112E-04
DAV:  11    -0.125521378537E+03   -0.46296E-06   -0.17111E-08 18096   0.231E-04    0.522E-05
DAV:  12    -0.125521378697E+03   -0.16048E-06   -0.45210E-09 22896   0.123E-04    0.340E-05
DAV:  13    -0.125521378777E+03   -0.79528E-07   -0.31706E-09 20208   0.110E-04    0.193E-05
DAV:  14    -0.125521378791E+03   -0.14428E-07   -0.53012E-10 25872   0.750E-05    0.102E-05
DAV:  15    -0.125521378796E+03   -0.50641E-08   -0.14339E-10 21792   0.401E-05
  11 F= -.12710719E+03 E0= -.12710641E+03  d E =-.570321E-02  mag=    -0.0000
       N       E                     dE             d eps       ncg     rms          rms(c)
DAV:   1    -0.125524067611E+03   -0.26888E-02   -0.23575E+00 14208   0.514E+00    0.284E-01
DAV:   2    -0.125524577408E+03   -0.50980E-03   -0.11969E-02 26784   0.410E-01    0.171E-01
DAV:   3    -0.125524485937E+03    0.91471E-04   -0.16287E-03 21120   0.126E-01    0.245E-02
DAV:   4    -0.125524484942E+03    0.99453E-06   -0.97383E-05 22944   0.388E-02    0.139E-02
DAV:   5    -0.125524480423E+03    0.45193E-05   -0.12144E-05 22368   0.135E-02    0.422E-03
DAV:   6    -0.125524478689E+03    0.17339E-05   -0.36048E-06 25536   0.681E-03    0.172E-03
DAV:   7    -0.125524479442E+03   -0.75283E-06   -0.34475E-06 22080   0.563E-03    0.100E-03
DAV:   8    -0.125524481633E+03   -0.21911E-05   -0.55530E-07 18720   0.237E-03    0.600E-04
DAV:   9    -0.125524484350E+03   -0.27169E-05   -0.25040E-07 18336   0.148E-03    0.386E-04
DAV:  10    -0.125524485492E+03   -0.11429E-05   -0.46496E-08 23040   0.624E-04    0.224E-04
DAV:  11    -0.125524487137E+03   -0.16449E-05   -0.66982E-08 19200   0.445E-04    0.102E-04
DAV:  12    -0.125524487628E+03   -0.49113E-06   -0.12783E-08 22944   0.231E-04    0.703E-05
DAV:  13    -0.125524487899E+03   -0.27085E-06   -0.95777E-09 20544   0.215E-04    0.411E-05
DAV:  14    -0.125524487967E+03   -0.67333E-07   -0.23836E-09 23760   0.148E-04    0.204E-05
DAV:  15    -0.125524487989E+03   -0.22612E-07   -0.58659E-10 22032   0.779E-05    0.119E-05
DAV:  16    -0.125524487998E+03   -0.92341E-08   -0.21627E-10 24000   0.571E-05
  12 F= -.12710968E+03 E0= -.12710894E+03  d E =-.819403E-02  mag=     0.0000
       N       E                     dE             d eps       ncg     rms          rms(c)
DAV:   1    -0.125526343888E+03   -0.18559E-02   -0.10727E-01 14208   0.118E+00    0.620E-02
DAV:   2    -0.125526365192E+03   -0.21304E-04   -0.64846E-04 27024   0.103E-01    0.372E-02
DAV:   3    -0.125526359632E+03    0.55605E-05   -0.81379E-05 17664   0.316E-02    0.717E-03
DAV:   4    -0.125526359781E+03   -0.14966E-06   -0.87523E-06 22512   0.115E-02    0.362E-03
DAV:   5    -0.125526359724E+03    0.57204E-07   -0.42037E-07 22608   0.271E-03    0.154E-03
DAV:   6    -0.125526359569E+03    0.15564E-06   -0.20999E-07 23904   0.172E-03    0.355E-04
DAV:   7    -0.125526359603E+03   -0.33981E-07   -0.86607E-08 22992   0.985E-04    0.269E-04
DAV:   8    -0.125526359783E+03   -0.18058E-06   -0.64304E-08 20016   0.763E-04    0.143E-04
DAV:   9    -0.125526359937E+03   -0.15421E-06   -0.13169E-08 21840   0.373E-04    0.106E-04
DAV:  10    -0.125526360073E+03   -0.13576E-06   -0.48276E-09 21168   0.194E-04    0.550E-05
DAV:  11    -0.125526360204E+03   -0.13098E-06   -0.36209E-09 21552   0.109E-04    0.282E-05
DAV:  12    -0.125526360273E+03   -0.68652E-07   -0.18803E-09 21168   0.842E-05    0.170E-05
DAV:  13    -0.125526360295E+03   -0.22334E-07   -0.59266E-10 22848   0.673E-05    0.125E-05
DAV:  14    -0.125526360305E+03   -0.98644E-08   -0.31748E-10 21504   0.455E-05
  13 F= -.12711143E+03 E0= -.12711067E+03  d E =-.174657E-02  mag=     0.0000
       N       E                     dE             d eps       ncg     rms          rms(c)
DAV:   1    -0.125528854715E+03   -0.24944E-02   -0.94772E-01 14208   0.350E+00    0.184E-01
DAV:   2    -0.125529056356E+03   -0.20164E-03   -0.56335E-03 25440   0.306E-01    0.110E-01
DAV:   3    -0.125528999031E+03    0.57324E-04   -0.73416E-04 21216   0.947E-02    0.210E-02
DAV:   4    -0.125528998715E+03    0.31612E-06   -0.76022E-05 23376   0.339E-02    0.107E-02
DAV:   5    -0.125528998441E+03    0.27447E-06   -0.34358E-06 22944   0.789E-03    0.463E-03
DAV:   6    -0.125528997531E+03    0.90991E-06   -0.18407E-06 24096   0.515E-03    0.103E-03
DAV:   7    -0.125528997942E+03   -0.41079E-06   -0.74997E-07 22944   0.290E-03    0.770E-04
DAV:   8    -0.125528999299E+03   -0.13573E-05   -0.53078E-07 19872   0.220E-03    0.376E-04
DAV:   9    -0.125529000551E+03   -0.12526E-05   -0.12784E-07 22080   0.109E-03    0.268E-04
DAV:  10    -0.125529001229E+03   -0.67752E-06   -0.23077E-08 21600   0.416E-04    0.165E-04
DAV:  11    -0.125529002004E+03   -0.77526E-06   -0.22327E-08 20496   0.258E-04    0.788E-05
DAV:  12    -0.125529002414E+03   -0.40929E-06   -0.11015E-08 20976   0.175E-04    0.463E-05
DAV:  13    -0.125529002576E+03   -0.16213E-06   -0.44138E-09 21600   0.131E-04    0.314E-05
DAV:  14    -0.125529002622E+03   -0.46470E-07   -0.12793E-09 22848   0.936E-05    0.142E-05
DAV:  15    -0.125529002636E+03   -0.13430E-07   -0.28086E-10 22944   0.501E-05    0.883E-06
DAV:  16    -0.125529002640E+03   -0.45975E-08   -0.87155E-11 24192   0.350E-05
  14 F= -.12711370E+03 E0= -.12711292E+03  d E =-.401370E-02  mag=    -0.0000
       N       E                     dE             d eps       ncg     rms          rms(c)
DAV:   1    -0.125529013668E+03   -0.11032E-04   -0.62861E-04 14400   0.901E-02    0.471E-03
DAV:   2    -0.125529013787E+03   -0.11916E-06   -0.39663E-06 24960   0.808E-03    0.285E-03
DAV:   3    -0.125529013796E+03   -0.90158E-08   -0.48784E-07 20544   0.246E-03    0.550E-04
DAV:   4    -0.125529013797E+03   -0.81673E-09   -0.51324E-08 24720   0.875E-04
  15 F= -.12711370E+03 E0= -.12711292E+03  d E =-.401516E-02  mag=    -0.0000
       N       E                     dE             d eps       ncg     rms          rms(c)
DAV:   1    -0.125529222605E+03   -0.20881E-03   -0.31034E-03 17088   0.236E-01    0.137E-02
DAV:   2    -0.125529219912E+03    0.26927E-05   -0.39282E-05 21600   0.263E-02    0.700E-03
DAV:   3    -0.125529219196E+03    0.71610E-06   -0.48517E-06 21456   0.856E-03    0.235E-03
DAV:   4    -0.125529219211E+03   -0.14769E-07   -0.60979E-07 18720   0.292E-03    0.106E-03
DAV:   5    -0.125529219233E+03   -0.22169E-07   -0.34079E-08 21888   0.757E-04    0.370E-04
DAV:   6    -0.125529219235E+03   -0.21128E-08   -0.71325E-09 22848   0.332E-04
  16 F= -.12711389E+03 E0= -.12711311E+03  d E =-.191080E-03  mag=     0.0000
       N       E                     dE             d eps       ncg     rms          rms(c)
DAV:   1    -0.125529462999E+03   -0.24377E-03   -0.17675E-02 17184   0.562E-01    0.328E-02
DAV:   2    -0.125529447682E+03    0.15316E-04   -0.22304E-04 24960   0.626E-02    0.166E-02
DAV:   3    -0.125529443276E+03    0.44067E-05   -0.25510E-05 22896   0.196E-02    0.555E-03
DAV:   4    -0.125529443305E+03   -0.28829E-07   -0.32929E-06 20832   0.683E-03    0.246E-03
DAV:   5    -0.125529443402E+03   -0.97290E-07   -0.16656E-07 20304   0.169E-03    0.874E-04
DAV:   6    -0.125529443398E+03    0.37453E-08   -0.39636E-08 22944   0.784E-04
  17 F= -.12711408E+03 E0= -.12711330E+03  d E =-.379770E-03  mag=     0.0000
       N       E                     dE             d eps       ncg     rms          rms(c)
DAV:   1    -0.125529598369E+03   -0.15497E-03   -0.32454E-03 14208   0.228E-01    0.112E-02
DAV:   2    -0.125529596993E+03    0.13760E-05   -0.27011E-05 23088   0.209E-02    0.612E-03
DAV:   3    -0.125529596593E+03    0.40077E-06   -0.28729E-06 22080   0.629E-03    0.203E-03
DAV:   4    -0.125529596636E+03   -0.43237E-07   -0.32908E-07 21072   0.223E-03    0.726E-04
DAV:   5    -0.125529596631E+03    0.43683E-08   -0.18062E-08 21552   0.582E-04
  18 F= -.12711422E+03 E0= -.12711343E+03  d E =-.138010E-03  mag=     0.0000
       N       E                     dE             d eps       ncg     rms          rms(c)
DAV:   1    -0.125529768263E+03   -0.17163E-03   -0.16695E-02 14208   0.517E-01    0.255E-02
DAV:   2    -0.125529761558E+03    0.67058E-05   -0.13898E-04 18816   0.475E-02    0.139E-02
DAV:   3    -0.125529759346E+03    0.22116E-05   -0.15385E-05 23808   0.146E-02    0.460E-03
DAV:   4    -0.125529759450E+03   -0.10444E-06   -0.17233E-06 20592   0.506E-03    0.166E-03
DAV:   5    -0.125529759387E+03    0.63132E-07   -0.94833E-08 20976   0.133E-03    0.544E-04
DAV:   6    -0.125529759356E+03    0.31086E-07   -0.29493E-08 23568   0.775E-04    0.173E-04
DAV:   7    -0.125529759393E+03   -0.36296E-07   -0.21075E-08 19488   0.651E-04    0.126E-04
DAV:   8    -0.125529759476E+03   -0.83928E-07   -0.17368E-08 18816   0.578E-04    0.958E-05
DAV:   9    -0.125529759594E+03   -0.11741E-06   -0.11621E-08 19200   0.383E-04    0.455E-05
DAV:  10    -0.125529759677E+03   -0.83053E-07   -0.37530E-09 20880   0.168E-04    0.253E-05
DAV:  11    -0.125529759749E+03   -0.71804E-07   -0.17493E-09 20448   0.107E-04    0.171E-05
DAV:  12    -0.125529759795E+03   -0.46651E-07   -0.91725E-10 20736   0.780E-05    0.972E-06
DAV:  13    -0.125529759816E+03   -0.21037E-07   -0.47864E-10 21312   0.402E-05    0.484E-06
DAV:  14    -0.125529759821E+03   -0.48121E-08   -0.10994E-10 22512   0.212E-05
  19 F= -.12711435E+03 E0= -.12711356E+03  d E =-.266641E-03  mag=    -0.0000
       N       E                     dE             d eps       ncg     rms          rms(c)
DAV:   1    -0.125529836554E+03   -0.76737E-04   -0.27661E-03 14496   0.210E-01    0.118E-02
DAV:   2    -0.125529834186E+03    0.23679E-05   -0.37478E-05 24000   0.239E-02    0.629E-03
DAV:   3    -0.125529833565E+03    0.62091E-06   -0.39529E-06 20928   0.732E-03    0.205E-03
DAV:   4    -0.125529833586E+03   -0.21176E-07   -0.50668E-07 20736   0.263E-03    0.821E-04
DAV:   5    -0.125529833593E+03   -0.71577E-08   -0.24957E-08 22656   0.653E-04
  20 F= -.12711440E+03 E0= -.12711362E+03  d E =-.577176E-04  mag=     0.0000
       N       E                     dE             d eps       ncg     rms          rms(c)
DAV:   1    -0.125529858583E+03   -0.24997E-04   -0.13962E-03 14688   0.149E-01    0.838E-03
DAV:   2    -0.125529857406E+03    0.11765E-05   -0.19011E-05 22464   0.170E-02    0.447E-03
DAV:   3    -0.125529857106E+03    0.30041E-06   -0.20608E-06 19872   0.528E-03    0.147E-03
DAV:   4    -0.125529857115E+03   -0.87466E-08   -0.26333E-07 21312   0.189E-03    0.600E-04
DAV:   5    -0.125529857116E+03   -0.18454E-08   -0.13382E-08 23616   0.479E-04
  21 F= -.12711441E+03 E0= -.12711363E+03  d E =-.698099E-04  mag=     0.0000
       N       E                     dE             d eps       ncg     rms          rms(c)
DAV:   1    -0.125529918720E+03   -0.61606E-04   -0.17708E-03 14784   0.174E-01    0.897E-03
DAV:   2    -0.125529917768E+03    0.95220E-06   -0.20483E-05 19872   0.183E-02    0.479E-03
DAV:   3    -0.125529917531E+03    0.23752E-06   -0.20661E-06 24240   0.544E-03    0.170E-03
DAV:   4    -0.125529917564E+03   -0.32865E-07   -0.24277E-07 16512   0.187E-03    0.633E-04
DAV:   5    -0.125529917583E+03   -0.19138E-07   -0.16435E-08 20928   0.528E-04    0.217E-04
DAV:   6    -0.125529917589E+03   -0.58844E-08   -0.25162E-09 22608   0.205E-04
  22 F= -.12711444E+03 E0= -.12711366E+03  d E =-.297224E-04  mag=    -0.0000
       N       E                     dE             d eps       ncg     rms          rms(c)
DAV:   1    -0.125529941303E+03   -0.23721E-04   -0.63542E-04 15072   0.104E-01    0.537E-03
DAV:   2    -0.125529940943E+03    0.36063E-06   -0.73144E-06 21792   0.109E-02    0.287E-03
DAV:   3    -0.125529940870E+03    0.72208E-07   -0.70868E-07 23568   0.319E-03    0.101E-03
DAV:   4    -0.125529940887E+03   -0.17002E-07   -0.86638E-08 18576   0.112E-03    0.370E-04
DAV:   5    -0.125529940894E+03   -0.68985E-08   -0.53863E-09 23520   0.304E-04
  23 F= -.12711445E+03 E0= -.12711367E+03  d E =-.345937E-04  mag=     0.0000
       N       E                     dE             d eps       ncg     rms          rms(c)
DAV:   1    -0.125530026414E+03   -0.85526E-04   -0.16259E-03 14208   0.159E-01    0.770E-03
DAV:   2    -0.125530026408E+03    0.53624E-08   -0.14489E-05 19728   0.157E-02    0.447E-03
DAV:   3    -0.125530026304E+03    0.10412E-06   -0.12817E-06 23088   0.422E-03    0.131E-03
DAV:   4    -0.125530026333E+03   -0.28221E-07   -0.14782E-07 23616   0.142E-03    0.488E-04
DAV:   5    -0.125530026338E+03   -0.58662E-08   -0.65929E-09 23568   0.319E-04
  24 F= -.12711448E+03 E0= -.12711370E+03  d E =-.294202E-04  mag=     0.0000
       N       E                     dE             d eps       ncg     rms          rms(c)
DAV:   1    -0.125530173470E+03   -0.14714E-03   -0.75593E-03 14208   0.343E-01    0.166E-02
DAV:   2    -0.125530173584E+03   -0.11438E-06   -0.67664E-05 25344   0.338E-02    0.963E-03
DAV:   3    -0.125530172834E+03    0.74977E-06   -0.53616E-06 24432   0.853E-03    0.279E-03
DAV:   4    -0.125530172935E+03   -0.10092E-06   -0.63207E-07 23808   0.298E-03    0.101E-03
DAV:   5    -0.125530172954E+03   -0.18207E-07   -0.31588E-08 23376   0.676E-04    0.358E-04
DAV:   6    -0.125530172955E+03   -0.11769E-08   -0.93727E-09 23712   0.384E-04
  25 F= -.12711450E+03 E0= -.12711372E+03  d E =-.552406E-04  mag=     0.0000
       N       E                     dE             d eps       ncg     rms          rms(c)
DAV:   1    -0.125530248205E+03   -0.75251E-04   -0.12239E-03 14208   0.140E-01    0.660E-03
DAV:   2    -0.125530248221E+03   -0.16333E-07   -0.11225E-05 17328   0.143E-02    0.395E-03
DAV:   3    -0.125530248134E+03    0.87297E-07   -0.13077E-06 19872   0.435E-03    0.113E-03
DAV:   4    -0.125530248143E+03   -0.95297E-08   -0.18084E-07 21024   0.157E-03    0.570E-04
DAV:   5    -0.125530248155E+03   -0.12286E-07   -0.92989E-09 21504   0.391E-04    0.202E-04
DAV:   6    -0.125530248165E+03   -0.95552E-08   -0.29733E-09 23424   0.212E-04
  26 F= -.12711453E+03 E0= -.12711375E+03  d E =-.225132E-04  mag=     0.0000
       N       E                     dE             d eps       ncg     rms          rms(c)
DAV:   1    -0.125530406917E+03   -0.15876E-03   -0.79388E-03 14208   0.357E-01    0.168E-02
DAV:   2    -0.125530407238E+03   -0.32153E-06   -0.73286E-05 25584   0.363E-02    0.101E-02
DAV:   3    -0.125530406429E+03    0.80921E-06   -0.74284E-06 22512   0.102E-02    0.273E-03
DAV:   4    -0.125530406457E+03   -0.28253E-07   -0.10564E-06 22320   0.381E-03    0.135E-03
DAV:   5    -0.125530406482E+03   -0.25128E-07   -0.48224E-08 22176   0.888E-04    0.515E-04
DAV:   6    -0.125530406488E+03   -0.57544E-08   -0.16516E-08 22656   0.462E-04
  27 F= -.12711455E+03 E0= -.12711377E+03  d E =-.465090E-04  mag=     0.0000
       N       E                     dE             d eps       ncg     rms          rms(c)
DAV:   1    -0.125530516392E+03   -0.10991E-03   -0.22767E-03 14208   0.188E-01    0.857E-03
DAV:   2    -0.125530516853E+03   -0.46115E-06   -0.18526E-05 17088   0.180E-02    0.527E-03
DAV:   3    -0.125530516843E+03    0.10466E-07   -0.13889E-06 17520   0.438E-03    0.130E-03
DAV:   4    -0.125530516889E+03   -0.45736E-07   -0.18002E-07 20640   0.156E-03    0.474E-04
DAV:   5    -0.125530516904E+03   -0.15563E-07   -0.15340E-08 22272   0.491E-04    0.183E-04
DAV:   6    -0.125530516918E+03   -0.13770E-07   -0.53153E-09 22752   0.331E-04    0.957E-05
DAV:   7    -0.125530516929E+03   -0.11426E-07   -0.17315E-09 22704   0.186E-04    0.473E-05
DAV:   8    -0.125530516962E+03   -0.32222E-07   -0.28913E-09 18816   0.163E-04    0.332E-05
DAV:   9    -0.125530516983E+03   -0.20968E-07   -0.84137E-10 21168   0.926E-05    0.201E-05
DAV:  10    -0.125530516999E+03   -0.16875E-07   -0.59465E-10 21024   0.855E-05    0.128E-05
DAV:  11    -0.125530517007E+03   -0.74388E-08   -0.20561E-10 23952   0.571E-05
  28 F= -.12711458E+03 E0= -.12711380E+03  d E =-.311150E-04  mag=    -0.0000
       N       E                     dE             d eps       ncg     rms          rms(c)
DAV:   1    -0.125530810763E+03   -0.29376E-03   -0.20484E-02 14208   0.564E-01    0.257E-02
DAV:   2    -0.125530816333E+03   -0.55698E-05   -0.16955E-04 20448   0.539E-02    0.159E-02
DAV:   3    -0.125530815466E+03    0.86642E-06   -0.11733E-05 26400   0.123E-02    0.386E-03
DAV:   4    -0.125530815651E+03   -0.18510E-06   -0.12684E-06 23664   0.422E-03    0.135E-03
DAV:   5    -0.125530815647E+03    0.43874E-08   -0.10659E-07 24000   0.114E-03    0.462E-04
DAV:   6    -0.125530815627E+03    0.19962E-07   -0.25533E-08 23856   0.576E-04    0.153E-04
DAV:   7    -0.125530815631E+03   -0.42592E-08   -0.11540E-08 19536   0.368E-04
  29 F= -.12711464E+03 E0= -.12711386E+03  d E =-.916749E-04  mag=    -0.0000
       N       E                     dE             d eps       ncg     rms          rms(c)
DAV:   1    -0.125531244236E+03   -0.42861E-03   -0.81956E-02 14208   0.113E+00    0.515E-02
DAV:   2    -0.125531267339E+03   -0.23103E-04   -0.66832E-04 24960   0.107E-01    0.318E-02
DAV:   3    -0.125531261822E+03    0.55167E-05   -0.44437E-05 26448   0.235E-02    0.754E-03
DAV:   4    -0.125531262369E+03   -0.54712E-06   -0.49238E-06 25440   0.835E-03    0.263E-03
DAV:   5    -0.125531262343E+03    0.26573E-07   -0.44174E-07 24192   0.231E-03    0.905E-04
DAV:   6    -0.125531262314E+03    0.28699E-07   -0.10648E-07 24192   0.122E-03    0.315E-04
DAV:   7    -0.125531262391E+03   -0.77340E-07   -0.56446E-08 18000   0.954E-04    0.196E-04
DAV:   8    -0.125531262504E+03   -0.11238E-06   -0.37246E-08 24912   0.850E-04    0.150E-04
DAV:   9    -0.125531262647E+03   -0.14319E-06   -0.18294E-08 19728   0.568E-04    0.829E-05
DAV:  10    -0.125531262812E+03   -0.16503E-06   -0.85762E-09 20592   0.302E-04    0.450E-05
DAV:  11    -0.125531262929E+03   -0.11669E-06   -0.31101E-09 21024   0.175E-04    0.291E-05
DAV:  12    -0.125531262994E+03   -0.65146E-07   -0.18533E-09 22128   0.151E-04    0.181E-05
DAV:  13    -0.125531263028E+03   -0.33733E-07   -0.72383E-10 20544   0.774E-05    0.108E-05
DAV:  14    -0.125531263042E+03   -0.14256E-07   -0.29896E-10 21696   0.371E-05    0.550E-06
DAV:  15    -0.125531263044E+03   -0.25148E-08   -0.44248E-11 23088   0.184E-05
  30 F= -.12711461E+03 E0= -.12711383E+03  d E =-.636549E-04  mag=     0.0000
       N       E                     dE             d eps       ncg     rms          rms(c)
DAV:   1    -0.125530991558E+03    0.27148E-03   -0.33619E-02 14208   0.723E-01    0.330E-02
DAV:   2    -0.125531001124E+03   -0.95660E-05   -0.27810E-04 25920   0.688E-02    0.204E-02
DAV:   3    -0.125530999195E+03    0.19293E-05   -0.17947E-05 21792   0.150E-02    0.491E-03
DAV:   4    -0.125530999411E+03   -0.21609E-06   -0.22099E-06 24720   0.549E-03    0.168E-03
DAV:   5    -0.125530999352E+03    0.58472E-07   -0.19176E-07 21552   0.151E-03    0.575E-04
DAV:   6    -0.125530999303E+03    0.49446E-07   -0.40864E-08 26352   0.737E-04    0.197E-04
DAV:   7    -0.125530999320E+03   -0.17302E-07   -0.17647E-08 19152   0.442E-04    0.115E-04
DAV:   8    -0.125530999380E+03   -0.60179E-07   -0.65336E-09 21456   0.248E-04    0.870E-05
DAV:   9    -0.125530999460E+03   -0.80126E-07   -0.37632E-09 19824   0.159E-04    0.513E-05
DAV:  10    -0.125530999549E+03   -0.88478E-07   -0.31393E-09 19632   0.119E-04    0.273E-05
DAV:  11    -0.125530999636E+03   -0.87247E-07   -0.21218E-09 19344   0.751E-05    0.148E-05
DAV:  12    -0.125530999711E+03   -0.74860E-07   -0.16101E-09 20736   0.694E-05    0.932E-06
DAV:  13    -0.125530999728E+03   -0.17090E-07   -0.24663E-10 22512   0.334E-05    0.633E-06
DAV:  14    -0.125530999734E+03   -0.64329E-08   -0.13072E-10 21504   0.241E-05
  31 F= -.12711466E+03 E0= -.12711387E+03  d E =-.104767E-03  mag=    -0.0000
       N       E                     dE             d eps       ncg     rms          rms(c)
DAV:   1    -0.125531198987E+03   -0.19926E-03   -0.89630E-03 14208   0.381E-01    0.176E-02
DAV:   2    -0.125531201949E+03   -0.29619E-05   -0.84834E-05 23472   0.388E-02    0.111E-02
DAV:   3    -0.125531201395E+03    0.55400E-06   -0.65552E-06 24672   0.959E-03    0.233E-03
DAV:   4    -0.125531201486E+03   -0.91102E-07   -0.71364E-07 17088   0.315E-03    0.950E-04
DAV:   5    -0.125531201506E+03   -0.20294E-07   -0.65684E-08 25440   0.902E-04    0.312E-04
DAV:   6    -0.125531201505E+03    0.13888E-08   -0.83270E-09 21936   0.360E-04
  32 F= -.12711469E+03 E0= -.12711391E+03  d E =-.383262E-04  mag=     0.0000
       N       E                     dE             d eps       ncg     rms          rms(c)
DAV:   1    -0.125531268873E+03   -0.67367E-04   -0.13937E-03 14208   0.150E-01    0.692E-03
DAV:   2    -0.125531269249E+03   -0.37561E-06   -0.12967E-05 18528   0.152E-02    0.435E-03
DAV:   3    -0.125531269208E+03    0.40371E-07   -0.10727E-06 20688   0.397E-03    0.948E-04
DAV:   4    -0.125531269235E+03   -0.26374E-07   -0.12807E-07 19536   0.130E-03    0.390E-04
DAV:   5    -0.125531269246E+03   -0.11355E-07   -0.10228E-08 23472   0.357E-04    0.133E-04
DAV:   6    -0.125531269252E+03   -0.63164E-08   -0.15347E-09 22320   0.170E-04
  33 F= -.12711470E+03 E0= -.12711392E+03  d E =-.416518E-04  mag=    -0.0000
       N       E                     dE             d eps       ncg     rms          rms(c)
DAV:   1    -0.125531390463E+03   -0.12122E-03   -0.25721E-03 14208   0.202E-01    0.881E-03
DAV:   2    -0.125531391412E+03   -0.94828E-06   -0.23423E-05 16224   0.200E-02    0.562E-03
DAV:   3    -0.125531391498E+03   -0.86216E-07   -0.15754E-06 19104   0.467E-03    0.140E-03
DAV:   4    -0.125531391552E+03   -0.54410E-07   -0.19533E-07 17904   0.157E-03    0.477E-04
DAV:   5    -0.125531391568E+03   -0.15384E-07   -0.18810E-08 23136   0.459E-04    0.147E-04
DAV:   6    -0.125531391574E+03   -0.64974E-08   -0.18547E-09 23088   0.176E-04
  34 F= -.12711473E+03 E0= -.12711395E+03  d E =-.300136E-04  mag=     0.0000
       N       E                     dE             d eps       ncg     rms          rms(c)
DAV:   1    -0.125531732766E+03   -0.34120E-03   -0.23150E-02 14208   0.605E-01    0.264E-02
DAV:   2    -0.125531742304E+03   -0.95373E-05   -0.21010E-04 17808   0.599E-02    0.169E-02
DAV:   3    -0.125531742160E+03    0.14384E-06   -0.13901E-05 25632   0.136E-02    0.411E-03
DAV:   4    -0.125531742446E+03   -0.28590E-06   -0.14778E-06 14496   0.449E-03    0.139E-03
DAV:   5    -0.125531742505E+03   -0.58917E-07   -0.17525E-07 24288   0.143E-03    0.422E-04
DAV:   6    -0.125531742516E+03   -0.11332E-07   -0.16627E-08 19152   0.520E-04    0.154E-04
DAV:   7    -0.125531742527E+03   -0.10947E-07   -0.30967E-09 25200   0.243E-04    0.872E-05
DAV:   8    -0.125531742542E+03   -0.14792E-07   -0.12502E-09 22896   0.142E-04    0.432E-05
DAV:   9    -0.125531742568E+03   -0.26298E-07   -0.89712E-10 20544   0.843E-05    0.244E-05
DAV:  10    -0.125531742600E+03   -0.31653E-07   -0.10552E-09 20352   0.783E-05    0.186E-05
DAV:  11    -0.125531742620E+03   -0.20647E-07   -0.40930E-10 20448   0.588E-05    0.138E-05
DAV:  12    -0.125531742634E+03   -0.13396E-07   -0.24726E-10 21360   0.471E-05    0.670E-06
DAV:  13    -0.125531742641E+03   -0.70650E-08   -0.10819E-10 21552   0.262E-05
  35 F= -.12711480E+03 E0= -.12711402E+03  d E =-.104385E-03  mag=    -0.0000
       N       E                     dE             d eps       ncg     rms          rms(c)
DAV:   1    -0.125532333478E+03   -0.59084E-03   -0.92588E-02 14208   0.121E+00    0.528E-02
DAV:   2    -0.125532374858E+03   -0.41380E-04   -0.84709E-04 19872   0.120E-01    0.338E-02
DAV:   3    -0.125532371978E+03    0.28796E-05   -0.53876E-05 26304   0.265E-02    0.819E-03
DAV:   4    -0.125532372890E+03   -0.91223E-06   -0.57633E-06 16032   0.891E-03    0.275E-03
DAV:   5    -0.125532373028E+03   -0.13831E-06   -0.68037E-07 24480   0.279E-03    0.832E-04
DAV:   6    -0.125532373036E+03   -0.79644E-08   -0.63401E-08 21696   0.968E-04
  36 F= -.12711488E+03 E0= -.12711410E+03  d E =-.182159E-03  mag=    -0.0000
       N       E                     dE             d eps       ncg     rms          rms(c)
DAV:   1    -0.125532558814E+03   -0.18579E-03   -0.10404E-02 14208   0.406E-01    0.177E-02
DAV:   2    -0.125532562964E+03   -0.41500E-05   -0.94243E-05 18672   0.401E-02    0.113E-02
DAV:   3    -0.125532562963E+03    0.49477E-09   -0.61168E-06 21216   0.904E-03    0.274E-03
DAV:   4    -0.125532563144E+03   -0.18085E-06   -0.76385E-07 19872   0.314E-03    0.931E-04
DAV:   5    -0.125532563216E+03   -0.71426E-07   -0.73133E-08 22512   0.903E-04    0.300E-04
DAV:   6    -0.125532563259E+03   -0.43758E-07   -0.84467E-09 21792   0.389E-04    0.137E-04
DAV:   7    -0.125532563287E+03   -0.27736E-07   -0.15785E-09 23520   0.177E-04    0.701E-05
DAV:   8    -0.125532563343E+03   -0.56452E-07   -0.17974E-09 19776   0.126E-04    0.396E-05
DAV:   9    -0.125532563402E+03   -0.58262E-07   -0.13666E-09 20448   0.900E-05    0.236E-05
DAV:  10    -0.125532563449E+03   -0.47619E-07   -0.13144E-09 20352   0.938E-05    0.180E-05
DAV:  11    -0.125532563467E+03   -0.17693E-07   -0.40330E-10 22800   0.756E-05    0.125E-05
DAV:  12    -0.125532563481E+03   -0.13571E-07   -0.25325E-10 20064   0.464E-05    0.514E-06
DAV:  13    -0.125532563486E+03   -0.49777E-08   -0.64180E-11 23376   0.186E-05
  37 F= -.12711489E+03 E0= -.12711410E+03  d E =-.187672E-03  mag=     0.0000
       N       E                     dE             d eps       ncg     rms          rms(c)
DAV:   1    -0.125532904251E+03   -0.34077E-03   -0.25029E-02 14208   0.636E-01    0.281E-02
DAV:   2    -0.125532913242E+03   -0.89910E-05   -0.23613E-04 18336   0.647E-02    0.178E-02
DAV:   3    -0.125532912582E+03    0.65932E-06   -0.18925E-05 26208   0.162E-02    0.485E-03
DAV:   4    -0.125532912748E+03   -0.16528E-06   -0.25347E-06 16128   0.588E-03    0.200E-03
DAV:   5    -0.125532912829E+03   -0.81782E-07   -0.17323E-07 20160   0.162E-03    0.686E-04
DAV:   6    -0.125532912828E+03    0.16043E-08   -0.35323E-08 25440   0.647E-04
  38 F= -.12711495E+03 E0= -.12711417E+03  d E =-.655517E-04  mag=     0.0000
       N       E                     dE             d eps       ncg     rms          rms(c)
DAV:   1    -0.125533147292E+03   -0.23446E-03   -0.15691E-02 14208   0.504E-01    0.223E-02
DAV:   2    -0.125533152599E+03   -0.53069E-05   -0.14626E-04 19200   0.510E-02    0.141E-02
DAV:   3    -0.125533152221E+03    0.37753E-06   -0.11618E-05 25152   0.127E-02    0.378E-03
DAV:   4    -0.125533152349E+03   -0.12727E-06   -0.16461E-06 16608   0.471E-03    0.156E-03
DAV:   5    -0.125533152413E+03   -0.64815E-07   -0.10930E-07 23280   0.128E-03    0.553E-04
DAV:   6    -0.125533152436E+03   -0.22860E-07   -0.23780E-08 22992   0.525E-04    0.171E-04
DAV:   7    -0.125533152460E+03   -0.23515E-07   -0.42271E-09 22320   0.247E-04    0.760E-05
DAV:   8    -0.125533152490E+03   -0.30181E-07   -0.13435E-09 22368   0.131E-04    0.524E-05
DAV:   9    -0.125533152522E+03   -0.31965E-07   -0.78682E-10 20352   0.878E-05    0.368E-05
DAV:  10    -0.125533152575E+03   -0.52719E-07   -0.17869E-09 19200   0.911E-05    0.197E-05
DAV:  11    -0.125533152604E+03   -0.29698E-07   -0.59046E-10 20592   0.499E-05    0.131E-05
DAV:  12    -0.125533152621E+03   -0.16435E-07   -0.28647E-10 21792   0.459E-05    0.735E-06
DAV:  13    -0.125533152626E+03   -0.56307E-08   -0.96350E-11 22944   0.338E-05
  39 F= -.12711497E+03 E0= -.12711418E+03  d E =-.805839E-04  mag=    -0.0000
       N       E                     dE             d eps       ncg     rms          rms(c)
DAV:   1    -0.125533495286E+03   -0.34267E-03   -0.27368E-02 14208   0.673E-01    0.293E-02
DAV:   2    -0.125533505168E+03   -0.98825E-05   -0.24928E-04 19008   0.666E-02    0.185E-02
DAV:   3    -0.125533504300E+03    0.86863E-06   -0.17801E-05 27024   0.157E-02    0.485E-03
DAV:   4    -0.125533504530E+03   -0.22990E-06   -0.20927E-06 17472   0.539E-03    0.177E-03
DAV:   5    -0.125533504580E+03   -0.50055E-07   -0.16686E-07 25584   0.150E-03    0.612E-04
DAV:   6    -0.125533504570E+03    0.98235E-08   -0.33045E-08 22368   0.637E-04
  40 F= -.12711502E+03 E0= -.12711424E+03  d E =-.544423E-04  mag=    -0.0000
       N       E                     dE             d eps       ncg     rms          rms(c)
DAV:   1    -0.125533609280E+03   -0.10470E-03   -0.32291E-03 14208   0.231E-01    0.100E-02
DAV:   2    -0.125533610261E+03   -0.98017E-06   -0.29220E-05 15360   0.229E-02    0.633E-03
DAV:   3    -0.125533610292E+03   -0.31721E-07   -0.22305E-06 22368   0.568E-03    0.171E-03
DAV:   4    -0.125533610355E+03   -0.62707E-07   -0.27845E-07 18576   0.192E-03    0.641E-04
DAV:   5    -0.125533610385E+03   -0.29951E-07   -0.21369E-08 23184   0.525E-04    0.220E-04
DAV:   6    -0.125533610410E+03   -0.25071E-07   -0.46723E-09 22848   0.242E-04    0.731E-05
DAV:   7    -0.125533610435E+03   -0.24655E-07   -0.13076E-09 22368   0.140E-04    0.478E-05
DAV:   8    -0.125533610463E+03   -0.28692E-07   -0.91935E-10 20208   0.102E-04    0.351E-05
DAV:   9    -0.125533610497E+03   -0.33862E-07   -0.91767E-10 20400   0.757E-05    0.210E-05
DAV:  10    -0.125533610527E+03   -0.29635E-07   -0.85627E-10 19872   0.600E-05    0.110E-05
DAV:  11    -0.125533610538E+03   -0.10945E-07   -0.17353E-10 22992   0.390E-05    0.744E-06
DAV:  12    -0.125533610544E+03   -0.61355E-08   -0.10709E-10 21312   0.322E-05
  41 F= -.12711502E+03 E0= -.12711424E+03  d E =-.582756E-04  mag=    -0.0000
       N       E                     dE             d eps       ncg     rms          rms(c)
DAV:   1    -0.125533739075E+03   -0.12854E-03   -0.38175E-03 14208   0.255E-01    0.117E-02
DAV:   2    -0.125533739692E+03   -0.61717E-06   -0.36736E-05 18720   0.255E-02    0.730E-03
DAV:   3    -0.125533739361E+03    0.33110E-06   -0.31403E-06 22752   0.680E-03    0.184E-03
DAV:   4    -0.125533739395E+03   -0.33729E-07   -0.35211E-07 24288   0.222E-03    0.736E-04
DAV:   5    -0.125533739395E+03   -0.64301E-09   -0.21798E-08 24144   0.541E-04
  42 F= -.12711504E+03 E0= -.12711426E+03  d E =-.195364E-04  mag=     0.0000
       N       E                     dE             d eps       ncg     rms          rms(c)
DAV:   1    -0.125533779964E+03   -0.40569E-04   -0.49093E-04 14208   0.913E-02    0.417E-03
DAV:   2    -0.125533780033E+03   -0.69000E-07   -0.48142E-06 16512   0.922E-03    0.261E-03
DAV:   3    -0.125533779998E+03    0.34112E-07   -0.41852E-07 23040   0.251E-03    0.673E-04
DAV:   4    -0.125533780006E+03   -0.75297E-08   -0.46356E-08 19248   0.816E-04
  43 F= -.12711505E+03 E0= -.12711426E+03  d E =-.210217E-04  mag=     0.0000
       N       E                     dE             d eps       ncg     rms          rms(c)
DAV:   1    -0.125533905740E+03   -0.12574E-03   -0.43199E-03 14208   0.276E-01    0.119E-02
DAV:   2    -0.125533906540E+03   -0.79930E-06   -0.38524E-05 18912   0.264E-02    0.750E-03
DAV:   3    -0.125533906223E+03    0.31678E-06   -0.31246E-06 22752   0.680E-03    0.199E-03
DAV:   4    -0.125533906253E+03   -0.30271E-07   -0.37679E-07 19152   0.229E-03    0.780E-04
DAV:   5    -0.125533906262E+03   -0.85392E-08   -0.25772E-08 22944   0.612E-04
  44 F= -.12711506E+03 E0= -.12711428E+03  d E =-.161140E-04  mag=    -0.0000
       N       E                     dE             d eps       ncg     rms          rms(c)
DAV:   1    -0.125533923309E+03   -0.17056E-04   -0.10065E-04 14208   0.421E-02    0.181E-03
DAV:   2    -0.125533923330E+03   -0.21328E-07   -0.93866E-07 19200   0.412E-03    0.115E-03
DAV:   3    -0.125533923335E+03   -0.51787E-08   -0.72812E-08 17088   0.106E-03
  45 F= -.12711506E+03 E0= -.12711428E+03  d E =-.164061E-04  mag=     0.0000
       N       E                     dE             d eps       ncg     rms          rms(c)
DAV:   1    -0.125533997880E+03   -0.74550E-04   -0.20423E-03 14208   0.190E-01    0.816E-03
DAV:   2    -0.125533997974E+03   -0.93590E-07   -0.18106E-05 16704   0.181E-02    0.510E-03
DAV:   3    -0.125533997786E+03    0.18767E-06   -0.17078E-06 17088   0.496E-03    0.127E-03
DAV:   4    -0.125533997821E+03   -0.35206E-07   -0.20684E-07 21648   0.167E-03    0.540E-04
DAV:   5    -0.125533997835E+03   -0.13837E-07   -0.11173E-08 22752   0.433E-04    0.191E-04
DAV:   6    -0.125533997845E+03   -0.98435E-08   -0.46336E-09 22416   0.319E-04
  46 F= -.12711507E+03 E0= -.12711429E+03  d E =-.973494E-05  mag=     0.0000
       N       E                     dE             d eps       ncg     rms          rms(c)
DAV:   1    -0.125534027765E+03   -0.29930E-04   -0.40641E-04 14208   0.848E-02    0.362E-03
DAV:   2    -0.125534027775E+03   -0.97743E-08   -0.36369E-06 15024   0.816E-03    0.226E-03
DAV:   3    -0.125534027750E+03    0.24530E-07   -0.34533E-07 15312   0.225E-03    0.576E-04
DAV:   4    -0.125534027764E+03   -0.13652E-07   -0.43770E-08 25200   0.775E-04    0.249E-04
DAV:   5    -0.125534027771E+03   -0.73496E-08   -0.25463E-09 21168   0.226E-04
  47 F= -.12711507E+03 E0= -.12711429E+03  d E =-.107687E-04  mag=     0.0000
       N       E                     dE             d eps       ncg     rms          rms(c)
DAV:   1    -0.125534086460E+03   -0.58696E-04   -0.14471E-03 14208   0.161E-01    0.684E-03
DAV:   2    -0.125534086577E+03   -0.11666E-06   -0.13384E-05 15936   0.158E-02    0.432E-03
DAV:   3    -0.125534086425E+03    0.15193E-06   -0.13674E-06 15696   0.458E-03    0.115E-03
DAV:   4    -0.125534086450E+03   -0.24667E-07   -0.16880E-07 18864   0.158E-03    0.548E-04
DAV:   5    -0.125534086460E+03   -0.10290E-07   -0.11092E-08 23712   0.471E-04    0.187E-04
DAV:   6    -0.125534086464E+03   -0.37326E-08   -0.44792E-09 20160   0.348E-04
  48 F= -.12711508E+03 E0= -.12711430E+03  d E =-.672161E-05  mag=    -0.0000
       N       E                     dE             d eps       ncg     rms          rms(c)
DAV:   1    -0.125534113262E+03   -0.26802E-04   -0.35838E-04 14208   0.802E-02    0.340E-03
DAV:   2    -0.125534113285E+03   -0.23483E-07   -0.33389E-06 15648   0.792E-03    0.215E-03
DAV:   3    -0.125534113256E+03    0.29555E-07   -0.33993E-07 15408   0.229E-03    0.578E-04
DAV:   4    -0.125534113264E+03   -0.83037E-08   -0.42428E-08 21984   0.776E-04
  49 F= -.12711508E+03 E0= -.12711430E+03  d E =-.763776E-05  mag=    -0.0000
       N       E                     dE             d eps       ncg     rms          rms(c)
DAV:   1    -0.125534152766E+03   -0.39511E-04   -0.54715E-04 14208   0.990E-02    0.390E-03
DAV:   2    -0.125534152866E+03   -0.99802E-07   -0.47393E-06 14400   0.918E-03    0.260E-03
DAV:   3    -0.125534152853E+03    0.12776E-07   -0.36968E-07 15168   0.235E-03    0.726E-04
DAV:   4    -0.125534152865E+03   -0.11354E-07   -0.43801E-08 18960   0.776E-04    0.260E-04
DAV:   5    -0.125534152869E+03   -0.37408E-08   -0.34766E-09 24528   0.242E-04
  50 F= -.12711509E+03 E0= -.12711430E+03  d E =-.559834E-05  mag=    -0.0000
       N       E                     dE             d eps       ncg     rms          rms(c)
DAV:   1    -0.125534266256E+03   -0.11339E-03   -0.49233E-03 14208   0.297E-01    0.117E-02
DAV:   2    -0.125534267210E+03   -0.95395E-06   -0.42031E-05 15264   0.273E-02    0.776E-03
DAV:   3    -0.125534266926E+03    0.28417E-06   -0.33723E-06 24288   0.695E-03    0.213E-03
DAV:   4    -0.125534266984E+03   -0.58588E-07   -0.31733E-07 18048   0.214E-03    0.751E-04
DAV:   5    -0.125534267000E+03   -0.16045E-07   -0.25557E-08 22656   0.600E-04    0.215E-04
DAV:   6    -0.125534267003E+03   -0.28604E-08   -0.39389E-09 20976   0.316E-04
  51 F= -.12711510E+03 E0= -.12711432E+03  d E =-.177295E-04  mag=    -0.0000
       N       E                     dE             d eps       ncg     rms          rms(c)
DAV:   1    -0.125534471436E+03   -0.20444E-03   -0.19693E-02 14208   0.594E-01    0.234E-02
DAV:   2    -0.125534475579E+03   -0.41437E-05   -0.16757E-04 17088   0.545E-02    0.155E-02
DAV:   3    -0.125534474075E+03    0.15044E-05   -0.13384E-05 26784   0.137E-02    0.419E-03
DAV:   4    -0.125534474234E+03   -0.15939E-06   -0.11853E-06 17712   0.418E-03    0.147E-03
DAV:   5    -0.125534474283E+03   -0.48219E-07   -0.97534E-08 22368   0.111E-03    0.396E-04
DAV:   6    -0.125534474291E+03   -0.79590E-08   -0.10098E-08 24768   0.415E-04
  52 F= -.12711510E+03 E0= -.12711432E+03  d E =-.211564E-04  mag=     0.0000
       N       E                     dE             d eps       ncg     rms          rms(c)
DAV:   1    -0.125534398514E+03    0.75768E-04   -0.28346E-03 14208   0.225E-01    0.887E-03
DAV:   2    -0.125534399079E+03   -0.56446E-06   -0.24448E-05 20304   0.208E-02    0.593E-03
DAV:   3    -0.125534398908E+03    0.17080E-06   -0.17484E-06 17040   0.490E-03    0.154E-03
DAV:   4    -0.125534398946E+03   -0.38371E-07   -0.22303E-07 18912   0.173E-03    0.535E-04
DAV:   5    -0.125534398951E+03   -0.49922E-08   -0.13176E-08 23280   0.424E-04
  53 F= -.12711510E+03 E0= -.12711432E+03  d E =-.231472E-04  mag=    -0.0000
       N       E                     dE             d eps       ncg     rms          rms(c)
DAV:   1    -0.125534479548E+03   -0.80602E-04   -0.24241E-03 14208   0.209E-01    0.833E-03
DAV:   2    -0.125534480242E+03   -0.69354E-06   -0.21617E-05 14400   0.198E-02    0.563E-03
DAV:   3    -0.125534480103E+03    0.13879E-06   -0.16662E-06 20352   0.506E-03    0.162E-03
DAV:   4    -0.125534480125E+03   -0.21927E-07   -0.19363E-07 17904   0.168E-03    0.612E-04
DAV:   5    -0.125534480131E+03   -0.64119E-08   -0.15603E-08 21600   0.501E-04
  54 F= -.12711511E+03 E0= -.12711433E+03  d E =-.875958E-05  mag=     0.0000
       N       E                     dE             d eps       ncg     rms          rms(c)
DAV:   1    -0.125534628134E+03   -0.14801E-03   -0.95196E-03 14208   0.415E-01    0.165E-02
DAV:   2    -0.125534631092E+03   -0.29576E-05   -0.85000E-05 15840   0.390E-02    0.112E-02
DAV:   3    -0.125534630396E+03    0.69530E-06   -0.64759E-06 24912   0.985E-03    0.315E-03
DAV:   4    -0.125534630454E+03   -0.58067E-07   -0.70683E-07 15984   0.325E-03    0.117E-03
DAV:   5    -0.125534630476E+03   -0.21962E-07   -0.62676E-08 21984   0.985E-04    0.390E-04
DAV:   6    -0.125534630479E+03   -0.29031E-08   -0.93922E-09 16368   0.460E-04
  55 F= -.12711512E+03 E0= -.12711434E+03  d E =-.156146E-04  mag=    -0.0000
       N       E                     dE             d eps       ncg     rms          rms(c)
DAV:   1    -0.125534665370E+03   -0.34893E-04   -0.42953E-04 14208   0.880E-02    0.344E-03
DAV:   2    -0.125534665502E+03   -0.13256E-06   -0.37722E-06 14688   0.822E-03    0.237E-03
DAV:   3    -0.125534665487E+03    0.15018E-07   -0.26074E-07 16320   0.201E-03    0.645E-04
DAV:   4    -0.125534665496E+03   -0.86757E-08   -0.31398E-08 18336   0.659E-04
  56 F= -.12711512E+03 E0= -.12711434E+03  d E =-.421293E-05  mag=     0.0000
       N       E                     dE             d eps       ncg     rms          rms(c)
DAV:   1    -0.125534769467E+03   -0.10398E-03   -0.38669E-03 14208   0.264E-01    0.104E-02
DAV:   2    -0.125534770710E+03   -0.12431E-05   -0.33222E-05 14208   0.243E-02    0.711E-03
DAV:   3    -0.125534770487E+03    0.22316E-06   -0.23559E-06 19152   0.597E-03    0.190E-03
DAV:   4    -0.125534770522E+03   -0.35012E-07   -0.26233E-07 17232   0.191E-03    0.649E-04
DAV:   5    -0.125534770531E+03   -0.91350E-08   -0.24710E-08 22272   0.557E-04
  57 F= -.12711514E+03 E0= -.12711435E+03  d E =-.168484E-04  mag=    -0.0000
       N       E                     dE             d eps       ncg     rms          rms(c)
DAV:   1    -0.125534974264E+03   -0.20374E-03   -0.15463E-02 14208   0.528E-01    0.207E-02
DAV:   2    -0.125534979388E+03   -0.51238E-05   -0.13246E-04 14208   0.486E-02    0.142E-02
DAV:   3    -0.125534978309E+03    0.10791E-05   -0.95343E-06 23808   0.120E-02    0.381E-03
DAV:   4    -0.125534978402E+03   -0.92912E-07   -0.94756E-07 14736   0.369E-03    0.129E-03
DAV:   5    -0.125534978423E+03   -0.21942E-07   -0.10483E-07 20736   0.116E-03    0.421E-04
DAV:   6    -0.125534978430E+03   -0.60809E-08   -0.13490E-08 19488   0.520E-04
  58 F= -.12711516E+03 E0= -.12711438E+03  d E =-.400258E-04  mag=     0.0000
       N       E                     dE             d eps       ncg     rms          rms(c)
DAV:   1    -0.125535367173E+03   -0.38875E-03   -0.61847E-02 14208   0.106E+00    0.415E-02
DAV:   2    -0.125535388521E+03   -0.21348E-04   -0.52895E-04 15216   0.969E-02    0.284E-02
DAV:   3    -0.125535383293E+03    0.52283E-05   -0.37769E-05 25056   0.236E-02    0.745E-03
DAV:   4    -0.125535383511E+03   -0.21836E-06   -0.37787E-06 14640   0.735E-03    0.253E-03
DAV:   5    -0.125535383569E+03   -0.57314E-07   -0.40276E-07 21744   0.226E-03    0.809E-04
DAV:   6    -0.125535383585E+03   -0.16590E-07   -0.46063E-08 24480   0.819E-04    0.262E-04
DAV:   7    -0.125535383593E+03   -0.77471E-08   -0.40996E-09 22080   0.273E-04
  59 F= -.12711519E+03 E0= -.12711441E+03  d E =-.758804E-04  mag=    -0.0000
       N       E                     dE             d eps       ncg     rms          rms(c)
DAV:   1    -0.125536091475E+03   -0.70789E-03   -0.24739E-01 14208   0.211E+00    0.831E-02
DAV:   2    -0.125536179846E+03   -0.88371E-04   -0.21136E-03 16128   0.193E-01    0.568E-02
DAV:   3    -0.125536155901E+03    0.23945E-04   -0.15012E-04 26928   0.468E-02    0.148E-02
DAV:   4    -0.125536156359E+03   -0.45773E-06   -0.14696E-05 16128   0.146E-02    0.500E-03
DAV:   5    -0.125536156476E+03   -0.11783E-06   -0.15016E-06 20832   0.437E-03    0.159E-03
DAV:   6    -0.125536156519E+03   -0.42798E-07   -0.17993E-07 24864   0.158E-03    0.432E-04
DAV:   7    -0.125536156548E+03   -0.28605E-07   -0.22678E-08 24336   0.543E-04    0.162E-04
DAV:   8    -0.125536156584E+03   -0.36513E-07   -0.19831E-09 22368   0.172E-04    0.894E-05
DAV:   9    -0.125536156644E+03   -0.59585E-07   -0.16534E-09 19056   0.108E-04    0.567E-05
DAV:  10    -0.125536156741E+03   -0.97458E-07   -0.31701E-09 16752   0.120E-04    0.390E-05
DAV:  11    -0.125536156834E+03   -0.92576E-07   -0.19231E-09 17520   0.785E-05    0.251E-05
DAV:  12    -0.125536156889E+03   -0.54853E-07   -0.87916E-10 19392   0.638E-05    0.135E-05
DAV:  13    -0.125536156906E+03   -0.17512E-07   -0.18273E-10 24000   0.413E-05    0.869E-06
DAV:  14    -0.125536156917E+03   -0.11044E-07   -0.12330E-10 20448   0.261E-05    0.439E-06
DAV:  15    -0.125536156921E+03   -0.37289E-08   -0.50798E-11 22080   0.164E-05
  60 F= -.12711523E+03 E0= -.12711445E+03  d E =-.111404E-03  mag=     0.0000
       N       E                     dE             d eps       ncg     rms          rms(c)
DAV:   1    -0.125536260523E+03   -0.10361E-03   -0.37667E-03 14208   0.261E-01    0.102E-02
DAV:   2    -0.125536261776E+03   -0.12526E-05   -0.32406E-05 14208   0.240E-02    0.701E-03
DAV:   3    -0.125536261564E+03    0.21133E-06   -0.22757E-06 21792   0.589E-03    0.190E-03
DAV:   4    -0.125536261592E+03   -0.28254E-07   -0.23627E-07 15936   0.184E-03    0.639E-04
DAV:   5    -0.125536261598E+03   -0.51614E-08   -0.24797E-08 21504   0.552E-04
  61 F= -.12711524E+03 E0= -.12711446E+03  d E =-.137729E-04  mag=    -0.0000
       N       E                     dE             d eps       ncg     rms          rms(c)
DAV:   1    -0.125536561183E+03   -0.29959E-03   -0.33906E-02 14208   0.782E-01    0.307E-02
DAV:   2    -0.125536573108E+03   -0.11925E-04   -0.29019E-04 15792   0.717E-02    0.211E-02
DAV:   3    -0.125536570471E+03    0.26376E-05   -0.20309E-05 24864   0.174E-02    0.552E-03
DAV:   4    -0.125536570605E+03   -0.13455E-06   -0.20483E-06 14976   0.545E-03    0.187E-03
DAV:   5    -0.125536570635E+03   -0.30097E-07   -0.22107E-07 22272   0.168E-03    0.597E-04
DAV:   6    -0.125536570640E+03   -0.49104E-08   -0.25026E-08 19680   0.599E-04
  62 F= -.12711528E+03 E0= -.12711450E+03  d E =-.501338E-04  mag=     0.0000
       N       E                     dE             d eps       ncg     rms          rms(c)
DAV:   1    -0.125537124251E+03   -0.55362E-03   -0.13561E-01 14208   0.156E+00    0.615E-02
DAV:   2    -0.125537173577E+03   -0.49326E-04   -0.11575E-03 15840   0.143E-01    0.421E-02
DAV:   3    -0.125537161266E+03    0.12311E-04   -0.80856E-05 25248   0.347E-02    0.110E-02
DAV:   4    -0.125537161582E+03   -0.31606E-06   -0.81573E-06 15552   0.109E-02    0.374E-03
DAV:   5    -0.125537161656E+03   -0.73484E-07   -0.86802E-07 21408   0.333E-03    0.120E-03
DAV:   6    -0.125537161678E+03   -0.22031E-07   -0.10010E-07 23424   0.119E-03    0.337E-04
DAV:   7    -0.125537161692E+03   -0.14912E-07   -0.10618E-08 25680   0.390E-04    0.165E-04
DAV:   8    -0.125537161714E+03   -0.21911E-07   -0.13286E-09 24240   0.137E-04    0.747E-05
DAV:   9    -0.125537161753E+03   -0.38892E-07   -0.11227E-09 18432   0.876E-05    0.417E-05
DAV:  10    -0.125537161821E+03   -0.67611E-07   -0.22139E-09 16608   0.982E-05    0.322E-05
DAV:  11    -0.125537161882E+03   -0.60683E-07   -0.12581E-09 18384   0.675E-05    0.225E-05
DAV:  12    -0.125537161914E+03   -0.32284E-07   -0.41113E-10 20592   0.474E-05    0.133E-05
DAV:  13    -0.125537161934E+03   -0.19740E-07   -0.24734E-10 19776   0.329E-05    0.705E-06
DAV:  14    -0.125537161942E+03   -0.80117E-08   -0.79127E-11 23040   0.187E-05
  63 F= -.12711533E+03 E0= -.12711454E+03  d E =-.964240E-04  mag=    -0.0000
       N       E                     dE             d eps       ncg     rms          rms(c)
DAV:   1    -0.125538085575E+03   -0.92364E-03   -0.54238E-01 14208   0.313E+00    0.123E-01
DAV:   2    -0.125538293154E+03   -0.20758E-03   -0.46828E-03 19104   0.287E-01    0.847E-02
DAV:   3    -0.125538237020E+03    0.56133E-04   -0.30747E-04 26112   0.661E-02    0.212E-02
DAV:   4    -0.125538237503E+03   -0.48295E-06   -0.34287E-05 16128   0.221E-02    0.721E-03
DAV:   5    -0.125538237665E+03   -0.16144E-06   -0.31713E-06 23424   0.650E-03    0.245E-03
DAV:   6    -0.125538237674E+03   -0.89849E-08   -0.40779E-07 23232   0.237E-03    0.641E-04
DAV:   7    -0.125538237680E+03   -0.57253E-08   -0.54942E-08 23040   0.865E-04
  64 F= -.12711531E+03 E0= -.12711453E+03  d E =-.832742E-04  mag=    -0.0000
       N       E                     dE             d eps       ncg     rms          rms(c)
DAV:   1    -0.125537567646E+03    0.67003E-03   -0.18825E-01 14208   0.184E+00    0.724E-02
DAV:   2    -0.125537640518E+03   -0.72872E-04   -0.16398E-03 21984   0.169E-01    0.501E-02
DAV:   3    -0.125537621039E+03    0.19479E-04   -0.99133E-05 21216   0.370E-02    0.120E-02
DAV:   4    -0.125537621292E+03   -0.25260E-06   -0.13658E-05 17376   0.137E-02    0.419E-03
DAV:   5    -0.125537621405E+03   -0.11354E-06   -0.10099E-06 21792   0.366E-03    0.152E-03
DAV:   6    -0.125537621424E+03   -0.18589E-07   -0.14654E-07 22848   0.142E-03    0.387E-04
DAV:   7    -0.125537621419E+03    0.48631E-08   -0.18120E-08 20352   0.503E-04
  65 F= -.12711534E+03 E0= -.12711456E+03  d E =-.108361E-03  mag=     0.0000
       N       E                     dE             d eps       ncg     rms          rms(c)
DAV:   1    -0.125537926076E+03   -0.30465E-03   -0.36638E-02 14208   0.814E-01    0.317E-02
DAV:   2    -0.125537939745E+03   -0.13670E-04   -0.31323E-04 17184   0.742E-02    0.219E-02
DAV:   3    -0.125537936884E+03    0.28615E-05   -0.19826E-05 23904   0.170E-02    0.560E-03
DAV:   4    -0.125537937044E+03   -0.15997E-06   -0.21205E-06 16512   0.550E-03    0.180E-03
DAV:   5    -0.125537937069E+03   -0.24849E-07   -0.21381E-07 20448   0.162E-03    0.590E-04
DAV:   6    -0.125537937071E+03   -0.23465E-08   -0.23653E-08 23040   0.594E-04
  66 F= -.12711537E+03 E0= -.12711459E+03  d E =-.339253E-04  mag=    -0.0000
       N       E                     dE             d eps       ncg     rms          rms(c)
DAV:   1    -0.125538777394E+03   -0.84033E-03   -0.32976E-01 14208   0.244E+00    0.953E-02
DAV:   2    -0.125538905072E+03   -0.12768E-03   -0.28008E-03 19584   0.222E-01    0.658E-02
DAV:   3    -0.125538872061E+03    0.33011E-04   -0.17532E-04 25344   0.499E-02    0.161E-02
DAV:   4    -0.125538872633E+03   -0.57248E-06   -0.19280E-05 16512   0.166E-02    0.533E-03
DAV:   5    -0.125538872710E+03   -0.76967E-07   -0.18808E-06 21984   0.487E-03    0.177E-03
DAV:   6    -0.125538872726E+03   -0.15716E-07   -0.22381E-07 23664   0.178E-03    0.485E-04
DAV:   7    -0.125538872738E+03   -0.11959E-07   -0.26926E-08 18048   0.616E-04    0.198E-04
DAV:   8    -0.125538872768E+03   -0.29838E-07   -0.30286E-09 24624   0.230E-04    0.111E-04
DAV:   9    -0.125538872827E+03   -0.59719E-07   -0.25375E-09 22176   0.139E-04    0.637E-05
DAV:  10    -0.125538872936E+03   -0.10895E-06   -0.49231E-09 17472   0.154E-04    0.471E-05
DAV:  11    -0.125538873049E+03   -0.11220E-06   -0.25136E-09 17952   0.980E-05    0.297E-05
DAV:  12    -0.125538873113E+03   -0.64409E-07   -0.10135E-09 20880   0.858E-05    0.182E-05
DAV:  13    -0.125538873143E+03   -0.29683E-07   -0.35626E-10 22512   0.568E-05    0.106E-05
DAV:  14    -0.125538873161E+03   -0.18055E-07   -0.21015E-10 19872   0.312E-05    0.573E-06
DAV:  15    -0.125538873167E+03   -0.60800E-08   -0.85877E-11 23136   0.201E-05
  67 F= -.12711546E+03 E0= -.12711468E+03  d E =-.125635E-03  mag=     0.0000
       N       E                     dE             d eps       ncg     rms          rms(c)
DAV:   1    -0.125540310729E+03   -0.14376E-02   -0.13189E+00 14208   0.488E+00    0.191E-01
DAV:   2    -0.125540823652E+03   -0.51292E-03   -0.11208E-02 19104   0.444E-01    0.132E-01
DAV:   3    -0.125540692883E+03    0.13077E-03   -0.70421E-04 24384   0.100E-01    0.327E-02
DAV:   4    -0.125540693876E+03   -0.99345E-06   -0.76335E-05 16896   0.330E-02    0.107E-02
DAV:   5    -0.125540693848E+03    0.27977E-07   -0.75321E-06 24960   0.965E-03    0.351E-03
DAV:   6    -0.125540693848E+03   -0.85493E-10   -0.83775E-07 24000   0.347E-03    0.949E-04
DAV:   7    -0.125540693869E+03   -0.20884E-07   -0.11379E-07 21600   0.121E-03    0.326E-04
DAV:   8    -0.125540693962E+03   -0.92401E-07   -0.11623E-08 23376   0.388E-04    0.165E-04
DAV:   9    -0.125540694197E+03   -0.23516E-06   -0.16438E-08 22368   0.307E-04    0.124E-04
DAV:  10    -0.125540694402E+03   -0.20497E-06   -0.61613E-09 20208   0.171E-04    0.914E-05
DAV:  11    -0.125540694665E+03   -0.26280E-06   -0.56863E-09 16656   0.133E-04    0.536E-05
DAV:  12    -0.125540694884E+03   -0.21939E-06   -0.40276E-09 18816   0.107E-04    0.246E-05
DAV:  13    -0.125540694967E+03   -0.83280E-07   -0.84809E-10 23136   0.541E-05    0.165E-05
DAV:  14    -0.125540695005E+03   -0.37774E-07   -0.41738E-10 21024   0.433E-05    0.927E-06
DAV:  15    -0.125540695018E+03   -0.12672E-07   -0.17186E-10 22464   0.287E-05    0.428E-06
DAV:  16    -0.125540695020E+03   -0.22792E-08   -0.25287E-11 24192   0.129E-05
  68 F= -.12711560E+03 E0= -.12711482E+03  d E =-.263046E-03  mag=    -0.0000
       N       E                     dE             d eps       ncg     rms          rms(c)
DAV:   1    -0.125542590495E+03   -0.18955E-02   -0.52742E+00 14208   0.976E+00    0.381E-01
DAV:   2    -0.125544688142E+03   -0.20976E-02   -0.44950E-02 19104   0.890E-01    0.263E-01
DAV:   3    -0.125544136894E+03    0.55125E-03   -0.27965E-03 24960   0.199E-01    0.664E-02
DAV:   4    -0.125544136466E+03    0.42819E-06   -0.29989E-04 19008   0.654E-02    0.212E-02
DAV:   5    -0.125544135169E+03    0.12968E-05   -0.28973E-05 24768   0.187E-02    0.703E-03
DAV:   6    -0.125544135132E+03    0.36660E-07   -0.32090E-06 23424   0.684E-03    0.188E-03
DAV:   7    -0.125544135243E+03   -0.11013E-06   -0.42252E-07 21696   0.240E-03    0.597E-04
DAV:   8    -0.125544135586E+03   -0.34379E-06   -0.47533E-08 22272   0.765E-04    0.310E-04
DAV:   9    -0.125544136422E+03   -0.83556E-06   -0.77870E-08 23232   0.659E-04    0.209E-04
DAV:  10    -0.125544137138E+03   -0.71622E-06   -0.23356E-08 20880   0.321E-04    0.179E-04
DAV:  11    -0.125544137789E+03   -0.65043E-06   -0.12339E-08 18576   0.198E-04    0.104E-04
DAV:  12    -0.125544138406E+03   -0.61779E-06   -0.12009E-08 18432   0.187E-04    0.482E-05
DAV:  13    -0.125544138644E+03   -0.23755E-06   -0.23987E-09 22848   0.886E-05    0.297E-05
DAV:  14    -0.125544138768E+03   -0.12398E-06   -0.17231E-09 19968   0.781E-05    0.147E-05
DAV:  15    -0.125544138788E+03   -0.20385E-07   -0.20597E-10 25680   0.354E-05    0.839E-06
DAV:  16    -0.125544138796E+03   -0.77725E-08   -0.11127E-10 21456   0.228E-05
  69 F= -.12711569E+03 E0= -.12711491E+03  d E =-.354114E-03  mag=     0.0000
       N       E                     dE             d eps       ncg     rms          rms(c)
DAV:   1    -0.125545336004E+03   -0.11972E-02   -0.94840E-01 14208   0.415E+00    0.162E-01
DAV:   2    -0.125545677576E+03   -0.34157E-03   -0.79430E-03 18528   0.375E-01    0.111E-01
DAV:   3    -0.125545581009E+03    0.96567E-04   -0.51649E-04 24960   0.862E-02    0.281E-02
DAV:   4    -0.125545582298E+03   -0.12894E-05   -0.52689E-05 16896   0.277E-02    0.923E-03
DAV:   5    -0.125545582434E+03   -0.13609E-06   -0.51983E-06 22848   0.809E-03    0.289E-03
DAV:   6    -0.125545582461E+03   -0.27141E-07   -0.55530E-07 22368   0.287E-03    0.761E-04
DAV:   7    -0.125545582473E+03   -0.11997E-07   -0.69608E-08 24432   0.977E-04    0.255E-04
DAV:   8    -0.125545582519E+03   -0.45848E-07   -0.56991E-09 23376   0.278E-04    0.129E-04
DAV:   9    -0.125545582618E+03   -0.98773E-07   -0.49788E-09 22800   0.176E-04    0.854E-05
DAV:  10    -0.125545582724E+03   -0.10563E-06   -0.30231E-09 18480   0.121E-04    0.637E-05
DAV:  11    -0.125545582866E+03   -0.14262E-06   -0.31980E-09 16512   0.100E-04    0.409E-05
DAV:  12    -0.125545582998E+03   -0.13137E-06   -0.26311E-09 18000   0.848E-05    0.190E-05
DAV:  13    -0.125545583042E+03   -0.44633E-07   -0.42800E-10 22704   0.437E-05    0.129E-05
DAV:  14    -0.125545583065E+03   -0.22652E-07   -0.24289E-10 22080   0.363E-05    0.724E-06
DAV:  15    -0.125545583074E+03   -0.87148E-08   -0.11358E-10 21792   0.230E-05
  70 F= -.12711581E+03 E0= -.12711503E+03  d E =-.116443E-03  mag=     0.0000
       N       E                     dE             d eps       ncg     rms          rms(c)
DAV:   1    -0.125545519244E+03    0.63821E-04   -0.21731E-03 14208   0.199E-01    0.771E-03
DAV:   2    -0.125545519958E+03   -0.71438E-06   -0.18804E-05 21696   0.181E-02    0.535E-03
DAV:   3    -0.125545519836E+03    0.12159E-06   -0.10935E-06 16944   0.393E-03    0.131E-03
DAV:   4    -0.125545519860E+03   -0.23424E-07   -0.15039E-07 19344   0.142E-03    0.438E-04
DAV:   5    -0.125545519863E+03   -0.30641E-08   -0.10823E-08 24288   0.363E-04
  71 F= -.12711581E+03 E0= -.12711503E+03  d E =-.116706E-03  mag=    -0.0000
       N       E                     dE             d eps       ncg     rms          rms(c)
DAV:   1    -0.125546232029E+03   -0.71217E-03   -0.33164E-01 14208   0.246E+00    0.952E-02
DAV:   2    -0.125546346220E+03   -0.11419E-03   -0.26901E-03 19872   0.218E-01    0.654E-02
DAV:   3    -0.125546312427E+03    0.33794E-04   -0.17137E-04 25920   0.492E-02    0.160E-02
DAV:   4    -0.125546313268E+03   -0.84137E-06   -0.16641E-05 16800   0.156E-02    0.525E-03
DAV:   5    -0.125546313394E+03   -0.12592E-06   -0.16303E-06 20640   0.453E-03    0.161E-03
DAV:   6    -0.125546313421E+03   -0.26657E-07   -0.16903E-07 21360   0.161E-03    0.421E-04
DAV:   7    -0.125546313426E+03   -0.48221E-08   -0.20326E-08 22800   0.530E-04
  72 F= -.12711589E+03 E0= -.12711510E+03  d E =-.773223E-04  mag=     0.0000
       N       E                     dE             d eps       ncg     rms          rms(c)
DAV:   1    -0.125546288144E+03    0.25276E-04   -0.41405E-04 14400   0.871E-02    0.335E-03
DAV:   2    -0.125546288310E+03   -0.16565E-06   -0.34120E-06 21264   0.776E-03    0.232E-03
DAV:   3    -0.125546288302E+03    0.81327E-08   -0.20899E-07 22608   0.170E-03    0.566E-04
DAV:   4    -0.125546288314E+03   -0.12283E-07   -0.21991E-08 26304   0.563E-04    0.189E-04
DAV:   5    -0.125546288327E+03   -0.13184E-07   -0.15340E-09 22416   0.142E-04    0.747E-05
DAV:   6    -0.125546288340E+03   -0.12270E-07   -0.24562E-10 21024   0.673E-05    0.332E-05
DAV:   7    -0.125546288350E+03   -0.10298E-07   -0.74608E-11 21360   0.298E-05    0.132E-05
DAV:   8    -0.125546288367E+03   -0.17384E-07   -0.20683E-10 18432   0.290E-05    0.817E-06
DAV:   9    -0.125546288381E+03   -0.13695E-07   -0.25239E-10 19008   0.315E-05    0.671E-06
DAV:  10    -0.125546288385E+03   -0.40591E-08   -0.89354E-11 22080   0.252E-05
  73 F= -.12711589E+03 E0= -.12711510E+03  d E =-.775748E-04  mag=     0.0000
       N       E                     dE             d eps       ncg     rms          rms(c)
DAV:   1    -0.125546600556E+03   -0.31218E-03   -0.77030E-02 14208   0.119E+00    0.460E-02
DAV:   2    -0.125546624917E+03   -0.24361E-04   -0.59324E-04 16656   0.103E-01    0.314E-02
DAV:   3    -0.125546618533E+03    0.63843E-05   -0.38954E-05 27072   0.241E-02    0.842E-03
DAV:   4    -0.125546618758E+03   -0.22462E-06   -0.33795E-06 14448   0.724E-03    0.253E-03
DAV:   5    -0.125546618796E+03   -0.38461E-07   -0.39793E-07 22176   0.226E-03    0.791E-04
DAV:   6    -0.125546618808E+03   -0.11548E-07   -0.44383E-08 23904   0.821E-04    0.192E-04
DAV:   7    -0.125546618810E+03   -0.24356E-08   -0.45360E-09 24528   0.264E-04
  74 F= -.12711593E+03 E0= -.12711514E+03  d E =-.381339E-04  mag=     0.0000
       N       E                     dE             d eps       ncg     rms          rms(c)
DAV:   1    -0.125546620003E+03   -0.11950E-05   -0.12788E-06 24576   0.485E-03    0.205E-04
DAV:   2    -0.125546620005E+03   -0.27285E-08   -0.50913E-09 24720   0.302E-04
  75 F= -.12711593E+03 E0= -.12711514E+03  d E =-.381409E-04  mag=     0.0000
       N       E                     dE             d eps       ncg     rms          rms(c)
DAV:   1    -0.125546744610E+03   -0.12461E-03   -0.26046E-02 14208   0.696E-01    0.272E-02
DAV:   2    -0.125546752522E+03   -0.79123E-05   -0.19015E-04 19392   0.585E-02    0.185E-02
DAV:   3    -0.125546750448E+03    0.20743E-05   -0.11633E-05 23472   0.133E-02    0.507E-03
DAV:   4    -0.125546750496E+03   -0.47378E-07   -0.12847E-06 15792   0.438E-03    0.151E-03
DAV:   5    -0.125546750519E+03   -0.23159E-07   -0.11146E-07 22560   0.129E-03    0.551E-04
DAV:   6    -0.125546750527E+03   -0.82428E-08   -0.17655E-08 24432   0.497E-04
  76 F= -.12711595E+03 E0= -.12711517E+03  d E =-.226262E-04  mag=     0.0000
       N       E                     dE             d eps       ncg     rms          rms(c)
DAV:   1    -0.125546757330E+03   -0.68115E-05   -0.10171E-04 14832   0.435E-02    0.169E-03
DAV:   2    -0.125546757363E+03   -0.32367E-07   -0.75341E-07 25152   0.366E-03    0.116E-03
DAV:   3    -0.125546757359E+03    0.38199E-08   -0.43715E-08 22992   0.796E-04
  77 F= -.12711595E+03 E0= -.12711517E+03  d E =-.227165E-04  mag=    -0.0000
       N       E                     dE             d eps       ncg     rms          rms(c)
DAV:   1    -0.125546778088E+03   -0.20726E-04   -0.11688E-02 14208   0.467E-01    0.181E-02
DAV:   2    -0.125546781421E+03   -0.33324E-05   -0.75634E-05 26304   0.366E-02    0.125E-02
DAV:   3    -0.125546780531E+03    0.88964E-06   -0.41757E-06 20208   0.752E-03    0.263E-03
DAV:   4    -0.125546780561E+03   -0.29926E-07   -0.44979E-07 18576   0.248E-03    0.844E-04
DAV:   5    -0.125546780565E+03   -0.36825E-08   -0.30444E-08 19680   0.682E-04
  78 F= -.12711597E+03 E0= -.12711519E+03  d E =-.214648E-04  mag=     0.0000
       N       E                     dE             d eps       ncg     rms          rms(c)
DAV:   1    -0.125546789260E+03   -0.86989E-05   -0.23134E-02 14208   0.657E-01    0.254E-02
DAV:   2    -0.125546796020E+03   -0.67604E-05   -0.15003E-04 27936   0.516E-02    0.175E-02
DAV:   3    -0.125546794117E+03    0.19028E-05   -0.81760E-06 15984   0.105E-02    0.368E-03
DAV:   4    -0.125546794182E+03   -0.64216E-07   -0.94709E-07 25728   0.358E-03    0.120E-03
DAV:   5    -0.125546794186E+03   -0.46712E-08   -0.47123E-08 17712   0.845E-04
  79 F= -.12711598E+03 E0= -.12711520E+03  d E =-.326883E-04  mag=    -0.0000
       N       E                     dE             d eps       ncg     rms          rms(c)
DAV:   1    -0.125546778248E+03    0.15934E-04   -0.91599E-03 14208   0.412E-01    0.161E-02
DAV:   2    -0.125546781130E+03   -0.28818E-05   -0.62059E-05 22704   0.335E-02    0.111E-02
DAV:   3    -0.125546780285E+03    0.84465E-06   -0.37281E-06 15456   0.733E-03    0.234E-03
DAV:   4    -0.125546780320E+03   -0.35404E-07   -0.45187E-07 20784   0.254E-03    0.842E-04
DAV:   5    -0.125546780324E+03   -0.38126E-08   -0.29893E-08 19824   0.701E-04
  80 F= -.12711600E+03 E0= -.12711522E+03  d E =-.193969E-04  mag=     0.0000
       N       E                     dE             d eps       ncg     rms          rms(c)
DAV:   1    -0.125546716835E+03    0.63486E-04   -0.42047E-02 14208   0.882E-01    0.345E-02
DAV:   2    -0.125546730464E+03   -0.13629E-04   -0.28497E-04 25776   0.717E-02    0.238E-02
DAV:   3    -0.125546726065E+03    0.43984E-05   -0.16966E-05 15024   0.155E-02    0.488E-03
DAV:   4    -0.125546726152E+03   -0.87297E-07   -0.20857E-06 15408   0.549E-03    0.179E-03
DAV:   5    -0.125546726175E+03   -0.22619E-07   -0.17214E-07 21840   0.165E-03    0.750E-04
DAV:   6    -0.125546726168E+03    0.70322E-08   -0.31380E-08 15360   0.725E-04
  81 F= -.12711602E+03 E0= -.12711523E+03  d E =-.363644E-04  mag=     0.0000
       N       E                     dE             d eps       ncg     rms          rms(c)
DAV:   1    -0.125546711637E+03    0.14538E-04   -0.29982E-03 14208   0.235E-01    0.906E-03
DAV:   2    -0.125546712618E+03   -0.98151E-06   -0.20419E-05 17808   0.191E-02    0.631E-03
DAV:   3    -0.125546712411E+03    0.20726E-06   -0.12011E-06 16896   0.417E-03    0.142E-03
DAV:   4    -0.125546712431E+03   -0.20151E-07   -0.13424E-07 20736   0.137E-03    0.451E-04
DAV:   5    -0.125546712433E+03   -0.20045E-08   -0.11041E-08 24816   0.399E-04
  82 F= -.12711603E+03 E0= -.12711525E+03  d E =-.126957E-04  mag=    -0.0000
       N       E                     dE             d eps       ncg     rms          rms(c)
DAV:   1    -0.125546661592E+03    0.50839E-04   -0.26982E-02 14208   0.705E-01    0.273E-02
DAV:   2    -0.125546670650E+03   -0.90587E-05   -0.18080E-04 22080   0.565E-02    0.190E-02
DAV:   3    -0.125546668138E+03    0.25125E-05   -0.10474E-05 14208   0.121E-02    0.383E-03
DAV:   4    -0.125546668221E+03   -0.83220E-07   -0.12667E-06 15840   0.415E-03    0.132E-03
DAV:   5    -0.125546668233E+03   -0.11881E-07   -0.10972E-07 22608   0.121E-03    0.549E-04
DAV:   6    -0.125546668233E+03   -0.33651E-10   -0.21048E-08 15456   0.558E-04
  83 F= -.12711606E+03 E0= -.12711528E+03  d E =-.478116E-04  mag=     0.0000
       N       E                     dE             d eps       ncg     rms          rms(c)
DAV:   1    -0.125546538515E+03    0.12972E-03   -0.10793E-01 14208   0.141E+00    0.545E-02
DAV:   2    -0.125546575169E+03   -0.36654E-04   -0.71947E-04 21024   0.113E-01    0.378E-02
DAV:   3    -0.125546564718E+03    0.10451E-04   -0.43695E-05 19776   0.248E-02    0.801E-03
DAV:   4    -0.125546564880E+03   -0.16190E-06   -0.45717E-06 18816   0.792E-03    0.260E-03
DAV:   5    -0.125546564893E+03   -0.13270E-07   -0.36607E-07 20736   0.223E-03    0.107E-03
DAV:   6    -0.125546564904E+03   -0.10607E-07   -0.67419E-08 22128   0.966E-04    0.244E-04
DAV:   7    -0.125546564915E+03   -0.11441E-07   -0.65094E-09 18384   0.348E-04    0.117E-04
DAV:   8    -0.125546564922E+03   -0.71823E-08   -0.88517E-10 23664   0.128E-04
  84 F= -.12711612E+03 E0= -.12711534E+03  d E =-.103249E-03  mag=     0.0000
[...]
       N       E                     dE             d eps       ncg     rms          rms(c)
DAV:   1    -0.125531131783E+03    0.70206E-03   -0.97234E-01 14208   0.424E+00    0.163E-01
DAV:   2    -0.125531473785E+03   -0.34200E-03   -0.65633E-03 18528   0.343E-01    0.113E-01
DAV:   3    -0.125531379380E+03    0.94405E-04   -0.39140E-04 20736   0.760E-02    0.257E-02
DAV:   4    -0.125531380288E+03   -0.90835E-06   -0.37587E-05 17376   0.233E-02    0.780E-03
DAV:   5    -0.125531379940E+03    0.34860E-06   -0.40154E-06 20160   0.727E-03    0.296E-03
DAV:   6    -0.125531379972E+03   -0.32706E-07   -0.62765E-07 18048   0.289E-03    0.585E-04
DAV:   7    -0.125531379980E+03   -0.76834E-08   -0.61803E-08 25728   0.881E-04
 106 F= -.12711980E+03 E0= -.12711902E+03  d E =-.204233E-03  mag=     0.0000
       N       E                     dE             d eps       ncg     rms          rms(c)
DAV:   1    -0.125531049448E+03    0.33052E-03   -0.20254E-01 14208   0.194E+00    0.744E-02
DAV:   2    -0.125531119488E+03   -0.70040E-04   -0.13630E-03 17424   0.156E-01    0.513E-02
DAV:   3    -0.125531100693E+03    0.18795E-04   -0.81157E-05 17712   0.348E-02    0.117E-02
DAV:   4    -0.125531101060E+03   -0.36693E-06   -0.82571E-06 16272   0.109E-02    0.362E-03
DAV:   5    -0.125531101042E+03    0.17938E-07   -0.89654E-07 21888   0.342E-03    0.137E-03
DAV:   6    -0.125531101088E+03   -0.45871E-07   -0.14051E-07 22656   0.134E-03    0.308E-04
DAV:   7    -0.125531101113E+03   -0.24814E-07   -0.11876E-08 24336   0.383E-04    0.134E-04
DAV:   8    -0.125531101138E+03   -0.25881E-07   -0.10194E-09 22608   0.116E-04    0.742E-05
DAV:   9    -0.125531101167E+03   -0.28972E-07   -0.36308E-10 21792   0.562E-05    0.314E-05
DAV:  10    -0.125531101210E+03   -0.42695E-07   -0.64303E-10 20496   0.556E-05    0.185E-05
DAV:  11    -0.125531101252E+03   -0.41542E-07   -0.51034E-10 19680   0.429E-05    0.137E-05
DAV:  12    -0.125531101301E+03   -0.49528E-07   -0.84201E-10 18576   0.546E-05    0.104E-05
DAV:  13    -0.125531101312E+03   -0.11146E-07   -0.13991E-10 23424   0.219E-05    0.522E-06
DAV:  14    -0.125531101316E+03   -0.36898E-08   -0.42308E-11 20352   0.125E-05
 107 F= -.12711982E+03 E0= -.12711904E+03  d E =-.226309E-03  mag=    -0.0000
       N       E                     dE             d eps       ncg     rms          rms(c)
DAV:   1    -0.125530880699E+03    0.22061E-03   -0.16382E-01 14208   0.174E+00    0.679E-02
DAV:   2    -0.125530937039E+03   -0.56340E-04   -0.11204E-03 25584   0.141E-01    0.471E-02
DAV:   3    -0.125530920401E+03    0.16639E-04   -0.62118E-05 19776   0.295E-02    0.961E-03
DAV:   4    -0.125530920614E+03   -0.21369E-06   -0.69797E-06 18528   0.100E-02    0.328E-03
DAV:   5    -0.125530920655E+03   -0.40516E-07   -0.56552E-07 20688   0.289E-03    0.134E-03
DAV:   6    -0.125530920673E+03   -0.18546E-07   -0.98996E-08 24240   0.118E-03    0.282E-04
DAV:   7    -0.125530920674E+03   -0.63028E-09   -0.10620E-08 20400   0.396E-04
 108 F= -.12711990E+03 E0= -.12711912E+03  d E =-.749490E-04  mag=    -0.0000
       N       E                     dE             d eps       ncg     rms          rms(c)
DAV:   1    -0.125530855675E+03    0.64998E-04   -0.10723E-02 14208   0.445E-01    0.174E-02
DAV:   2    -0.125530859085E+03   -0.34103E-05   -0.72292E-05 17280   0.361E-02    0.119E-02
DAV:   3    -0.125530858227E+03    0.85785E-06   -0.44457E-06 16944   0.826E-03    0.277E-03
DAV:   4    -0.125530858292E+03   -0.64257E-07   -0.45273E-07 17520   0.259E-03    0.886E-04
DAV:   5    -0.125530858310E+03   -0.17982E-07   -0.47403E-08 21360   0.807E-04    0.317E-04
DAV:   6    -0.125530858322E+03   -0.12338E-07   -0.68194E-09 23808   0.311E-04    0.811E-05
DAV:   7    -0.125530858328E+03   -0.60327E-08   -0.49634E-10 23472   0.875E-05
 109 F= -.12711990E+03 E0= -.12711912E+03  d E =-.779754E-04  mag=    -0.0000
       N       E                     dE             d eps       ncg     rms          rms(c)
DAV:   1    -0.125530674639E+03    0.18368E-03   -0.14642E-01 14208   0.164E+00    0.642E-02
DAV:   2    -0.125530722818E+03   -0.48179E-04   -0.96220E-04 16896   0.131E-01    0.440E-02
DAV:   3    -0.125530710056E+03    0.12762E-04   -0.59282E-05 20256   0.300E-02    0.101E-02
DAV:   4    -0.125530710399E+03   -0.34332E-06   -0.54528E-06 18432   0.900E-03    0.314E-03
DAV:   5    -0.125530710362E+03    0.36969E-07   -0.61620E-07 22464   0.287E-03    0.115E-03
DAV:   6    -0.125530710369E+03   -0.69012E-08   -0.93199E-08 18432   0.112E-03
 110 F= -.12711997E+03 E0= -.12711919E+03  d E =-.727637E-04  mag=     0.0000
       N       E                     dE             d eps       ncg     rms          rms(c)
DAV:   1    -0.125530638973E+03    0.71389E-04   -0.15604E-02 14208   0.537E-01    0.210E-02
DAV:   2    -0.125530643913E+03   -0.49399E-05   -0.10210E-04 14208   0.429E-02    0.143E-02
DAV:   3    -0.125530642729E+03    0.11844E-05   -0.64415E-06 15552   0.101E-02    0.342E-03
DAV:   4    -0.125530642815E+03   -0.86138E-07   -0.62730E-07 15936   0.305E-03    0.108E-03
DAV:   5    -0.125530642829E+03   -0.13880E-07   -0.81255E-08 22176   0.103E-03    0.392E-04
DAV:   6    -0.125530642844E+03   -0.15690E-07   -0.11749E-08 23040   0.390E-04    0.114E-04
DAV:   7    -0.125530642855E+03   -0.10575E-07   -0.73056E-10 23280   0.103E-04    0.512E-05
DAV:   8    -0.125530642866E+03   -0.11307E-07   -0.14190E-10 21408   0.376E-05    0.263E-05
DAV:   9    -0.125530642886E+03   -0.19453E-07   -0.16236E-10 19824   0.320E-05    0.108E-05
DAV:  10    -0.125530642908E+03   -0.21958E-07   -0.27852E-10 19728   0.331E-05    0.978E-06
DAV:  11    -0.125530642919E+03   -0.11396E-07   -0.15844E-10 21600   0.228E-05    0.677E-06
DAV:  12    -0.125530642924E+03   -0.46293E-08   -0.61021E-11 18144   0.139E-05
 111 F= -.12711998E+03 E0= -.12711920E+03  d E =-.773751E-04  mag=     0.0000
       N       E                     dE             d eps       ncg     rms          rms(c)
DAV:   1    -0.125530578052E+03    0.64867E-04   -0.50806E-02 14208   0.965E-01    0.384E-02
DAV:   2    -0.125530594911E+03   -0.16859E-04   -0.35266E-04 24480   0.794E-02    0.263E-02
DAV:   3    -0.125530589699E+03    0.52122E-05   -0.24923E-05 14640   0.183E-02    0.564E-03
DAV:   4    -0.125530589644E+03    0.55433E-07   -0.38584E-06 15936   0.689E-03    0.214E-03
DAV:   5    -0.125530589690E+03   -0.46029E-07   -0.27234E-07 25296   0.189E-03    0.925E-04
DAV:   6    -0.125530589693E+03   -0.36744E-08   -0.65497E-08 16512   0.827E-04
 112 F= -.12712002E+03 E0= -.12711924E+03  d E =-.466390E-04  mag=     0.0000
       N       E                     dE             d eps       ncg     rms          rms(c)
DAV:   1    -0.125530527456E+03    0.62233E-04   -0.22236E-02 14208   0.639E-01    0.254E-02
DAV:   2    -0.125530534649E+03   -0.71929E-05   -0.15361E-04 23856   0.525E-02    0.174E-02
DAV:   3    -0.125530532475E+03    0.21739E-05   -0.10986E-05 14928   0.122E-02    0.373E-03
DAV:   4    -0.125530532469E+03    0.65620E-08   -0.16682E-06 16224   0.455E-03    0.142E-03
DAV:   5    -0.125530532498E+03   -0.29293E-07   -0.11837E-07 24960   0.125E-03    0.611E-04
DAV:   6    -0.125530532505E+03   -0.67903E-08   -0.28588E-08 22128   0.544E-04
 113 F= -.12712003E+03 E0= -.12711925E+03  d E =-.555235E-04  mag=    -0.0000
       N       E                     dE             d eps       ncg     rms          rms(c)
DAV:   1    -0.125530492764E+03    0.39734E-04   -0.48233E-02 14208   0.940E-01    0.375E-02
DAV:   2    -0.125530508703E+03   -0.15939E-04   -0.32334E-04 20496   0.760E-02    0.256E-02
DAV:   3    -0.125530504287E+03    0.44158E-05   -0.23210E-05 17088   0.181E-02    0.569E-03
DAV:   4    -0.125530504282E+03    0.56598E-08   -0.30824E-06 20256   0.643E-03    0.206E-03
DAV:   5    -0.125530504319E+03   -0.37902E-07   -0.20243E-07 21504   0.175E-03    0.849E-04
DAV:   6    -0.125530504330E+03   -0.10795E-07   -0.43448E-08 23952   0.734E-04    0.195E-04
DAV:   7    -0.125530504335E+03   -0.49276E-08   -0.51862E-09 24672   0.268E-04
 114 F= -.12712008E+03 E0= -.12711930E+03  d E =-.485106E-04  mag=    -0.0000
       N       E                     dE             d eps       ncg     rms          rms(c)
DAV:   1    -0.125530441161E+03    0.63169E-04   -0.39740E-02 14208   0.854E-01    0.340E-02
DAV:   2    -0.125530454246E+03   -0.13085E-04   -0.26629E-04 20256   0.690E-02    0.232E-02
DAV:   3    -0.125530450647E+03    0.35988E-05   -0.19088E-05 16560   0.165E-02    0.518E-03
DAV:   4    -0.125530450654E+03   -0.63137E-08   -0.25374E-06 19776   0.584E-03    0.188E-03
DAV:   5    -0.125530450687E+03   -0.33717E-07   -0.17133E-07 21696   0.160E-03    0.771E-04
DAV:   6    -0.125530450697E+03   -0.93232E-08   -0.36698E-08 24480   0.672E-04
 115 F= -.12712010E+03 E0= -.12711932E+03  d E =-.643536E-04  mag=     0.0000
       N       E                     dE             d eps       ncg     rms          rms(c)
DAV:   1    -0.125530442990E+03    0.76973E-05   -0.31875E-02 14208   0.765E-01    0.303E-02
DAV:   2    -0.125530453190E+03   -0.10200E-04   -0.20578E-04 19296   0.601E-02    0.208E-02
DAV:   3    -0.125530450568E+03    0.26225E-05   -0.12922E-05 15024   0.135E-02    0.440E-03
DAV:   4    -0.125530450664E+03   -0.96351E-07   -0.14141E-06 17184   0.442E-03    0.146E-03
DAV:   5    -0.125530450681E+03   -0.16369E-07   -0.12576E-07 21648   0.130E-03    0.596E-04
DAV:   6    -0.125530450689E+03   -0.80954E-08   -0.25111E-08 24336   0.542E-04
 116 F= -.12712015E+03 E0= -.12711937E+03  d E =-.500754E-04  mag=    -0.0000
       N       E                     dE             d eps       ncg     rms          rms(c)
DAV:   1    -0.125530314166E+03    0.13651E-03   -0.28132E-01 14208   0.227E+00    0.902E-02
DAV:   2    -0.125530406325E+03   -0.92158E-04   -0.18115E-03 19200   0.178E-01    0.617E-02
DAV:   3    -0.125530380889E+03    0.25435E-04   -0.11201E-04 19488   0.397E-02    0.132E-02
DAV:   4    -0.125530381169E+03   -0.27980E-06   -0.11886E-05 19536   0.127E-02    0.423E-03
DAV:   5    -0.125530381177E+03   -0.82018E-08   -0.92883E-07 20880   0.360E-03    0.176E-03
DAV:   6    -0.125530381206E+03   -0.28251E-07   -0.18336E-07 22992   0.153E-03    0.356E-04
DAV:   7    -0.125530381211E+03   -0.58017E-08   -0.22005E-08 24624   0.532E-04
 117 F= -.12712023E+03 E0= -.12711945E+03  d E =-.129491E-03  mag=    -0.0000
       N       E                     dE             d eps       ncg     rms          rms(c)
DAV:   1    -0.125530403566E+03   -0.22360E-04   -0.68827E-02 14208   0.113E+00    0.442E-02
DAV:   2    -0.125530425578E+03   -0.22013E-04   -0.44047E-04 20016   0.884E-02    0.302E-02
DAV:   3    -0.125530419349E+03    0.62293E-05   -0.28391E-05 15360   0.198E-02    0.622E-03
DAV:   4    -0.125530419496E+03   -0.14732E-06   -0.31025E-06 17952   0.653E-03    0.217E-03
DAV:   5    -0.125530419512E+03   -0.15763E-07   -0.26398E-07 21600   0.189E-03    0.884E-04
DAV:   6    -0.125530419521E+03   -0.94406E-08   -0.52993E-08 23856   0.801E-04
 118 F= -.12712031E+03 E0= -.12711953E+03  d E =-.838107E-04  mag=     0.0000
       N       E                     dE             d eps       ncg     rms          rms(c)
DAV:   1    -0.125530284525E+03    0.13499E-03   -0.61941E-01 14208   0.338E+00    0.133E-01
DAV:   2    -0.125530488233E+03   -0.20371E-03   -0.39747E-03 22416   0.265E-01    0.909E-02
DAV:   3    -0.125530427306E+03    0.60927E-04   -0.25509E-04 19152   0.581E-02    0.181E-02
DAV:   4    -0.125530427517E+03   -0.21048E-06   -0.27794E-05 22176   0.192E-02    0.635E-03
DAV:   5    -0.125530427457E+03    0.60269E-07   -0.17358E-06 20736   0.499E-03    0.269E-03
DAV:   6    -0.125530427483E+03   -0.26635E-07   -0.38898E-07 24096   0.229E-03    0.527E-04
DAV:   7    -0.125530427513E+03   -0.30053E-07   -0.48218E-08 24048   0.828E-04    0.250E-04
DAV:   8    -0.125530427564E+03   -0.50864E-07   -0.11794E-08 19632   0.358E-04    0.145E-04
DAV:   9    -0.125530427627E+03   -0.62690E-07   -0.88888E-09 20112   0.288E-04    0.863E-05
DAV:  10    -0.125530427682E+03   -0.55508E-07   -0.39595E-09 19008   0.181E-04    0.606E-05
DAV:  11    -0.125530427749E+03   -0.66726E-07   -0.42440E-09 18720   0.151E-04    0.259E-05
DAV:  12    -0.125530427772E+03   -0.23409E-07   -0.84271E-10 21360   0.609E-05    0.152E-05
DAV:  13    -0.125530427782E+03   -0.99963E-08   -0.22360E-10 21264   0.271E-05
 119 F= -.12712046E+03 E0= -.12711968E+03  d E =-.228958E-03  mag=     0.0000
       N       E                     dE             d eps       ncg     rms          rms(c)
DAV:   1    -0.125530361493E+03    0.66279E-04   -0.10215E-01 14208   0.137E+00    0.538E-02
DAV:   2    -0.125530394809E+03   -0.33316E-04   -0.65826E-04 24960   0.108E-01    0.370E-02
DAV:   3    -0.125530385077E+03    0.97318E-05   -0.41760E-05 14208   0.234E-02    0.705E-03
DAV:   4    -0.125530385188E+03   -0.11085E-06   -0.48357E-06 18624   0.805E-03    0.262E-03
DAV:   5    -0.125530385200E+03   -0.12447E-07   -0.37283E-07 23664   0.224E-03    0.110E-03
DAV:   6    -0.125530385201E+03   -0.10295E-08   -0.81505E-08 23136   0.973E-04
 120 F= -.12712047E+03 E0= -.12711969E+03  d E =-.242069E-03  mag=     0.0000
       N       E                     dE             d eps       ncg     rms          rms(c)
DAV:   1    -0.125530392972E+03   -0.77713E-05   -0.57343E-03 14208   0.325E-01    0.127E-02
DAV:   2    -0.125530394793E+03   -0.18216E-05   -0.36727E-05 20352   0.254E-02    0.870E-03
DAV:   3    -0.125530394376E+03    0.41768E-06   -0.23296E-06 20448   0.558E-03    0.178E-03
DAV:   4    -0.125530394387E+03   -0.11927E-07   -0.24384E-07 24960   0.179E-03    0.602E-04
DAV:   5    -0.125530394390E+03   -0.27267E-08   -0.15228E-08 22848   0.456E-04
 121 F= -.12712049E+03 E0= -.12711971E+03  d E =-.213022E-04  mag=    -0.0000
       N       E                     dE             d eps       ncg     rms          rms(c)
DAV:   1    -0.125530404265E+03   -0.98778E-05   -0.51596E-02 14208   0.976E-01    0.381E-02
DAV:   2    -0.125530421081E+03   -0.16816E-04   -0.32761E-04 22944   0.760E-02    0.262E-02
DAV:   3    -0.125530416477E+03    0.46044E-05   -0.20271E-05 14976   0.164E-02    0.499E-03
DAV:   4    -0.125530416556E+03   -0.79947E-07   -0.23112E-06 21312   0.552E-03    0.181E-03
DAV:   5    -0.125530416555E+03    0.10041E-08   -0.16229E-07 24000   0.144E-03    0.755E-04
DAV:   6    -0.125530416560E+03   -0.44747E-08   -0.36285E-08 23424   0.663E-04
 122 F= -.12712055E+03 E0= -.12711977E+03  d E =-.798466E-04  mag=    -0.0000
       N       E                     dE             d eps       ncg     rms          rms(c)
DAV:   1    -0.125530388007E+03    0.28549E-04   -0.20638E-01 14208   0.195E+00    0.762E-02
DAV:   2    -0.125530456528E+03   -0.68521E-04   -0.13141E-03 24672   0.152E-01    0.525E-02
DAV:   3    -0.125530436921E+03    0.19607E-04   -0.81365E-05 14496   0.326E-02    0.989E-03
DAV:   4    -0.125530437095E+03   -0.17441E-06   -0.93763E-06 18432   0.111E-02    0.361E-03
DAV:   5    -0.125530437099E+03   -0.36453E-08   -0.74398E-07 22128   0.308E-03    0.153E-03
DAV:   6    -0.125530437110E+03   -0.10844E-07   -0.17184E-07 23568   0.138E-03    0.387E-04
DAV:   7    -0.125530437124E+03   -0.13700E-07   -0.22876E-08 23184   0.544E-04    0.159E-04
DAV:   8    -0.125530437147E+03   -0.23855E-07   -0.42938E-09 18576   0.220E-04    0.899E-05
DAV:   9    -0.125530437176E+03   -0.28266E-07   -0.30541E-09 20640   0.168E-04    0.546E-05
DAV:  10    -0.125530437200E+03   -0.24653E-07   -0.15164E-09 19776   0.111E-04    0.380E-05
DAV:  11    -0.125530437231E+03   -0.30812E-07   -0.18105E-09 17424   0.970E-05    0.173E-05
DAV:  12    -0.125530437242E+03   -0.11208E-07   -0.40557E-10 22224   0.423E-05    0.950E-06
DAV:  13    -0.125530437247E+03   -0.43119E-08   -0.92960E-11 20400   0.228E-05
 123 F= -.12712064E+03 E0= -.12711986E+03  d E =-.173459E-03  mag=     0.0000
       N       E                     dE             d eps       ncg     rms          rms(c)
DAV:   1    -0.125530183984E+03    0.25326E-03   -0.82547E-01 14208   0.390E+00    0.152E-01
DAV:   2    -0.125530460317E+03   -0.27633E-03   -0.52463E-03 22368   0.304E-01    0.105E-01
DAV:   3    -0.125530380435E+03    0.79882E-04   -0.32815E-04 19392   0.655E-02    0.204E-02
DAV:   4    -0.125530380719E+03   -0.28436E-06   -0.35705E-05 21696   0.216E-02    0.712E-03
DAV:   5    -0.125530380605E+03    0.11402E-06   -0.23086E-06 20544   0.559E-03    0.305E-03
DAV:   6    -0.125530380628E+03   -0.22868E-07   -0.51921E-07 24000   0.260E-03    0.584E-04
DAV:   7    -0.125530380652E+03   -0.24424E-07   -0.60599E-08 23808   0.904E-04    0.274E-04
DAV:   8    -0.125530380712E+03   -0.59344E-07   -0.17731E-08 19104   0.425E-04    0.106E-04
DAV:   9    -0.125530380784E+03   -0.72772E-07   -0.10712E-08 19104   0.316E-04    0.783E-05
DAV:  10    -0.125530380861E+03   -0.76728E-07   -0.50627E-09 19296   0.192E-04    0.550E-05
DAV:  11    -0.125530380904E+03   -0.42592E-07   -0.17565E-09 20304   0.103E-04    0.294E-05
DAV:  12    -0.125530380931E+03   -0.27064E-07   -0.83489E-10 20256   0.541E-05    0.140E-05
DAV:  13    -0.125530380945E+03   -0.14465E-07   -0.39994E-10 20832   0.320E-05    0.753E-06
DAV:  14    -0.125530380950E+03   -0.50841E-08   -0.13827E-10 20736   0.224E-05
 124 F= -.12712073E+03 E0= -.12711995E+03  d E =-.263591E-03  mag=     0.0000
       N       E                     dE             d eps       ncg     rms          rms(c)
DAV:   1    -0.125530343482E+03    0.37463E-04   -0.37487E-02 14208   0.832E-01    0.325E-02
DAV:   2    -0.125530355713E+03   -0.12231E-04   -0.23915E-04 23136   0.649E-02    0.224E-02
DAV:   3    -0.125530352415E+03    0.32979E-05   -0.14834E-05 14496   0.140E-02    0.427E-03
DAV:   4    -0.125530352482E+03   -0.66382E-07   -0.16998E-06 20496   0.473E-03    0.154E-03
DAV:   5    -0.125530352482E+03   -0.52023E-09   -0.12305E-07 23376   0.125E-03    0.646E-04
DAV:   6    -0.125530352482E+03   -0.27558E-09   -0.27467E-08 23808   0.568E-04
 125 F= -.12712073E+03 E0= -.12711995E+03  d E =-.266481E-03  mag=    -0.0000
       N       E                     dE             d eps       ncg     rms          rms(c)
DAV:   1    -0.125530388953E+03   -0.36471E-04   -0.24509E-03 14208   0.214E-01    0.896E-03
DAV:   2    -0.125530389802E+03   -0.84974E-06   -0.20424E-05 20640   0.194E-02    0.590E-03
DAV:   3    -0.125530389682E+03    0.12055E-06   -0.12642E-06 19152   0.439E-03    0.194E-03
DAV:   4    -0.125530389696E+03   -0.13680E-07   -0.21353E-07 21984   0.170E-03    0.617E-04
DAV:   5    -0.125530389702E+03   -0.69504E-08   -0.87400E-09 21024   0.395E-04
 126 F= -.12712077E+03 E0= -.12711999E+03  d E =-.393606E-04  mag=     0.0000
       N       E                     dE             d eps       ncg     rms          rms(c)
DAV:   1    -0.125530441164E+03   -0.51468E-04   -0.22058E-02 14208   0.642E-01    0.269E-02
DAV:   2    -0.125530449251E+03   -0.80873E-05   -0.18392E-04 27360   0.581E-02    0.178E-02
DAV:   3    -0.125530447487E+03    0.17637E-05   -0.10163E-05 15360   0.123E-02    0.565E-03
DAV:   4    -0.125530447537E+03   -0.49919E-07   -0.19692E-06 24912   0.517E-03    0.181E-03
DAV:   5    -0.125530447578E+03   -0.41314E-07   -0.65165E-08 20160   0.110E-03    0.713E-04
DAV:   6    -0.125530447580E+03   -0.15189E-08   -0.16080E-08 25248   0.462E-04
 127 F= -.12712084E+03 E0= -.12712006E+03  d E =-.103254E-03  mag=    -0.0000
       N       E                     dE             d eps       ncg     rms          rms(c)
DAV:   1    -0.125530448751E+03   -0.11726E-05   -0.18136E-03 14208   0.184E-01    0.771E-03
DAV:   2    -0.125530449371E+03   -0.62031E-06   -0.15167E-05 22368   0.167E-02    0.508E-03
DAV:   3    -0.125530449287E+03    0.84925E-07   -0.92640E-07 18864   0.375E-03    0.166E-03
DAV:   4    -0.125530449298E+03   -0.11113E-07   -0.15942E-07 21504   0.147E-03    0.529E-04
DAV:   5    -0.125530449302E+03   -0.41846E-08   -0.68825E-09 20256   0.356E-04
 128 F= -.12712084E+03 E0= -.12712006E+03  d E =-.106608E-03  mag=     0.0000
