Lattice                                 
           1
     4.330127    2.500000    0.000000
    -4.330127    2.500000    0.000000
     0.000000    0.000000   15.000000
   B    C 
     4    11
Direct configuration=     1
   0.00415361  0.00267210  0.12034134
   0.35695335  0.00285503  0.09748893
   0.00423858  0.35550699  0.09749256
   0.65142295  0.65006557  0.09747688
   0.32808646  0.32671938  0.10030508
   0.68027775  0.00278085  0.10027562
   0.00416530  0.67883808  0.10026559
   0.99999933  0.49999967  0.32000000
   0.16666633  0.33333267  0.32000000
   0.99999933  0.99999967  0.32000000
   0.16666633  0.83333267  0.32000000
   0.49999933  0.49999967  0.32000000
   0.66666633  0.33333267  0.32000000
   0.49999933  0.99999967  0.32000000
   0.66666633  0.83333267  0.32000000
Lattice                                 
           1
     3.928834    2.268451    0.000069
    -3.928755    2.268313    0.000041
     0.000049    0.000328   15.036216
   B    C 
     4    11
Direct configuration=     2
   0.00416873  0.00272736  0.11834692
   0.35512171  0.00332314  0.09786301
   0.00369688  0.35317004  0.09786408
   0.65375864  0.65187755  0.09785330
   0.32232158  0.32025554  0.10014755
   0.68670088  0.00346176  0.10012805
   0.00350901  0.68460879  0.10011978
   0.00019144  0.49983829  0.32013189
   0.16679960  0.33416128  0.32028708
   0.00000649  0.99999723  0.32001861
   0.16735552  0.83319916  0.32029162
   0.50018360  0.50037746  0.32013637
   0.66667124  0.33334164  0.32004214
   0.49964772  0.99980164  0.32013057
   0.66582760  0.83262644  0.32028505
Lattice                                 
           1
     4.202469    2.426340    0.000022
    -4.202443    2.426296    0.000013
     0.000016    0.000104   15.011521
   B    C 
     4    11
Direct configuration=     3
   0.00415726  0.00268574  0.11970360
   0.35649823  0.00297131  0.09760854
   0.00410397  0.35492635  0.09761135
   0.65200339  0.65051585  0.09759725
   0.32665387  0.32511322  0.10025467
   0.68187385  0.00295017  0.10022846
   0.00400225  0.68027186  0.10021897
   0.00004708  0.49995958  0.32004217
   0.16669947  0.33353856  0.32009180
   0.00000111  0.99999906  0.32000595
   0.16683761  0.83329952  0.32009325
   0.50004513  0.50009354  0.32004361
   0.66666756  0.33333490  0.32001348
   0.49991197  0.99995046  0.32004175
   0.66645792  0.83315719  0.32009114
Lattice                                 
           1
     4.193649    2.421251    0.000023
    -4.193622    2.421204    0.000014
     0.000017    0.000112   15.012317
   B    C 
     4    11
Direct configuration=     4
   0.00415760  0.00268700  0.11965980
   0.35645675  0.00298191  0.09761676
   0.00409170  0.35487343  0.09761951
   0.65205628  0.65055688  0.09760552
   0.32652332  0.32496684  0.10025121
   0.68201931  0.00296559  0.10022522
   0.00398739  0.68040255  0.10021577
   0.00005143  0.49995593  0.32004507
   0.16670249  0.33355733  0.32009810
   0.00000128  0.99999901  0.32000636
   0.16685321  0.83329650  0.32009965
   0.50004931  0.50010210  0.32004660
   0.66666767  0.33333510  0.32001440
   0.49990400  0.99994598  0.32004462
   0.66643893  0.83314120  0.32009740
Lattice                                 
           1
     4.192335    2.420493    0.000024
    -4.192308    2.420445    0.000014
     0.000017    0.000113   15.012435
   B    C 
     4    11
Direct configuration=     5
   0.00415765  0.00268718  0.11965328
   0.35645055  0.00298350  0.09761798
   0.00408987  0.35486553  0.09762073
   0.65206418  0.65056301  0.09760675
   0.32650383  0.32494499  0.10025070
   0.68204102  0.00296789  0.10022473
   0.00398517  0.68042206  0.10021529
   0.00005208  0.49995538  0.32004550
   0.16670294  0.33356013  0.32009904
   0.00000130  0.99999900  0.32000642
   0.16685554  0.83329605  0.32010061
   0.50004993  0.50010338  0.32004705
   0.66666768  0.33333513  0.32001454
   0.49990282  0.99994531  0.32004504
   0.66643610  0.83313881  0.32009833
Lattice                                 
           1
     4.191794    2.420149    0.000077
    -4.191774    2.420115    0.000056
     0.000038    0.000408   15.043962
   B    C 
     4    11
Direct configuration=     6
   0.00417527  0.00274989  0.11893857
   0.35724465  0.00321606  0.09771185
   0.00377581  0.35539649  0.09771327
   0.65153527  0.64973566  0.09770231
   0.32752243  0.32559885  0.10007059
   0.68136016  0.00331413  0.10005026
   0.00366206  0.67941225  0.10004151
  -0.00000123  0.50007186  0.32016644
   0.16678044  0.33343907  0.32027210
  -0.00000405  0.99999774  0.32005645
   0.16666631  0.83322738  0.32027649
   0.49992999  0.49992914  0.32017073
   0.66666965  0.33333477  0.32003998
   0.50006977  0.00000216  0.32016514
   0.66657413  0.83334190  0.32027030
Lattice                                 
           1
     4.191499    2.419963    0.000106
    -4.191483    2.419935    0.000078
     0.000050    0.000568   15.061119
   B    C 
     4    11
Direct configuration=     7
   0.00418489  0.00278405  0.11855045
   0.35767684  0.00334264  0.09776282
   0.00360488  0.35568547  0.09776352
   0.65124739  0.64928536  0.09775421
   0.32807683  0.32595473  0.09997278
   0.68098959  0.00350257  0.09995551
   0.00348621  0.67886265  0.09994714
  -0.00003024  0.50013525  0.32023211
   0.16682262  0.33337318  0.32036608
  -0.00000697  0.99999705  0.32008362
   0.16656331  0.83319001  0.32037201
   0.49986471  0.49983430  0.32023790
   0.66667071  0.33333457  0.32005380
   0.50016064  0.00003310  0.32023036
   0.66664926  0.83345242  0.32036368
Lattice                                 
           1
     4.191602    2.420026    0.000134
    -4.191583    2.419994    0.000093
     0.000073    0.000702   15.076834
   B    C 
     4    11
Direct configuration=     8
   0.00418808  0.00280160  0.11814712
   0.35777720  0.00341010  0.09779462
   0.00350762  0.35571023  0.09779472
   0.65123007  0.64917388  0.09778674
   0.32806725  0.32584983  0.09990989
   0.68108729  0.00358678  0.09989527
   0.00340059  0.67887954  0.09988718
   0.00000453  0.50006666  0.32029656
   0.16675917  0.33342790  0.32044234
   0.00000071  0.00000006  0.32012717
   0.16667625  0.83325012  0.32044921
   0.49994064  0.49994034  0.32030322
   0.66667027  0.33333581  0.32007799
   0.50006430  0.00000115  0.32029443
   0.66658670  0.83333332  0.32043953
Lattice                                 
           1
     4.191911    2.420216    0.000218
    -4.191883    2.420169    0.000139
     0.000141    0.001103   15.123980
   B    C 
     4    11
Direct configuration=     9
   0.00419770  0.00285431  0.11693839
   0.35807826  0.00361248  0.09788989
   0.00321585  0.35578451  0.09788822
   0.65117812  0.64883947  0.09788424
   0.32803851  0.32553516  0.09972142
   0.68138039  0.00383939  0.09971473
   0.00314375  0.67893022  0.09970748
   0.00010886  0.49986090  0.32048972
   0.16656881  0.33359204  0.32067088
   0.00002371  0.00000910  0.32025771
   0.16701503  0.83343044  0.32068056
   0.50016844  0.50025846  0.32049898
   0.66666893  0.33333952  0.32015050
   0.49977527 -0.00009468  0.32048644
   0.66639902  0.83297601  0.32066684
Lattice                                 
           1
     4.192528    2.420596    0.000385
    -4.192484    2.420521    0.000231
     0.000276    0.001905   15.218273
   B    C 
     4    11
Direct configuration=    10
   0.00421716  0.00295988  0.11452846
   0.35868033  0.00401719  0.09807985
   0.00263233  0.35593306  0.09807465
   0.65107421  0.64817068  0.09807862
   0.32798108  0.32490590  0.09934567
   0.68196658  0.00434461  0.09935477
   0.00263015  0.67903160  0.09934920
   0.00031746  0.49944938  0.32087482
   0.16618807  0.33392027  0.32112653
   0.00006970  0.00002715  0.32051797
   0.16769252  0.83379102  0.32114183
   0.50062395  0.50089461  0.32088927
   0.66666625  0.33334694  0.32029506
   0.49919724 -0.00028636  0.32086926
   0.66602364  0.83226140  0.32112005
Lattice                                 
           1
     4.192778    2.420725    0.000412
    -4.192746    2.420670    0.000242
     0.000305    0.002024   15.232564
   B    C 
     4    11
Direct configuration=    11
   0.00421795  0.00296811  0.11415365
   0.35872438  0.00404059  0.09809659
   0.00259260  0.35595123  0.09809098
   0.65106274  0.64811962  0.09809588
   0.32793450  0.32483635  0.09930211
   0.68203225  0.00435892  0.09931333
   0.00260956  0.67908309  0.09930796
   0.00028507  0.49951810  0.32093400
   0.16625392  0.33387592  0.32118805
   0.00006293  0.00002509  0.32057168
   0.16759311  0.83373394  0.32120377
   0.50054939  0.50079250  0.32094880
   0.66667044  0.33334764  0.32032974
   0.49929084 -0.00025637  0.32092816
   0.66608097  0.83237261  0.32118130
Lattice                                 
           1
     4.193529    2.421111    0.000494
    -4.193533    2.421118    0.000276
     0.000390    0.002381   15.275438
   B    C 
     4    11
Direct configuration=    12
   0.00422037  0.00299282  0.11303029
   0.35885654  0.00411076  0.09814676
   0.00247339  0.35600572  0.09813994
   0.65102834  0.64796646  0.09814760
   0.32779478  0.32462774  0.09917155
   0.68222927  0.00440184  0.09918911
   0.00254781  0.67923757  0.09918436
   0.00018791  0.49972425  0.32111137
   0.16645145  0.33374286  0.32137243
   0.00004259  0.00001892  0.32073267
   0.16729491  0.83356270  0.32138942
   0.50032573  0.50048619  0.32112721
   0.66668298  0.33334970  0.32043371
   0.49957164 -0.00016641  0.32110468
   0.66625295  0.83270621  0.32136490
Lattice                                 
           1
     4.195031    2.421884    0.000656
    -4.195106    2.422014    0.000344
     0.000560    0.003095   15.361185
   B    C 
     4    11
Direct configuration=    13
   0.00422539  0.00304236  0.11078987
   0.35912081  0.00425107  0.09824681
   0.00223501  0.35611469  0.09823758
   0.65095955  0.64766019  0.09825074
   0.32751542  0.32421060  0.09891117
   0.68262325  0.00448770  0.09894138
   0.00242435  0.67954648  0.09893785
  -0.00000640  0.50013646  0.32146511
   0.16684641  0.33347679  0.32174016
   0.00000191  0.00000654  0.32105375
   0.16669856  0.83322025  0.32175969
   0.49987844  0.49987365  0.32148305
   0.66670806  0.33335383  0.32064105
   0.50013310  0.00001346  0.32145674
   0.66659682  0.83337325  0.32173107
Lattice                                 
           1
     4.195147    2.421984    0.000685
    -4.195198    2.422072    0.000347
     0.000606    0.003196   15.373191
   B    C 
     4    11
Direct configuration=    14
   0.00422068  0.00302511  0.11042140
   0.35912857  0.00414332  0.09822205
   0.00236922  0.35624220  0.09821311
   0.65082803  0.64765657  0.09822579
   0.32761782  0.32449491  0.09891223
   0.68234215  0.00430861  0.09894301
   0.00258945  0.67943744  0.09893953
  -0.00000165  0.50012534  0.32151831
   0.16680300  0.33342116  0.32177337
   0.00001438  0.00001135  0.32114934
   0.16666680  0.83324924  0.32179166
   0.49990554  0.49988440  0.32153487
   0.66669724  0.33335034  0.32072679
   0.50014034  0.00002810  0.32150995
   0.66663911  0.83338925  0.32176458
Lattice                                 
           1
     4.195496    2.422283    0.000773
    -4.195476    2.422249    0.000358
     0.000746    0.003500   15.409208
   B    C 
     4    11
Direct configuration=    15
   0.00420659  0.00297338  0.10931686
   0.35915185  0.00382007  0.09814782
   0.00277183  0.35662472  0.09813975
   0.65043350  0.64764570  0.09815100
   0.32792500  0.32534782  0.09891539
   0.68149889  0.00377135  0.09894791
   0.00308470  0.67911031  0.09894458
   0.00001259  0.50009197  0.32167780
   0.16667277  0.33325427  0.32187294
   0.00005178  0.00002578  0.32143591
   0.16657151  0.83333621  0.32188752
   0.49998686  0.49991664  0.32169021
   0.66666478  0.33333988  0.32098382
   0.50016207  0.00007200  0.32166945
   0.66676595  0.83343722  0.32186504
Lattice                                 
           1
     4.196194    2.422882    0.000948
    -4.196032    2.422601    0.000379
     0.001026    0.004107   15.481242
   B    C 
     4    11
Direct configuration=    16
   0.00417858  0.00287002  0.10711293
   0.35919840  0.00317363  0.09799971
   0.00357697  0.35738969  0.09799337
   0.64964453  0.64762398  0.09800177
   0.32853931  0.32705352  0.09892171
   0.67981254  0.00269694  0.09895769
   0.00407512  0.67845608  0.09895466
   0.00004104  0.50002524  0.32199602
   0.16641233  0.33292052  0.32207159
   0.00012654  0.00005460  0.32200771
   0.16638094  0.83351014  0.32207878
   0.50014945  0.49998109  0.32200017
   0.66659983  0.33331894  0.32149667
   0.50020549  0.00015979  0.32198772
   0.66701959  0.83353315  0.32206548
Lattice                                 
           1
     4.195899    2.422628    0.000874
    -4.195797    2.422452    0.000370
     0.000907    0.003849   15.450704
   B    C 
     4    11
Direct configuration=    17
   0.00419031  0.00291375  0.10804290
   0.35917866  0.00344764  0.09806221
   0.00323571  0.35706545  0.09805514
   0.64997892  0.64763317  0.09806474
   0.32827895  0.32633053  0.09891905
   0.68052729  0.00315232  0.09895355
   0.00365534  0.67873341  0.09895041
   0.00002900  0.50005354  0.32186175
   0.16652273  0.33306199  0.32198777
   0.00009489  0.00004241  0.32176644
   0.16646172  0.83343642  0.32199808
   0.50008055  0.49995379  0.32186938
   0.66662739  0.33332784  0.32128027
   0.50018711  0.00012259  0.32185342
   0.66691210  0.83349250  0.32198090
Lattice                                 
           1
     4.194940    2.421871    0.000917
    -4.194983    2.421946    0.000371
     0.000984    0.003985   15.462631
   B    C 
     4    11
Direct configuration=    18
   0.00417740  0.00287164  0.10748539
   0.35897375  0.00322167  0.09800382
   0.00354324  0.35710085  0.09799825
   0.64990784  0.64786797  0.09800540
   0.32799274  0.32633783  0.09894849
   0.68052611  0.00289825  0.09898052
   0.00391206  0.67897057  0.09897720
   0.00005671  0.49998080  0.32192044
   0.16671646  0.33347963  0.32202936
   0.00000378  0.00001025  0.32191555
   0.16685591  0.83337652  0.32203650
   0.50003369  0.50009850  0.32192500
   0.66673215  0.33336785  0.32148320
   0.49991663 -0.00004933  0.32191317
   0.66661221  0.83323433  0.32202372
Lattice                                 
           1
     4.194726    2.421702    0.000926
    -4.194802    2.421834    0.000371
     0.001001    0.004015   15.465295
   B    C 
     4    11
Direct configuration=    19
   0.00417452  0.00286224  0.10736097
   0.35892798  0.00317119  0.09799079
   0.00361194  0.35710877  0.09798555
   0.64989197  0.64792042  0.09799216
   0.32792880  0.32633946  0.09895506
   0.68052584  0.00284150  0.09898654
   0.00396941  0.67902355  0.09898318
   0.00006290  0.49996455  0.32193354
   0.16675973  0.33357292  0.32203864
  -0.00001657  0.00000307  0.32194883
   0.16694396  0.83336314  0.32204507
   0.50002322  0.50013083  0.32193741
   0.66675555  0.33337679  0.32152849
   0.49985620 -0.00008773  0.32192650
   0.66654522  0.83317665  0.32203327
Lattice                                 
           1
     4.194630    2.421627    0.000930
    -4.194720    2.421783    0.000371
     0.001009    0.004028   15.466487
   B    C 
     4    11
Direct configuration=    20
   0.00417323  0.00285803  0.10730531
   0.35890750  0.00314860  0.09798496
   0.00364268  0.35711231  0.09797987
   0.64988486  0.64794389  0.09798624
   0.32790019  0.32634019  0.09895800
   0.68052572  0.00281610  0.09898923
   0.00399507  0.67904726  0.09898585
   0.00006567  0.49995727  0.32193940
   0.16677910  0.33361466  0.32204279
  -0.00002568 -0.00000015  0.32196371
   0.16698337  0.83335716  0.32204891
   0.50001853  0.50014529  0.32194296
   0.66676602  0.33338079  0.32154874
   0.49982916 -0.00010492  0.32193247
   0.66651524  0.83315085  0.32203755
Lattice                                 
           1
     4.194472    2.421703    0.000951
    -4.194449    2.421663    0.000368
     0.001052    0.004085   15.466173
   B    C 
     4    11
Direct configuration=    21
   0.00416146  0.00282500  0.10705246
   0.35878098  0.00305010  0.09796048
   0.00379027  0.35708392  0.09795682
   0.64987700  0.64809272  0.09796087
   0.32762423  0.32610790  0.09896745
   0.68076536  0.00281109  0.09899471
   0.00402370  0.67929188  0.09899121
   0.00008340  0.50002575  0.32195678
   0.16673800  0.33350630  0.32206527
   0.00004904  0.00002519  0.32201775
   0.16678851  0.83329575  0.32206958
   0.50005457  0.50006660  0.32195857
   0.66668583  0.33335061  0.32168213
   0.50001150 -0.00000976  0.32195079
   0.66652681  0.83324430  0.32206112
Lattice                                 
           1
     4.194436    2.421721    0.000956
    -4.194386    2.421635    0.000367
     0.001062    0.004098   15.466099
   B    C 
     4    11
Direct configuration=    22
   0.00415872  0.00281730  0.10699354
   0.35875151  0.00302715  0.09795478
   0.00382466  0.35707730  0.09795145
   0.64987517  0.64812740  0.09795496
   0.32755993  0.32605377  0.09896965
   0.68082120  0.00280992  0.09899599
   0.00403037  0.67934888  0.09899246
   0.00008753  0.50004171  0.32196083
   0.16672843  0.33348106  0.32207051
   0.00006645  0.00003109  0.32203034
   0.16674310  0.83328144  0.32207439
   0.50006297  0.50004826  0.32196221
   0.66666714  0.33334358  0.32171321
   0.50005398  0.00001241  0.32195506
   0.66652950  0.83326607  0.32206661
Lattice                                 
           1
     4.194362    2.421757    0.000965
    -4.194259    2.421579    0.000366
     0.001082    0.004124   15.465953
   B    C 
     4    11
Direct configuration=    23
   0.00415324  0.00280191  0.10687571
   0.35869255  0.00298124  0.09794337
   0.00389344  0.35706407  0.09794071
   0.64987151  0.64819676  0.09794314
   0.32743133  0.32594553  0.09897406
   0.68093287  0.00280758  0.09899855
   0.00404371  0.67946287  0.09899495
   0.00009579  0.50007362  0.32196893
   0.16670928  0.33343056  0.32208098
   0.00010127  0.00004289  0.32205553
   0.16665230  0.83325282  0.32208402
   0.50007976  0.50001159  0.32196949
   0.66662977  0.33332951  0.32177537
   0.50013895  0.00005676  0.32196359
   0.66653489  0.83330962  0.32207760
Lattice                                 
           1
     4.194415    2.421731    0.000958
    -4.194351    2.421620    0.000367
     0.001067    0.004105   15.466059
   B    C 
     4    11
Direct configuration=    24
   0.00415720  0.00281303  0.10696081
   0.35873513  0.00301439  0.09795161
   0.00384377  0.35707363  0.09794847
   0.64987416  0.64814667  0.09795168
   0.32752420  0.32602370  0.09897088
   0.68085222  0.00280928  0.09899670
   0.00403407  0.67938055  0.09899315
   0.00008983  0.50005057  0.32196308
   0.16672311  0.33346703  0.32207342
   0.00007613  0.00003437  0.32203734
   0.16671788  0.83327349  0.32207707
   0.50006764  0.50003808  0.32196423
   0.66665676  0.33333967  0.32173048
   0.50007759  0.00002473  0.32195743
   0.66653100  0.83327817  0.32206967
Lattice                                 
           1
     4.194984    2.421966    0.000973
    -4.194992    2.421979    0.000363
     0.001102    0.004139   15.460901
   B    C 
     4    11
Direct configuration=    25
   0.00414495  0.00277842  0.10679737
   0.35877227  0.00298480  0.09794624
   0.00390143  0.35714279  0.09794427
   0.64977990  0.64812321  0.09794556
   0.32753624  0.32597218  0.09895841
   0.68091361  0.00290136  0.09897967
   0.00396746  0.67935554  0.09897604
   0.00002876  0.50001223  0.32198059
   0.16670476  0.33337509  0.32209153
   0.00003042  0.00001925  0.32205954
   0.16672274  0.83335742  0.32209432
   0.50004040  0.50002708  0.32198107
   0.66670459  0.33335664  0.32182649
   0.50002482  0.00002453  0.32197606
   0.66668832  0.83333679  0.32208882
Lattice                                 
           1
     4.195859    2.422326    0.000995
    -4.195978    2.422533    0.000356
     0.001156    0.004190   15.452965
   B    C 
     4    11
Direct configuration=    26
   0.00412610  0.00272516  0.10654578
   0.35882943  0.00293926  0.09793798
   0.00399015  0.35724922  0.09793781
   0.64963487  0.64808711  0.09793615
   0.32755477  0.32589292  0.09893921
   0.68100807  0.00304305  0.09895346
   0.00386496  0.67931707  0.09894969
  -0.00006522  0.49995323  0.32200756
   0.16667652  0.33323362  0.32211942
  -0.00003990 -0.00000401  0.32209372
   0.16673022  0.83348658  0.32212088
   0.49999848  0.50001017  0.32200700
   0.66677819  0.33338276  0.32197429
   0.49994363  0.00002421  0.32200475
   0.66693040  0.83342698  0.32211831
Lattice                                 
           1
     4.195956    2.422407    0.001002
    -4.196059    2.422585    0.000354
     0.001174    0.004210   15.449416
   B    C 
     4    11
Direct configuration=    27
   0.00412019  0.00270850  0.10645705
   0.35886236  0.00293399  0.09793732
   0.00400697  0.35728848  0.09793775
   0.64958419  0.64805968  0.09793510
   0.32759032  0.32589140  0.09892846
   0.68101426  0.00309218  0.09894016
   0.00382724  0.67927786  0.09893637
  -0.00004419  0.49995718  0.32202165
   0.16667190  0.33324937  0.32212928
  -0.00002985 -0.00000019  0.32210447
   0.16673602  0.83347895  0.32213046
   0.50000818  0.50002523  0.32202093
   0.66676954  0.33338013  0.32201890
   0.49994198  0.00001565  0.32201942
   0.66690155  0.83340892  0.32212868
Lattice                                 
           1
     4.196246    2.422648    0.001025
    -4.196302    2.422744    0.000348
     0.001229    0.004267   15.438769
   B    C 
     4    11
Direct configuration=    28
   0.00410248  0.00265849  0.10619081
   0.35896116  0.00291818  0.09793537
   0.00405741  0.35740626  0.09793758
   0.64943216  0.64797741  0.09793195
   0.32769697  0.32588685  0.09889622
   0.68103281  0.00323958  0.09890027
   0.00371407  0.67916023  0.09889640
   0.00001889  0.49996901  0.32206394
   0.16665806  0.33329663  0.32215886
   0.00000030  0.00001128  0.32213672
   0.16675340  0.83345607  0.32215918
   0.50003727  0.50007041  0.32206272
   0.66674360  0.33337222  0.32215274
   0.49993706 -0.00001003  0.32206345
   0.66681502  0.83335474  0.32215979
Lattice                                 
           1
     4.196827    2.423130    0.001072
    -4.196788    2.423062    0.000336
     0.001339    0.004383   15.417476
   B    C 
     4    11
Direct configuration=    29
   0.00406708  0.00255850  0.10565795
   0.35915875  0.00288655  0.09793145
   0.00415827  0.35764180  0.09793723
   0.64912812  0.64781288  0.09792566
   0.32791025  0.32587775  0.09883169
   0.68106992  0.00353436  0.09882042
   0.00348775  0.67892499  0.09881642
   0.00014503  0.49999268  0.32214857
   0.16663038  0.33339115  0.32221805
   0.00006060  0.00003420  0.32220128
   0.16678817  0.83341031  0.32221667
   0.50009545  0.50016077  0.32214636
   0.66669171  0.33335641  0.32242063
   0.49992721 -0.00006139  0.32215156
   0.66664197  0.83324638  0.32222206
Lattice                                 
           1
     4.197077    2.423337    0.001092
    -4.196997    2.423198    0.000330
     0.001386    0.004433   15.408315
   B    C 
     4    11
Direct configuration=    30
   0.00405185  0.00251549  0.10542836
   0.35924375  0.00287294  0.09792977
   0.00420166  0.35774313  0.09793708
   0.64899732  0.64774210  0.09792295
   0.32800201  0.32587383  0.09880388
   0.68108589  0.00366118  0.09878601
   0.00339039  0.67882378  0.09878195
   0.00019930  0.50000286  0.32218504
   0.16661847  0.33343181  0.32224356
   0.00008654  0.00004406  0.32222909
   0.16680312  0.83339063  0.32224144
   0.50012047  0.50019964  0.32218240
   0.66666939  0.33334961  0.32253605
   0.49992298 -0.00008349  0.32218952
   0.66656752  0.83319976  0.32224889
Lattice                                 
           1
     4.196589    2.423042    0.001109
    -4.196516    2.422915    0.000329
     0.001421    0.004484   15.399325
   B    C 
     4    11
Direct configuration=    31
   0.00404546  0.00249810  0.10522155
   0.35926771  0.00288775  0.09792996
   0.00420109  0.35775406  0.09793817
   0.64897353  0.64772521  0.09792246
   0.32801671  0.32585598  0.09877394
   0.68110610  0.00370531  0.09875119
   0.00335555  0.67880196  0.09874712
   0.00016938  0.50001707  0.32223192
   0.16666927  0.33346567  0.32226787
   0.00007736  0.00003961  0.32225444
   0.16679960  0.83335173  0.32226579
   0.50009821  0.50015771  0.32222952
   0.66667666  0.33335114  0.32260073
   0.49995574 -0.00006102  0.32223731
   0.66654828  0.83321705  0.32227402
Lattice                                 
           1
     4.195124    2.422156    0.001160
    -4.195073    2.422067    0.000324
     0.001525    0.004638   15.372357
   B    C 
     4    11
Direct configuration=    32
   0.00402627  0.00244595  0.10460073
   0.35933960  0.00293217  0.09793052
   0.00419938  0.35778686  0.09794143
   0.64890216  0.64767451  0.09792101
   0.32806083  0.32580242  0.09868406
   0.68116674  0.00383773  0.09864668
   0.00325104  0.67873647  0.09864258
   0.00007962  0.50005969  0.32237265
   0.16682169  0.33356728  0.32234084
   0.00004980  0.00002626  0.32233052
   0.16678903  0.83323504  0.32233889
   0.50003142  0.50003191  0.32237096
   0.66669849  0.33335573  0.32279489
   0.50005403  0.00000638  0.32238077
   0.66649056  0.83326893  0.32234946
Lattice                                 
           1
     4.192195    2.420385    0.001262
    -4.192186    2.420370    0.000315
     0.001734    0.004947   15.318420
   B    C 
     4    11
Direct configuration=    33
   0.00398795  0.00234164  0.10335692
   0.35948342  0.00302106  0.09793166
   0.00419595  0.35785248  0.09794798
   0.64875937  0.64757309  0.09791811
   0.32814912  0.32569527  0.09850399
   0.68128808  0.00410268  0.09843729
   0.00304195  0.67860545  0.09843312
  -0.00009998  0.50014495  0.32265461
   0.16712663  0.33377056  0.32248704
  -0.00000534 -0.00000047  0.32248295
   0.16676787  0.83300156  0.32248533
   0.49989777  0.49978020  0.32265434
   0.66674214  0.33336491  0.32318388
   0.50025068  0.00014122  0.32266818
   0.66637505  0.83337273  0.32250060
Lattice                                 
           1
     4.193596    2.421232    0.001213
    -4.193566    2.421181    0.000319
     0.001634    0.004799   15.344205
   B    C 
     4    11
Direct configuration=    34
   0.00400623  0.00239152  0.10395364
   0.35941461  0.00297853  0.09793112
   0.00419759  0.35782108  0.09794484
   0.64882768  0.64762161  0.09791950
   0.32810687  0.32574653  0.09859038
   0.68123002  0.00397592  0.09853775
   0.00314197  0.67866812  0.09853361
  -0.00001404  0.50010417  0.32251934
   0.16698075  0.33367331  0.32241690
   0.00002105  0.00001232  0.32240982
   0.16677800  0.83311326  0.32241508
   0.49996172  0.49990063  0.32251839
   0.66672127  0.33336053  0.32299726
   0.50015661  0.00007672  0.32253030
   0.66643032  0.83332308  0.32242809
Lattice                                 
           1
     4.193533    2.421190    0.001239
    -4.193503    2.421138    0.000321
     0.001678    0.004889   15.330100
   B    C 
     4    11
Direct configuration=    35
   0.00400712  0.00239597  0.10363741
   0.35939979  0.00301883  0.09792818
   0.00415897  0.35776639  0.09794250
   0.64888050  0.64763596  0.09791594
   0.32807248  0.32574386  0.09854154
   0.68122693  0.00393971  0.09848364
   0.00316872  0.67869617  0.09847952
  -0.00001773  0.50006660  0.32259949
   0.16690832  0.33359549  0.32246528
   0.00002329  0.00001507  0.32244900
   0.16677803  0.83319088  0.32246425
   0.49999657  0.49993479  0.32259958
   0.66672564  0.33336347  0.32305152
   0.50012171  0.00007846  0.32261110
   0.66651031  0.83332570  0.32247705
Lattice                                 
           1
     4.193344    2.421063    0.001314
    -4.193312    2.421008    0.000326
     0.001811    0.005158   15.287785
   B    C 
     4    11
Direct configuration=    36
   0.00400979  0.00240933  0.10268784
   0.35935533  0.00313973  0.09791935
   0.00404310  0.35760230  0.09793550
   0.64903896  0.64767900  0.09790526
   0.32796931  0.32573585  0.09839486
   0.68121767  0.00383109  0.09832117
   0.00324897  0.67878030  0.09831711
  -0.00002878  0.49995388  0.32284016
   0.16669102  0.33336199  0.32261058
   0.00003001  0.00002332  0.32256667
   0.16677813  0.83342373  0.32261190
   0.50010111  0.50003729  0.32284336
   0.66673876  0.33337229  0.32321446
   0.50001699  0.00008368  0.32285372
   0.66675029  0.83333357  0.32262406
Lattice                                 
           1
     4.192965    2.420808    0.001465
    -4.192931    2.420749    0.000337
     0.002076    0.005695   15.203155
   B    C 
     4    11
Direct configuration=    37
   0.00401529  0.00243613  0.10078345
   0.35926641  0.00338153  0.09790165
   0.00381135  0.35727412  0.09792145
   0.64935589  0.64776510  0.09788383
   0.32776298  0.32571983  0.09810071
   0.68119916  0.00361383  0.09799533
   0.00340950  0.67894859  0.09799139
  -0.00005093  0.49972842  0.32332284
   0.16625637  0.33289497  0.32290196
   0.00004344  0.00003981  0.32280265
   0.16677830  0.83388944  0.32290803
   0.50031018  0.50024228  0.32333227
   0.66676496  0.33338991  0.32354122
   0.49980751  0.00009409  0.32334031
   0.66723025  0.83334929  0.32291890
Lattice                                 
           1
     4.193112    2.420907    0.001406
    -4.193079    2.420849    0.000333
     0.001973    0.005487   15.235989
   B    C 
     4    11
Direct configuration=    38
   0.00401305  0.00242567  0.10152641
   0.35930091  0.00328770  0.09790856
   0.00390127  0.35740146  0.09792693
   0.64923292  0.64773169  0.09789219
   0.32784302  0.32572604  0.09821547
   0.68120632  0.00369812  0.09812245
   0.00334720  0.67888328  0.09811846
  -0.00004231  0.49981592  0.32313453
   0.16642504  0.33307619  0.32278828
   0.00003824  0.00003342  0.32271059
   0.16677825  0.83370875  0.32279250
   0.50022909  0.50016275  0.32314153
   0.66675481  0.33338308  0.32341374
   0.49988882  0.00009007  0.32315048