       N       E                     dE             d eps       ncg     rms          rms(c)
DAV:   1     0.269454919460E+03    0.26945E+03   -0.22625E+04  8256   0.862E+02
DAV:   2    -0.100973113942E+03   -0.37043E+03   -0.35772E+03 11824   0.211E+02
DAV:   3    -0.127342731096E+03   -0.26370E+02   -0.26040E+02 10992   0.574E+01
DAV:   4    -0.127861816011E+03   -0.51908E+00   -0.51817E+00 11312   0.929E+00
DAV:   5    -0.127878105534E+03   -0.16290E-01   -0.16287E-01 11888   0.153E+00    0.227E+01
DAV:   6    -0.944071453911E+02    0.33471E+02   -0.52784E+01  8976   0.216E+01    0.123E+01
DAV:   7    -0.105817429803E+03   -0.11410E+02   -0.12518E+01  9616   0.112E+01    0.673E+00
DAV:   8    -0.111723775290E+03   -0.59063E+01   -0.52058E+00 10192   0.681E+00    0.371E+00
DAV:   9    -0.116834872781E+03   -0.51111E+01   -0.26728E+00  9408   0.475E+00    0.249E+00
DAV:  10    -0.121094216787E+03   -0.42593E+01   -0.32792E+00  9824   0.483E+00    0.131E+00
DAV:  11    -0.122851409713E+03   -0.17572E+01   -0.13934E+00  9712   0.273E+00    0.801E-01
DAV:  12    -0.123752753730E+03   -0.90134E+00   -0.67698E-01 10128   0.185E+00    0.409E-01
DAV:  13    -0.124070083898E+03   -0.31733E+00   -0.16954E-01  9360   0.101E+00    0.193E-01
DAV:  14    -0.124121699855E+03   -0.51616E-01   -0.22181E-02  9520   0.411E-01    0.104E-01
DAV:  15    -0.124143972651E+03   -0.22273E-01   -0.11235E-02  9024   0.298E-01    0.552E-02
DAV:  16    -0.124145200135E+03   -0.12275E-02   -0.18216E-03  9104   0.182E-01    0.361E-02
DAV:  17    -0.124146014394E+03   -0.81426E-03   -0.69847E-04  8992   0.110E-01    0.150E-02
DAV:  18    -0.124146037884E+03   -0.23490E-04   -0.14002E-04  8288   0.510E-02    0.879E-03
DAV:  19    -0.124146088110E+03   -0.50227E-04   -0.37946E-05  8448   0.285E-02    0.518E-03
DAV:  20    -0.124146127387E+03   -0.39276E-04   -0.18415E-05  8720   0.182E-02    0.364E-03
DAV:  21    -0.124146171380E+03   -0.43994E-04   -0.14470E-05  8224   0.154E-02    0.245E-03
DAV:  22    -0.124146195960E+03   -0.24580E-04   -0.62830E-06  8432   0.103E-02    0.138E-03
DAV:  23    -0.124146200540E+03   -0.45800E-05   -0.18233E-06  9920   0.560E-03    0.654E-04
DAV:  24    -0.124146204079E+03   -0.35392E-05   -0.37363E-07  8544   0.236E-03    0.334E-04
DAV:  25    -0.124146205246E+03   -0.11663E-05   -0.11887E-07  8496   0.130E-03    0.186E-04
DAV:  26    -0.124146205678E+03   -0.43233E-06   -0.50607E-08  7760   0.821E-04
   1 F= -.12563506E+03 E0= -.12563203E+03  d E =-.125635E+03  mag=     0.0000
       N       E                     dE             d eps       ncg     rms          rms(c)
DAV:   1    -0.124149154318E+03   -0.29491E-02   -0.47754E-01  8432   0.190E+00    0.248E-01
DAV:   2    -0.124146756680E+03    0.23976E-02   -0.12253E-02  9968   0.320E-01    0.118E-01
DAV:   3    -0.124146273447E+03    0.48323E-03   -0.20418E-03 10368   0.121E-01    0.346E-02
DAV:   4    -0.124146255820E+03    0.17628E-04   -0.27828E-04 10288   0.417E-02    0.164E-02
DAV:   5    -0.124146254096E+03    0.17233E-05   -0.19523E-05 10560   0.132E-02    0.495E-03
DAV:   6    -0.124146255287E+03   -0.11908E-05   -0.43492E-06  9280   0.653E-03    0.196E-03
DAV:   7    -0.124146256944E+03   -0.16572E-05   -0.53654E-07  7984   0.323E-03    0.735E-04
DAV:   8    -0.124146258383E+03   -0.14381E-05   -0.58064E-07  7856   0.342E-03    0.330E-04
DAV:   9    -0.124146259809E+03   -0.14267E-05   -0.10186E-06  8768   0.444E-03    0.251E-04
DAV:  10    -0.124146260080E+03   -0.27058E-06   -0.57472E-07  8000   0.330E-03
   2 F= -.12563534E+03 E0= -.12563232E+03  d E =-.286265E-03  mag=     0.0000
       N       E                     dE             d eps       ncg     rms          rms(c)
DAV:   1    -0.124148792730E+03   -0.25329E-02   -0.11087E-01  8416   0.913E-01    0.119E-01
DAV:   2    -0.124148241023E+03    0.55171E-03   -0.28055E-03  9888   0.154E-01    0.569E-02
DAV:   3    -0.124148128787E+03    0.11224E-03   -0.48512E-04 10736   0.591E-02    0.162E-02
DAV:   4    -0.124148125091E+03    0.36956E-05   -0.65935E-05  9984   0.210E-02    0.782E-03
DAV:   5    -0.124148125132E+03   -0.40809E-07   -0.49519E-06  9632   0.785E-03
   3 F= -.12563710E+03 E0= -.12563408E+03  d E =-.204050E-02  mag=    -0.0000
       N       E                     dE             d eps       ncg     rms          rms(c)
DAV:   1    -0.124148124642E+03    0.44971E-06   -0.59735E-06  8752   0.924E-03    0.991E-04
DAV:   2    -0.124148124456E+03    0.18561E-06   -0.15451E-06  7808   0.568E-03
   4 F= -.12563710E+03 E0= -.12563408E+03  d E =-.204069E-02  mag=    -0.0000
       N       E                     dE             d eps       ncg     rms          rms(c)
DAV:   1    -0.124148125283E+03   -0.64159E-06   -0.27965E-06  8320   0.705E-03    0.520E-04
DAV:   2    -0.124148125083E+03    0.20054E-06   -0.15259E-06  7840   0.557E-03
   5 F= -.12563710E+03 E0= -.12563408E+03  d E =-.204095E-02  mag=    -0.0000
       N       E                     dE             d eps       ncg     rms          rms(c)
DAV:   1    -0.124148125586E+03   -0.30234E-06   -0.18113E-06  7904   0.596E-03    0.363E-04
DAV:   2    -0.124148125407E+03    0.17864E-06   -0.12060E-06  7872   0.489E-03
   6 F= -.12563710E+03 E0= -.12563408E+03  d E =-.204103E-02  mag=    -0.0000
       N       E                     dE             d eps       ncg     rms          rms(c)
DAV:   1    -0.124148125614E+03   -0.28342E-07   -0.10248E-06  7936   0.452E-03    0.223E-04
DAV:   2    -0.124148125503E+03    0.11116E-06   -0.73303E-07  7968   0.379E-03
   7 F= -.12563710E+03 E0= -.12563408E+03  d E =-.204100E-02  mag=    -0.0000
       N       E                     dE             d eps       ncg     rms          rms(c)
DAV:   1    -0.124148129916E+03   -0.43025E-05   -0.40494E-03  8384   0.248E-01    0.112E-02
DAV:   2    -0.124148131208E+03   -0.12918E-05   -0.63537E-05  8800   0.325E-02    0.776E-03
DAV:   3    -0.124148130576E+03    0.63268E-06   -0.50896E-06  9408   0.105E-02
   8 F= -.12563715E+03 E0= -.12563413E+03  d E =-.503346E-04  mag=     0.0000
       N       E                     dE             d eps       ncg     rms          rms(c)
DAV:   1    -0.124148139766E+03   -0.85577E-05   -0.36562E-02  8256   0.747E-01    0.344E-02
DAV:   2    -0.124148150895E+03   -0.11129E-04   -0.56505E-04  8752   0.969E-02    0.237E-02
DAV:   3    -0.124148143942E+03    0.69528E-05   -0.44460E-05 10016   0.303E-02    0.651E-03
DAV:   4    -0.124148145229E+03   -0.12872E-05   -0.12805E-05  8592   0.143E-02    0.276E-03
DAV:   5    -0.124148147758E+03   -0.25287E-05   -0.65827E-06  7904   0.119E-02    0.672E-04
DAV:   6    -0.124148145172E+03    0.25862E-05   -0.58182E-06  7792   0.109E-02    0.407E-04
DAV:   7    -0.124148144667E+03    0.50488E-06   -0.98919E-07  7808   0.438E-03
   9 F= -.12563730E+03 E0= -.12563428E+03  d E =-.200429E-03  mag=    -0.0000
       N       E                     dE             d eps       ncg     rms          rms(c)
DAV:   1    -0.124148146786E+03   -0.16140E-05   -0.14576E-01  8256   0.149E+00    0.673E-02
DAV:   2    -0.124148196132E+03   -0.49346E-04   -0.22808E-03  8576   0.194E-01    0.466E-02
DAV:   3    -0.124148164645E+03    0.31486E-04   -0.17187E-04 10112   0.587E-02    0.131E-02
DAV:   4    -0.124148167673E+03   -0.30273E-05   -0.41384E-05  8944   0.209E-02    0.542E-03
DAV:   5    -0.124148168916E+03   -0.12438E-05   -0.14899E-06  8912   0.553E-03    0.109E-03
DAV:   6    -0.124148168913E+03    0.31646E-08   -0.91106E-07  8352   0.438E-03
  10 F= -.12563759E+03 E0= -.12563458E+03  d E =-.497560E-03  mag=    -0.0000
       N       E                     dE             d eps       ncg     rms          rms(c)
DAV:   1    -0.124148108686E+03    0.60230E-04   -0.58313E-01  8256   0.298E+00    0.135E-01
DAV:   2    -0.124148317808E+03   -0.20912E-03   -0.91368E-03  8640   0.388E-01    0.932E-02
DAV:   3    -0.124148186311E+03    0.13150E-03   -0.68486E-04 10368   0.117E-01    0.264E-02
DAV:   4    -0.124148196177E+03   -0.98661E-05   -0.16563E-04  9648   0.431E-02    0.108E-02
DAV:   5    -0.124148198392E+03   -0.22152E-05   -0.11872E-05  9552   0.165E-02    0.212E-03
DAV:   6    -0.124148198080E+03    0.31217E-06   -0.13383E-05  8224   0.167E-02    0.126E-03
DAV:   7    -0.124148198134E+03   -0.53833E-07   -0.10856E-05  8352   0.145E-02    0.683E-04
DAV:   8    -0.124148197688E+03    0.44545E-06   -0.46273E-06  8272   0.950E-03
  11 F= -.12563817E+03 E0= -.12563515E+03  d E =-.107555E-02  mag=    -0.0000
       N       E                     dE             d eps       ncg     rms          rms(c)
DAV:   1    -0.124147808264E+03    0.38987E-03   -0.23317E+00  8256   0.596E+00    0.271E-01
DAV:   2    -0.124148671088E+03   -0.86282E-03   -0.36685E-02  8320   0.778E-01    0.187E-01
DAV:   3    -0.124148156452E+03    0.51464E-03   -0.26808E-03 10592   0.231E-01    0.554E-02
DAV:   4    -0.124148189643E+03   -0.33191E-04   -0.62587E-04  9888   0.812E-02    0.219E-02
DAV:   5    -0.124148187980E+03    0.16628E-05   -0.23208E-05 10528   0.216E-02    0.375E-03
DAV:   6    -0.124148187694E+03    0.28608E-06   -0.13274E-05  8688   0.166E-02    0.224E-03
DAV:   7    -0.124148205984E+03   -0.18290E-04   -0.35541E-05  8416   0.266E-02    0.117E-03
DAV:   8    -0.124148191005E+03    0.14978E-04   -0.32159E-05  8432   0.255E-02    0.992E-04
DAV:   9    -0.124148192884E+03   -0.18785E-05   -0.30473E-06  8784   0.751E-03    0.611E-04
DAV:  10    -0.124148197008E+03   -0.41242E-05   -0.33981E-07  8256   0.181E-03    0.215E-04
DAV:  11    -0.124148200518E+03   -0.35102E-05   -0.27247E-07  8160   0.118E-03    0.244E-04
DAV:  12    -0.124148201221E+03   -0.70265E-06   -0.40641E-08  8320   0.492E-04
  12 F= -.12563929E+03 E0= -.12563627E+03  d E =-.219238E-02  mag=    -0.0000
       N       E                     dE             d eps       ncg     rms          rms(c)
DAV:   1    -0.124146110154E+03    0.20904E-02   -0.93223E+00  8256   0.119E+01    0.554E-01
DAV:   2    -0.124149884238E+03   -0.37741E-02   -0.14933E-01  8256   0.157E+00    0.374E-01
DAV:   3    -0.124147787355E+03    0.20969E-02   -0.10070E-02 10960   0.442E-01    0.130E-01
DAV:   4    -0.124147910832E+03   -0.12348E-03   -0.21655E-03  9840   0.150E-01    0.463E-02
DAV:   5    -0.124147885956E+03    0.24876E-04   -0.62671E-05 11328   0.304E-02    0.802E-03
DAV:   6    -0.124147879051E+03    0.69048E-05   -0.46929E-06  9840   0.723E-03    0.455E-03
DAV:   7    -0.124147885255E+03   -0.62043E-05   -0.24811E-06  8944   0.527E-03    0.175E-03
DAV:   8    -0.124147894477E+03   -0.92216E-05   -0.12277E-06  9120   0.384E-03    0.163E-03
DAV:   9    -0.124147900102E+03   -0.56254E-05   -0.72406E-07  8656   0.323E-03    0.914E-04
DAV:  10    -0.124147908676E+03   -0.85740E-05   -0.86458E-07  8560   0.277E-03    0.414E-04
DAV:  11    -0.124147913798E+03   -0.51217E-05   -0.47594E-07  8368   0.207E-03    0.441E-04
DAV:  12    -0.124147916831E+03   -0.30327E-05   -0.46034E-07  8112   0.224E-03    0.223E-04
DAV:  13    -0.124147917013E+03   -0.18262E-06   -0.15807E-07  8784   0.159E-03
  13 F= -.12564129E+03 E0= -.12563828E+03  d E =-.419398E-02  mag=     0.0000
       N       E                     dE             d eps       ncg     rms          rms(c)
DAV:   1    -0.124135310402E+03    0.12606E-01   -0.37204E+01  8256   0.238E+01    0.121E+00
DAV:   2    -0.124154405999E+03   -0.19096E-01   -0.63614E-01  8256   0.324E+00    0.760E-01
DAV:   3    -0.124146725827E+03    0.76802E-02   -0.35857E-02 11632   0.803E-01    0.369E-01
DAV:   4    -0.124146316049E+03    0.40978E-03   -0.64908E-03 10992   0.295E-01    0.109E-01
DAV:   5    -0.124146211241E+03    0.10481E-03   -0.34495E-04  9904   0.690E-02    0.154E-02
DAV:   6    -0.124146196235E+03    0.15006E-04   -0.34618E-05 11072   0.205E-02    0.983E-03
DAV:   7    -0.124146208140E+03   -0.11905E-04   -0.90142E-06  9296   0.105E-02    0.399E-03
DAV:   8    -0.124146238134E+03   -0.29994E-04   -0.40894E-06  9280   0.659E-03    0.389E-03
DAV:   9    -0.124146253530E+03   -0.15397E-04   -0.20130E-06  9792   0.565E-03    0.219E-03
DAV:  10    -0.124146273003E+03   -0.19472E-04   -0.26388E-06  9360   0.524E-03    0.122E-03
DAV:  11    -0.124146279867E+03   -0.68646E-05   -0.68910E-07  8816   0.291E-03    0.100E-03
DAV:  12    -0.124146287882E+03   -0.80144E-05   -0.11578E-06  9104   0.344E-03    0.461E-04
DAV:  13    -0.124146289728E+03   -0.18468E-05   -0.66177E-07  8864   0.335E-03    0.246E-04
DAV:  14    -0.124146290329E+03   -0.60020E-06   -0.18497E-07  8192   0.163E-03
  14 F= -.12564448E+03 E0= -.12564149E+03  d E =-.738483E-02  mag=     0.0000
       N       E                     dE             d eps       ncg     rms          rms(c)
DAV:   1    -0.124036606405E+03    0.10968E+00   -0.14746E+02  8256   0.475E+01    0.319E+00
DAV:   2    -0.124173083249E+03   -0.13648E+00   -0.31457E+00  8384   0.722E+00    0.164E+00
DAV:   3    -0.124146890515E+03    0.26193E-01   -0.13950E-01 11984   0.150E+00    0.116E+00
DAV:   4    -0.124139279532E+03    0.76110E-02   -0.22831E-02 11984   0.643E-01    0.283E-01
DAV:   5    -0.124138821281E+03    0.45825E-03   -0.41730E-03 11120   0.243E-01    0.625E-02
DAV:   6    -0.124138546329E+03    0.27495E-03   -0.79962E-04 10640   0.103E-01    0.191E-02
DAV:   7    -0.124138570464E+03   -0.24135E-04   -0.39678E-05 11184   0.222E-02    0.953E-03
DAV:   8    -0.124138629978E+03   -0.59514E-04   -0.26567E-05  8896   0.143E-02    0.843E-03
DAV:   9    -0.124138661498E+03   -0.31521E-04   -0.33288E-06 10656   0.531E-03    0.620E-03
DAV:  10    -0.124138715229E+03   -0.53731E-04   -0.64198E-06  8720   0.598E-03    0.302E-03
DAV:  11    -0.124138740875E+03   -0.25646E-04   -0.26363E-06  9808   0.403E-03    0.279E-03
DAV:  12    -0.124138755686E+03   -0.14811E-04   -0.20160E-06  9280   0.371E-03    0.101E-03
DAV:  13    -0.124138759106E+03   -0.34206E-05   -0.50781E-07  9104   0.280E-03    0.778E-04
DAV:  14    -0.124138762393E+03   -0.32863E-05   -0.42859E-07  8160   0.213E-03    0.138E-04
DAV:  15    -0.124138762740E+03   -0.34728E-06   -0.11306E-07  8960   0.137E-03
  15 F= -.12564766E+03 E0= -.12564475E+03  d E =-.105640E-01  mag=     0.0000
       N       E                     dE             d eps       ncg     rms          rms(c)
DAV:   1    -0.124138762615E+03   -0.22257E-06   -0.96037E-06  9744   0.121E-02    0.544E-04
DAV:   2    -0.124138762624E+03   -0.88849E-08   -0.14124E-07  8272   0.160E-03
  16 F= -.12564766E+03 E0= -.12564475E+03  d E =-.279308E-05  mag=    -0.0000
       N       E                     dE             d eps       ncg     rms          rms(c)
DAV:   1    -0.124138762074E+03    0.54098E-06   -0.84722E-05  9344   0.361E-02    0.169E-03
DAV:   2    -0.124138762093E+03   -0.18824E-07   -0.12316E-06  9088   0.460E-03
  17 F= -.12564767E+03 E0= -.12564476E+03  d E =-.109914E-04  mag=    -0.0000
       N       E                     dE             d eps       ncg     rms          rms(c)
DAV:   1    -0.124138760939E+03    0.11354E-05   -0.33695E-04  8688   0.719E-02    0.343E-03
DAV:   2    -0.124138761026E+03   -0.86896E-07   -0.49934E-06  9184   0.917E-03
  18 F= -.12564769E+03 E0= -.12564477E+03  d E =-.273796E-04  mag=    -0.0000
       N       E                     dE             d eps       ncg     rms          rms(c)
DAV:   1    -0.124138758608E+03    0.23308E-05   -0.13542E-03  8400   0.144E-01    0.695E-03
DAV:   2    -0.124138758916E+03   -0.30756E-06   -0.20213E-05  8512   0.184E-02    0.478E-03
DAV:   3    -0.124138758748E+03    0.16814E-06   -0.16594E-06  9152   0.577E-03
  19 F= -.12564772E+03 E0= -.12564481E+03  d E =-.600276E-04  mag=     0.0000
       N       E                     dE             d eps       ncg     rms          rms(c)
DAV:   1    -0.124138753645E+03    0.52710E-05   -0.55279E-03  8304   0.290E-01    0.135E-02
DAV:   2    -0.124138755053E+03   -0.14081E-05   -0.84258E-05  8704   0.375E-02    0.931E-03
DAV:   3    -0.124138754125E+03    0.92816E-06   -0.65962E-06  9888   0.116E-02
  20 F= -.12564779E+03 E0= -.12564487E+03  d E =-.125304E-03  mag=    -0.0000
       N       E                     dE             d eps       ncg     rms          rms(c)
DAV:   1    -0.124138742686E+03    0.12366E-04   -0.22102E-02  8288   0.581E-01    0.271E-02
DAV:   2    -0.124138748185E+03   -0.54988E-05   -0.33589E-04  8688   0.749E-02    0.186E-02
DAV:   3    -0.124138744466E+03    0.37192E-05   -0.26341E-05  9568   0.231E-02    0.502E-03
DAV:   4    -0.124138745067E+03   -0.60093E-06   -0.66876E-06  8896   0.890E-03
  21 F= -.12564792E+03 E0= -.12564500E+03  d E =-.256219E-03  mag=    -0.0000
       N       E                     dE             d eps       ncg     rms          rms(c)
DAV:   1    -0.124138713853E+03    0.30613E-04   -0.87934E-02  8256   0.116E+00    0.521E-02
DAV:   2    -0.124138741386E+03   -0.27532E-04   -0.13576E-03  8736   0.150E-01    0.360E-02
DAV:   3    -0.124138723431E+03    0.17955E-04   -0.10220E-04 10736   0.455E-02    0.101E-02
DAV:   4    -0.124138725974E+03   -0.25434E-05   -0.26100E-05  8576   0.186E-02    0.416E-03
DAV:   5    -0.124138728577E+03   -0.26033E-05   -0.57345E-06  8000   0.115E-02    0.981E-04
DAV:   6    -0.124138726492E+03    0.20850E-05   -0.48713E-06  8016   0.103E-02    0.611E-04
DAV:   7    -0.124138726303E+03    0.18925E-06   -0.87101E-07  8640   0.421E-03
  22 F= -.12564818E+03 E0= -.12564527E+03  d E =-.518127E-03  mag=     0.0000
       N       E                     dE             d eps       ncg     rms          rms(c)
DAV:   1    -0.124138641064E+03    0.85428E-04   -0.35168E-01  8256   0.232E+00    0.105E-01
DAV:   2    -0.124138759979E+03   -0.11891E-03   -0.54522E-03  8480   0.300E-01    0.724E-02
DAV:   3    -0.124138680396E+03    0.79583E-04   -0.41131E-04 10288   0.908E-02    0.203E-02
DAV:   4    -0.124138687137E+03   -0.67408E-05   -0.98819E-05  9280   0.321E-02    0.834E-03
DAV:   5    -0.124138687671E+03   -0.53374E-06   -0.28292E-06  9312   0.693E-03
  23 F= -.12564870E+03 E0= -.12564579E+03  d E =-.104370E-02  mag=    -0.0000
       N       E                     dE             d eps       ncg     rms          rms(c)
DAV:   1    -0.124138406799E+03    0.28034E-03   -0.14078E+00  8256   0.463E+00    0.210E-01
DAV:   2    -0.124138898396E+03   -0.49160E-03   -0.21891E-02  8256   0.602E-01    0.144E-01
DAV:   3    -0.124138589119E+03    0.30928E-03   -0.16215E-03  9952   0.180E-01    0.416E-02
DAV:   4    -0.124138609096E+03   -0.19976E-04   -0.38309E-04 10256   0.631E-02    0.167E-02
DAV:   5    -0.124138605892E+03    0.32037E-05   -0.11147E-05 10832   0.134E-02    0.298E-03
DAV:   6    -0.124138605957E+03   -0.64935E-07   -0.20712E-06  9856   0.545E-03
  24 F= -.12564976E+03 E0= -.12564685E+03  d E =-.210192E-02  mag=    -0.0000
       N       E                     dE             d eps       ncg     rms          rms(c)
DAV:   1    -0.124137544505E+03    0.10614E-02   -0.56247E+00  8256   0.926E+00    0.426E-01
DAV:   2    -0.124139587220E+03   -0.20427E-02   -0.88331E-02  8320   0.121E+00    0.290E-01
DAV:   3    -0.124138359476E+03    0.12277E-02   -0.62284E-03 10656   0.350E-01    0.927E-02
DAV:   4    -0.124138440564E+03   -0.81087E-04   -0.14020E-03  9936   0.121E-01    0.345E-02
DAV:   5    -0.124138432526E+03    0.80374E-05   -0.53493E-05 10640   0.315E-02    0.616E-03
DAV:   6    -0.124138431294E+03    0.12323E-05   -0.29136E-05  9264   0.233E-02    0.373E-03
DAV:   7    -0.124138442125E+03   -0.10831E-04   -0.39801E-05  8464   0.268E-02    0.214E-03
DAV:   8    -0.124138435271E+03    0.68547E-05   -0.18689E-05  9120   0.184E-02    0.175E-03
DAV:   9    -0.124138443047E+03   -0.77762E-05   -0.19970E-06  9456   0.552E-03    0.794E-04
DAV:  10    -0.124138447408E+03   -0.43608E-05   -0.10838E-06  9344   0.428E-03    0.405E-04
DAV:  11    -0.124138452263E+03   -0.48549E-05   -0.42839E-07  8304   0.195E-03    0.459E-04
DAV:  12    -0.124138454616E+03   -0.23533E-05   -0.12781E-07  7968   0.747E-04    0.236E-04
DAV:  13    -0.124138455436E+03   -0.82043E-06   -0.47822E-08  8112   0.506E-04
  25 F= -.12565194E+03 E0= -.12564903E+03  d E =-.427893E-02  mag=    -0.0000
       N       E                     dE             d eps       ncg     rms          rms(c)
DAV:   1    -0.124133073891E+03    0.53807E-02   -0.22467E+01  8256   0.185E+01    0.897E-01
DAV:   2    -0.124142904788E+03   -0.98309E-02   -0.36747E-01  8256   0.247E+00    0.585E-01
DAV:   3    -0.124138017971E+03    0.48868E-02   -0.22430E-02 10912   0.647E-01    0.246E-01
DAV:   4    -0.124138075180E+03   -0.57209E-04   -0.43899E-03 10976   0.227E-01    0.778E-02
DAV:   5    -0.124138031290E+03    0.43890E-04   -0.16275E-04 10544   0.484E-02    0.105E-02
DAV:   6    -0.124138024286E+03    0.70042E-05   -0.82764E-06 11840   0.958E-03    0.772E-03
DAV:   7    -0.124138038693E+03   -0.14407E-04   -0.82156E-06  8800   0.936E-03    0.424E-03
DAV:   8    -0.124138051913E+03   -0.13220E-04   -0.11652E-06  8768   0.349E-03    0.260E-03
DAV:   9    -0.124138066097E+03   -0.14184E-04   -0.11251E-06  8432   0.306E-03    0.898E-04
DAV:  10    -0.124138075321E+03   -0.92237E-05   -0.59917E-07  8608   0.198E-03    0.748E-04
DAV:  11    -0.124138082167E+03   -0.68458E-05   -0.49059E-07  8192   0.155E-03    0.650E-04
DAV:  12    -0.124138085368E+03   -0.32009E-05   -0.16183E-07  8640   0.102E-03    0.401E-04
DAV:  13    -0.124138087800E+03   -0.24323E-05   -0.18729E-07  7920   0.884E-04    0.831E-05
DAV:  14    -0.124138087958E+03   -0.15755E-06   -0.11194E-08  8736   0.401E-04
  26 F= -.12565642E+03 E0= -.12565351E+03  d E =-.876261E-02  mag=     0.0000
       N       E                     dE             d eps       ncg     rms          rms(c)
DAV:   1    -0.124095658103E+03    0.42430E-01   -0.89367E+01  8256   0.369E+01    0.216E+00
DAV:   2    -0.124156436884E+03   -0.60779E-01   -0.16910E+00  8256   0.530E+00    0.122E+00
DAV:   3    -0.124140032541E+03    0.16404E-01   -0.82336E-02 11712   0.118E+00    0.757E-01
DAV:   4    -0.124137410789E+03    0.26218E-02   -0.13979E-02 11840   0.479E-01    0.194E-01
DAV:   5    -0.124137177075E+03    0.23371E-03   -0.14929E-03 11072   0.147E-01    0.340E-02
DAV:   6    -0.124137061462E+03    0.11561E-03   -0.35653E-04 10400   0.686E-02    0.154E-02
DAV:   7    -0.124137085581E+03   -0.24118E-04   -0.17393E-05 10736   0.145E-02    0.644E-03
DAV:   8    -0.124137136268E+03   -0.50687E-04   -0.16543E-05  8736   0.110E-02    0.589E-03
DAV:   9    -0.124137172893E+03   -0.36626E-04   -0.47608E-06  9744   0.653E-03    0.252E-03
DAV:  10    -0.124137201761E+03   -0.28868E-04   -0.56051E-06  9536   0.876E-03    0.274E-03
DAV:  11    -0.124137209760E+03   -0.79995E-05   -0.20605E-06 10064   0.607E-03    0.185E-03
DAV:  12    -0.124137217357E+03   -0.75963E-05   -0.10438E-06  8720   0.338E-03    0.912E-04
DAV:  13    -0.124137219707E+03   -0.23506E-05   -0.33882E-07  9184   0.238E-03    0.422E-04
DAV:  14    -0.124137220886E+03   -0.11787E-05   -0.14753E-07  7888   0.143E-03    0.931E-05
DAV:  15    -0.124137221302E+03   -0.41591E-06   -0.25966E-08  8544   0.424E-04
  27 F= -.12566609E+03 E0= -.12566317E+03  d E =-.184325E-01  mag=    -0.0000
       N       E                     dE             d eps       ncg     rms          rms(c)
DAV:   1    -0.123650168319E+03    0.48705E+00   -0.34963E+02  8256   0.732E+01    0.700E+00
DAV:   2    -0.124227124923E+03   -0.57696E+00   -0.10054E+01  8288   0.129E+01    0.303E+00
DAV:   3    -0.124166873118E+03    0.60252E-01   -0.37079E-01 11888   0.238E+00    0.249E+00
DAV:   4    -0.124135341781E+03    0.31531E-01   -0.62558E-02 10208   0.112E+00    0.589E-01
DAV:   5    -0.124135009189E+03    0.33259E-03   -0.21974E-02 11744   0.521E-01    0.174E-01
DAV:   6    -0.124134349411E+03    0.65978E-03   -0.19997E-03 10336   0.165E-01    0.248E-02
DAV:   7    -0.124134343539E+03    0.58716E-05   -0.14855E-04 11552   0.434E-02    0.144E-02
DAV:   8    -0.124134434743E+03   -0.91204E-04   -0.38313E-05  8672   0.180E-02    0.738E-03
DAV:   9    -0.124134535261E+03   -0.10052E-03   -0.25082E-05  9248   0.123E-02    0.675E-03
DAV:  10    -0.124134577314E+03   -0.42052E-04   -0.42285E-06  9344   0.538E-03    0.348E-03
DAV:  11    -0.124134615574E+03   -0.38260E-04   -0.48915E-06  8816   0.484E-03    0.242E-03
DAV:  12    -0.124134632623E+03   -0.17050E-04   -0.21267E-06  9856   0.296E-03    0.128E-03
DAV:  13    -0.124134639014E+03   -0.63902E-05   -0.44737E-07  8464   0.168E-03    0.521E-04
DAV:  14    -0.124134641651E+03   -0.26371E-05   -0.16237E-07  9024   0.120E-03    0.162E-04
DAV:  15    -0.124134642716E+03   -0.10654E-05   -0.62640E-08  8480   0.741E-04    0.108E-04
DAV:  16    -0.124134643190E+03   -0.47420E-06   -0.25435E-08  8416   0.381E-04
  28 F= -.12568838E+03 E0= -.12568545E+03  d E =-.407239E-01  mag=    -0.0000
       N       E                     dE             d eps       ncg     rms          rms(c)
DAV:   1    -0.118287836805E+03    0.58468E+01   -0.12832E+03  8256   0.140E+02    0.308E+01
DAV:   2    -0.124694237604E+03   -0.64064E+01   -0.80559E+01  8320   0.355E+01    0.119E+01
DAV:   3    -0.124386879758E+03    0.30736E+00   -0.19999E+00 10624   0.545E+00    0.969E+00
DAV:   4    -0.124128125824E+03    0.25875E+00   -0.47245E-01 10752   0.283E+00    0.254E+00
DAV:   5    -0.124125909352E+03    0.22165E-02   -0.12926E-01 11616   0.123E+00    0.273E-01
DAV:   6    -0.124123539214E+03    0.23701E-02   -0.68576E-03 11008   0.320E-01    0.705E-02
DAV:   7    -0.124123415737E+03    0.12348E-03   -0.48762E-04 11536   0.810E-02    0.769E-02
DAV:   8    -0.124123479840E+03   -0.64103E-04   -0.29361E-04  8992   0.536E-02    0.310E-02
DAV:   9    -0.124123610764E+03   -0.13092E-03   -0.52118E-05  9408   0.204E-02    0.257E-02
DAV:  10    -0.124123729569E+03   -0.11880E-03   -0.31517E-05  9072   0.152E-02    0.624E-03
DAV:  11    -0.124123772940E+03   -0.43371E-04   -0.51304E-06  9504   0.554E-03    0.469E-03
DAV:  12    -0.124123822927E+03   -0.49987E-04   -0.11429E-05  9024   0.736E-03    0.229E-03
DAV:  13    -0.124123836457E+03   -0.13530E-04   -0.16979E-06 10368   0.341E-03    0.122E-03
DAV:  14    -0.124123841615E+03   -0.51582E-05   -0.32297E-07  9168   0.161E-03    0.512E-04
DAV:  15    -0.124123843780E+03   -0.21657E-05   -0.79823E-08  9296   0.800E-04    0.249E-04
DAV:  16    -0.124123845305E+03   -0.15245E-05   -0.69146E-08  8640   0.607E-04    0.960E-05
DAV:  17    -0.124123845878E+03   -0.57356E-06   -0.21999E-08  8672   0.308E-04
  29 F= -.12574680E+03 E0= -.12574383E+03  d E =-.991392E-01  mag=     0.0000
       N       E                     dE             d eps       ncg     rms          rms(c)
DAV:   1    -0.753419088230E+02    0.48782E+02   -0.37807E+03  8256   0.233E+02    0.668E+01
DAV:   2    -0.126787883922E+03   -0.51446E+02   -0.56511E+02  8256   0.888E+01    0.263E+01
DAV:   3    -0.125654209795E+03    0.11337E+01   -0.14539E+01 10400   0.146E+01    0.208E+01
DAV:   4    -0.124017937161E+03    0.16363E+01   -0.29197E+00 10144   0.638E+00    0.581E+00
DAV:   5    -0.123974084070E+03    0.43853E-01   -0.52037E-01 12176   0.248E+00    0.107E+00
DAV:   6    -0.123972596341E+03    0.14877E-02   -0.21374E-02 11488   0.577E-01    0.482E-01
DAV:   7    -0.123972668685E+03   -0.72344E-04   -0.32330E-03 10704   0.218E-01    0.165E-01
DAV:   8    -0.123972558321E+03    0.11036E-03   -0.43772E-04 11760   0.732E-02    0.266E-02
DAV:   9    -0.123972592436E+03   -0.34115E-04   -0.13852E-04 10688   0.368E-02    0.471E-02
DAV:  10    -0.123972640338E+03   -0.47902E-04   -0.43491E-05 10448   0.207E-02    0.119E-02
DAV:  11    -0.123972731967E+03   -0.91630E-04   -0.45687E-05  9840   0.167E-02    0.601E-03
DAV:  12    -0.123972780296E+03   -0.48329E-04   -0.15183E-05 10512   0.923E-03    0.504E-03
DAV:  13    -0.123972800947E+03   -0.20651E-04   -0.72697E-06  9760   0.745E-03    0.187E-03
DAV:  14    -0.123972805530E+03   -0.45832E-05   -0.82338E-07  9920   0.278E-03    0.174E-03
DAV:  15    -0.123972810085E+03   -0.45543E-05   -0.37844E-07  8912   0.186E-03    0.477E-04
DAV:  16    -0.123972812525E+03   -0.24406E-05   -0.12083E-07  9424   0.100E-03    0.835E-04
DAV:  17    -0.123972814543E+03   -0.20173E-05   -0.81299E-08  9136   0.705E-04    0.523E-04
DAV:  18    -0.123972816398E+03   -0.18550E-05   -0.12340E-07  9200   0.731E-04    0.120E-04
DAV:  19    -0.123972816942E+03   -0.54428E-06   -0.26938E-08  8512   0.357E-04
  30 F= -.12584616E+03 E0= -.12584327E+03  d E =-.198503E+00  mag=    -0.0000
       N       E                     dE             d eps       ncg     rms          rms(c)
DAV:   1    -0.120420089953E+03    0.35527E+01   -0.10262E+03  8256   0.126E+02    0.234E+01
DAV:   2    -0.124476063880E+03   -0.40560E+01   -0.53426E+01  8320   0.293E+01    0.908E+00
DAV:   3    -0.124256988411E+03    0.21908E+00   -0.14317E+00 12400   0.461E+00    0.763E+00
DAV:   4    -0.124085227834E+03    0.17176E+00   -0.35031E-01 10816   0.245E+00    0.182E+00
DAV:   5    -0.124086087093E+03   -0.85926E-03   -0.97789E-02 11808   0.107E+00    0.208E-01
DAV:   6    -0.124084249887E+03    0.18372E-02   -0.63283E-03 10624   0.297E-01    0.982E-02
DAV:   7    -0.124084133149E+03    0.11674E-03   -0.49606E-04 11280   0.829E-02    0.622E-02
DAV:   8    -0.124084134243E+03   -0.10941E-05   -0.56201E-05 10288   0.278E-02    0.181E-02
DAV:   9    -0.124084173201E+03   -0.38958E-04   -0.49446E-05  9280   0.225E-02    0.475E-02
DAV:  10    -0.124084304631E+03   -0.13143E-03   -0.39602E-05  9632   0.173E-02    0.128E-02
DAV:  11    -0.124084425372E+03   -0.12074E-03   -0.12688E-05 10432   0.112E-02    0.135E-02
DAV:  12    -0.124084512629E+03   -0.87257E-04   -0.44877E-06  9952   0.604E-03    0.897E-03
DAV:  13    -0.124084542398E+03   -0.29769E-04   -0.56683E-07  9664   0.280E-03    0.268E-03
DAV:  14    -0.124084567706E+03   -0.25308E-04   -0.44116E-07  9440   0.229E-03    0.199E-03
DAV:  15    -0.124084573465E+03   -0.57590E-05   -0.73650E-08  9712   0.919E-04    0.883E-04
DAV:  16    -0.124084576441E+03   -0.29754E-05   -0.49322E-08  8480   0.642E-04    0.348E-04
DAV:  17    -0.124084577619E+03   -0.11779E-05   -0.26231E-08  9040   0.394E-04    0.302E-04
DAV:  18    -0.124084577847E+03   -0.22871E-06   -0.11308E-08  8448   0.275E-04
  31 F= -.12582657E+03 E0= -.12582362E+03  d E =-.178913E+00  mag=    -0.0000
       N       E                     dE             d eps       ncg     rms          rms(c)
DAV:   1    -0.123617080226E+03    0.46750E+00   -0.32487E+02  8256   0.709E+01    0.649E+00
DAV:   2    -0.124123245247E+03   -0.50617E+00   -0.91520E+00  8896   0.123E+01    0.285E+00
DAV:   3    -0.124069223107E+03    0.54022E-01   -0.34272E-01 11360   0.229E+00    0.231E+00
DAV:   4    -0.124041050298E+03    0.28173E-01   -0.57946E-02 11168   0.105E+00    0.547E-01
DAV:   5    -0.124040530636E+03    0.51966E-03   -0.18119E-02 12064   0.479E-01    0.161E-01
DAV:   6    -0.124040002876E+03    0.52776E-03   -0.18422E-03 10336   0.160E-01    0.218E-02
DAV:   7    -0.124040028171E+03   -0.25296E-04   -0.13709E-04 11488   0.420E-02    0.136E-02
DAV:   8    -0.124040120307E+03   -0.92136E-04   -0.42363E-05  8864   0.197E-02    0.547E-03
DAV:   9    -0.124040172538E+03   -0.52231E-04   -0.11617E-05 10400   0.892E-03    0.583E-03
DAV:  10    -0.124040225081E+03   -0.52543E-04   -0.97785E-06  8560   0.688E-03    0.327E-03
DAV:  11    -0.124040242891E+03   -0.17810E-04   -0.23620E-06  8864   0.330E-03    0.174E-03
DAV:  12    -0.124040252220E+03   -0.93286E-05   -0.10735E-06  8016   0.233E-03    0.108E-03
DAV:  13    -0.124040258209E+03   -0.59889E-05   -0.63640E-07  9136   0.199E-03    0.873E-04
DAV:  14    -0.124040259750E+03   -0.15414E-05   -0.98969E-08  9744   0.908E-04    0.342E-04
DAV:  15    -0.124040260335E+03   -0.58486E-06   -0.23369E-08  9056   0.489E-04
  32 F= -.12584998E+03 E0= -.12584715E+03  d E =-.202321E+00  mag=     0.0000
       N       E                     dE             d eps       ncg     rms          rms(c)
DAV:   1    -0.124017291932E+03    0.22968E-01   -0.23559E+01  8256   0.191E+01    0.922E-01
DAV:   2    -0.124027413891E+03   -0.10122E-01   -0.38960E-01  9024   0.255E+00    0.600E-01
DAV:   3    -0.124022623420E+03    0.47905E-02   -0.23676E-02 10704   0.660E-01    0.257E-01
DAV:   4    -0.124022656716E+03   -0.33296E-04   -0.46453E-03 11104   0.232E-01    0.800E-02
DAV:   5    -0.124022624300E+03    0.32415E-04   -0.16362E-04 11328   0.510E-02    0.116E-02
DAV:   6    -0.124022614254E+03    0.10046E-04   -0.15813E-05 12000   0.142E-02    0.799E-03
DAV:   7    -0.124022624076E+03   -0.98216E-05   -0.66041E-06  9760   0.932E-03    0.224E-03
DAV:   8    -0.124022637490E+03   -0.13415E-04   -0.34717E-06  9280   0.568E-03    0.307E-03
DAV:   9    -0.124022651690E+03   -0.14199E-04   -0.17965E-06  8192   0.387E-03    0.825E-04
DAV:  10    -0.124022657875E+03   -0.61854E-05   -0.60440E-07  8992   0.234E-03    0.672E-04
DAV:  11    -0.124022661422E+03   -0.35463E-05   -0.37644E-07  8928   0.223E-03    0.534E-04
DAV:  12    -0.124022663514E+03   -0.20918E-05   -0.21132E-07  8880   0.148E-03    0.322E-04
DAV:  13    -0.124022664441E+03   -0.92774E-06   -0.61661E-08  9264   0.652E-04
  33 F= -.12585204E+03 E0= -.12584921E+03  d E =-.204379E+00  mag=    -0.0000
       N       E                     dE             d eps       ncg     rms          rms(c)
DAV:   1    -0.123759876227E+03    0.26279E+00   -0.21944E+02  8256   0.584E+01    0.443E+00
DAV:   2    -0.124016029324E+03   -0.25615E+00   -0.53251E+00  8992   0.937E+00    0.212E+00
DAV:   3    -0.123980516293E+03    0.35513E-01   -0.22139E-01 11424   0.186E+00    0.161E+00
DAV:   4    -0.123965963286E+03    0.14553E-01   -0.35706E-02 12832   0.806E-01    0.383E-01
DAV:   5    -0.123965237304E+03    0.72598E-03   -0.77326E-03 12096   0.335E-01    0.110E-01
DAV:   6    -0.123964857629E+03    0.37967E-03   -0.12243E-03 10496   0.133E-01    0.185E-02
DAV:   7    -0.123964889976E+03   -0.32346E-04   -0.11791E-04 10896   0.384E-02    0.117E-02
DAV:   8    -0.123964972246E+03   -0.82270E-04   -0.41614E-05 10112   0.221E-02    0.556E-03
DAV:   9    -0.123964999000E+03   -0.26754E-04   -0.97502E-06 11472   0.863E-03    0.487E-03
DAV:  10    -0.123965051691E+03   -0.52691E-04   -0.11608E-05  9584   0.894E-03    0.199E-03
DAV:  11    -0.123965065574E+03   -0.13883E-04   -0.50777E-06 10528   0.911E-03    0.143E-03
DAV:  12    -0.123965070790E+03   -0.52163E-05   -0.27656E-06  9312   0.727E-03    0.110E-03
DAV:  13    -0.123965073671E+03   -0.28804E-05   -0.80053E-07 10016   0.374E-03    0.656E-04
DAV:  14    -0.123965075993E+03   -0.23223E-05   -0.30769E-07  9040   0.162E-03    0.254E-04
DAV:  15    -0.123965076381E+03   -0.38766E-06   -0.35465E-08  9824   0.739E-04
  34 F= -.12585897E+03 E0= -.12585608E+03  d E =-.693402E-02  mag=    -0.0000
       N       E                     dE             d eps       ncg     rms          rms(c)
DAV:   1    -0.123984056489E+03   -0.18980E-01   -0.22497E+01  8256   0.187E+01    0.914E-01
DAV:   2    -0.123992693611E+03   -0.86371E-02   -0.36104E-01  9344   0.247E+00    0.583E-01
DAV:   3    -0.123988394706E+03    0.42989E-02   -0.22932E-02 11200   0.650E-01    0.255E-01
DAV:   4    -0.123988537383E+03   -0.14268E-03   -0.44640E-03 10496   0.226E-01    0.858E-02
DAV:   5    -0.123988526519E+03    0.10864E-04   -0.15408E-04 11296   0.533E-02    0.112E-02
DAV:   6    -0.123988522332E+03    0.41873E-05   -0.20357E-05 10336   0.161E-02    0.832E-03
DAV:   7    -0.123988524949E+03   -0.26168E-05   -0.45720E-06  9184   0.898E-03    0.201E-03
DAV:   8    -0.123988533155E+03   -0.82062E-05   -0.30835E-06  8432   0.619E-03    0.311E-03
DAV:   9    -0.123988545161E+03   -0.12006E-04   -0.17602E-06  8080   0.514E-03    0.107E-03
DAV:  10    -0.123988552527E+03   -0.73657E-05   -0.11014E-06  8624   0.474E-03    0.796E-04
DAV:  11    -0.123988557930E+03   -0.54028E-05   -0.52245E-07  9376   0.324E-03    0.602E-04
DAV:  12    -0.123988562541E+03   -0.46113E-05   -0.14387E-07  9440   0.141E-03    0.350E-04
DAV:  13    -0.123988564345E+03   -0.18034E-05   -0.53351E-08  9296   0.896E-04    0.147E-04
DAV:  14    -0.123988564860E+03   -0.51518E-06   -0.19633E-08  8592   0.595E-04
  35 F= -.12586138E+03 E0= -.12585849E+03  d E =-.934255E-02  mag=     0.0000
       N       E                     dE             d eps       ncg     rms          rms(c)
DAV:   1    -0.124009483031E+03   -0.20919E-01   -0.27304E+00  8256   0.653E+00    0.298E-01
DAV:   2    -0.124010501424E+03   -0.10184E-02   -0.43599E-02  9248   0.856E-01    0.203E-01
DAV:   3    -0.124009924068E+03    0.57736E-03   -0.33093E-03 11440   0.254E-01    0.669E-02
DAV:   4    -0.124009975292E+03   -0.51224E-04   -0.76324E-04  9536   0.928E-02    0.288E-02
DAV:   5    -0.124009979229E+03   -0.39369E-05   -0.27746E-05 11680   0.218E-02    0.595E-03
DAV:   6    -0.124009978114E+03    0.11144E-05   -0.56547E-06 10848   0.913E-03    0.254E-03
DAV:   7    -0.124009978324E+03   -0.20920E-06   -0.62470E-07  7952   0.341E-03
  36 F= -.12587578E+03 E0= -.12587290E+03  d E =-.144007E-01  mag=    -0.0000
       N       E                     dE             d eps       ncg     rms          rms(c)
DAV:   1    -0.124046548083E+03   -0.36570E-01   -0.24535E+01  8256   0.196E+01    0.960E-01
DAV:   2    -0.124057597987E+03   -0.11050E-01   -0.40889E-01  9536   0.263E+00    0.616E-01
DAV:   3    -0.124052725495E+03    0.48725E-02   -0.26221E-02 11584   0.697E-01    0.278E-01
DAV:   4    -0.124052826384E+03   -0.10089E-03   -0.50567E-03 10672   0.246E-01    0.999E-02
DAV:   5    -0.124052819403E+03    0.69811E-05   -0.22055E-04 11808   0.616E-02    0.156E-02
DAV:   6    -0.124052814270E+03    0.51333E-05   -0.36751E-05 10112   0.231E-02    0.817E-03
DAV:   7    -0.124052815637E+03   -0.13672E-05   -0.56389E-06  9712   0.100E-02    0.434E-03
DAV:   8    -0.124052825450E+03   -0.98129E-05   -0.49526E-06  8512   0.932E-03    0.240E-03
DAV:   9    -0.124052836978E+03   -0.11528E-04   -0.29613E-06  9296   0.696E-03    0.252E-03
DAV:  10    -0.124052848139E+03   -0.11160E-04   -0.25445E-06  9728   0.751E-03    0.104E-03
DAV:  11    -0.124052854402E+03   -0.62634E-05   -0.14633E-06  9856   0.568E-03    0.699E-04
DAV:  12    -0.124052861282E+03   -0.68805E-05   -0.29473E-07  9360   0.223E-03    0.544E-04
DAV:  13    -0.124052865161E+03   -0.38783E-05   -0.84773E-08  8976   0.987E-04    0.225E-04
DAV:  14    -0.124052866088E+03   -0.92682E-06   -0.23958E-08  9072   0.601E-04
  37 F= -.12589792E+03 E0= -.12589506E+03  d E =-.365410E-01  mag=     0.0000
       N       E                     dE             d eps       ncg     rms          rms(c)
DAV:   1    -0.124057544612E+03   -0.46795E-02   -0.10342E+00  8256   0.402E+00    0.182E-01
DAV:   2    -0.124057912199E+03   -0.36759E-03   -0.16535E-02  9088   0.527E-01    0.125E-01
DAV:   3    -0.124057710363E+03    0.20184E-03   -0.12713E-03 11552   0.159E-01    0.393E-02
DAV:   4    -0.124057729360E+03   -0.18996E-04   -0.30075E-04  9152   0.584E-02    0.172E-02
DAV:   5    -0.124057732085E+03   -0.27249E-05   -0.10897E-05 11776   0.137E-02    0.364E-03
DAV:   6    -0.124057731679E+03    0.40584E-06   -0.24021E-06  9952   0.606E-03
  38 F= -.12589859E+03 E0= -.12589573E+03  d E =-.372062E-01  mag=     0.0000
       N       E                     dE             d eps       ncg     rms          rms(c)
DAV:   1    -0.124058639725E+03   -0.90764E-03   -0.98299E-03  8864   0.406E-01    0.190E-02
DAV:   2    -0.124058644285E+03   -0.45608E-05   -0.13879E-04 11808   0.470E-02    0.124E-02
DAV:   3    -0.124058642113E+03    0.21720E-05   -0.10334E-05 10208   0.141E-02    0.326E-03
DAV:   4    -0.124058642664E+03   -0.55046E-06   -0.18184E-06  9504   0.507E-03
  39 F= -.12589938E+03 E0= -.12589651E+03  d E =-.788288E-03  mag=     0.0000
       N       E                     dE             d eps       ncg     rms          rms(c)
DAV:   1    -0.124060425127E+03   -0.17830E-02   -0.88451E-02  8864   0.122E+00    0.569E-02
DAV:   2    -0.124060465510E+03   -0.40383E-04   -0.12480E-03 11904   0.141E-01    0.373E-02
DAV:   3    -0.124060442532E+03    0.22978E-04   -0.93531E-05 11104   0.423E-02    0.986E-03
DAV:   4    -0.124060443634E+03   -0.11025E-05   -0.16435E-05 10448   0.151E-02    0.414E-03
DAV:   5    -0.124060444350E+03   -0.71584E-06   -0.10665E-06  8704   0.423E-03
  40 F= -.12590081E+03 E0= -.12589794E+03  d E =-.222255E-02  mag=    -0.0000
       N       E                     dE             d eps       ncg     rms          rms(c)
DAV:   1    -0.124059804655E+03    0.63898E-03   -0.35389E-01  8896   0.243E+00    0.114E-01
DAV:   2    -0.124059969317E+03   -0.16466E-03   -0.49988E-03 11808   0.282E-01    0.747E-02
DAV:   3    -0.124059872375E+03    0.96943E-04   -0.37844E-04 11440   0.851E-02    0.195E-02
DAV:   4    -0.124059874721E+03   -0.23462E-05   -0.66254E-05 10640   0.303E-02    0.829E-03
DAV:   5    -0.124059876261E+03   -0.15403E-05   -0.45305E-06 11072   0.863E-03    0.314E-03
DAV:   6    -0.124059876475E+03   -0.21347E-06   -0.95200E-07  8784   0.515E-03
  41 F= -.12589951E+03 E0= -.12589663E+03  d E =-.923485E-03  mag=    -0.0000
       N       E                     dE             d eps       ncg     rms          rms(c)
DAV:   1    -0.124060799268E+03   -0.92301E-03   -0.19124E-01  8896   0.179E+00    0.837E-02
DAV:   2    -0.124060885479E+03   -0.86212E-04   -0.26844E-03 11840   0.207E-01    0.549E-02
DAV:   3    -0.124060833370E+03    0.52110E-04   -0.20116E-04 11248   0.622E-02    0.148E-02
DAV:   4    -0.124060835012E+03   -0.16424E-05   -0.35957E-05 10528   0.233E-02    0.613E-03
DAV:   5    -0.124060836205E+03   -0.11931E-05   -0.33135E-06  9952   0.879E-03    0.234E-03
DAV:   6    -0.124060836509E+03   -0.30403E-06   -0.22197E-06  9104   0.779E-03
  42 F= -.12590101E+03 E0= -.12589814E+03  d E =-.242085E-02  mag=    -0.0000
       N       E                     dE             d eps       ncg     rms          rms(c)
DAV:   1    -0.124061589270E+03   -0.75306E-03   -0.81605E-03  8496   0.368E-01    0.156E-02
DAV:   2    -0.124061590823E+03   -0.15526E-05   -0.75494E-05 11376   0.361E-02    0.983E-03
DAV:   3    -0.124061590745E+03    0.77489E-07   -0.61515E-06  9456   0.120E-02
  43 F= -.12590168E+03 E0= -.12589880E+03  d E =-.666540E-03  mag=     0.0000
       N       E                     dE             d eps       ncg     rms          rms(c)
DAV:   1    -0.124063573767E+03   -0.19829E-02   -0.73574E-02  8256   0.111E+00    0.472E-02
DAV:   2    -0.124063593290E+03   -0.19523E-04   -0.67713E-04 11536   0.107E-01    0.298E-02
DAV:   3    -0.124063587156E+03    0.61337E-05   -0.51552E-05  9696   0.327E-02    0.546E-03
DAV:   4    -0.124063587728E+03   -0.57150E-06   -0.11763E-05  9824   0.147E-02    0.269E-03
DAV:   5    -0.124063589295E+03   -0.15672E-05   -0.36102E-06  8496   0.940E-03    0.114E-03
DAV:   6    -0.124063587720E+03    0.15755E-05   -0.24428E-06  8256   0.753E-03    0.442E-04
DAV:   7    -0.124063587499E+03    0.22094E-06   -0.19885E-07  8800   0.218E-03
  44 F= -.12590341E+03 E0= -.12590054E+03  d E =-.240114E-02  mag=    -0.0000
       N       E                     dE             d eps       ncg     rms          rms(c)
DAV:   1    -0.124066327214E+03   -0.27395E-02   -0.29375E-01  8256   0.221E+00    0.937E-02
DAV:   2    -0.124066409999E+03   -0.82786E-04   -0.27079E-03 11904   0.214E-01    0.593E-02
DAV:   3    -0.124066373823E+03    0.36176E-04   -0.20232E-04 10528   0.631E-02    0.108E-02
DAV:   4    -0.124066376573E+03   -0.27497E-05   -0.39565E-05 11104   0.221E-02    0.524E-03
DAV:   5    -0.124066377441E+03   -0.86850E-06   -0.14762E-06  9744   0.484E-03
  45 F= -.12590568E+03 E0= -.12590281E+03  d E =-.467070E-02  mag=     0.0000
       N       E                     dE             d eps       ncg     rms          rms(c)
DAV:   1    -0.124067014114E+03   -0.63754E-03   -0.11745E+00  8256   0.442E+00    0.188E-01
DAV:   2    -0.124067372045E+03   -0.35793E-03   -0.10827E-02 12064   0.429E-01    0.118E-01
DAV:   3    -0.124067210681E+03    0.16136E-03   -0.79598E-04 10816   0.125E-01    0.220E-02
DAV:   4    -0.124067222195E+03   -0.11514E-04   -0.15496E-04 11072   0.436E-02    0.106E-02
DAV:   5    -0.124067224390E+03   -0.21951E-05   -0.59862E-06 12688   0.965E-03    0.327E-03
DAV:   6    -0.124067224675E+03   -0.28467E-06   -0.66238E-07  8736   0.389E-03
  46 F= -.12590550E+03 E0= -.12590264E+03  d E =-.449275E-02  mag=     0.0000
       N       E                     dE             d eps       ncg     rms          rms(c)
DAV:   1    -0.124067505774E+03   -0.28138E-03   -0.32753E-01  8256   0.233E+00    0.989E-02
DAV:   2    -0.124067602292E+03   -0.96518E-04   -0.30067E-03 11904   0.226E-01    0.625E-02
DAV:   3    -0.124067562483E+03    0.39809E-04   -0.22087E-04 10560   0.661E-02    0.113E-02
DAV:   4    -0.124067566195E+03   -0.37123E-05   -0.43366E-05 11040   0.235E-02    0.549E-03
DAV:   5    -0.124067567712E+03   -0.15167E-05   -0.20717E-06 10176   0.665E-03    0.165E-03
DAV:   6    -0.124067567900E+03   -0.18885E-06   -0.11036E-06  8912   0.543E-03
  47 F= -.12590638E+03 E0= -.12590352E+03  d E =-.537471E-02  mag=     0.0000
       N       E                     dE             d eps       ncg     rms          rms(c)
DAV:   1    -0.124068721599E+03   -0.11539E-02   -0.34693E-02  8256   0.765E-01    0.439E-02
DAV:   2    -0.124068701697E+03    0.19901E-04   -0.48231E-04 11456   0.898E-02    0.245E-02
DAV:   3    -0.124068691052E+03    0.10646E-04   -0.50452E-05 10592   0.294E-02    0.749E-03
DAV:   4    -0.124068691120E+03   -0.67813E-07   -0.81140E-06  9760   0.112E-02
  48 F= -.12590742E+03 E0= -.12590456E+03  d E =-.103225E-02  mag=     0.0000
       N       E                     dE             d eps       ncg     rms          rms(c)
DAV:   1    -0.124069871849E+03   -0.11808E-02   -0.15182E-01  8256   0.160E+00    0.919E-02
DAV:   2    -0.124069791533E+03    0.80316E-04   -0.21158E-03 11456   0.188E-01    0.512E-02
DAV:   3    -0.124069744972E+03    0.46561E-04   -0.21842E-04 11104   0.610E-02    0.159E-02
DAV:   4    -0.124069744573E+03    0.39939E-06   -0.34665E-05 10384   0.229E-02    0.684E-03
DAV:   5    -0.124069745460E+03   -0.88746E-06   -0.31838E-06  9392   0.776E-03
  49 F= -.12590828E+03 E0= -.12590546E+03  d E =-.189521E-02  mag=    -0.0000
       N       E                     dE             d eps       ncg     rms          rms(c)
DAV:   1    -0.124070723728E+03   -0.97916E-03   -0.41555E-02  8256   0.802E-01    0.452E-02
DAV:   2    -0.124070714008E+03    0.97201E-05   -0.45602E-04 11504   0.880E-02    0.262E-02
DAV:   3    -0.124070703673E+03    0.10335E-04   -0.51809E-05 10192   0.308E-02    0.784E-03
DAV:   4    -0.124070703452E+03    0.22069E-06   -0.10013E-05  9008   0.145E-02    0.361E-03
DAV:   5    -0.124070703955E+03   -0.50251E-06   -0.27408E-06  8144   0.838E-03
  50 F= -.12590921E+03 E0= -.12590641E+03  d E =-.925444E-03  mag=     0.0000
       N       E                     dE             d eps       ncg     rms          rms(c)
DAV:   1    -0.124071395797E+03   -0.69234E-03   -0.11230E-01  8256   0.132E+00    0.743E-02
DAV:   2    -0.124071370871E+03    0.24926E-04   -0.12369E-03 11584   0.145E-01    0.428E-02
DAV:   3    -0.124071342921E+03    0.27950E-04   -0.13713E-04 10496   0.497E-02    0.130E-02
DAV:   4    -0.124071342238E+03    0.68278E-06   -0.24708E-05  9600   0.219E-02    0.593E-03
DAV:   5    -0.124071343341E+03   -0.11031E-05   -0.51767E-06  9168   0.114E-02    0.224E-03
DAV:   6    -0.124071343735E+03   -0.39397E-06   -0.53290E-06  8592   0.113E-02
  51 F= -.12590979E+03 E0= -.12590703E+03  d E =-.150927E-02  mag=     0.0000
       N       E                     dE             d eps       ncg     rms          rms(c)
DAV:   1    -0.124072201423E+03   -0.85808E-03   -0.33903E-02  8256   0.714E-01    0.352E-02
DAV:   2    -0.124072200879E+03    0.54440E-06   -0.25362E-04 11168   0.636E-02    0.213E-02
DAV:   3    -0.124072197030E+03    0.38488E-05   -0.22805E-05  9952   0.191E-02    0.489E-03
DAV:   4    -0.124072197317E+03   -0.28674E-06   -0.33756E-06  9840   0.782E-03
  52 F= -.12591064E+03 E0= -.12590787E+03  d E =-.847100E-03  mag=     0.0000
       N       E                     dE             d eps       ncg     rms          rms(c)
DAV:   1    -0.124073781962E+03   -0.15849E-02   -0.30497E-01  8256   0.214E+00    0.105E-01
DAV:   2    -0.124073786212E+03   -0.42495E-05   -0.22729E-03 11408   0.191E-01    0.637E-02
DAV:   3    -0.124073747381E+03    0.38831E-04   -0.20277E-04  9968   0.568E-02    0.145E-02
DAV:   4    -0.124073748859E+03   -0.14787E-05   -0.28133E-05 10144   0.216E-02    0.556E-03
DAV:   5    -0.124073750114E+03   -0.12544E-05   -0.39180E-06  9568   0.938E-03    0.209E-03
DAV:   6    -0.124073750690E+03   -0.57602E-06   -0.37471E-06  9024   0.948E-03
  53 F= -.12591217E+03 E0= -.12590940E+03  d E =-.238277E-02  mag=     0.0000
       N       E                     dE             d eps       ncg     rms          rms(c)
DAV:   1    -0.124072475954E+03    0.12742E-02   -0.12191E+00  8256   0.428E+00    0.210E-01
DAV:   2    -0.124072506137E+03   -0.30183E-04   -0.90465E-03 11584   0.380E-01    0.127E-01
DAV:   3    -0.124072338101E+03    0.16804E-03   -0.81046E-04 10432   0.113E-01    0.284E-02
DAV:   4    -0.124072343543E+03   -0.54421E-05   -0.10697E-04 10944   0.398E-02    0.110E-02
DAV:   5    -0.124072346060E+03   -0.25163E-05   -0.81153E-06 10400   0.117E-02    0.400E-03
DAV:   6    -0.124072346987E+03   -0.92731E-06   -0.30380E-06  9616   0.894E-03
  54 F= -.12591074E+03 E0= -.12590795E+03  d E =-.951686E-03  mag=     0.0000
       N       E                     dE             d eps       ncg     rms          rms(c)
DAV:   1    -0.124074025896E+03   -0.16798E-02   -0.66305E-01  8256   0.315E+00    0.155E-01
DAV:   2    -0.124074040510E+03   -0.14614E-04   -0.49201E-03 11296   0.280E-01    0.939E-02
DAV:   3    -0.124073954971E+03    0.85540E-04   -0.43708E-04 10848   0.836E-02    0.210E-02
DAV:   4    -0.124073959530E+03   -0.45593E-05   -0.60839E-05  9904   0.322E-02    0.809E-03
DAV:   5    -0.124073962613E+03   -0.30829E-05   -0.97102E-06  9648   0.149E-02    0.305E-03
DAV:   6    -0.124073962977E+03   -0.36396E-06   -0.93552E-06  9632   0.149E-02
  55 F= -.12591238E+03 E0= -.12590960E+03  d E =-.258686E-02  mag=     0.0000
       N       E                     dE             d eps       ncg     rms          rms(c)
DAV:   1    -0.124074598344E+03   -0.63573E-03   -0.15153E-01  8320   0.161E+00    0.832E-02
DAV:   2    -0.124074574833E+03    0.23510E-04   -0.16987E-03 11712   0.169E-01    0.491E-02
DAV:   3    -0.124074535768E+03    0.39065E-04   -0.15911E-04 10016   0.530E-02    0.135E-02
DAV:   4    -0.124074536012E+03   -0.24432E-06   -0.24026E-05 10064   0.199E-02    0.522E-03
DAV:   5    -0.124074536842E+03   -0.82978E-06   -0.27441E-06  9760   0.790E-03
  56 F= -.12591300E+03 E0= -.12591020E+03  d E =-.619792E-03  mag=    -0.0000
       N       E                     dE             d eps       ncg     rms          rms(c)
DAV:   1    -0.124074572528E+03   -0.36515E-04   -0.42827E-03  8368   0.271E-01    0.139E-02
DAV:   2    -0.124074570964E+03    0.15637E-05   -0.49456E-05 10176   0.297E-02    0.819E-03
DAV:   3    -0.124074570579E+03    0.38531E-06   -0.62841E-06  8576   0.121E-02
  57 F= -.12591302E+03 E0= -.12591023E+03  d E =-.645708E-03  mag=     0.0000
       N       E                     dE             d eps       ncg     rms          rms(c)
DAV:   1    -0.124074603742E+03   -0.32778E-04   -0.68810E-03  8832   0.348E-01    0.260E-02
DAV:   2    -0.124074586297E+03    0.17444E-04   -0.16289E-04  9456   0.534E-02    0.126E-02
DAV:   3    -0.124074583417E+03    0.28801E-05   -0.20384E-05  9456   0.189E-02    0.462E-03
DAV:   4    -0.124074583730E+03   -0.31281E-06   -0.56489E-06  8288   0.116E-02
  58 F= -.12591311E+03 E0= -.12591031E+03  d E =-.835483E-04  mag=     0.0000
       N       E                     dE             d eps       ncg     rms          rms(c)
DAV:   1    -0.124074587968E+03   -0.45505E-05   -0.25000E-05  8256   0.229E-02    0.153E-03
DAV:   2    -0.124074587186E+03    0.78199E-06   -0.32109E-06  8096   0.892E-03
  59 F= -.12591310E+03 E0= -.12591031E+03  d E =-.832469E-04  mag=     0.0000
       N       E                     dE             d eps       ncg     rms          rms(c)
DAV:   1    -0.124074529537E+03    0.58431E-04   -0.73713E-04  8256   0.115E-01    0.520E-03
DAV:   2    -0.124074529440E+03    0.96398E-07   -0.10780E-05  8736   0.143E-02    0.326E-03
DAV:   3    -0.124074529499E+03   -0.58903E-07   -0.13314E-06  7296   0.607E-03
  60 F= -.12591313E+03 E0= -.12591033E+03  d E =-.213914E-04  mag=    -0.0000
       N       E                     dE             d eps       ncg     rms          rms(c)
DAV:   1    -0.124074381644E+03    0.14780E-03   -0.33121E-03  8352   0.243E-01    0.113E-02
DAV:   2    -0.124074381701E+03   -0.56972E-07   -0.45719E-05  9776   0.284E-02    0.709E-03
DAV:   3    -0.124074381438E+03    0.26312E-06   -0.42245E-06  9648   0.101E-02
  61 F= -.12591315E+03 E0= -.12591035E+03  d E =-.409971E-04  mag=     0.0000
       N       E                     dE             d eps       ncg     rms          rms(c)
DAV:   1    -0.124074259786E+03    0.12191E-03   -0.17114E-03  8336   0.170E-01    0.851E-03
DAV:   2    -0.124074259738E+03    0.47904E-07   -0.31190E-05  8416   0.245E-02    0.565E-03
DAV:   3    -0.124074259727E+03    0.11721E-07   -0.41257E-06  9424   0.104E-02
  62 F= -.12591316E+03 E0= -.12591037E+03  d E =-.180666E-04  mag=    -0.0000
       N       E                     dE             d eps       ncg     rms          rms(c)
DAV:   1    -0.124074163642E+03    0.96096E-04   -0.89578E-04  8400   0.123E-01    0.665E-03
DAV:   2    -0.124074163394E+03    0.24753E-06   -0.16598E-05  8448   0.186E-02    0.436E-03
DAV:   3    -0.124074163609E+03   -0.21483E-06   -0.29351E-06  8032   0.913E-03
  63 F= -.12591317E+03 E0= -.12591037E+03  d E =-.226314E-04  mag=     0.0000
       N       E                     dE             d eps       ncg     rms          rms(c)
DAV:   1    -0.124074070652E+03    0.92743E-04   -0.74060E-04  8448   0.109E-01    0.531E-03
DAV:   2    -0.124074070475E+03    0.17653E-06   -0.12384E-05  8480   0.158E-02    0.358E-03
DAV:   3    -0.124074070724E+03   -0.24865E-06   -0.19729E-06  7728   0.745E-03
  64 F= -.12591318E+03 E0= -.12591038E+03  d E =-.136820E-04  mag=    -0.0000
       N       E                     dE             d eps       ncg     rms          rms(c)
DAV:   1    -0.124073787983E+03    0.28249E-03   -0.66009E-03  8384   0.326E-01    0.151E-02
DAV:   2    -0.124073789083E+03   -0.11002E-05   -0.10504E-04  8480   0.427E-02    0.102E-02
DAV:   3    -0.124073788464E+03    0.61855E-06   -0.88782E-06  9456   0.147E-02
  65 F= -.12591322E+03 E0= -.12591042E+03  d E =-.512327E-04  mag=     0.0000
       N       E                     dE             d eps       ncg     rms          rms(c)
DAV:   1    -0.124073205257E+03    0.58383E-03   -0.26449E-02  8320   0.652E-01    0.306E-02
DAV:   2    -0.124073211146E+03   -0.58892E-05   -0.41596E-04  8480   0.841E-02    0.206E-02
DAV:   3    -0.124073207527E+03    0.36191E-05   -0.33033E-05  9152   0.273E-02    0.629E-03
DAV:   4    -0.124073209278E+03   -0.17511E-05   -0.13803E-05  9184   0.176E-02    0.265E-03
DAV:   5    -0.124073209113E+03    0.16547E-06   -0.84938E-06  8720   0.140E-02
  66 F= -.12591328E+03 E0= -.12591048E+03  d E =-.111971E-03  mag=    -0.0000
       N       E                     dE             d eps       ncg     rms          rms(c)
DAV:   1    -0.124071962516E+03    0.12468E-02   -0.10533E-01  8320   0.130E+00    0.591E-02
DAV:   2    -0.124071993264E+03   -0.30748E-04   -0.16739E-03  9008   0.166E-01    0.399E-02
DAV:   3    -0.124071973417E+03    0.19847E-04   -0.11701E-04  9904   0.478E-02    0.124E-02
DAV:   4    -0.124071975247E+03   -0.18300E-05   -0.26850E-05 10368   0.174E-02    0.484E-03
DAV:   5    -0.124071975614E+03   -0.36695E-06   -0.10793E-06  8208   0.526E-03
  67 F= -.12591333E+03 E0= -.12591052E+03  d E =-.160609E-03  mag=     0.0000
       N       E                     dE             d eps       ncg     rms          rms(c)
DAV:   1    -0.124071920885E+03    0.54362E-04   -0.25625E-04  8752   0.644E-02    0.282E-03
DAV:   2    -0.124071921039E+03   -0.15364E-06   -0.49050E-06  9120   0.969E-03
  68 F= -.12591334E+03 E0= -.12591053E+03  d E =-.805824E-05  mag=     0.0000
       N       E                     dE             d eps       ncg     rms          rms(c)
DAV:   1    -0.124071756320E+03    0.16457E-03   -0.22224E-03  8384   0.189E-01    0.898E-03
DAV:   2    -0.124071756971E+03   -0.65115E-06   -0.34680E-05  9376   0.244E-02    0.609E-03
DAV:   3    -0.124071756785E+03    0.18615E-06   -0.28441E-06  8960   0.812E-03
  69 F= -.12591336E+03 E0= -.12591055E+03  d E =-.317794E-04  mag=    -0.0000
       N       E                     dE             d eps       ncg     rms          rms(c)
DAV:   1    -0.124071423957E+03    0.33301E-03   -0.89931E-03  8448   0.379E-01    0.175E-02
DAV:   2    -0.124071426506E+03   -0.25491E-05   -0.13972E-04  9104   0.485E-02    0.119E-02
DAV:   3    -0.124071425439E+03    0.10668E-05   -0.10495E-05  9296   0.152E-02    0.364E-03
DAV:   4    -0.124071425877E+03   -0.43792E-06   -0.38545E-06  8672   0.907E-03
  70 F= -.12591341E+03 E0= -.12591059E+03  d E =-.769046E-04  mag=    -0.0000
       N       E                     dE             d eps       ncg     rms          rms(c)
DAV:   1    -0.124070746487E+03    0.67895E-03   -0.35802E-02  8384   0.757E-01    0.341E-02
DAV:   2    -0.124070758085E+03   -0.11599E-04   -0.56271E-04  8992   0.968E-02    0.232E-02
DAV:   3    -0.124070752581E+03    0.55046E-05   -0.40076E-05  9424   0.293E-02    0.726E-03
DAV:   4    -0.124070754009E+03   -0.14289E-05   -0.12870E-05  8800   0.160E-02    0.289E-03
DAV:   5    -0.124070755134E+03   -0.11244E-05   -0.68749E-06  9008   0.128E-02    0.113E-03
DAV:   6    -0.124070752802E+03    0.23321E-05   -0.27465E-06  8432   0.788E-03    0.442E-04
DAV:   7    -0.124070752852E+03   -0.49964E-07   -0.65788E-08  8320   0.125E-03
  71 F= -.12591349E+03 E0= -.12591067E+03  d E =-.156551E-03  mag=     0.0000
       N       E                     dE             d eps       ncg     rms          rms(c)
DAV:   1    -0.124069342569E+03    0.14102E-02   -0.14319E-01  8256   0.151E+00    0.678E-02
DAV:   2    -0.124069390631E+03   -0.48062E-04   -0.22508E-03  8800   0.192E-01    0.463E-02
DAV:   3    -0.124069364947E+03    0.25684E-04   -0.15421E-04  9616   0.550E-02    0.144E-02
DAV:   4    -0.124069367385E+03   -0.24378E-05   -0.35852E-05  9824   0.197E-02    0.557E-03
DAV:   5    -0.124069367846E+03   -0.46057E-06   -0.11195E-06  8992   0.458E-03
  72 F= -.12591361E+03 E0= -.12591078E+03  d E =-.279506E-03  mag=    -0.0000
       N       E                     dE             d eps       ncg     rms          rms(c)
DAV:   1    -0.124066333334E+03    0.30341E-02   -0.57307E-01  8256   0.303E+00    0.136E-01
DAV:   2    -0.124066547275E+03   -0.21394E-03   -0.90446E-03  9344   0.385E-01    0.924E-02
DAV:   3    -0.124066431287E+03    0.11599E-03   -0.61549E-04 10528   0.110E-01    0.292E-02
DAV:   4    -0.124066438774E+03   -0.74868E-05   -0.14174E-04 10832   0.391E-02    0.111E-02
DAV:   5    -0.124066439235E+03   -0.46131E-06   -0.48815E-06 11232   0.924E-03
  73 F= -.12591371E+03 E0= -.12591086E+03  d E =-.377012E-03  mag=     0.0000
       N       E                     dE             d eps       ncg     rms          rms(c)
DAV:   1    -0.124065795484E+03    0.64329E-03   -0.32273E-02  8256   0.719E-01    0.320E-02
DAV:   2    -0.124065807365E+03   -0.11881E-04   -0.51280E-04  9440   0.919E-02    0.217E-02
DAV:   3    -0.124065802117E+03    0.52482E-05   -0.34869E-05  9632   0.262E-02    0.692E-03
DAV:   4    -0.124065803029E+03   -0.91223E-06   -0.81940E-06  9760   0.101E-02
  74 F= -.12591379E+03 E0= -.12591093E+03  d E =-.818977E-04  mag=    -0.0000
       N       E                     dE             d eps       ncg     rms          rms(c)
DAV:   1    -0.124063777965E+03    0.20242E-02   -0.28903E-01  8256   0.215E+00    0.962E-02
DAV:   2    -0.124063882133E+03   -0.10417E-03   -0.45618E-03  9584   0.274E-01    0.654E-02
DAV:   3    -0.124063827763E+03    0.54370E-04   -0.31127E-04  9840   0.781E-02    0.208E-02
DAV:   4    -0.124063831772E+03   -0.40085E-05   -0.72551E-05 10368   0.295E-02    0.800E-03
DAV:   5    -0.124063833097E+03   -0.13251E-05   -0.54010E-06  9568   0.119E-02    0.175E-03
DAV:   6    -0.124063832728E+03    0.36839E-06   -0.42413E-06  8592   0.102E-02
  75 F= -.12591398E+03 E0= -.12591111E+03  d E =-.270528E-03  mag=    -0.0000
       N       E                     dE             d eps       ncg     rms          rms(c)
DAV:   1    -0.124059407513E+03    0.44256E-02   -0.11562E+00  8256   0.431E+00    0.193E-01
DAV:   2    -0.124059832717E+03   -0.42520E-03   -0.18351E-02  9824   0.549E-01    0.131E-01
DAV:   3    -0.124059603850E+03    0.22887E-03   -0.12455E-03 10544   0.156E-01    0.422E-02
DAV:   4    -0.124059614872E+03   -0.11022E-04   -0.28292E-04 10832   0.555E-02    0.160E-02
DAV:   5    -0.124059615114E+03   -0.24185E-06   -0.10190E-05 11312   0.141E-02    0.317E-03
DAV:   6    -0.124059615075E+03    0.39257E-07   -0.26705E-06  8704   0.781E-03
  76 F= -.12591410E+03 E0= -.12591120E+03  d E =-.391317E-03  mag=    -0.0000
       N       E                     dE             d eps       ncg     rms          rms(c)
DAV:   1    -0.124060198711E+03   -0.58360E-03   -0.20792E-02  8288   0.577E-01    0.259E-02
DAV:   2    -0.124060206273E+03   -0.75623E-05   -0.32828E-04 10080   0.741E-02    0.177E-02
DAV:   3    -0.124060203828E+03    0.24446E-05   -0.24137E-05  9424   0.228E-02    0.561E-03
DAV:   4    -0.124060205374E+03   -0.15453E-05   -0.82858E-06  8672   0.132E-02    0.225E-03
DAV:   5    -0.124060206452E+03   -0.10786E-05   -0.45295E-06  9120   0.104E-02    0.932E-04
DAV:   6    -0.124060205783E+03    0.66900E-06   -0.15255E-06  9040   0.588E-03
  77 F= -.12591410E+03 E0= -.12591121E+03  d E =-.398460E-03  mag=    -0.0000
       N       E                     dE             d eps       ncg     rms          rms(c)
DAV:   1    -0.124060145864E+03    0.60588E-04   -0.74651E-04  9808   0.114E-01    0.594E-03
DAV:   2    -0.124060146026E+03   -0.16214E-06   -0.12854E-05 11072   0.147E-02    0.365E-03
DAV:   3    -0.124060146025E+03    0.12615E-08   -0.10491E-06  8384   0.455E-03
  78 F= -.12591413E+03 E0= -.12591124E+03  d E =-.251002E-04  mag=     0.0000
       N       E                     dE             d eps       ncg     rms          rms(c)
DAV:   1    -0.124059927737E+03    0.21829E-03   -0.67476E-03  8256   0.343E-01    0.181E-02
DAV:   2    -0.124059927392E+03    0.34517E-06   -0.11546E-04 10000   0.441E-02    0.111E-02
DAV:   3    -0.124059925503E+03    0.18892E-05   -0.10111E-05 10624   0.137E-02    0.348E-03
DAV:   4    -0.124059925666E+03   -0.16280E-06   -0.18979E-06  8496   0.503E-03
  79 F= -.12591416E+03 E0= -.12591127E+03  d E =-.593536E-04  mag=     0.0000
       N       E                     dE             d eps       ncg     rms          rms(c)
DAV:   1    -0.124059878213E+03    0.47290E-04   -0.10896E-03  8288   0.140E-01    0.681E-03
DAV:   2    -0.124059878721E+03   -0.50860E-06   -0.17003E-05 10464   0.170E-02    0.437E-03
DAV:   3    -0.124059878494E+03    0.22789E-06   -0.12294E-06  6832   0.507E-03
  80 F= -.12591418E+03 E0= -.12591129E+03  d E =-.210664E-04  mag=    -0.0000
       N       E                     dE             d eps       ncg     rms          rms(c)
DAV:   1    -0.124059805744E+03    0.72977E-04   -0.15668E-03  8352   0.167E-01    0.846E-03
DAV:   2    -0.124059806385E+03   -0.64096E-06   -0.24183E-05 10480   0.203E-02    0.536E-03
DAV:   3    -0.124059806047E+03    0.33796E-06   -0.19891E-06  9088   0.618E-03
  81 F= -.12591419E+03 E0= -.12591130E+03  d E =-.304477E-04  mag=     0.0000
       N       E                     dE             d eps       ncg     rms          rms(c)
DAV:   1    -0.124059770001E+03    0.36384E-04   -0.85378E-04  8256   0.121E-01    0.573E-03
DAV:   2    -0.124059770287E+03   -0.28636E-06   -0.99261E-06 10496   0.127E-02
  82 F= -.12591421E+03 E0= -.12591131E+03  d E =-.188148E-04  mag=     0.0000
       N       E                     dE             d eps       ncg     rms          rms(c)
DAV:   1    -0.124059640496E+03    0.12951E-03   -0.76247E-03  8256   0.362E-01    0.171E-02
DAV:   2    -0.124059643033E+03   -0.25371E-05   -0.87653E-05 10352   0.378E-02    0.107E-02
DAV:   3    -0.124059642090E+03    0.94308E-06   -0.52249E-06  9968   0.976E-03
  83 F= -.12591425E+03 E0= -.12591135E+03  d E =-.543715E-04  mag=    -0.0000
       N       E                     dE             d eps       ncg     rms          rms(c)
DAV:   1    -0.124059286940E+03    0.35609E-03   -0.30684E-02  8256   0.726E-01    0.332E-02
DAV:   2    -0.124059299125E+03   -0.12184E-04   -0.35683E-04 10880   0.762E-02    0.209E-02
DAV:   3    -0.124059294862E+03    0.42624E-05   -0.20025E-05 10800   0.191E-02    0.569E-03
DAV:   4    -0.124059295187E+03   -0.32430E-06   -0.32573E-06 10000   0.665E-03
  84 F= -.12591423E+03 E0= -.12591133E+03  d E =-.350942E-04  mag=    -0.0000
       N       E                     dE             d eps       ncg     rms          rms(c)
DAV:   1    -0.124059541098E+03   -0.24624E-03   -0.14183E-02  8256   0.493E-01    0.223E-02
DAV:   2    -0.124059546244E+03   -0.51459E-05   -0.16499E-04 10352   0.518E-02    0.140E-02
DAV:   3    -0.124059544325E+03    0.19192E-05   -0.94231E-06  9312   0.132E-02    0.379E-03
DAV:   4    -0.124059544535E+03   -0.20993E-06   -0.16890E-06  9120   0.528E-03
  85 F= -.12591426E+03 E0= -.12591136E+03  d E =-.614983E-04  mag=    -0.0000
       N       E                     dE             d eps       ncg     rms          rms(c)
DAV:   1    -0.124059521649E+03    0.22676E-04   -0.47857E-04  8256   0.903E-02    0.403E-03
DAV:   2    -0.124059521797E+03   -0.14846E-06   -0.56590E-06  9264   0.101E-02
  86 F= -.12591427E+03 E0= -.12591137E+03  d E =-.149312E-04  mag=    -0.0000
       N       E                     dE             d eps       ncg     rms          rms(c)
DAV:   1    -0.124059442438E+03    0.79211E-04   -0.42960E-03  8256   0.271E-01    0.127E-02
DAV:   2    -0.124059444009E+03   -0.15702E-05   -0.48284E-05 10208   0.283E-02    0.814E-03
DAV:   3    -0.124059443714E+03    0.29413E-06   -0.36773E-06  8544   0.927E-03
  87 F= -.12591431E+03 E0= -.12591140E+03  d E =-.498225E-04  mag=     0.0000
       N       E                     dE             d eps       ncg     rms          rms(c)
DAV:   1    -0.124059236147E+03    0.20786E-03   -0.17290E-02  8256   0.543E-01    0.246E-02
DAV:   2    -0.124059243827E+03   -0.76796E-05   -0.19580E-04 10880   0.566E-02    0.159E-02
DAV:   3    -0.124059241876E+03    0.19509E-05   -0.12796E-05  9760   0.166E-02    0.394E-03
DAV:   4    -0.124059242042E+03   -0.16626E-06   -0.39495E-06  8608   0.997E-03
  88 F= -.12591433E+03 E0= -.12591143E+03  d E =-.742316E-04  mag=     0.0000
       N       E                     dE             d eps       ncg     rms          rms(c)
DAV:   1    -0.124059185550E+03    0.56326E-04   -0.26138E-03  8272   0.209E-01    0.993E-03
DAV:   2    -0.124059186097E+03   -0.54722E-06   -0.30726E-05  9152   0.233E-02    0.626E-03
DAV:   3    -0.124059186591E+03   -0.49410E-06   -0.39125E-06  9008   0.100E-02
  89 F= -.12591436E+03 E0= -.12591145E+03  d E =-.271237E-04  mag=    -0.0000
       N       E                     dE             d eps       ncg     rms          rms(c)
DAV:   1    -0.124058972936E+03    0.21316E-03   -0.23479E-02  8256   0.627E-01    0.296E-02
DAV:   2    -0.124058980190E+03   -0.72536E-05   -0.26255E-04 10208   0.653E-02    0.186E-02
DAV:   3    -0.124058977930E+03    0.22597E-05   -0.19371E-05  9616   0.203E-02    0.473E-03
DAV:   4    -0.124058978402E+03   -0.47265E-06   -0.87723E-06  8608   0.148E-02
  90 F= -.12591440E+03 E0= -.12591149E+03  d E =-.667463E-04  mag=    -0.0000
       N       E                     dE             d eps       ncg     rms          rms(c)
DAV:   1    -0.124058946965E+03    0.30965E-04   -0.36612E-04  8400   0.794E-02    0.397E-03
DAV:   2    -0.124058946552E+03    0.41308E-06   -0.65304E-06  9168   0.125E-02
  91 F= -.12591440E+03 E0= -.12591149E+03  d E =-.655957E-04  mag=    -0.0000
       N       E                     dE             d eps       ncg     rms          rms(c)
DAV:   1    -0.124058944987E+03    0.19782E-05   -0.55000E-04  8512   0.101E-01    0.538E-03
DAV:   2    -0.124058944174E+03    0.81263E-06   -0.10509E-05  8480   0.160E-02    0.317E-03
DAV:   3    -0.124058944750E+03   -0.57647E-06   -0.33521E-06  7936   0.925E-03
  92 F= -.12591441E+03 E0= -.12591151E+03  d E =-.170000E-04  mag=     0.0000
       N       E                     dE             d eps       ncg     rms          rms(c)
DAV:   1    -0.124058910498E+03    0.33676E-04   -0.47473E-03  8320   0.296E-01    0.147E-02
DAV:   2    -0.124058909833E+03    0.66455E-06   -0.64965E-05 10224   0.346E-02    0.856E-03
DAV:   3    -0.124058909558E+03    0.27567E-06   -0.64750E-06  8560   0.119E-02
  93 F= -.12591443E+03 E0= -.12591153E+03  d E =-.371011E-04  mag=    -0.0000
       N       E                     dE             d eps       ncg     rms          rms(c)
DAV:   1    -0.124058909591E+03    0.24233E-06   -0.11595E-03  8320   0.146E-01    0.684E-03
DAV:   2    -0.124058909599E+03   -0.81559E-08   -0.16072E-05  9072   0.187E-02    0.446E-03
DAV:   3    -0.124058910212E+03   -0.61244E-06   -0.31786E-06  7648   0.954E-03
  94 F= -.12591445E+03 E0= -.12591154E+03  d E =-.157747E-04  mag=     0.0000
       N       E                     dE             d eps       ncg     rms          rms(c)
DAV:   1    -0.124058897155E+03    0.12444E-04   -0.21154E-03  8320   0.197E-01    0.887E-03
DAV:   2    -0.124058897789E+03   -0.63393E-06   -0.28117E-05 10352   0.235E-02    0.572E-03
DAV:   3    -0.124058898097E+03   -0.30809E-06   -0.35751E-06  8448   0.990E-03
  95 F= -.12591446E+03 E0= -.12591155E+03  d E =-.240266E-04  mag=    -0.0000
       N       E                     dE             d eps       ncg     rms          rms(c)
DAV:   1    -0.124058908576E+03   -0.10787E-04   -0.11172E-03  8320   0.143E-01    0.691E-03
DAV:   2    -0.124058908445E+03    0.13082E-06   -0.14948E-05  9392   0.174E-02    0.427E-03
DAV:   3    -0.124058908674E+03   -0.22939E-06   -0.21735E-06  7472   0.769E-03
  96 F= -.12591447E+03 E0= -.12591157E+03  d E =-.146448E-04  mag=     0.0000
       N       E                     dE             d eps       ncg     rms          rms(c)
DAV:   1    -0.124058911828E+03   -0.33835E-05   -0.29014E-03  8320   0.230E-01    0.109E-02
DAV:   2    -0.124058912009E+03   -0.18089E-06   -0.37805E-05  9584   0.267E-02    0.672E-03
DAV:   3    -0.124058912081E+03   -0.71968E-07   -0.39271E-06  8320   0.998E-03
  97 F= -.12591448E+03 E0= -.12591157E+03  d E =-.245779E-04  mag=    -0.0000
       N       E                     dE             d eps       ncg     rms          rms(c)
DAV:   1    -0.124058921737E+03   -0.97276E-05   -0.38571E-04  8448   0.844E-02    0.398E-03
DAV:   2    -0.124058921421E+03    0.31545E-06   -0.55896E-06  8416   0.118E-02
  98 F= -.12591449E+03 E0= -.12591158E+03  d E =-.899309E-05  mag=    -0.0000
       N       E                     dE             d eps       ncg     rms          rms(c)
DAV:   1    -0.124058946091E+03   -0.24354E-04   -0.34394E-03  8320   0.250E-01    0.110E-02
DAV:   2    -0.124058946609E+03   -0.51739E-06   -0.37024E-05  9120   0.269E-02    0.723E-03
DAV:   3    -0.124058948215E+03   -0.16062E-05   -0.61650E-06  8496   0.130E-02    0.202E-03
DAV:   4    -0.124058947608E+03    0.60721E-06   -0.65358E-06  8320   0.127E-02
  99 F= -.12591452E+03 E0= -.12591161E+03  d E =-.341498E-04  mag=    -0.0000
       N       E                     dE             d eps       ncg     rms          rms(c)
DAV:   1    -0.124058967098E+03   -0.18883E-04   -0.13797E-02  8256   0.500E-01    0.209E-02
DAV:   2    -0.124058973108E+03   -0.60105E-05   -0.13999E-04 11344   0.486E-02    0.138E-02
DAV:   3    -0.124058971960E+03    0.11482E-05   -0.77172E-06 10128   0.120E-02    0.350E-03
DAV:   4    -0.124058972119E+03   -0.15906E-06   -0.13291E-06  9008   0.536E-03
 100 F= -.12591454E+03 E0= -.12591163E+03  d E =-.566710E-04  mag=    -0.0000
       N       E                     dE             d eps       ncg     rms          rms(c)
DAV:   1    -0.124058992385E+03   -0.20425E-04   -0.91628E-04  8416   0.128E-01    0.572E-03
DAV:   2    -0.124058992689E+03   -0.30345E-06   -0.98657E-06  9728   0.133E-02
 101 F= -.12591456E+03 E0= -.12591165E+03  d E =-.174888E-04  mag=    -0.0000
       N       E                     dE             d eps       ncg     rms          rms(c)
DAV:   1    -0.124059042183E+03   -0.49798E-04   -0.82019E-03  8256   0.383E-01    0.177E-02
DAV:   2    -0.124059044830E+03   -0.26466E-05   -0.84788E-05 10240   0.378E-02    0.114E-02
DAV:   3    -0.124059044123E+03    0.70697E-06   -0.62603E-06  8640   0.114E-02
 102 F= -.12591460E+03 E0= -.12591170E+03  d E =-.595531E-04  mag=     0.0000
       N       E                     dE             d eps       ncg     rms          rms(c)
DAV:   1    -0.124059094237E+03   -0.49408E-04   -0.32931E-02  8256   0.766E-01    0.343E-02
DAV:   2    -0.124059106848E+03   -0.12611E-04   -0.34345E-04 11664   0.759E-02    0.221E-02
DAV:   3    -0.124059103170E+03    0.36789E-05   -0.22416E-05  9120   0.207E-02    0.619E-03
DAV:   4    -0.124059103408E+03   -0.23877E-06   -0.51190E-06  8736   0.113E-02
 103 F= -.12591464E+03 E0= -.12591175E+03  d E =-.100087E-03  mag=     0.0000
       N       E                     dE             d eps       ncg     rms          rms(c)
DAV:   1    -0.124059127814E+03   -0.24644E-04   -0.17128E-03  8256   0.174E-01    0.757E-03
DAV:   2    -0.124059128155E+03   -0.34163E-06   -0.17517E-05  9744   0.181E-02    0.503E-03
DAV:   3    -0.124059129495E+03   -0.13398E-05   -0.36176E-06  8608   0.968E-03    0.141E-03
DAV:   4    -0.124059128570E+03    0.92485E-06   -0.39904E-06  8256   0.975E-03
 104 F= -.12591466E+03 E0= -.12591178E+03  d E =-.194149E-04  mag=     0.0000
       N       E                     dE             d eps       ncg     rms          rms(c)
DAV:   1    -0.124059197323E+03   -0.67828E-04   -0.15384E-02  8256   0.519E-01    0.224E-02
DAV:   2    -0.124059203542E+03   -0.62193E-05   -0.14171E-04 11536   0.469E-02    0.147E-02
DAV:   3    -0.124059201745E+03    0.17977E-05   -0.76098E-06 10896   0.107E-02    0.318E-03
DAV:   4    -0.124059201855E+03   -0.10996E-06   -0.94471E-07  9504   0.365E-03
 105 F= -.12591471E+03 E0= -.12591185E+03  d E =-.754712E-04  mag=     0.0000
       N       E                     dE             d eps       ncg     rms          rms(c)
DAV:   1    -0.124059321568E+03   -0.11982E-03   -0.61517E-02  8256   0.104E+00    0.447E-02
DAV:   2    -0.124059346671E+03   -0.25103E-04   -0.56769E-04 11616   0.939E-02    0.294E-02
DAV:   3    -0.124059339114E+03    0.75569E-05   -0.30583E-05 10624   0.214E-02    0.638E-03
DAV:   4    -0.124059339557E+03   -0.44249E-06   -0.38160E-06  9760   0.726E-03
 106 F= -.12591482E+03 E0= -.12591200E+03  d E =-.178787E-03  mag=     0.0000
       N       E                     dE             d eps       ncg     rms          rms(c)
DAV:   1    -0.124059500544E+03   -0.16143E-03   -0.24588E-01  8256   0.208E+00    0.894E-02
DAV:   2    -0.124059604244E+03   -0.10370E-03   -0.22719E-03 11808   0.188E-01    0.589E-02
DAV:   3    -0.124059572519E+03    0.31725E-04   -0.12198E-04 10752   0.428E-02    0.128E-02
DAV:   4    -0.124059574211E+03   -0.16920E-05   -0.15128E-05 10176   0.144E-02    0.445E-03
DAV:   5    -0.124059574543E+03   -0.33288E-06   -0.22075E-06  8592   0.731E-03
 107 F= -.12591498E+03 E0= -.12591230E+03  d E =-.345314E-03  mag=    -0.0000
       N       E                     dE             d eps       ncg     rms          rms(c)
DAV:   1    -0.124059478084E+03    0.96127E-04   -0.98142E-01  8256   0.415E+00    0.178E-01
DAV:   2    -0.124059906190E+03   -0.42811E-03   -0.90856E-03 11680   0.375E-01    0.117E-01
DAV:   3    -0.124059777392E+03    0.12880E-03   -0.48119E-04 10736   0.854E-02    0.261E-02
DAV:   4    -0.124059783905E+03   -0.65130E-05   -0.61796E-05 10384   0.300E-02    0.889E-03
DAV:   5    -0.124059785690E+03   -0.17849E-05   -0.11155E-05  9888   0.166E-02    0.332E-03
DAV:   6    -0.124059787460E+03   -0.17702E-05   -0.12905E-05  8896   0.177E-02    0.141E-03
DAV:   7    -0.124059781523E+03    0.59370E-05   -0.43228E-06  9584   0.102E-02    0.470E-04
DAV:   8    -0.124059781833E+03   -0.31042E-06   -0.68294E-08  8832   0.119E-03
 108 F= -.12591506E+03 E0= -.12591280E+03  d E =-.417101E-03  mag=    -0.0000
       N       E                     dE             d eps       ncg     rms          rms(c)
DAV:   1    -0.124059705298E+03    0.76225E-04   -0.15626E-01  8256   0.166E+00    0.707E-02
DAV:   2    -0.124059773127E+03   -0.67829E-04   -0.14391E-03 11840   0.149E-01    0.467E-02
DAV:   3    -0.124059753782E+03    0.19345E-04   -0.74704E-05 10848   0.334E-02    0.100E-02
DAV:   4    -0.124059755177E+03   -0.13948E-05   -0.89039E-06 11568   0.997E-03    0.347E-03
DAV:   5    -0.124059755357E+03   -0.18008E-06   -0.41495E-07  7824   0.259E-03
 109 F= -.12591508E+03 E0= -.12591264E+03  d E =-.444494E-03  mag=     0.0000
       N       E                     dE             d eps       ncg     rms          rms(c)
DAV:   1    -0.124059794724E+03   -0.39547E-04   -0.36686E-03  8672   0.253E-01    0.108E-02
DAV:   2    -0.124059796269E+03   -0.15449E-05   -0.33334E-05 11360   0.227E-02    0.713E-03
DAV:   3    -0.124059795943E+03    0.32540E-06   -0.16995E-06  9888   0.514E-03
 110 F= -.12591512E+03 E0= -.12591270E+03  d E =-.329130E-04  mag=    -0.0000
       N       E                     dE             d eps       ncg     rms          rms(c)
DAV:   1    -0.124059899465E+03   -0.10320E-03   -0.33085E-02  8256   0.761E-01    0.324E-02
DAV:   2    -0.124059914368E+03   -0.14903E-04   -0.30001E-04 11616   0.681E-02    0.215E-02
DAV:   3    -0.124059911024E+03    0.33440E-05   -0.14983E-05 10064   0.151E-02    0.483E-03
DAV:   4    -0.124059911264E+03   -0.24046E-06   -0.18789E-06 10016   0.508E-03
 111 F= -.12591521E+03 E0= -.12591287E+03  d E =-.125286E-03  mag=    -0.0000
       N       E                     dE             d eps       ncg     rms          rms(c)
DAV:   1    -0.124060065428E+03   -0.15440E-03   -0.13232E-01  8256   0.152E+00    0.644E-02
DAV:   2    -0.124060126100E+03   -0.60672E-04   -0.12043E-03 11712   0.136E-01    0.427E-02
DAV:   3    -0.124060111728E+03    0.14372E-04   -0.59526E-05 10704   0.301E-02    0.971E-03
DAV:   4    -0.124060112568E+03   -0.83987E-06   -0.74838E-06 10384   0.100E-02
 112 F= -.12591536E+03 E0= -.12591319E+03  d E =-.280753E-03  mag=    -0.0000
       N       E                     dE             d eps       ncg     rms          rms(c)
DAV:   1    -0.124060122691E+03   -0.10963E-04   -0.52863E-01  8256   0.304E+00    0.128E-01
DAV:   2    -0.124060374194E+03   -0.25150E-03   -0.48309E-03 11744   0.273E-01    0.853E-02
DAV:   3    -0.124060314637E+03    0.59556E-04   -0.23375E-04 11120   0.597E-02    0.196E-02
DAV:   4    -0.124060317791E+03   -0.31535E-05   -0.29580E-05 10768   0.199E-02    0.627E-03
DAV:   5    -0.124060318060E+03   -0.26904E-06   -0.34788E-06  9680   0.901E-03
 113 F= -.12591548E+03 E0= -.12591361E+03  d E =-.395165E-03  mag=     0.0000
       N       E                     dE             d eps       ncg     rms          rms(c)
DAV:   1    -0.124060484101E+03   -0.16631E-03   -0.38798E-03  8688   0.262E-01    0.139E-02
DAV:   2    -0.124060482673E+03    0.14275E-05   -0.51781E-05  9696   0.302E-02    0.811E-03
DAV:   3    -0.124060483048E+03   -0.37492E-06   -0.72968E-06  9152   0.130E-02
 114 F= -.12591564E+03 E0= -.12591378E+03  d E =-.163778E-03  mag=    -0.0000
       N       E                     dE             d eps       ncg     rms          rms(c)
DAV:   1    -0.124060805758E+03   -0.32308E-03   -0.34829E-02  8384   0.786E-01    0.420E-02
DAV:   2    -0.124060798375E+03    0.73825E-05   -0.43879E-04 10912   0.840E-02    0.246E-02
DAV:   3    -0.124060790429E+03    0.79464E-05   -0.40770E-05  9680   0.268E-02    0.685E-03
DAV:   4    -0.124060791464E+03   -0.10349E-05   -0.13379E-05  8768   0.178E-02    0.282E-03
DAV:   5    -0.124060790145E+03    0.13187E-05   -0.78931E-06  8656   0.139E-02    0.141E-03
DAV:   6    -0.124060788395E+03    0.17500E-05   -0.25360E-06  8864   0.779E-03    0.525E-04
DAV:   7    -0.124060788241E+03    0.15426E-06   -0.16366E-07  8352   0.194E-03
 115 F= -.12591594E+03 E0= -.12591410E+03  d E =-.465321E-03  mag=    -0.0000
       N       E                     dE             d eps       ncg     rms          rms(c)
DAV:   1    -0.124060632563E+03    0.15583E-03   -0.13927E-01  8256   0.157E+00    0.832E-02
DAV:   2    -0.124060605366E+03    0.27197E-04   -0.17543E-03 11360   0.166E-01    0.485E-02
DAV:   3    -0.124060564595E+03    0.40771E-04   -0.14619E-04 10688   0.458E-02    0.135E-02
DAV:   4    -0.124060565199E+03   -0.60392E-06   -0.19242E-05 11136   0.147E-02    0.512E-03
DAV:   5    -0.124060565429E+03   -0.23054E-06   -0.99040E-07  9584   0.372E-03
 116 F= -.12591571E+03 E0= -.12591390E+03  d E =-.235131E-03  mag=     0.0000
       N       E                     dE             d eps       ncg     rms          rms(c)
DAV:   1    -0.124060871738E+03   -0.30654E-03   -0.69585E-02  8256   0.111E+00    0.588E-02
DAV:   2    -0.124060857680E+03    0.14058E-04   -0.87239E-04 11488   0.117E-01    0.343E-02
DAV:   3    -0.124060837479E+03    0.20201E-04   -0.73241E-05 10272   0.323E-02    0.945E-03
DAV:   4    -0.124060837924E+03   -0.44512E-06   -0.96842E-06 10800   0.105E-02
 117 F= -.12591599E+03 E0= -.12591416E+03  d E =-.512899E-03  mag=     0.0000
       N       E                     dE             d eps       ncg     rms          rms(c)
DAV:   1    -0.124060921115E+03   -0.83637E-04   -0.23841E-03  9056   0.209E-01    0.943E-03
DAV:   2    -0.124060921336E+03   -0.22040E-06   -0.30363E-05 11104   0.229E-02    0.577E-03
DAV:   3    -0.124060921026E+03    0.30977E-06   -0.22771E-06 10192   0.651E-03
 118 F= -.12591608E+03 E0= -.12591425E+03  d E =-.851355E-04  mag=    -0.0000
       N       E                     dE             d eps       ncg     rms          rms(c)
DAV:   1    -0.124060998868E+03   -0.77532E-04   -0.12570E-02  8928   0.481E-01    0.222E-02
DAV:   2    -0.124061000907E+03   -0.20392E-05   -0.15676E-04 11712   0.521E-02    0.138E-02
DAV:   3    -0.124060999211E+03    0.16964E-05   -0.11731E-05 10448   0.148E-02    0.449E-03
DAV:   4    -0.124060999385E+03   -0.17417E-06   -0.18998E-06  9408   0.557E-03
 119 F= -.12591616E+03 E0= -.12591433E+03  d E =-.168167E-03  mag=    -0.0000
       N       E                     dE             d eps       ncg     rms          rms(c)
DAV:   1    -0.124061073075E+03   -0.73864E-04   -0.49860E-03  8592   0.298E-01    0.129E-02
DAV:   2    -0.124061074595E+03   -0.15201E-05   -0.57507E-05 11296   0.307E-02    0.845E-03
DAV:   3    -0.124061074127E+03    0.46752E-06   -0.38627E-06  9168   0.885E-03
 120 F= -.12591624E+03 E0= -.12591442E+03  d E =-.782381E-04  mag=     0.0000
       N       E                     dE             d eps       ncg     rms          rms(c)
DAV:   1    -0.124061091638E+03   -0.17043E-04   -0.33780E-03  8784   0.246E-01    0.110E-02
DAV:   2    -0.124061092597E+03   -0.95915E-06   -0.38240E-05 11168   0.252E-02    0.719E-03
DAV:   3    -0.124061092444E+03    0.15323E-06   -0.27749E-06  9104   0.776E-03
 121 F= -.12591626E+03 E0= -.12591445E+03  d E =-.994655E-04  mag=    -0.0000
       N       E                     dE             d eps       ncg     rms          rms(c)
DAV:   1    -0.124061126622E+03   -0.34024E-04   -0.17714E-03  8512   0.179E-01    0.881E-03
DAV:   2    -0.124061126436E+03    0.18574E-06   -0.21139E-05  9952   0.195E-02    0.533E-03
DAV:   3    -0.124061126375E+03    0.60676E-07   -0.19895E-06  8080   0.668E-03
 122 F= -.12591630E+03 E0= -.12591450E+03  d E =-.382822E-04  mag=     0.0000
       N       E                     dE             d eps       ncg     rms          rms(c)
DAV:   1    -0.124061155184E+03   -0.28748E-04   -0.90598E-03  8448   0.404E-01    0.198E-02
DAV:   2    -0.124061154937E+03    0.24688E-06   -0.10817E-04 10912   0.437E-02    0.119E-02
DAV:   3    -0.124061153758E+03    0.11793E-05   -0.95244E-06  9408   0.138E-02    0.337E-03
DAV:   4    -0.124061153957E+03   -0.19955E-06   -0.24522E-06  8608   0.750E-03
 123 F= -.12591633E+03 E0= -.12591456E+03  d E =-.757543E-04  mag=     0.0000
       N       E                     dE             d eps       ncg     rms          rms(c)
DAV:   1    -0.124061181277E+03   -0.27519E-04   -0.23707E-03  8512   0.209E-01    0.928E-03
DAV:   2    -0.124061181780E+03   -0.50367E-06   -0.25391E-05  9248   0.215E-02    0.606E-03
DAV:   3    -0.124061182061E+03   -0.28056E-06   -0.30988E-06  8304   0.927E-03
 124 F= -.12591637E+03 E0= -.12591460E+03  d E =-.403411E-04  mag=    -0.0000
       N       E                     dE             d eps       ncg     rms          rms(c)
DAV:   1    -0.124061189476E+03   -0.76957E-05   -0.10610E-02  8448   0.441E-01    0.197E-02
DAV:   2    -0.124061192754E+03   -0.32783E-05   -0.11077E-04 11440   0.436E-02    0.129E-02
DAV:   3    -0.124061192037E+03    0.71735E-06   -0.10115E-05  9552   0.154E-02    0.314E-03
DAV:   4    -0.124061191877E+03    0.15951E-06   -0.39908E-06  8768   0.104E-02
 125 F= -.12591641E+03 E0= -.12591464E+03  d E =-.760421E-04  mag=    -0.0000
       N       E                     dE             d eps       ncg     rms          rms(c)
DAV:   1    -0.124061210823E+03   -0.18786E-04   -0.19202E-03  8512   0.187E-01    0.882E-03
DAV:   2    -0.124061210786E+03    0.36734E-07   -0.20272E-05  8800   0.200E-02    0.554E-03
DAV:   3    -0.124061211243E+03   -0.45726E-06   -0.33218E-06  9024   0.950E-03
 126 F= -.12591645E+03 E0= -.12591467E+03  d E =-.351180E-04  mag=     0.0000
       N       E                     dE             d eps       ncg     rms          rms(c)
DAV:   1    -0.124061208640E+03    0.21455E-05   -0.11079E-02  8448   0.448E-01    0.212E-02
DAV:   2    -0.124061210433E+03   -0.17931E-05   -0.11016E-04 10336   0.442E-02    0.132E-02
DAV:   3    -0.124061209558E+03    0.87551E-06   -0.10130E-05  9776   0.154E-02    0.364E-03
DAV:   4    -0.124061209536E+03    0.21771E-07   -0.52759E-06  9120   0.118E-02
 127 F= -.12591648E+03 E0= -.12591469E+03  d E =-.712445E-04  mag=     0.0000
       N       E                     dE             d eps       ncg     rms          rms(c)
DAV:   1    -0.124061218216E+03   -0.86576E-05   -0.17887E-03  8560   0.182E-01    0.782E-03
DAV:   2    -0.124061218607E+03   -0.39128E-06   -0.17081E-05  8960   0.185E-02    0.517E-03
DAV:   3    -0.124061219493E+03   -0.88642E-06   -0.32585E-06  8752   0.963E-03
 128 F= -.12591651E+03 E0= -.12591471E+03  d E =-.266484E-04  mag=    -0.0000
