   15   15    1    1
  0.2033749E+02  0.4846000E-09  0.4846000E-09  0.1500000E-08  0.5000000E-15
  1.000000000000000E-004
  CAR 
 Dielectric                              
     56      5    144
 
  0.0000000E+00  0.0000000E+00  0.0000000E+00  0.1111111E+00
      1        -22.883367   1.000000
      2        -19.658317   1.000000
      3        -16.952585   1.000000
      4        -16.951081   1.000000
      5        -16.925512   1.000000
      6        -15.876411   1.000000
      7        -15.831260   1.000000
      8        -15.829083   1.000000
      9        -15.347744   1.000000
     10        -15.347527   1.000000
     11        -11.945201   1.000000
     12        -10.942000   1.000000
     13        -10.941654   1.000000
     14         -9.723671   1.000000
     15         -8.848357   1.000000
     16         -8.201747   1.000000
     17         -8.200975   1.000000
     18         -8.184651   1.000000
     19         -7.829975   1.000000
     20         -4.371589   1.000000
     21         -4.332892   1.000000
     22         -3.623467   1.000000
     23         -3.623429   1.000000
     24         -3.446757   1.000000
     25         -3.362252   1.000000
     26         -3.353787   1.000000
     27         -1.247665   1.000000
     28         -1.246019   1.000000
     29          1.328844   0.000000
     30          1.350332   0.000000
     31          1.653156   0.000000
     32          1.966776   0.000000
     33          1.990502   0.000000
     34          2.546298   0.000000
     35          3.079977   0.000000
     36          3.829627   0.000000
     37          4.070275   0.000000
     38          4.070611   0.000000
     39          4.793837   0.000000
     40          7.099460   0.000000
     41          7.765239   0.000000
     42          8.336434   0.000000
     43          8.342683   0.000000
     44          8.369118   0.000000
     45          8.689113   0.000000
     46          9.205461   0.000000
     47          9.254691   0.000000
     48          9.284945   0.000000
     49          9.927174   0.000000
     50         10.256950   0.000000
     51         10.257512   0.000000
     52         10.464357   0.000000
     53         11.129231   0.000000
     54         11.131708   0.000000
     55         11.256326   0.000000
     56         11.711226   0.000000
     57         11.791502   0.000000
     58         11.794195   0.000000
     59         11.895031   0.000000
     60         11.897720   0.000000
     61         11.930850   0.000000
     62         12.106352   0.000000
     63         12.363479   0.000000
     64         12.363871   0.000000
     65         12.392507   0.000000
     66         12.594555   0.000000
     67         12.594779   0.000000
     68         13.138625   0.000000
     69         13.317348   0.000000
     70         13.318655   0.000000
     71         13.413457   0.000000
     72         13.535065   0.000000
     73         14.082942   0.000000
     74         14.095395   0.000000
     75         14.095928   0.000000
     76         14.605853   0.000000
     77         14.610863   0.000000
     78         14.631336   0.000000
     79         14.691465   0.000000
     80         14.986689   0.000000
     81         15.404984   0.000000
     82         15.417469   0.000000
     83         15.977131   0.000000
     84         15.999217   0.000000
     85         16.001918   0.000000
     86         16.453087   0.000000
     87         16.464899   0.000000
     88         16.582448   0.000000
     89         17.172726   0.000000
     90         17.864350   0.000000
     91         18.529346   0.000000
     92         18.534186   0.000000
     93         18.671615   0.000000
     94         18.983268   0.000000
     95         19.708580   0.000000
     96         19.718172   0.000000
     97         19.774234   0.000000
     98         20.430206   0.000000
     99         21.430798   0.000000
    100         21.541230   0.000000
    101         21.542260   0.000000
    102         21.752877   0.000000
    103         21.757764   0.000000
    104         22.158465   0.000000
    105         22.176286   0.000000
    106         22.181798   0.000000
    107         22.310563   0.000000
    108         22.389864   0.000000
    109         22.411278   0.000000
    110         22.502776   0.000000
    111         22.516027   0.000000
    112         22.519028   0.000000
    113         22.527822   0.000000
    114         22.791045   0.000000
    115         23.046804   0.000000
    116         23.054139   0.000000
    117         23.075718   0.000000
    118         23.832142   0.000000
    119         24.099430   0.000000
    120         24.164901   0.000000
    121         24.349533   0.000000
    122         24.625767   0.000000
    123         24.710946   0.000000
    124         25.063023   0.000000
    125         25.481959   0.000000
    126         25.942393   0.000000
    127         26.224958   0.000000
    128         26.491204   0.000000
    129         26.995809   0.000000
    130         27.532931   0.000000
    131         27.722846   0.000000
    132         27.863902   0.000000
    133         28.165442   0.000000
    134         28.250684   0.000000
    135         28.367558   0.000000
    136         28.466133   0.000000
    137         28.582492   0.000000
    138         28.799156   0.000000
    139         28.943491   0.000000
    140         29.005128   0.000000
    141         29.289730   0.000000
    142         29.536855   0.000000
    143         29.748523   0.000000
    144         30.022850   0.000000
 
  0.3333333E+00  0.5551115E-16  0.0000000E+00  0.2222222E+00
      1        -22.147090   1.000000
      2        -19.972314   1.000000
      3        -19.204258   1.000000
      4        -17.887167   1.000000
      5        -17.883536   1.000000
      6        -16.599322   1.000000
      7        -15.654296   1.000000
      8        -13.756905   1.000000
      9        -13.736557   1.000000
     10        -12.050857   1.000000
     11        -11.736648   1.000000
     12        -10.177859   1.000000
     13        -10.013966   1.000000
     14         -9.997466   1.000000
     15         -9.700218   1.000000
     16         -8.808823   1.000000
     17         -7.478236   1.000000
     18         -7.049902   1.000000
     19         -6.889324   1.000000
     20         -6.674941   1.000000
     21         -6.159488   1.000000
     22         -6.094808   1.000000
     23         -5.641320   1.000000
     24         -5.045505   1.000000
     25         -3.822841   1.000000
     26         -3.782737   1.000000
     27         -3.695234   1.000000
     28         -2.204655   1.000000
     29          1.154949   0.000000
     30          2.724854   0.000000
     31          2.780475   0.000000
     32          3.974508   0.000000
     33          3.993993   0.000000
     34          4.692654   0.000000
     35          5.096965   0.000000
     36          5.512104   0.000000
     37          5.623402   0.000000
     38          6.053133   0.000000
     39          6.093027   0.000000
     40          6.380307   0.000000
     41          6.773543   0.000000
     42          7.499423   0.000000
     43          7.617421   0.000000
     44          8.197831   0.000000
     45          8.431767   0.000000
     46          8.565985   0.000000
     47          8.745986   0.000000
     48          8.893848   0.000000
     49          9.332946   0.000000
     50          9.439928   0.000000
     51          9.610704   0.000000
     52          9.625398   0.000000
     53         10.071073   0.000000
     54         10.195444   0.000000
     55         10.581357   0.000000
     56         10.874953   0.000000
     57         10.905233   0.000000
     58         11.080955   0.000000
     59         11.211064   0.000000
     60         11.258368   0.000000
     61         11.458769   0.000000
     62         11.498669   0.000000
     63         11.950184   0.000000
     64         12.129605   0.000000
     65         12.511433   0.000000
     66         12.618630   0.000000
     67         13.228880   0.000000
     68         14.034605   0.000000
     69         14.104362   0.000000
     70         14.451616   0.000000
     71         14.563665   0.000000
     72         14.620095   0.000000
     73         14.794587   0.000000
     74         15.041593   0.000000
     75         15.245069   0.000000
     76         15.545416   0.000000
     77         15.724568   0.000000
     78         15.804891   0.000000
     79         15.930040   0.000000
     80         16.092427   0.000000
     81         16.504517   0.000000
     82         16.650424   0.000000
     83         16.915798   0.000000
     84         17.009371   0.000000
     85         17.221300   0.000000
     86         17.766330   0.000000
     87         18.042565   0.000000
     88         18.181947   0.000000
     89         18.216150   0.000000
     90         18.357851   0.000000
     91         18.432133   0.000000
     92         18.517508   0.000000
     93         18.875312   0.000000
     94         19.072849   0.000000
     95         19.450488   0.000000
     96         19.559852   0.000000
     97         19.680628   0.000000
     98         19.982228   0.000000
     99         20.217116   0.000000
    100         20.389042   0.000000
    101         20.486675   0.000000
    102         20.670310   0.000000
    103         20.797536   0.000000
    104         20.967920   0.000000
    105         21.087603   0.000000
    106         21.172203   0.000000
    107         21.235245   0.000000
    108         21.399896   0.000000
    109         21.732194   0.000000
    110         22.073406   0.000000
    111         22.216421   0.000000
    112         22.421179   0.000000
    113         22.560407   0.000000
    114         22.843321   0.000000
    115         22.997928   0.000000
    116         23.048533   0.000000
    117         23.280446   0.000000
    118         23.395247   0.000000
    119         23.656974   0.000000
    120         23.736203   0.000000
    121         24.012997   0.000000
    122         24.120841   0.000000
    123         24.394509   0.000000
    124         24.595693   0.000000
    125         24.748860   0.000000
    126         24.863541   0.000000
    127         25.067434   0.000000
    128         25.365264   0.000000
    129         25.539514   0.000000
    130         25.667668   0.000000
    131         25.888586   0.000000
    132         26.065315   0.000000
    133         26.260472   0.000000
    134         26.481152   0.000000
    135         26.664869   0.000000
    136         26.906072   0.000000
    137         27.056623   0.000000
    138         27.306842   0.000000
    139         27.434561   0.000000
    140         27.626890   0.000000
    141         28.376024   0.000000
    142         28.692249   0.000000
    143         29.031556   0.000000
    144         29.477970   0.000000
 
  0.5551115E-16  0.3333333E+00  0.0000000E+00  0.2222222E+00
      1        -22.147120   1.000000
      2        -19.972373   1.000000
      3        -19.204247   1.000000
      4        -17.887096   1.000000
      5        -17.883506   1.000000
      6        -16.599372   1.000000
      7        -15.654304   1.000000
      8        -13.756676   1.000000
      9        -13.735463   1.000000
     10        -12.050619   1.000000
     11        -11.737507   1.000000
     12        -10.177894   1.000000
     13        -10.015188   1.000000
     14         -9.997599   1.000000
     15         -9.700407   1.000000
     16         -8.809081   1.000000
     17         -7.477410   1.000000
     18         -7.049899   1.000000
     19         -6.890412   1.000000
     20         -6.674955   1.000000
     21         -6.159791   1.000000
     22         -6.095833   1.000000
     23         -5.640246   1.000000
     24         -5.045380   1.000000
     25         -3.829217   1.000000
     26         -3.766311   1.000000
     27         -3.698586   1.000000
     28         -2.204834   1.000000
     29          1.155996   0.000000
     30          2.721624   0.000000
     31          2.777267   0.000000
     32          3.973862   0.000000
     33          3.993951   0.000000
     34          4.692631   0.000000
     35          5.096999   0.000000
     36          5.511159   0.000000
     37          5.623595   0.000000
     38          6.052928   0.000000
     39          6.094128   0.000000
     40          6.380166   0.000000
     41          6.773591   0.000000
     42          7.499731   0.000000
     43          7.617406   0.000000
     44          8.197870   0.000000
     45          8.431623   0.000000
     46          8.566605   0.000000
     47          8.746780   0.000000
     48          8.894022   0.000000
     49          9.333925   0.000000
     50          9.439654   0.000000
     51          9.610876   0.000000
     52          9.625267   0.000000
     53         10.071868   0.000000
     54         10.195642   0.000000
     55         10.580728   0.000000
     56         10.875066   0.000000
     57         10.905142   0.000000
     58         11.079123   0.000000
     59         11.213763   0.000000
     60         11.258149   0.000000
     61         11.456612   0.000000
     62         11.498250   0.000000
     63         11.947629   0.000000
     64         12.128822   0.000000
     65         12.511902   0.000000
     66         12.617421   0.000000
     67         13.235020   0.000000
     68         14.033668   0.000000
     69         14.104083   0.000000
     70         14.453734   0.000000
     71         14.563076   0.000000
     72         14.620200   0.000000
     73         14.795420   0.000000
     74         15.042889   0.000000
     75         15.247824   0.000000
     76         15.544133   0.000000
     77         15.724477   0.000000
     78         15.802414   0.000000
     79         15.930552   0.000000
     80         16.090164   0.000000
     81         16.504257   0.000000
     82         16.649770   0.000000
     83         16.914576   0.000000
     84         17.009557   0.000000
     85         17.223523   0.000000
     86         17.766952   0.000000
     87         18.039555   0.000000
     88         18.178269   0.000000
     89         18.215696   0.000000
     90         18.357849   0.000000
     91         18.430076   0.000000
     92         18.522270   0.000000
     93         18.876303   0.000000
     94         19.063863   0.000000
     95         19.450562   0.000000
     96         19.561124   0.000000
     97         19.681633   0.000000
     98         19.988027   0.000000
     99         20.216210   0.000000
    100         20.393785   0.000000
    101         20.482114   0.000000
    102         20.668684   0.000000
    103         20.797403   0.000000
    104         20.973540   0.000000
    105         21.086108   0.000000
    106         21.168504   0.000000
    107         21.234903   0.000000
    108         21.397343   0.000000
    109         21.731209   0.000000
    110         22.077984   0.000000
    111         22.211758   0.000000
    112         22.422357   0.000000
    113         22.563868   0.000000
    114         22.836959   0.000000
    115         23.001257   0.000000
    116         23.047235   0.000000
    117         23.278625   0.000000
    118         23.394331   0.000000
    119         23.654170   0.000000
    120         23.741143   0.000000
    121         24.023431   0.000000
    122         24.102272   0.000000
    123         24.452700   0.000000
    124         24.709626   0.000000
    125         24.729153   0.000000
    126         24.851639   0.000000
    127         25.131667   0.000000
    128         25.402485   0.000000
    129         25.572478   0.000000
    130         25.695923   0.000000
    131         25.780390   0.000000
    132         26.164319   0.000000
    133         26.309586   0.000000
    134         26.510766   0.000000
    135         26.781887   0.000000
    136         26.992807   0.000000
    137         27.076770   0.000000
    138         27.222333   0.000000
    139         27.547979   0.000000
    140         27.926439   0.000000
    141         28.150269   0.000000
    142         28.734580   0.000000
    143         29.335648   0.000000
    144         29.813919   0.000000
 
 -0.3333333E+00  0.3333333E+00  0.0000000E+00  0.2222222E+00
      1        -22.147810   1.000000
      2        -19.973848   1.000000
      3        -19.204294   1.000000
      4        -17.885314   1.000000
      5        -17.882593   1.000000
      6        -16.599101   1.000000
      7        -15.654478   1.000000
      8        -13.733175   1.000000
      9        -13.730058   1.000000
     10        -12.051064   1.000000
     11        -11.756242   1.000000
     12        -10.177531   1.000000
     13        -10.022029   1.000000
     14        -10.020190   1.000000
     15         -9.700184   1.000000
     16         -8.815204   1.000000
     17         -7.459799   1.000000
     18         -7.050933   1.000000
     19         -6.913196   1.000000
     20         -6.675125   1.000000
     21         -6.170112   1.000000
     22         -6.115258   1.000000
     23         -5.617817   1.000000
     24         -5.045474   1.000000
     25         -3.799404   1.000000
     26         -3.698460   1.000000
     27         -3.633061   1.000000
     28         -2.200294   1.000000
     29          1.155791   0.000000
     30          2.646992   0.000000
     31          2.693808   0.000000
     32          3.970512   0.000000
     33          3.993887   0.000000
     34          4.692597   0.000000
     35          5.097612   0.000000
     36          5.522503   0.000000
     37          5.623798   0.000000
     38          6.054074   0.000000
     39          6.093984   0.000000
     40          6.380270   0.000000
     41          6.773774   0.000000
     42          7.500554   0.000000
     43          7.617471   0.000000
     44          8.199207   0.000000
     45          8.431891   0.000000
     46          8.576371   0.000000
     47          8.761876   0.000000
     48          8.898553   0.000000
     49          9.354561   0.000000
     50          9.440438   0.000000
     51          9.611441   0.000000
     52          9.625403   0.000000
     53         10.071915   0.000000
     54         10.195842   0.000000
     55         10.581195   0.000000
     56         10.874797   0.000000
     57         10.907662   0.000000
     58         11.075912   0.000000
     59         11.203760   0.000000
     60         11.250679   0.000000
     61         11.456488   0.000000
     62         11.498818   0.000000
     63         11.946626   0.000000
     64         12.113228   0.000000
     65         12.510615   0.000000
     66         12.618672   0.000000
     67         13.233429   0.000000
     68         14.034643   0.000000
     69         14.108803   0.000000
     70         14.453122   0.000000
     71         14.560808   0.000000
     72         14.620033   0.000000
     73         14.794578   0.000000
     74         15.042492   0.000000
     75         15.246199   0.000000
     76         15.544072   0.000000
     77         15.720283   0.000000
     78         15.804391   0.000000
     79         15.920390   0.000000
     80         16.092656   0.000000
     81         16.505573   0.000000
     82         16.648307   0.000000
     83         16.914884   0.000000
     84         17.007776   0.000000
     85         17.216429   0.000000
     86         17.764921   0.000000
     87         18.046674   0.000000
     88         18.187152   0.000000
     89         18.208134   0.000000
     90         18.348483   0.000000
     91         18.425828   0.000000
     92         18.518541   0.000000
     93         18.867466   0.000000
     94         19.074636   0.000000
     95         19.451108   0.000000
     96         19.561491   0.000000
     97         19.680456   0.000000
     98         19.987389   0.000000
     99         20.213242   0.000000
    100         20.388869   0.000000
    101         20.479416   0.000000
    102         20.666366   0.000000
    103         20.797975   0.000000
    104         20.968288   0.000000
    105         21.083895   0.000000
    106         21.168924   0.000000
    107         21.235721   0.000000
    108         21.396154   0.000000
    109         21.732584   0.000000
    110         22.073771   0.000000
    111         22.215964   0.000000
    112         22.421832   0.000000
    113         22.562773   0.000000
    114         22.847477   0.000000
    115         22.995351   0.000000
    116         23.056303   0.000000
    117         23.274498   0.000000
    118         23.400820   0.000000
    119         23.662166   0.000000
    120         23.736466   0.000000
    121         23.981338   0.000000
    122         24.102614   0.000000
    123         24.441903   0.000000
    124         24.637277   0.000000
    125         24.798889   0.000000
    126         24.908941   0.000000
    127         25.134917   0.000000
    128         25.462936   0.000000
    129         25.579900   0.000000
    130         25.666515   0.000000
    131         25.774183   0.000000
    132         26.094976   0.000000
    133         26.352000   0.000000
    134         26.506024   0.000000
    135         26.629304   0.000000
    136         26.975883   0.000000
    137         27.152529   0.000000
    138         27.233025   0.000000
    139         27.370704   0.000000
    140         27.843875   0.000000
    141         28.177699   0.000000
    142         28.583004   0.000000
    143         29.056619   0.000000
    144         29.315141   0.000000
 
  0.3333333E+00  0.3333333E+00  0.0000000E+00  0.2222222E+00
      1        -20.695220   1.000000
      2        -20.691123   1.000000
      3        -20.689524   1.000000
      4        -18.861572   1.000000
      5        -16.635607   1.000000
      6        -16.627996   1.000000
      7        -15.068315   1.000000
      8        -15.033085   1.000000
      9        -12.890072   1.000000
     10        -10.542564   1.000000
     11        -10.541253   1.000000
     12         -9.639486   1.000000
     13         -9.638037   1.000000
     14         -9.606428   1.000000
     15         -9.555437   1.000000
     16         -8.191830   1.000000
     17         -8.158986   1.000000
     18         -8.157442   1.000000
     19         -7.160856   1.000000
     20         -6.987927   1.000000
     21         -6.969277   1.000000
     22         -6.761510   1.000000
     23         -6.760318   1.000000
     24         -6.122355   1.000000
     25         -4.739476   1.000000
     26         -4.112772   1.000000
     27         -4.095325   1.000000
     28         -0.494052   1.000000
     29         -0.250369   0.000000
     30          3.269222   0.000000
     31          4.321392   0.000000
     32          4.644747   0.000000
     33          4.709720   0.000000
     34          5.201292   0.000000
     35          5.235152   0.000000
     36          5.752273   0.000000
     37          5.998566   0.000000
     38          6.000919   0.000000
     39          6.495786   0.000000
     40          6.682515   0.000000
     41          6.690145   0.000000
     42          7.333173   0.000000
     43          7.378450   0.000000
     44          7.400168   0.000000
     45          7.425909   0.000000
     46          7.675503   0.000000
     47          7.677781   0.000000
     48          8.251945   0.000000
     49          9.682682   0.000000
     50          9.802802   0.000000
     51          9.811569   0.000000
     52         10.417472   0.000000
     53         10.447593   0.000000
     54         10.464156   0.000000
     55         10.769683   0.000000
     56         10.846846   0.000000
     57         10.971564   0.000000
     58         11.067006   0.000000
     59         11.076960   0.000000
     60         11.081050   0.000000
     61         12.008532   0.000000
     62         13.163148   0.000000
     63         13.176093   0.000000
     64         13.187612   0.000000
     65         13.194424   0.000000
     66         13.346052   0.000000
     67         13.646101   0.000000
     68         13.708364   0.000000
     69         13.995244   0.000000
     70         14.031637   0.000000
     71         14.091989   0.000000
     72         14.256734   0.000000
     73         14.584215   0.000000
     74         14.970172   0.000000
     75         15.096693   0.000000
     76         15.290759   0.000000
     77         15.761300   0.000000
     78         15.969038   0.000000
     79         16.094756   0.000000
     80         16.197965   0.000000
     81         16.209654   0.000000
     82         16.706338   0.000000
     83         16.884221   0.000000
     84         16.978710   0.000000
     85         17.256614   0.000000
     86         17.454569   0.000000
     87         17.594675   0.000000
     88         17.711824   0.000000
     89         18.087788   0.000000
     90         18.288769   0.000000
     91         18.548059   0.000000
     92         18.625658   0.000000
     93         18.713023   0.000000
     94         19.058597   0.000000
     95         19.284797   0.000000
     96         19.416606   0.000000
     97         19.489041   0.000000
     98         19.517506   0.000000
     99         19.644794   0.000000
    100         20.226705   0.000000
    101         20.405786   0.000000
    102         20.574005   0.000000
    103         20.874247   0.000000
    104         20.889638   0.000000
    105         21.537852   0.000000
    106         21.924907   0.000000
    107         22.107804   0.000000
    108         22.241278   0.000000
    109         22.510552   0.000000
    110         22.566951   0.000000
    111         22.774785   0.000000
    112         22.788737   0.000000
    113         22.940328   0.000000
    114         22.963817   0.000000
    115         23.205213   0.000000
    116         23.233471   0.000000
    117         23.333657   0.000000
    118         23.427533   0.000000
    119         23.432703   0.000000
    120         23.442217   0.000000
    121         23.644607   0.000000
    122         23.760065   0.000000
    123         24.040484   0.000000
    124         24.290178   0.000000
    125         24.383005   0.000000
    126         24.527123   0.000000
    127         24.654015   0.000000
    128         24.662050   0.000000
    129         24.977745   0.000000
    130         25.110915   0.000000
    131         25.202902   0.000000
    132         25.344109   0.000000
    133         25.476167   0.000000
    134         25.632564   0.000000
    135         25.891191   0.000000
    136         26.015330   0.000000
    137         26.401977   0.000000
    138         26.427751   0.000000
    139         26.849749   0.000000
    140         27.206727   0.000000
    141         27.492141   0.000000
    142         27.635168   0.000000
    143         28.252185   0.000000
    144         28.453771   0.000000
