  16  16   0  16
  0.2063990E+02  0.5042000E-09  0.5042000E-09  0.1500000E-08  0.5000000E-15
  1.000000000000000E-004
  CAR 
 Lattice                                 
      9.69474024    -21.33200915  301     -0.98164018      1.00000000
    -21.332  0.0000E+00  0.0000E+00  0.0000E+00  0.0000E+00
    -21.229  0.0000E+00  0.0000E+00  0.0000E+00  0.0000E+00
    -21.125  0.0000E+00  0.0000E+00  0.0000E+00  0.0000E+00
    -21.022  0.0000E+00  0.0000E+00  0.0000E+00  0.0000E+00
    -20.918  0.0000E+00  0.0000E+00  0.0000E+00  0.0000E+00
    -20.815  0.0000E+00  0.0000E+00  0.0000E+00  0.0000E+00
    -20.711  0.0000E+00  0.0000E+00  0.0000E+00  0.0000E+00
    -20.608  0.0000E+00  0.0000E+00  0.0000E+00  0.0000E+00
    -20.505  0.5824E-19  0.5824E-19  0.6023E-20  0.6023E-20
    -20.401  0.3463E-14  0.3463E-14  0.3582E-15  0.3582E-15
    -20.298  0.3401E-10  0.3401E-10  0.3517E-11  0.3517E-11
    -20.194  0.4620E-07  0.4620E-07  0.4781E-08  0.4781E-08
    -20.091  0.9387E-05  0.9387E-05  0.9756E-06  0.9756E-06
    -19.988  0.3146E-03  0.3146E-03  0.3351E-04  0.3351E-04
    -19.884  0.2127E-02  0.2127E-02  0.2535E-03  0.2535E-03
    -19.781  0.4402E-02  0.4402E-02  0.7088E-03  0.7088E-03
    -19.677  0.4902E-02  0.4902E-02  0.1216E-02  0.1216E-02
    -19.574  0.5167E-02  0.5167E-02  0.1750E-02  0.1750E-02
    -19.470  0.4642E-02  0.4642E-02  0.2230E-02  0.2230E-02
    -19.367  0.5674E-02  0.5674E-02  0.2817E-02  0.2817E-02
    -19.264  0.4279E-02  0.4279E-02  0.3260E-02  0.3260E-02
    -19.160  0.5238E-02  0.5238E-02  0.3801E-02  0.3801E-02
    -19.057  0.5922E-02  0.5922E-02  0.4414E-02  0.4414E-02
    -18.953  0.3666E-02  0.3666E-02  0.4793E-02  0.4793E-02
    -18.850  0.5286E-02  0.5286E-02  0.5339E-02  0.5339E-02
    -18.746  0.6368E-02  0.6368E-02  0.5998E-02  0.5998E-02
    -18.643  0.4469E-02  0.4469E-02  0.6460E-02  0.6460E-02
    -18.540  0.3361E-02  0.3361E-02  0.6808E-02  0.6808E-02
    -18.436  0.6703E-02  0.6703E-02  0.7501E-02  0.7501E-02
    -18.333  0.6054E-02  0.6054E-02  0.8127E-02  0.8127E-02
    -18.229  0.4249E-02  0.4249E-02  0.8567E-02  0.8567E-02
    -18.126  0.3374E-02  0.3374E-02  0.8916E-02  0.8916E-02
    -18.022  0.6346E-02  0.6346E-02  0.9572E-02  0.9572E-02
    -17.919  0.1063E-01  0.1063E-01  0.1067E-01  0.1067E-01
    -17.816  0.1071E-01  0.1071E-01  0.1178E-01  0.1178E-01
    -17.712  0.1086E-01  0.1086E-01  0.1290E-01  0.1290E-01
    -17.609  0.1263E-01  0.1263E-01  0.1421E-01  0.1421E-01
    -17.505  0.1585E-01  0.1585E-01  0.1585E-01  0.1585E-01
    -17.402  0.1930E-01  0.1930E-01  0.1784E-01  0.1784E-01
    -17.299  0.2064E-01  0.2064E-01  0.1998E-01  0.1998E-01
    -17.195  0.1310E-01  0.1310E-01  0.2133E-01  0.2133E-01
    -17.092  0.6305E-02  0.6305E-02  0.2199E-01  0.2199E-01
    -16.988  0.7305E-02  0.7305E-02  0.2274E-01  0.2274E-01
    -16.885  0.6809E-02  0.6809E-02  0.2345E-01  0.2345E-01
    -16.781  0.5585E-02  0.5585E-02  0.2402E-01  0.2402E-01
    -16.678  0.4625E-02  0.4625E-02  0.2450E-01  0.2450E-01
    -16.575  0.2804E-02  0.2804E-02  0.2479E-01  0.2479E-01
    -16.471  0.4097E-02  0.4097E-02  0.2522E-01  0.2522E-01
    -16.368  0.9224E-02  0.9224E-02  0.2617E-01  0.2617E-01
    -16.264  0.6486E-02  0.6486E-02  0.2684E-01  0.2684E-01
    -16.161  0.4808E-02  0.4808E-02  0.2734E-01  0.2734E-01
    -16.057  0.4310E-02  0.4310E-02  0.2778E-01  0.2778E-01
    -15.954  0.4241E-02  0.4241E-02  0.2822E-01  0.2822E-01
    -15.851  0.3668E-02  0.3668E-02  0.2860E-01  0.2860E-01
    -15.747  0.8355E-02  0.8355E-02  0.2947E-01  0.2947E-01
    -15.644  0.1078E-01  0.1078E-01  0.3058E-01  0.3058E-01
    -15.540  0.1173E-01  0.1173E-01  0.3179E-01  0.3179E-01
    -15.437  0.1513E-01  0.1513E-01  0.3336E-01  0.3336E-01
    -15.334  0.1603E-01  0.1603E-01  0.3502E-01  0.3502E-01
    -15.230  0.1312E-01  0.1312E-01  0.3637E-01  0.3637E-01
    -15.127  0.1443E-01  0.1443E-01  0.3787E-01  0.3787E-01
    -15.023  0.1757E-01  0.1757E-01  0.3968E-01  0.3968E-01
    -14.920  0.1628E-01  0.1628E-01  0.4137E-01  0.4137E-01
    -14.816  0.1290E-01  0.1290E-01  0.4270E-01  0.4270E-01
    -14.713  0.9714E-02  0.9714E-02  0.4371E-01  0.4371E-01
    -14.610  0.9611E-02  0.9611E-02  0.4470E-01  0.4470E-01
    -14.506  0.1522E-01  0.1522E-01  0.4628E-01  0.4628E-01
    -14.403  0.1886E-01  0.1886E-01  0.4823E-01  0.4823E-01
    -14.299  0.1539E-01  0.1539E-01  0.4982E-01  0.4982E-01
    -14.196  0.1114E-01  0.1114E-01  0.5097E-01  0.5097E-01
    -14.092  0.9009E-02  0.9009E-02  0.5190E-01  0.5190E-01
    -13.989  0.7963E-02  0.7963E-02  0.5272E-01  0.5272E-01
    -13.886  0.8857E-02  0.8857E-02  0.5364E-01  0.5364E-01
    -13.782  0.7516E-02  0.7516E-02  0.5442E-01  0.5442E-01
    -13.679  0.4247E-02  0.4247E-02  0.5486E-01  0.5486E-01
    -13.575  0.4673E-02  0.4673E-02  0.5534E-01  0.5534E-01
    -13.472  0.4405E-02  0.4405E-02  0.5580E-01  0.5580E-01
    -13.368  0.5927E-02  0.5927E-02  0.5641E-01  0.5641E-01
    -13.265  0.6009E-02  0.6009E-02  0.5703E-01  0.5703E-01
    -13.162  0.6185E-02  0.6185E-02  0.5767E-01  0.5767E-01
    -13.058  0.8092E-02  0.8092E-02  0.5851E-01  0.5851E-01
    -12.955  0.7390E-02  0.7390E-02  0.5927E-01  0.5927E-01
    -12.851  0.8511E-02  0.8511E-02  0.6015E-01  0.6015E-01
    -12.748  0.6112E-02  0.6112E-02  0.6078E-01  0.6078E-01
    -12.645  0.6609E-02  0.6609E-02  0.6147E-01  0.6147E-01
    -12.541  0.5623E-02  0.5623E-02  0.6205E-01  0.6205E-01
    -12.438  0.3791E-02  0.3791E-02  0.6244E-01  0.6244E-01
    -12.334  0.8341E-02  0.8341E-02  0.6330E-01  0.6330E-01
    -12.231  0.6476E-02  0.6476E-02  0.6397E-01  0.6397E-01
    -12.127  0.4940E-02  0.4940E-02  0.6448E-01  0.6448E-01
    -12.024  0.9381E-02  0.9381E-02  0.6545E-01  0.6545E-01
    -11.921  0.1487E-01  0.1487E-01  0.6699E-01  0.6699E-01
    -11.817  0.1605E-01  0.1605E-01  0.6865E-01  0.6865E-01
    -11.714  0.1386E-01  0.1386E-01  0.7009E-01  0.7009E-01
    -11.610  0.1439E-01  0.1439E-01  0.7157E-01  0.7157E-01
    -11.507  0.1719E-01  0.1719E-01  0.7335E-01  0.7335E-01
    -11.403  0.1287E-01  0.1287E-01  0.7468E-01  0.7468E-01
    -11.300  0.9534E-02  0.9534E-02  0.7567E-01  0.7567E-01
    -11.197  0.9245E-02  0.9245E-02  0.7662E-01  0.7662E-01
    -11.093  0.1090E-01  0.1090E-01  0.7775E-01  0.7775E-01
    -10.990  0.9551E-02  0.9551E-02  0.7874E-01  0.7874E-01
    -10.886  0.6779E-02  0.6779E-02  0.7944E-01  0.7944E-01
    -10.783  0.1186E-01  0.1186E-01  0.8067E-01  0.8067E-01
    -10.679  0.1557E-01  0.1557E-01  0.8228E-01  0.8228E-01
    -10.576  0.1221E-01  0.1221E-01  0.8354E-01  0.8354E-01
    -10.473  0.7064E-02  0.7064E-02  0.8427E-01  0.8427E-01
    -10.369  0.9116E-02  0.9116E-02  0.8521E-01  0.8521E-01
    -10.266  0.1742E-01  0.1742E-01  0.8702E-01  0.8702E-01
    -10.162  0.1738E-01  0.1738E-01  0.8881E-01  0.8881E-01
    -10.059  0.1084E-01  0.1084E-01  0.8993E-01  0.8993E-01
     -9.956  0.9583E-02  0.9583E-02  0.9093E-01  0.9093E-01
     -9.852  0.8963E-02  0.8963E-02  0.9185E-01  0.9185E-01
     -9.749  0.1162E-01  0.1162E-01  0.9305E-01  0.9305E-01
     -9.645  0.9004E-02  0.9004E-02  0.9399E-01  0.9399E-01
     -9.542  0.1112E-01  0.1112E-01  0.9514E-01  0.9514E-01
     -9.438  0.1083E-01  0.1083E-01  0.9625E-01  0.9625E-01
     -9.335  0.1040E-01  0.1040E-01  0.9733E-01  0.9733E-01
     -9.232  0.1009E-01  0.1009E-01  0.9837E-01  0.9837E-01
     -9.128  0.3399E-02  0.3399E-02  0.9873E-01  0.9873E-01
     -9.025  0.1825E-02  0.1825E-02  0.9891E-01  0.9891E-01
     -8.921  0.1060E-01  0.1060E-01  0.1000E+00  0.1000E+00
     -8.818  0.1934E-01  0.1934E-01  0.1020E+00  0.1020E+00
     -8.714  0.1750E-01  0.1750E-01  0.1038E+00  0.1038E+00
     -8.611  0.1050E-01  0.1050E-01  0.1049E+00  0.1049E+00
     -8.508  0.7744E-02  0.7744E-02  0.1057E+00  0.1057E+00
     -8.404  0.8898E-02  0.8898E-02  0.1066E+00  0.1066E+00
     -8.301  0.1278E-01  0.1278E-01  0.1079E+00  0.1079E+00
     -8.197  0.2469E-01  0.2469E-01  0.1105E+00  0.1105E+00
     -8.094  0.2287E-01  0.2287E-01  0.1129E+00  0.1129E+00
     -7.991  0.1907E-01  0.1907E-01  0.1148E+00  0.1148E+00
     -7.887  0.1540E-01  0.1540E-01  0.1164E+00  0.1164E+00
     -7.784  0.1314E-01  0.1314E-01  0.1178E+00  0.1178E+00
     -7.680  0.2071E-01  0.2071E-01  0.1199E+00  0.1199E+00
     -7.577  0.2526E-01  0.2526E-01  0.1225E+00  0.1225E+00
     -7.473  0.2335E-01  0.2335E-01  0.1250E+00  0.1250E+00
     -7.370  0.2249E-01  0.2249E-01  0.1273E+00  0.1273E+00
     -7.267  0.2591E-01  0.2591E-01  0.1300E+00  0.1300E+00
     -7.163  0.2303E-01  0.2303E-01  0.1323E+00  0.1323E+00
     -7.060  0.2528E-01  0.2528E-01  0.1350E+00  0.1350E+00
     -6.956  0.2524E-01  0.2524E-01  0.1376E+00  0.1376E+00
     -6.853  0.1751E-01  0.1751E-01  0.1394E+00  0.1394E+00
     -6.749  0.2277E-01  0.2277E-01  0.1417E+00  0.1417E+00
     -6.646  0.2674E-01  0.2674E-01  0.1445E+00  0.1445E+00
     -6.543  0.2359E-01  0.2359E-01  0.1469E+00  0.1469E+00
     -6.439  0.2455E-01  0.2455E-01  0.1495E+00  0.1495E+00
     -6.336  0.2298E-01  0.2298E-01  0.1519E+00  0.1519E+00
     -6.232  0.2512E-01  0.2512E-01  0.1545E+00  0.1545E+00
     -6.129  0.1964E-01  0.1964E-01  0.1565E+00  0.1565E+00
     -6.025  0.1616E-01  0.1616E-01  0.1582E+00  0.1582E+00
     -5.922  0.1963E-01  0.1963E-01  0.1602E+00  0.1602E+00
     -5.819  0.2586E-01  0.2586E-01  0.1629E+00  0.1629E+00
     -5.715  0.2219E-01  0.2219E-01  0.1652E+00  0.1652E+00
     -5.612  0.1775E-01  0.1775E-01  0.1670E+00  0.1670E+00
     -5.508  0.2195E-01  0.2195E-01  0.1693E+00  0.1693E+00
     -5.405  0.2646E-01  0.2646E-01  0.1720E+00  0.1720E+00
     -5.302  0.2866E-01  0.2866E-01  0.1750E+00  0.1750E+00
     -5.198  0.2045E-01  0.2045E-01  0.1771E+00  0.1771E+00
     -5.095  0.1258E-01  0.1258E-01  0.1784E+00  0.1784E+00
     -4.991  0.1520E-01  0.1520E-01  0.1800E+00  0.1800E+00
     -4.888  0.1856E-01  0.1856E-01  0.1819E+00  0.1819E+00
     -4.784  0.1692E-01  0.1692E-01  0.1836E+00  0.1836E+00
     -4.681  0.1657E-01  0.1657E-01  0.1853E+00  0.1853E+00
     -4.578  0.1734E-01  0.1734E-01  0.1871E+00  0.1871E+00
     -4.474  0.1641E-01  0.1641E-01  0.1888E+00  0.1888E+00
     -4.371  0.1872E-01  0.1872E-01  0.1908E+00  0.1908E+00
     -4.267  0.2297E-01  0.2297E-01  0.1931E+00  0.1931E+00
     -4.164  0.3077E-01  0.3077E-01  0.1963E+00  0.1963E+00
     -4.060  0.4026E-01  0.4026E-01  0.2005E+00  0.2005E+00
     -3.957  0.3338E-01  0.3338E-01  0.2039E+00  0.2039E+00
     -3.854  0.2256E-01  0.2256E-01  0.2063E+00  0.2063E+00
     -3.750  0.1527E-01  0.1527E-01  0.2078E+00  0.2078E+00
     -3.647  0.1573E-01  0.1573E-01  0.2095E+00  0.2095E+00
     -3.543  0.1660E-01  0.1660E-01  0.2112E+00  0.2112E+00
     -3.440  0.2042E-01  0.2042E-01  0.2133E+00  0.2133E+00
     -3.336  0.2075E-01  0.2075E-01  0.2154E+00  0.2154E+00
     -3.233  0.1427E-01  0.1427E-01  0.2169E+00  0.2169E+00
     -3.130  0.1312E-01  0.1312E-01  0.2183E+00  0.2183E+00
     -3.026  0.1823E-01  0.1823E-01  0.2202E+00  0.2202E+00
     -2.923  0.2557E-01  0.2557E-01  0.2228E+00  0.2228E+00
     -2.819  0.1986E-01  0.1986E-01  0.2249E+00  0.2249E+00
     -2.716  0.1023E-01  0.1023E-01  0.2259E+00  0.2259E+00
     -2.613  0.1286E-01  0.1286E-01  0.2273E+00  0.2273E+00
     -2.509  0.2121E-01  0.2121E-01  0.2294E+00  0.2294E+00
     -2.406  0.2047E-01  0.2047E-01  0.2316E+00  0.2316E+00
     -2.302  0.1848E-01  0.1848E-01  0.2335E+00  0.2335E+00
     -2.199  0.2306E-01  0.2306E-01  0.2359E+00  0.2359E+00
     -2.095  0.1721E-01  0.1721E-01  0.2376E+00  0.2376E+00
     -1.992  0.4935E-02  0.4935E-02  0.2382E+00  0.2382E+00
     -1.889  0.5280E-02  0.5280E-02  0.2387E+00  0.2387E+00
     -1.785  0.7434E-02  0.7434E-02  0.2395E+00  0.2395E+00
     -1.682  0.5523E-02  0.5523E-02  0.2400E+00  0.2400E+00
     -1.578  0.6585E-02  0.6585E-02  0.2407E+00  0.2407E+00
     -1.475  0.6200E-02  0.6200E-02  0.2414E+00  0.2414E+00
     -1.371  0.4155E-02  0.4155E-02  0.2418E+00  0.2418E+00
     -1.268  0.2268E-02  0.2268E-02  0.2420E+00  0.2420E+00
     -1.165  0.5113E-03  0.5113E-03  0.2421E+00  0.2421E+00
     -1.061  0.2436E-03  0.2436E-03  0.2421E+00  0.2421E+00
     -0.958  0.1238E-02  0.1238E-02  0.2422E+00  0.2422E+00
     -0.854  0.2573E-02  0.2573E-02  0.2425E+00  0.2425E+00
     -0.751  0.3249E-02  0.3249E-02  0.2428E+00  0.2428E+00
     -0.648  0.4406E-02  0.4406E-02  0.2433E+00  0.2433E+00
     -0.544  0.8774E-02  0.8774E-02  0.2442E+00  0.2442E+00
     -0.441  0.9512E-02  0.9512E-02  0.2452E+00  0.2452E+00
     -0.337  0.9038E-02  0.9038E-02  0.2461E+00  0.2461E+00
     -0.234  0.9993E-02  0.9993E-02  0.2471E+00  0.2471E+00
     -0.130  0.1057E-01  0.1057E-01  0.2482E+00  0.2482E+00
     -0.027  0.1013E-01  0.1013E-01  0.2493E+00  0.2493E+00
      0.076  0.3783E-02  0.3783E-02  0.2497E+00  0.2497E+00
      0.180  0.4684E-02  0.4684E-02  0.2502E+00  0.2502E+00
      0.283  0.9658E-02  0.9658E-02  0.2512E+00  0.2512E+00
      0.387  0.8273E-02  0.8273E-02  0.2520E+00  0.2520E+00
      0.490  0.6375E-02  0.6375E-02  0.2527E+00  0.2527E+00
      0.594  0.7586E-02  0.7586E-02  0.2535E+00  0.2535E+00
      0.697  0.1046E-01  0.1046E-01  0.2545E+00  0.2545E+00
      0.800  0.9445E-02  0.9445E-02  0.2555E+00  0.2555E+00
      0.904  0.1044E-01  0.1044E-01  0.2566E+00  0.2566E+00
      1.007  0.8876E-02  0.8876E-02  0.2575E+00  0.2575E+00
      1.111  0.4571E-02  0.4571E-02  0.2580E+00  0.2580E+00
      1.214  0.5609E-02  0.5609E-02  0.2586E+00  0.2586E+00
      1.318  0.4985E-02  0.4985E-02  0.2591E+00  0.2591E+00
      1.421  0.4120E-02  0.4120E-02  0.2595E+00  0.2595E+00
      1.524  0.4003E-02  0.4003E-02  0.2599E+00  0.2599E+00
      1.628  0.9200E-02  0.9200E-02  0.2609E+00  0.2609E+00
      1.731  0.1159E-01  0.1159E-01  0.2621E+00  0.2621E+00
      1.835  0.3720E-02  0.3720E-02  0.2625E+00  0.2625E+00
      1.938  0.3330E-02  0.3330E-02  0.2628E+00  0.2628E+00
      2.041  0.5261E-02  0.5261E-02  0.2633E+00  0.2633E+00
      2.145  0.6162E-02  0.6162E-02  0.2640E+00  0.2640E+00
      2.248  0.1270E-01  0.1270E-01  0.2653E+00  0.2653E+00
      2.352  0.1551E-01  0.1551E-01  0.2669E+00  0.2669E+00
      2.455  0.1229E-01  0.1229E-01  0.2682E+00  0.2682E+00
      2.559  0.1318E-01  0.1318E-01  0.2695E+00  0.2695E+00
      2.662  0.1172E-01  0.1172E-01  0.2708E+00  0.2708E+00
      2.765  0.7919E-02  0.7919E-02  0.2716E+00  0.2716E+00
      2.869  0.8942E-02  0.8942E-02  0.2725E+00  0.2725E+00
      2.972  0.1088E-01  0.1088E-01  0.2736E+00  0.2736E+00
      3.076  0.1263E-01  0.1263E-01  0.2749E+00  0.2749E+00
      3.179  0.1527E-01  0.1527E-01  0.2765E+00  0.2765E+00
      3.283  0.1430E-01  0.1430E-01  0.2780E+00  0.2780E+00
      3.386  0.9221E-02  0.9221E-02  0.2789E+00  0.2789E+00
      3.489  0.7548E-02  0.7548E-02  0.2797E+00  0.2797E+00
      3.593  0.1279E-01  0.1279E-01  0.2810E+00  0.2810E+00
      3.696  0.1222E-01  0.1222E-01  0.2823E+00  0.2823E+00
      3.800  0.8796E-02  0.8796E-02  0.2832E+00  0.2832E+00
      3.903  0.1352E-01  0.1352E-01  0.2846E+00  0.2846E+00
      4.007  0.1827E-01  0.1827E-01  0.2865E+00  0.2865E+00
      4.110  0.1536E-01  0.1536E-01  0.2881E+00  0.2881E+00
      4.213  0.1455E-01  0.1455E-01  0.2896E+00  0.2896E+00
      4.317  0.1428E-01  0.1428E-01  0.2911E+00  0.2911E+00
      4.420  0.1585E-01  0.1585E-01  0.2927E+00  0.2927E+00
      4.524  0.1322E-01  0.1322E-01  0.2941E+00  0.2941E+00
      4.627  0.1287E-01  0.1287E-01  0.2954E+00  0.2954E+00
      4.730  0.1571E-01  0.1571E-01  0.2970E+00  0.2970E+00
      4.834  0.1893E-01  0.1893E-01  0.2990E+00  0.2990E+00
      4.937  0.1896E-01  0.1896E-01  0.3010E+00  0.3010E+00
      5.041  0.1806E-01  0.1806E-01  0.3028E+00  0.3028E+00
      5.144  0.1626E-01  0.1626E-01  0.3045E+00  0.3045E+00
      5.248  0.1490E-01  0.1490E-01  0.3060E+00  0.3060E+00
      5.351  0.1548E-01  0.1548E-01  0.3076E+00  0.3076E+00
      5.454  0.2048E-01  0.2048E-01  0.3098E+00  0.3098E+00
      5.558  0.1873E-01  0.1873E-01  0.3117E+00  0.3117E+00
      5.661  0.1420E-01  0.1420E-01  0.3132E+00  0.3132E+00
      5.765  0.1563E-01  0.1563E-01  0.3148E+00  0.3148E+00
      5.868  0.2400E-01  0.2400E-01  0.3173E+00  0.3173E+00
      5.972  0.2223E-01  0.2223E-01  0.3196E+00  0.3196E+00
      6.075  0.2501E-01  0.2501E-01  0.3222E+00  0.3222E+00
      6.178  0.2872E-01  0.2872E-01  0.3251E+00  0.3251E+00
      6.282  0.2594E-01  0.2594E-01  0.3278E+00  0.3278E+00
      6.385  0.2438E-01  0.2438E-01  0.3303E+00  0.3303E+00
      6.489  0.1903E-01  0.1903E-01  0.3323E+00  0.3323E+00
      6.592  0.1997E-01  0.1997E-01  0.3344E+00  0.3344E+00
      6.695  0.2967E-01  0.2967E-01  0.3374E+00  0.3374E+00
      6.799  0.3130E-01  0.3130E-01  0.3407E+00  0.3407E+00
      6.902  0.2929E-01  0.2929E-01  0.3437E+00  0.3437E+00
      7.006  0.3345E-01  0.3345E-01  0.3472E+00  0.3472E+00
      7.109  0.3393E-01  0.3393E-01  0.3507E+00  0.3507E+00
      7.213  0.2964E-01  0.2964E-01  0.3537E+00  0.3537E+00
      7.316  0.3265E-01  0.3265E-01  0.3571E+00  0.3571E+00
      7.419  0.3752E-01  0.3752E-01  0.3610E+00  0.3610E+00
      7.523  0.3037E-01  0.3037E-01  0.3641E+00  0.3641E+00
      7.626  0.2412E-01  0.2412E-01  0.3666E+00  0.3666E+00
      7.730  0.2862E-01  0.2862E-01  0.3696E+00  0.3696E+00
      7.833  0.2022E-01  0.2022E-01  0.3717E+00  0.3717E+00
      7.937  0.1447E-01  0.1447E-01  0.3732E+00  0.3732E+00
      8.040  0.9844E-02  0.9844E-02  0.3742E+00  0.3742E+00
      8.143  0.3370E-02  0.3370E-02  0.3745E+00  0.3745E+00
      8.247  0.1946E-02  0.1946E-02  0.3747E+00  0.3747E+00
      8.350  0.1958E-02  0.1958E-02  0.3749E+00  0.3749E+00
      8.454  0.5440E-03  0.5440E-03  0.3750E+00  0.3750E+00
      8.557  0.2622E-04  0.2622E-04  0.3750E+00  0.3750E+00
      8.661  0.1814E-06  0.1814E-06  0.3750E+00  0.3750E+00
      8.764  0.1646E-09  0.1645E-09  0.3750E+00  0.3750E+00
      8.867  0.1875E-13  0.1875E-13  0.3750E+00  0.3750E+00
      8.971  0.3494E-18  0.3494E-18  0.3750E+00  0.3750E+00
      9.074  0.0000E+00  0.0000E+00  0.3750E+00  0.3750E+00
      9.178  0.0000E+00  0.0000E+00  0.3750E+00  0.3750E+00
      9.281  0.0000E+00  0.0000E+00  0.3750E+00  0.3750E+00
      9.384  0.0000E+00  0.0000E+00  0.3750E+00  0.3750E+00
      9.488  0.0000E+00  0.0000E+00  0.3750E+00  0.3750E+00
      9.591  0.0000E+00  0.0000E+00  0.3750E+00  0.3750E+00
      9.695  0.0000E+00  0.0000E+00  0.3750E+00  0.3750E+00
