  15  15   0  16
  0.2053944E+02  0.4870000E-09  0.4870000E-09  0.1500000E-08  0.5000000E-15
  1.000000000000000E-004
  CAR 
 Lattice                                 
     10.25225806    -21.63083548  301     -0.38405623      1.00000000
    -21.631  0.0000E+00  0.0000E+00  0.0000E+00  0.0000E+00
    -21.525  0.0000E+00  0.0000E+00  0.0000E+00  0.0000E+00
    -21.418  0.0000E+00  0.0000E+00  0.0000E+00  0.0000E+00
    -21.312  0.0000E+00  0.0000E+00  0.0000E+00  0.0000E+00
    -21.206  0.0000E+00  0.0000E+00  0.0000E+00  0.0000E+00
    -21.099  0.0000E+00  0.0000E+00  0.0000E+00  0.0000E+00
    -20.993  0.0000E+00  0.0000E+00  0.0000E+00  0.0000E+00
    -20.887  0.0000E+00  0.0000E+00  0.0000E+00  0.0000E+00
    -20.781  0.0000E+00  0.0000E+00  0.0000E+00  0.0000E+00
    -20.674  0.8791E-15  0.8791E-15  0.9343E-16  0.9343E-16
    -20.568  0.1389E-10  0.1389E-10  0.1476E-11  0.1476E-11
    -20.462  0.2692E-07  0.2692E-07  0.2863E-08  0.2863E-08
    -20.356  0.7030E-05  0.7030E-05  0.7500E-06  0.7500E-06
    -20.249  0.2758E-03  0.2758E-03  0.3006E-04  0.3006E-04
    -20.143  0.1990E-02  0.1990E-02  0.2415E-03  0.2415E-03
    -20.037  0.4178E-02  0.4178E-02  0.6855E-03  0.6855E-03
    -19.930  0.4561E-02  0.4561E-02  0.1170E-02  0.1170E-02
    -19.824  0.4963E-02  0.4963E-02  0.1698E-02  0.1698E-02
    -19.718  0.4203E-02  0.4203E-02  0.2144E-02  0.2144E-02
    -19.612  0.5422E-02  0.5422E-02  0.2721E-02  0.2721E-02
    -19.505  0.4217E-02  0.4217E-02  0.3169E-02  0.3169E-02
    -19.399  0.4352E-02  0.4352E-02  0.3631E-02  0.3631E-02
    -19.293  0.6026E-02  0.6026E-02  0.4272E-02  0.4272E-02
    -19.186  0.3775E-02  0.3775E-02  0.4673E-02  0.4673E-02
    -19.080  0.4016E-02  0.4016E-02  0.5100E-02  0.5100E-02
    -18.974  0.6170E-02  0.6170E-02  0.5756E-02  0.5756E-02
    -18.868  0.5159E-02  0.5159E-02  0.6304E-02  0.6304E-02
    -18.761  0.2925E-02  0.2925E-02  0.6615E-02  0.6615E-02
    -18.655  0.4634E-02  0.4634E-02  0.7107E-02  0.7107E-02
    -18.549  0.6899E-02  0.6899E-02  0.7840E-02  0.7840E-02
    -18.443  0.4493E-02  0.4493E-02  0.8318E-02  0.8318E-02
    -18.336  0.3761E-02  0.3761E-02  0.8718E-02  0.8718E-02
    -18.230  0.3128E-02  0.3128E-02  0.9050E-02  0.9050E-02
    -18.124  0.6904E-02  0.6904E-02  0.9784E-02  0.9784E-02
    -18.017  0.6428E-02  0.6428E-02  0.1047E-01  0.1047E-01
    -17.911  0.3387E-02  0.3387E-02  0.1083E-01  0.1083E-01
    -17.805  0.3441E-02  0.3441E-02  0.1119E-01  0.1119E-01
    -17.699  0.4214E-02  0.4214E-02  0.1164E-01  0.1164E-01
    -17.592  0.6509E-02  0.6509E-02  0.1233E-01  0.1233E-01
    -17.486  0.6626E-02  0.6626E-02  0.1304E-01  0.1304E-01
    -17.380  0.5467E-02  0.5467E-02  0.1362E-01  0.1362E-01
    -17.273  0.6489E-02  0.6489E-02  0.1431E-01  0.1431E-01
    -17.167  0.1077E-01  0.1077E-01  0.1545E-01  0.1545E-01
    -17.061  0.1494E-01  0.1494E-01  0.1704E-01  0.1704E-01
    -16.955  0.1569E-01  0.1569E-01  0.1871E-01  0.1871E-01
    -16.848  0.1737E-01  0.1737E-01  0.2055E-01  0.2055E-01
    -16.742  0.2109E-01  0.2109E-01  0.2280E-01  0.2280E-01
    -16.636  0.1547E-01  0.1547E-01  0.2444E-01  0.2444E-01
    -16.530  0.5068E-02  0.5068E-02  0.2498E-01  0.2498E-01
    -16.423  0.8094E-02  0.8094E-02  0.2584E-01  0.2584E-01
    -16.317  0.7537E-02  0.7537E-02  0.2664E-01  0.2664E-01
    -16.211  0.4495E-02  0.4495E-02  0.2712E-01  0.2712E-01
    -16.104  0.4071E-02  0.4071E-02  0.2755E-01  0.2755E-01
    -15.998  0.4024E-02  0.4024E-02  0.2798E-01  0.2798E-01
    -15.892  0.3568E-02  0.3568E-02  0.2836E-01  0.2836E-01
    -15.786  0.4343E-02  0.4343E-02  0.2882E-01  0.2882E-01
    -15.679  0.8778E-02  0.8778E-02  0.2975E-01  0.2975E-01
    -15.573  0.7241E-02  0.7241E-02  0.3052E-01  0.3052E-01
    -15.467  0.3788E-02  0.3788E-02  0.3092E-01  0.3092E-01
    -15.360  0.3833E-02  0.3833E-02  0.3133E-01  0.3133E-01
    -15.254  0.3619E-02  0.3619E-02  0.3172E-01  0.3172E-01
    -15.148  0.4910E-02  0.4910E-02  0.3224E-01  0.3224E-01
    -15.042  0.6742E-02  0.6742E-02  0.3295E-01  0.3295E-01
    -14.935  0.1166E-01  0.1166E-01  0.3419E-01  0.3419E-01
    -14.829  0.1681E-01  0.1681E-01  0.3598E-01  0.3598E-01
    -14.723  0.1856E-01  0.1856E-01  0.3795E-01  0.3795E-01
    -14.617  0.1680E-01  0.1680E-01  0.3974E-01  0.3974E-01
    -14.510  0.9736E-02  0.9736E-02  0.4077E-01  0.4077E-01
    -14.404  0.8863E-02  0.8863E-02  0.4171E-01  0.4171E-01
    -14.298  0.1689E-01  0.1689E-01  0.4351E-01  0.4351E-01
    -14.191  0.1367E-01  0.1367E-01  0.4496E-01  0.4496E-01
    -14.085  0.1034E-01  0.1034E-01  0.4606E-01  0.4606E-01
    -13.979  0.1077E-01  0.1077E-01  0.4721E-01  0.4721E-01
    -13.873  0.1350E-01  0.1350E-01  0.4864E-01  0.4864E-01
    -13.766  0.2049E-01  0.2049E-01  0.5082E-01  0.5082E-01
    -13.660  0.1994E-01  0.1994E-01  0.5294E-01  0.5294E-01
    -13.554  0.1726E-01  0.1726E-01  0.5477E-01  0.5477E-01
    -13.448  0.9761E-02  0.9761E-02  0.5581E-01  0.5581E-01
    -13.341  0.6412E-02  0.6412E-02  0.5649E-01  0.5649E-01
    -13.235  0.3370E-02  0.3370E-02  0.5685E-01  0.5685E-01
    -13.129  0.4605E-02  0.4605E-02  0.5734E-01  0.5734E-01
    -13.022  0.7362E-02  0.7362E-02  0.5812E-01  0.5812E-01
    -12.916  0.6371E-02  0.6371E-02  0.5880E-01  0.5880E-01
    -12.810  0.5064E-02  0.5064E-02  0.5934E-01  0.5934E-01
    -12.704  0.7615E-02  0.7615E-02  0.6015E-01  0.6015E-01
    -12.597  0.6599E-02  0.6599E-02  0.6085E-01  0.6085E-01
    -12.491  0.5565E-02  0.5565E-02  0.6144E-01  0.6144E-01
    -12.385  0.5094E-02  0.5094E-02  0.6198E-01  0.6198E-01
    -12.278  0.3273E-02  0.3273E-02  0.6233E-01  0.6233E-01
    -12.172  0.7617E-02  0.7617E-02  0.6314E-01  0.6314E-01
    -12.066  0.7243E-02  0.7243E-02  0.6391E-01  0.6391E-01
    -11.960  0.2728E-02  0.2728E-02  0.6420E-01  0.6420E-01
    -11.853  0.3538E-02  0.3538E-02  0.6457E-01  0.6457E-01
    -11.747  0.3748E-02  0.3748E-02  0.6497E-01  0.6497E-01
    -11.641  0.6966E-02  0.6966E-02  0.6571E-01  0.6571E-01
    -11.535  0.5956E-02  0.5956E-02  0.6634E-01  0.6634E-01
    -11.428  0.2958E-02  0.2958E-02  0.6666E-01  0.6666E-01
    -11.322  0.2403E-02  0.2403E-02  0.6691E-01  0.6691E-01
    -11.216  0.5018E-02  0.5018E-02  0.6745E-01  0.6745E-01
    -11.109  0.5788E-02  0.5788E-02  0.6806E-01  0.6806E-01
    -11.003  0.4996E-02  0.4996E-02  0.6859E-01  0.6859E-01
    -10.897  0.7692E-02  0.7692E-02  0.6941E-01  0.6941E-01
    -10.791  0.5368E-02  0.5368E-02  0.6998E-01  0.6998E-01
    -10.684  0.2748E-02  0.2748E-02  0.7027E-01  0.7027E-01
    -10.578  0.8533E-02  0.8533E-02  0.7118E-01  0.7118E-01
    -10.472  0.1351E-01  0.1351E-01  0.7262E-01  0.7262E-01
    -10.365  0.1500E-01  0.1500E-01  0.7421E-01  0.7421E-01
    -10.259  0.1364E-01  0.1364E-01  0.7566E-01  0.7566E-01
    -10.153  0.1498E-01  0.1498E-01  0.7725E-01  0.7725E-01
    -10.047  0.1932E-01  0.1932E-01  0.7930E-01  0.7930E-01
     -9.940  0.1870E-01  0.1870E-01  0.8129E-01  0.8129E-01
     -9.834  0.8879E-02  0.8879E-02  0.8223E-01  0.8223E-01
     -9.728  0.6882E-02  0.6882E-02  0.8297E-01  0.8297E-01
     -9.622  0.1505E-01  0.1505E-01  0.8457E-01  0.8457E-01
     -9.515  0.1644E-01  0.1644E-01  0.8631E-01  0.8631E-01
     -9.409  0.1626E-01  0.1626E-01  0.8804E-01  0.8804E-01
     -9.303  0.1438E-01  0.1438E-01  0.8957E-01  0.8957E-01
     -9.196  0.1399E-01  0.1399E-01  0.9106E-01  0.9106E-01
     -9.090  0.1084E-01  0.1084E-01  0.9221E-01  0.9221E-01
     -8.984  0.9403E-02  0.9403E-02  0.9321E-01  0.9321E-01
     -8.878  0.1521E-01  0.1521E-01  0.9482E-01  0.9482E-01
     -8.771  0.1948E-01  0.1948E-01  0.9690E-01  0.9690E-01
     -8.665  0.1473E-01  0.1473E-01  0.9846E-01  0.9846E-01
     -8.559  0.7633E-02  0.7633E-02  0.9927E-01  0.9927E-01
     -8.452  0.1277E-01  0.1277E-01  0.1006E+00  0.1006E+00
     -8.346  0.2039E-01  0.2039E-01  0.1028E+00  0.1028E+00
     -8.240  0.1639E-01  0.1639E-01  0.1045E+00  0.1045E+00
     -8.134  0.1218E-01  0.1218E-01  0.1058E+00  0.1058E+00
     -8.027  0.1755E-01  0.1755E-01  0.1077E+00  0.1077E+00
     -7.921  0.2631E-01  0.2631E-01  0.1105E+00  0.1105E+00
     -7.815  0.2497E-01  0.2497E-01  0.1131E+00  0.1131E+00
     -7.709  0.1723E-01  0.1723E-01  0.1150E+00  0.1150E+00
     -7.602  0.9691E-02  0.9691E-02  0.1160E+00  0.1160E+00
     -7.496  0.1004E-01  0.1004E-01  0.1171E+00  0.1171E+00
     -7.390  0.1878E-01  0.1878E-01  0.1191E+00  0.1191E+00
     -7.283  0.1799E-01  0.1799E-01  0.1210E+00  0.1210E+00
     -7.177  0.1160E-01  0.1160E-01  0.1222E+00  0.1222E+00
     -7.071  0.1057E-01  0.1057E-01  0.1233E+00  0.1233E+00
     -6.965  0.1698E-01  0.1698E-01  0.1251E+00  0.1251E+00
     -6.858  0.1945E-01  0.1945E-01  0.1272E+00  0.1272E+00
     -6.752  0.2157E-01  0.2157E-01  0.1295E+00  0.1295E+00
     -6.646  0.1899E-01  0.1899E-01  0.1315E+00  0.1315E+00
     -6.540  0.1640E-01  0.1640E-01  0.1333E+00  0.1333E+00
     -6.433  0.2036E-01  0.2036E-01  0.1354E+00  0.1354E+00
     -6.327  0.1789E-01  0.1789E-01  0.1373E+00  0.1373E+00
     -6.221  0.2088E-01  0.2088E-01  0.1396E+00  0.1396E+00
     -6.114  0.2575E-01  0.2575E-01  0.1423E+00  0.1423E+00
     -6.008  0.2193E-01  0.2193E-01  0.1446E+00  0.1446E+00
     -5.902  0.3220E-01  0.3220E-01  0.1480E+00  0.1480E+00
     -5.796  0.2938E-01  0.2938E-01  0.1512E+00  0.1512E+00
     -5.689  0.1585E-01  0.1585E-01  0.1528E+00  0.1528E+00
     -5.583  0.1748E-01  0.1748E-01  0.1547E+00  0.1547E+00
     -5.477  0.3395E-01  0.3395E-01  0.1583E+00  0.1583E+00
     -5.370  0.3809E-01  0.3809E-01  0.1624E+00  0.1624E+00
     -5.264  0.2203E-01  0.2203E-01  0.1647E+00  0.1647E+00
     -5.158  0.1509E-01  0.1509E-01  0.1663E+00  0.1663E+00
     -5.052  0.1153E-01  0.1153E-01  0.1675E+00  0.1675E+00
     -4.945  0.1281E-01  0.1281E-01  0.1689E+00  0.1689E+00
     -4.839  0.1352E-01  0.1352E-01  0.1703E+00  0.1703E+00
     -4.733  0.9171E-02  0.9171E-02  0.1713E+00  0.1713E+00
     -4.627  0.7307E-02  0.7307E-02  0.1721E+00  0.1721E+00
     -4.520  0.1109E-01  0.1109E-01  0.1733E+00  0.1733E+00
     -4.414  0.1939E-01  0.1939E-01  0.1753E+00  0.1753E+00
     -4.308  0.2058E-01  0.2058E-01  0.1775E+00  0.1775E+00
     -4.201  0.1897E-01  0.1897E-01  0.1795E+00  0.1795E+00
     -4.095  0.1901E-01  0.1901E-01  0.1815E+00  0.1815E+00
     -3.989  0.2235E-01  0.2235E-01  0.1839E+00  0.1839E+00
     -3.883  0.2173E-01  0.2173E-01  0.1862E+00  0.1862E+00
     -3.776  0.1800E-01  0.1800E-01  0.1881E+00  0.1881E+00
     -3.670  0.1874E-01  0.1874E-01  0.1901E+00  0.1901E+00
     -3.564  0.2061E-01  0.2061E-01  0.1923E+00  0.1923E+00
     -3.457  0.1542E-01  0.1542E-01  0.1940E+00  0.1940E+00
     -3.351  0.1378E-01  0.1378E-01  0.1954E+00  0.1954E+00
     -3.245  0.1283E-01  0.1283E-01  0.1968E+00  0.1968E+00
     -3.139  0.1691E-01  0.1691E-01  0.1986E+00  0.1986E+00
     -3.032  0.1847E-01  0.1847E-01  0.2006E+00  0.2006E+00
     -2.926  0.1188E-01  0.1188E-01  0.2018E+00  0.2018E+00
     -2.820  0.1148E-01  0.1148E-01  0.2030E+00  0.2030E+00
     -2.714  0.7556E-02  0.7556E-02  0.2038E+00  0.2038E+00
     -2.607  0.1044E-01  0.1044E-01  0.2049E+00  0.2049E+00
     -2.501  0.2021E-01  0.2021E-01  0.2071E+00  0.2071E+00
     -2.395  0.1359E-01  0.1359E-01  0.2085E+00  0.2085E+00
     -2.288  0.4072E-02  0.4072E-02  0.2090E+00  0.2090E+00
     -2.182  0.4728E-02  0.4728E-02  0.2095E+00  0.2095E+00
     -2.076  0.1024E-01  0.1024E-01  0.2106E+00  0.2106E+00
     -1.970  0.1076E-01  0.1076E-01  0.2117E+00  0.2117E+00
     -1.863  0.1146E-01  0.1146E-01  0.2129E+00  0.2129E+00
     -1.757  0.1181E-01  0.1181E-01  0.2142E+00  0.2142E+00
     -1.651  0.9150E-02  0.9150E-02  0.2152E+00  0.2152E+00
     -1.544  0.7006E-02  0.7006E-02  0.2159E+00  0.2159E+00
     -1.438  0.4716E-02  0.4716E-02  0.2164E+00  0.2164E+00
     -1.332  0.3877E-02  0.3877E-02  0.2168E+00  0.2168E+00
     -1.226  0.3981E-02  0.3981E-02  0.2172E+00  0.2172E+00
     -1.119  0.4501E-02  0.4501E-02  0.2177E+00  0.2177E+00
     -1.013  0.5795E-02  0.5795E-02  0.2183E+00  0.2183E+00
     -0.907  0.2375E-02  0.2375E-02  0.2186E+00  0.2186E+00
     -0.801  0.5170E-03  0.5170E-03  0.2186E+00  0.2186E+00
     -0.694  0.5320E-04  0.5320E-04  0.2186E+00  0.2186E+00
     -0.588  0.5058E-05  0.5058E-05  0.2186E+00  0.2186E+00
     -0.482  0.1685E-03  0.1685E-03  0.2187E+00  0.2187E+00
     -0.375  0.9469E-03  0.9469E-03  0.2188E+00  0.2188E+00
     -0.269  0.8144E-03  0.8144E-03  0.2188E+00  0.2188E+00
     -0.163  0.1061E-03  0.1061E-03  0.2189E+00  0.2189E+00
     -0.057  0.1882E-05  0.1882E-05  0.2189E+00  0.2189E+00
      0.050  0.1685E-05  0.1685E-05  0.2189E+00  0.2189E+00
      0.156  0.1542E-03  0.1542E-03  0.2189E+00  0.2189E+00
      0.262  0.1845E-02  0.1845E-02  0.2191E+00  0.2191E+00
      0.368  0.3236E-02  0.3236E-02  0.2194E+00  0.2194E+00
      0.475  0.1084E-02  0.1084E-02  0.2195E+00  0.2195E+00
      0.581  0.1573E-02  0.1573E-02  0.2197E+00  0.2197E+00
      0.687  0.3278E-02  0.3278E-02  0.2200E+00  0.2200E+00
      0.794  0.5482E-02  0.5482E-02  0.2206E+00  0.2206E+00
      0.900  0.1262E-01  0.1262E-01  0.2220E+00  0.2220E+00
      1.006  0.2722E-01  0.2722E-01  0.2249E+00  0.2249E+00
      1.112  0.1706E-01  0.1706E-01  0.2267E+00  0.2267E+00
      1.219  0.4194E-02  0.4194E-02  0.2271E+00  0.2271E+00
      1.325  0.5042E-02  0.5042E-02  0.2277E+00  0.2277E+00
      1.431  0.9581E-02  0.9581E-02  0.2287E+00  0.2287E+00
      1.538  0.1370E-01  0.1370E-01  0.2301E+00  0.2301E+00
      1.644  0.2041E-01  0.2041E-01  0.2323E+00  0.2323E+00
      1.750  0.1330E-01  0.1330E-01  0.2337E+00  0.2337E+00
      1.856  0.5492E-02  0.5492E-02  0.2343E+00  0.2343E+00
      1.963  0.7786E-02  0.7786E-02  0.2351E+00  0.2351E+00
      2.069  0.9590E-02  0.9590E-02  0.2361E+00  0.2361E+00
      2.175  0.7363E-02  0.7363E-02  0.2369E+00  0.2369E+00
      2.281  0.8370E-02  0.8370E-02  0.2378E+00  0.2378E+00
      2.388  0.7830E-02  0.7830E-02  0.2386E+00  0.2386E+00
      2.494  0.1217E-01  0.1217E-01  0.2399E+00  0.2399E+00
      2.600  0.9533E-02  0.9533E-02  0.2410E+00  0.2410E+00
      2.707  0.5299E-02  0.5299E-02  0.2415E+00  0.2415E+00
      2.813  0.4671E-02  0.4671E-02  0.2420E+00  0.2420E+00
      2.919  0.1001E-01  0.1001E-01  0.2431E+00  0.2431E+00
      3.025  0.1106E-01  0.1106E-01  0.2443E+00  0.2443E+00
      3.132  0.1015E-01  0.1015E-01  0.2453E+00  0.2453E+00
      3.238  0.9433E-02  0.9433E-02  0.2463E+00  0.2463E+00
      3.344  0.1151E-01  0.1151E-01  0.2476E+00  0.2476E+00
      3.451  0.1317E-01  0.1317E-01  0.2490E+00  0.2490E+00
      3.557  0.1938E-01  0.1938E-01  0.2510E+00  0.2510E+00
      3.663  0.2613E-01  0.2613E-01  0.2538E+00  0.2538E+00
      3.769  0.2437E-01  0.2437E-01  0.2564E+00  0.2564E+00
      3.876  0.2355E-01  0.2355E-01  0.2589E+00  0.2589E+00
      3.982  0.2420E-01  0.2419E-01  0.2615E+00  0.2615E+00
      4.088  0.2556E-01  0.2556E-01  0.2642E+00  0.2642E+00
      4.194  0.2359E-01  0.2359E-01  0.2667E+00  0.2667E+00
      4.301  0.2217E-01  0.2217E-01  0.2690E+00  0.2690E+00
      4.407  0.2146E-01  0.2146E-01  0.2713E+00  0.2713E+00
      4.513  0.2131E-01  0.2131E-01  0.2736E+00  0.2736E+00
      4.620  0.2265E-01  0.2265E-01  0.2760E+00  0.2760E+00
      4.726  0.2726E-01  0.2726E-01  0.2789E+00  0.2789E+00
      4.832  0.2322E-01  0.2322E-01  0.2814E+00  0.2814E+00
      4.938  0.2042E-01  0.2043E-01  0.2835E+00  0.2835E+00
      5.045  0.2634E-01  0.2634E-01  0.2863E+00  0.2863E+00
      5.151  0.2993E-01  0.2993E-01  0.2895E+00  0.2895E+00
      5.257  0.2490E-01  0.2490E-01  0.2922E+00  0.2922E+00
      5.364  0.1785E-01  0.1785E-01  0.2941E+00  0.2940E+00
      5.470  0.2166E-01  0.2166E-01  0.2964E+00  0.2964E+00
      5.576  0.2469E-01  0.2468E-01  0.2990E+00  0.2990E+00
      5.682  0.2333E-01  0.2333E-01  0.3015E+00  0.3015E+00
      5.789  0.2461E-01  0.2461E-01  0.3041E+00  0.3041E+00
      5.895  0.1953E-01  0.1953E-01  0.3061E+00  0.3061E+00
      6.001  0.1943E-01  0.1943E-01  0.3082E+00  0.3082E+00
      6.107  0.1640E-01  0.1640E-01  0.3100E+00  0.3100E+00
      6.214  0.2069E-01  0.2069E-01  0.3122E+00  0.3122E+00
      6.320  0.2087E-01  0.2088E-01  0.3144E+00  0.3144E+00
      6.426  0.2419E-01  0.2419E-01  0.3169E+00  0.3169E+00
      6.533  0.2839E-01  0.2839E-01  0.3200E+00  0.3200E+00
      6.639  0.2916E-01  0.2915E-01  0.3231E+00  0.3231E+00
      6.745  0.2918E-01  0.2918E-01  0.3262E+00  0.3262E+00
      6.851  0.2306E-01  0.2306E-01  0.3286E+00  0.3286E+00
      6.958  0.2729E-01  0.2729E-01  0.3315E+00  0.3315E+00
      7.064  0.2632E-01  0.2632E-01  0.3343E+00  0.3343E+00
      7.170  0.2279E-01  0.2279E-01  0.3367E+00  0.3367E+00
      7.277  0.1889E-01  0.1889E-01  0.3387E+00  0.3387E+00
      7.383  0.2049E-01  0.2049E-01  0.3409E+00  0.3409E+00
      7.489  0.2728E-01  0.2729E-01  0.3438E+00  0.3438E+00
      7.595  0.2948E-01  0.2947E-01  0.3469E+00  0.3469E+00
      7.702  0.3442E-01  0.3442E-01  0.3506E+00  0.3506E+00
      7.808  0.2545E-01  0.2545E-01  0.3533E+00  0.3533E+00
      7.914  0.2431E-01  0.2431E-01  0.3559E+00  0.3559E+00
      8.020  0.3558E-01  0.3558E-01  0.3597E+00  0.3597E+00
      8.127  0.4100E-01  0.4101E-01  0.3640E+00  0.3640E+00
      8.233  0.3743E-01  0.3744E-01  0.3680E+00  0.3680E+00
      8.339  0.3113E-01  0.3113E-01  0.3713E+00  0.3713E+00
      8.446  0.1795E-01  0.1795E-01  0.3732E+00  0.3732E+00
      8.552  0.8212E-02  0.8212E-02  0.3741E+00  0.3741E+00
      8.658  0.3172E-02  0.3172E-02  0.3744E+00  0.3744E+00
      8.764  0.2705E-02  0.2705E-02  0.3747E+00  0.3747E+00
      8.871  0.2071E-02  0.2071E-02  0.3749E+00  0.3749E+00
      8.977  0.5128E-03  0.5128E-03  0.3750E+00  0.3750E+00
      9.083  0.2124E-04  0.2124E-04  0.3750E+00  0.3750E+00
      9.189  0.1133E-06  0.1133E-06  0.3750E+00  0.3750E+00
      9.296  0.7047E-10  0.7045E-10  0.3750E+00  0.3750E+00
      9.402  0.4887E-14  0.4886E-14  0.3750E+00  0.3750E+00
      9.508  0.0000E+00  0.0000E+00  0.3750E+00  0.3750E+00
      9.615  0.0000E+00  0.0000E+00  0.3750E+00  0.3750E+00
      9.721  0.0000E+00  0.0000E+00  0.3750E+00  0.3750E+00
      9.827  0.0000E+00  0.0000E+00  0.3750E+00  0.3750E+00
      9.933  0.0000E+00  0.0000E+00  0.3750E+00  0.3750E+00
     10.040  0.0000E+00  0.0000E+00  0.3750E+00  0.3750E+00
     10.146  0.0000E+00  0.0000E+00  0.3750E+00  0.3750E+00
     10.252  0.0000E+00  0.0000E+00  0.3750E+00  0.3750E+00
