       N       E                     dE             d eps       ncg     rms          rms(c)
DAV:   1     0.258469944256E+03    0.25847E+03   -0.28573E+04 14208   0.963E+02
DAV:   2    -0.129689819718E+03   -0.38816E+03   -0.38751E+03 21792   0.180E+02
DAV:   3    -0.145517396561E+03   -0.15828E+02   -0.15810E+02 25776   0.500E+01
DAV:   4    -0.145565076357E+03   -0.47680E-01   -0.47637E-01 21840   0.250E+00
DAV:   5    -0.145565154931E+03   -0.78573E-04   -0.78573E-04 24384   0.108E-01    0.249E+01
DAV:   6    -0.107285247715E+03    0.38280E+02   -0.68016E+01 23808   0.265E+01    0.144E+01
DAV:   7    -0.114715007893E+03   -0.74298E+01   -0.99750E+00 23136   0.110E+01    0.852E+00
DAV:   8    -0.123701288891E+03   -0.89863E+01   -0.82636E+00 24288   0.901E+00    0.458E+00
DAV:   9    -0.131196421300E+03   -0.74951E+01   -0.39365E+00 18336   0.683E+00    0.306E+00
DAV:  10    -0.138602655175E+03   -0.74062E+01   -0.10307E+01 20880   0.797E+00    0.174E+00
DAV:  11    -0.140056485537E+03   -0.14538E+01   -0.16140E+00 21360   0.333E+00    0.116E+00
DAV:  12    -0.140288540869E+03   -0.23206E+00   -0.29890E-01 19776   0.150E+00    0.498E-01
DAV:  13    -0.140348385399E+03   -0.59845E-01   -0.48923E-02 17328   0.792E-01    0.209E-01
DAV:  14    -0.140374807828E+03   -0.26422E-01   -0.87412E-03 19056   0.338E-01    0.969E-02
DAV:  15    -0.140384074428E+03   -0.92666E-02   -0.48039E-03 16512   0.182E-01    0.492E-02
DAV:  16    -0.140385691539E+03   -0.16171E-02   -0.65291E-04 15360   0.970E-02    0.271E-02
DAV:  17    -0.140387440797E+03   -0.17493E-02   -0.23968E-04 15360   0.631E-02    0.174E-02
DAV:  18    -0.140388553398E+03   -0.11126E-02   -0.13435E-04 15360   0.465E-02    0.126E-02
DAV:  19    -0.140389093538E+03   -0.54014E-03   -0.73027E-05 18576   0.387E-02    0.768E-03
DAV:  20    -0.140389281220E+03   -0.18768E-03   -0.27351E-05 16800   0.252E-02    0.455E-03
DAV:  21    -0.140389333395E+03   -0.52175E-04   -0.98807E-06 18768   0.149E-02    0.273E-03
DAV:  22    -0.140389346784E+03   -0.13389E-04   -0.40309E-06 23952   0.866E-03    0.188E-03
DAV:  23    -0.140389353169E+03   -0.63849E-05   -0.15155E-06 20256   0.471E-03    0.871E-04
DAV:  24    -0.140389356561E+03   -0.33921E-05   -0.38975E-07 22224   0.237E-03    0.510E-04
DAV:  25    -0.140389358372E+03   -0.18105E-05   -0.11510E-07 20064   0.120E-03    0.268E-04
DAV:  26    -0.140389359522E+03   -0.11501E-05   -0.80353E-08 18528   0.877E-04    0.138E-04
DAV:  27    -0.140389359861E+03   -0.33967E-06   -0.27409E-08 19632   0.495E-04
   1 F= -.14227695E+03 E0= -.14227571E+03  d E =-.142277E+03  mag=     0.0000
       N       E                     dE             d eps       ncg     rms          rms(c)
DAV:   1    -0.140356601435E+03    0.32758E-01   -0.12537E+01 14208   0.118E+01    0.101E+00
DAV:   2    -0.140325641032E+03    0.30960E-01   -0.21268E-01 25344   0.158E+00    0.481E-01
DAV:   3    -0.140322806222E+03    0.28348E-02   -0.28188E-02 22800   0.521E-01    0.208E-01
DAV:   4    -0.140322742593E+03    0.63630E-04   -0.30933E-03 18624   0.170E-01    0.783E-02
DAV:   5    -0.140322745238E+03   -0.26452E-05   -0.22101E-04 20592   0.552E-02    0.195E-02
DAV:   6    -0.140322748241E+03   -0.30028E-05   -0.21761E-05 22272   0.169E-02    0.112E-02
DAV:   7    -0.140322756538E+03   -0.82968E-05   -0.13591E-05 21312   0.119E-02    0.243E-03
DAV:   8    -0.140322763487E+03   -0.69492E-05   -0.12491E-06 22128   0.363E-03    0.145E-03
DAV:   9    -0.140322776725E+03   -0.13238E-04   -0.14583E-06 19728   0.258E-03    0.868E-04
DAV:  10    -0.140322782991E+03   -0.62663E-05   -0.49438E-07 20448   0.138E-03    0.670E-04
DAV:  11    -0.140322788117E+03   -0.51259E-05   -0.49140E-07 17088   0.114E-03    0.309E-04
DAV:  12    -0.140322789663E+03   -0.15460E-05   -0.12494E-07 18672   0.576E-04    0.241E-04
DAV:  13    -0.140322790080E+03   -0.41712E-06   -0.20883E-08 19680   0.256E-04
   2 F= -.14221439E+03 E0= -.14221291E+03  d E =0.625642E-01  mag=    -0.0000
       N       E                     dE             d eps       ncg     rms          rms(c)
DAV:   1    -0.140416359764E+03   -0.93570E-01   -0.65425E+00 14208   0.849E+00    0.732E-01
DAV:   2    -0.140400411041E+03    0.15949E-01   -0.10854E-01 24096   0.115E+00    0.347E-01
DAV:   3    -0.140398841796E+03    0.15692E-02   -0.16792E-02 23232   0.390E-01    0.143E-01
DAV:   4    -0.140398784332E+03    0.57465E-04   -0.18678E-03 17952   0.130E-01    0.611E-02
DAV:   5    -0.140398781134E+03    0.31979E-05   -0.14574E-04 18480   0.445E-02    0.107E-02
DAV:   6    -0.140398780183E+03    0.95045E-06   -0.27488E-05 19392   0.177E-02    0.554E-03
DAV:   7    -0.140398784129E+03   -0.39459E-05   -0.26165E-06 22368   0.549E-03    0.113E-03
DAV:   8    -0.140398789509E+03   -0.53801E-05   -0.37350E-07 20640   0.179E-03    0.723E-04
DAV:   9    -0.140398794590E+03   -0.50803E-05   -0.24118E-07 18816   0.101E-03    0.676E-04
DAV:  10    -0.140398798354E+03   -0.37639E-05   -0.16786E-07 16032   0.723E-04    0.483E-04
DAV:  11    -0.140398801536E+03   -0.31824E-05   -0.23161E-07 14688   0.785E-04    0.215E-04
DAV:  12    -0.140398801928E+03   -0.39217E-06   -0.79881E-09 23424   0.186E-04
   3 F= -.14228772E+03 E0= -.14228639E+03  d E =-.107693E-01  mag=     0.0000
       N       E                     dE             d eps       ncg     rms          rms(c)
DAV:   1    -0.140398898166E+03   -0.96630E-04   -0.12452E-02 14208   0.472E-01    0.215E-02
DAV:   2    -0.140398899344E+03   -0.11785E-05   -0.60952E-05 25056   0.351E-02    0.131E-02
DAV:   3    -0.140398902496E+03   -0.31521E-05   -0.74413E-06 14208   0.102E-02    0.209E-03
DAV:   4    -0.140398902563E+03   -0.66235E-07   -0.69302E-07 24864   0.335E-03
   4 F= -.14228784E+03 E0= -.14228651E+03  d E =-.117839E-03  mag=     0.0000
       N       E                     dE             d eps       ncg     rms          rms(c)
DAV:   1    -0.140398903542E+03   -0.10452E-05   -0.10555E-03 15840   0.137E-01    0.637E-03
DAV:   2    -0.140398903528E+03    0.14132E-07   -0.50193E-06 22512   0.101E-02
   5 F= -.14228785E+03 E0= -.14228652E+03  d E =-.123808E-03  mag=     0.0000
       N       E                     dE             d eps       ncg     rms          rms(c)
DAV:   1    -0.140398889930E+03    0.13612E-04   -0.51338E-03 14208   0.313E-01    0.157E-02
DAV:   2    -0.140398889357E+03    0.57244E-06   -0.45819E-05 19776   0.306E-02    0.978E-03
DAV:   3    -0.140398890362E+03   -0.10047E-05   -0.73547E-06 17424   0.104E-02    0.258E-03
DAV:   4    -0.140398890393E+03   -0.30491E-07   -0.13974E-06 24192   0.438E-03
   6 F= -.14228787E+03 E0= -.14228654E+03  d E =-.177655E-04  mag=     0.0000
       N       E                     dE             d eps       ncg     rms          rms(c)
DAV:   1    -0.140398898928E+03   -0.85657E-05   -0.25000E-04 16176   0.691E-02    0.340E-03
DAV:   2    -0.140398898771E+03    0.15641E-06   -0.21931E-06 16320   0.667E-03
   7 F= -.14228787E+03 E0= -.14228654E+03  d E =-.193658E-04  mag=    -0.0000
       N       E                     dE             d eps       ncg     rms          rms(c)
DAV:   1    -0.140398841864E+03    0.57064E-04   -0.47366E-03 14208   0.300E-01    0.153E-02
DAV:   2    -0.140398841438E+03    0.42612E-06   -0.48730E-05 14208   0.300E-02    0.965E-03
DAV:   3    -0.140398841765E+03   -0.32690E-06   -0.75230E-06 15264   0.104E-02
   8 F= -.14228785E+03 E0= -.14228653E+03  d E =0.121798E-04  mag=     0.0000
       N       E                     dE             d eps       ncg     rms          rms(c)
DAV:   1    -0.140398888594E+03   -0.47156E-04   -0.19855E-03 14208   0.194E-01    0.951E-03
DAV:   2    -0.140398888429E+03    0.16470E-06   -0.21062E-05 15264   0.195E-02    0.596E-03
DAV:   3    -0.140398888514E+03   -0.85481E-07   -0.28994E-06 14208   0.647E-03
   9 F= -.14228787E+03 E0= -.14228654E+03  d E =-.531993E-05  mag=    -0.0000
       N       E                     dE             d eps       ncg     rms          rms(c)
DAV:   1    -0.140398887559E+03    0.87037E-06   -0.23808E-06 23280   0.679E-03    0.525E-04
DAV:   2    -0.140398887623E+03   -0.64499E-07   -0.29238E-08 16272   0.727E-04
  10 F= -.14228787E+03 E0= -.14228654E+03  d E =-.543739E-05  mag=    -0.0000
       N       E                     dE             d eps       ncg     rms          rms(c)
DAV:   1    -0.140398857596E+03    0.29962E-04   -0.76694E-04 14496   0.121E-01    0.607E-03
DAV:   2    -0.140398857320E+03    0.27650E-06   -0.93355E-06 14496   0.137E-02
  11 F= -.14228787E+03 E0= -.14228654E+03  d E =-.497740E-06  mag=     0.0000
       N       E                     dE             d eps       ncg     rms          rms(c)
DAV:   1    -0.140398871555E+03   -0.13959E-04   -0.14744E-04 14496   0.522E-02    0.232E-03
DAV:   2    -0.140398871608E+03   -0.52367E-07   -0.25329E-06 16992   0.693E-03
  12 F= -.14228787E+03 E0= -.14228655E+03  d E =-.188503E-05  mag=     0.0000
       N       E                     dE             d eps       ncg     rms          rms(c)
DAV:   1    -0.140398846205E+03    0.25351E-04   -0.21732E-04 14688   0.610E-02    0.274E-03
DAV:   2    -0.140398846135E+03    0.69384E-07   -0.16789E-06 15552   0.577E-03
  13 F= -.14228788E+03 E0= -.14228655E+03  d E =-.185985E-05  mag=    -0.0000
       N       E                     dE             d eps       ncg     rms          rms(c)
DAV:   1    -0.140398840457E+03    0.57477E-05   -0.86919E-06 15552   0.126E-02    0.890E-04
DAV:   2    -0.140398840445E+03    0.12404E-07   -0.51999E-08 24672   0.101E-03
  14 F= -.14228788E+03 E0= -.14228655E+03  d E =-.198176E-05  mag=    -0.0000
       N       E                     dE             d eps       ncg     rms          rms(c)
DAV:   1    -0.140398814153E+03    0.26304E-04   -0.76786E-05 17424   0.368E-02    0.189E-03
DAV:   2    -0.140398814071E+03    0.81498E-07   -0.95013E-07 16128   0.406E-03
  15 F= -.14228788E+03 E0= -.14228655E+03  d E =-.147124E-06  mag=    -0.0000
       N       E                     dE             d eps       ncg     rms          rms(c)
DAV:   1    -0.140398821806E+03   -0.76536E-05   -0.73730E-06 15504   0.112E-02    0.433E-04
DAV:   2    -0.140398821830E+03   -0.23450E-07   -0.15039E-07 15696   0.154E-03
  16 F= -.14228788E+03 E0= -.14228655E+03  d E =-.263931E-06  mag=     0.0000
       N       E                     dE             d eps       ncg     rms          rms(c)
DAV:   1    -0.140398807088E+03    0.14719E-04   -0.18837E-05 22176   0.176E-02    0.850E-04
DAV:   2    -0.140398807055E+03    0.32562E-07   -0.17590E-07 15840   0.173E-03
  17 F= -.14228788E+03 E0= -.14228655E+03  d E =-.214535E-06  mag=    -0.0000
       N       E                     dE             d eps       ncg     rms          rms(c)
DAV:   1    -0.140398762739E+03    0.44348E-04   -0.16385E-04 14208   0.524E-02    0.272E-03
DAV:   2    -0.140398762525E+03    0.21444E-06   -0.17644E-06 16704   0.564E-03
  18 F= -.14228788E+03 E0= -.14228655E+03  d E =-.654310E-06  mag=    -0.0000
       N       E                     dE             d eps       ncg     rms          rms(c)
DAV:   1    -0.140398672761E+03    0.89978E-04   -0.64949E-04 14208   0.105E-01    0.546E-03
DAV:   2    -0.140398672203E+03    0.55789E-06   -0.68840E-06 17856   0.112E-02
  19 F= -.14228788E+03 E0= -.14228655E+03  d E =-.278606E-06  mag=     0.0000
       N       E                     dE             d eps       ncg     rms          rms(c)
DAV:   1    -0.140398492716E+03    0.18004E-03   -0.25991E-03 14208   0.209E-01    0.109E-02
DAV:   2    -0.140398491509E+03    0.12068E-05   -0.27161E-05 14688   0.223E-02    0.666E-03
DAV:   3    -0.140398491790E+03   -0.28060E-06   -0.41684E-06 17568   0.760E-03
  20 F= -.14228788E+03 E0= -.14228655E+03  d E =0.216667E-06  mag=    -0.0000
       N       E                     dE             d eps       ncg     rms          rms(c)
DAV:   1    -0.140398642291E+03   -0.15078E-03   -0.17883E-03 15168   0.173E-01    0.818E-03
DAV:   2    -0.140398641504E+03    0.78656E-06   -0.20864E-05 16800   0.189E-02    0.495E-03
DAV:   3    -0.140398641684E+03   -0.17930E-06   -0.28543E-06 21120   0.613E-03
  21 F= -.14228788E+03 E0= -.14228655E+03  d E =-.529177E-06  mag=    -0.0000
       N       E                     dE             d eps       ncg     rms          rms(c)
DAV:   1    -0.140398566986E+03    0.74518E-04   -0.44441E-04 15360   0.863E-02    0.391E-03
DAV:   2    -0.140398566788E+03    0.19835E-06   -0.51977E-06 15888   0.946E-03
  22 F= -.14228788E+03 E0= -.14228655E+03  d E =-.204315E-06  mag=     0.0000
       N       E                     dE             d eps       ncg     rms          rms(c)
DAV:   1    -0.140398611052E+03   -0.44066E-04   -0.16964E-04 17568   0.523E-02    0.228E-03
DAV:   2    -0.140398611040E+03    0.11330E-07   -0.20951E-06 16128   0.593E-03
  23 F= -.14228788E+03 E0= -.14228655E+03  d E =-.606555E-06  mag=    -0.0000
       N       E                     dE             d eps       ncg     rms          rms(c)
DAV:   1    -0.140398628702E+03   -0.17650E-04   -0.22866E-05 21600   0.201E-02    0.130E-03
DAV:   2    -0.140398628642E+03    0.59922E-07   -0.18544E-07 16320   0.185E-03
  24 F= -.14228788E+03 E0= -.14228655E+03  d E =-.635051E-06  mag=    -0.0000
       N       E                     dE             d eps       ncg     rms          rms(c)
DAV:   1    -0.140398618125E+03    0.10577E-04   -0.10111E-05 16176   0.128E-02    0.569E-04
DAV:   2    -0.140398618136E+03   -0.10681E-07   -0.14798E-07 15360   0.168E-03
  25 F= -.14228788E+03 E0= -.14228655E+03  d E =-.233320E-06  mag=    -0.0000
       N       E                     dE             d eps       ncg     rms          rms(c)
DAV:   1    -0.140398586390E+03    0.31735E-04   -0.84612E-05 14208   0.376E-02    0.199E-03
DAV:   2    -0.140398586262E+03    0.12778E-06   -0.96973E-07 15552   0.420E-03
  26 F= -.14228788E+03 E0= -.14228655E+03  d E =-.579292E-06  mag=    -0.0000
       N       E                     dE             d eps       ncg     rms          rms(c)
DAV:   1    -0.140398523372E+03    0.63018E-04   -0.33505E-04 14208   0.749E-02    0.396E-03
DAV:   2    -0.140398523019E+03    0.35278E-06   -0.36192E-06 17664   0.814E-03
  27 F= -.14228788E+03 E0= -.14228655E+03  d E =-.177836E-05  mag=    -0.0000
       N       E                     dE             d eps       ncg     rms          rms(c)
DAV:   1    -0.140398395415E+03    0.12796E-03   -0.13414E-03 14208   0.150E-01    0.790E-03
DAV:   2    -0.140398394536E+03    0.87898E-06   -0.14212E-05 16128   0.162E-02    0.479E-03
DAV:   3    -0.140398394853E+03   -0.31674E-06   -0.21121E-06 17424   0.541E-03
  28 F= -.14228788E+03 E0= -.14228655E+03  d E =-.250862E-05  mag=    -0.0000
       N       E                     dE             d eps       ncg     rms          rms(c)
DAV:   1    -0.140398429410E+03   -0.34874E-04   -0.92601E-05 15600   0.395E-02    0.170E-03
DAV:   2    -0.140398429496E+03   -0.85869E-07   -0.12269E-06 17184   0.461E-03
  29 F= -.14228788E+03 E0= -.14228655E+03  d E =-.264427E-05  mag=    -0.0000
       N       E                     dE             d eps       ncg     rms          rms(c)
DAV:   1    -0.140398416225E+03    0.13185E-04   -0.16245E-05 14448   0.160E-02    0.644E-04
DAV:   2    -0.140398416247E+03   -0.21820E-07   -0.23938E-07 16224   0.218E-03
  30 F= -.14228788E+03 E0= -.14228655E+03  d E =-.270016E-05  mag=    -0.0000
       N       E                     dE             d eps       ncg     rms          rms(c)
DAV:   1    -0.140398405675E+03    0.10550E-04   -0.89099E-06 14304   0.123E-02    0.744E-04
DAV:   2    -0.140398405656E+03    0.19214E-07   -0.11243E-07 14208   0.151E-03
  31 F= -.14228788E+03 E0= -.14228655E+03  d E =-.271044E-05  mag=    -0.0000
       N       E                     dE             d eps       ncg     rms          rms(c)
DAV:   1    -0.140398400379E+03    0.52961E-05   -0.21444E-06 14208   0.612E-03    0.421E-04
DAV:   2    -0.140398400385E+03   -0.54615E-08   -0.29366E-08 14256   0.892E-04
  32 F= -.14228788E+03 E0= -.14228655E+03  d E =-.273969E-05  mag=     0.0000
       N       E                     dE             d eps       ncg     rms          rms(c)
DAV:   1    -0.140398397749E+03    0.26301E-05   -0.55822E-07 16320   0.312E-03    0.262E-04
DAV:   2    -0.140398397756E+03   -0.72987E-08   -0.10285E-08 16848   0.558E-04
  33 F= -.14228788E+03 E0= -.14228655E+03  d E =-.276181E-05  mag=     0.0000
       N       E                     dE             d eps       ncg     rms          rms(c)
DAV:   1    -0.140398396440E+03    0.13096E-05   -0.14088E-07 17184   0.158E-03    0.151E-04
DAV:   2    -0.140398396443E+03   -0.37953E-08   -0.34472E-09 17424   0.334E-04
  34 F= -.14228788E+03 E0= -.14228655E+03  d E =-.277392E-05  mag=     0.0000
       N       E                     dE             d eps       ncg     rms          rms(c)
DAV:   1    -0.140398380868E+03    0.15572E-04   -0.19505E-05 17472   0.182E-02    0.104E-03
DAV:   2    -0.140398380835E+03    0.32646E-07   -0.23835E-07 15840   0.205E-03
  35 F= -.14228788E+03 E0= -.14228655E+03  d E =-.511672E-06  mag=    -0.0000
       N       E                     dE             d eps       ncg     rms          rms(c)
DAV:   1    -0.140398333491E+03    0.47376E-04   -0.17322E-04 14208   0.543E-02    0.312E-03
DAV:   2    -0.140398333317E+03    0.17438E-06   -0.21456E-06 15552   0.620E-03
  36 F= -.14228788E+03 E0= -.14228655E+03  d E =-.135472E-05  mag=    -0.0000
       N       E                     dE             d eps       ncg     rms          rms(c)
DAV:   1    -0.140398235843E+03    0.97649E-04   -0.68807E-04 14208   0.108E-01    0.633E-03
DAV:   2    -0.140398235397E+03    0.44595E-06   -0.83860E-06 18720   0.123E-02
  37 F= -.14228788E+03 E0= -.14228655E+03  d E =-.161045E-06  mag=    -0.0000
       N       E                     dE             d eps       ncg     rms          rms(c)
DAV:   1    -0.140398303184E+03   -0.67342E-04   -0.35215E-04 14208   0.762E-02    0.374E-03
DAV:   2    -0.140398303117E+03    0.67119E-07   -0.55229E-06 15552   0.968E-03
  38 F= -.14228788E+03 E0= -.14228655E+03  d E =-.156158E-05  mag=    -0.0000
       N       E                     dE             d eps       ncg     rms          rms(c)
DAV:   1    -0.140398289815E+03    0.13370E-04   -0.15871E-05 20736   0.152E-02    0.741E-04
DAV:   2    -0.140398289841E+03   -0.25820E-07   -0.26918E-07 15168   0.211E-03
  39 F= -.14228788E+03 E0= -.14228656E+03  d E =-.410353E-06  mag=    -0.0000
       N       E                     dE             d eps       ncg     rms          rms(c)
DAV:   1    -0.140398249700E+03    0.40115E-04   -0.10902E-04 18528   0.420E-02    0.258E-03
DAV:   2    -0.140398249555E+03    0.14417E-06   -0.12066E-06 17424   0.450E-03
  40 F= -.14228788E+03 E0= -.14228656E+03  d E =-.118765E-05  mag=    -0.0000
       N       E                     dE             d eps       ncg     rms          rms(c)
DAV:   1    -0.140398167663E+03    0.82036E-04   -0.43283E-04 14208   0.838E-02    0.525E-03
DAV:   2    -0.140398167332E+03    0.33140E-06   -0.49839E-06 17568   0.944E-03
  41 F= -.14228788E+03 E0= -.14228656E+03  d E =-.109595E-05  mag=    -0.0000
       N       E                     dE             d eps       ncg     rms          rms(c)
DAV:   1    -0.140398140905E+03    0.26759E-04   -0.40898E-05 17184   0.266E-02    0.212E-03
DAV:   2    -0.140398140875E+03    0.29678E-07   -0.34536E-07 16368   0.262E-03
  42 F= -.14228788E+03 E0= -.14228656E+03  d E =-.121687E-05  mag=     0.0000
       N       E                     dE             d eps       ncg     rms          rms(c)
DAV:   1    -0.140398114709E+03    0.26196E-04   -0.54660E-05 14400   0.306E-02    0.176E-03
DAV:   2    -0.140398114673E+03    0.35642E-07   -0.65807E-07 14688   0.365E-03
  43 F= -.14228788E+03 E0= -.14228656E+03  d E =-.789581E-06  mag=    -0.0000
       N       E                     dE             d eps       ncg     rms          rms(c)
DAV:   1    -0.140398063262E+03    0.51447E-04   -0.20377E-04 17184   0.591E-02    0.348E-03
DAV:   2    -0.140398063118E+03    0.14410E-06   -0.24182E-06 14496   0.672E-03
  44 F= -.14228788E+03 E0= -.14228656E+03  d E =-.121443E-05  mag=    -0.0000
       N       E                     dE             d eps       ncg     rms          rms(c)
DAV:   1    -0.140398046844E+03    0.16418E-04   -0.26525E-05 16944   0.221E-02    0.145E-03
DAV:   2    -0.140398046853E+03   -0.90040E-08   -0.27369E-07 15552   0.255E-03
  45 F= -.14228788E+03 E0= -.14228656E+03  d E =-.469685E-06  mag=    -0.0000
       N       E                     dE             d eps       ncg     rms          rms(c)
DAV:   1    -0.140398021126E+03    0.25718E-04   -0.68130E-05 14208   0.348E-02    0.190E-03
DAV:   2    -0.140398021101E+03    0.25598E-07   -0.79613E-07 14208   0.412E-03
  46 F= -.14228788E+03 E0= -.14228656E+03  d E =-.718984E-06  mag=     0.0000
       N       E                     dE             d eps       ncg     rms          rms(c)
DAV:   1    -0.140398005335E+03    0.15791E-04   -0.29055E-05 14208   0.229E-02    0.130E-03
DAV:   2    -0.140398005381E+03   -0.45957E-07   -0.42067E-07 14256   0.320E-03
  47 F= -.14228788E+03 E0= -.14228656E+03  d E =-.315962E-06  mag=    -0.0000
       N       E                     dE             d eps       ncg     rms          rms(c)
DAV:   1    -0.140397997409E+03    0.79262E-05   -0.71344E-06 14208   0.115E-02    0.818E-04
DAV:   2    -0.140397997478E+03   -0.68841E-07   -0.15772E-07 15552   0.221E-03
  48 F= -.14228788E+03 E0= -.14228656E+03  d E =-.398151E-06  mag=     0.0000
       N       E                     dE             d eps       ncg     rms          rms(c)
DAV:   1    -0.140397979153E+03    0.18256E-04   -0.34896E-05 14400   0.244E-02    0.135E-03
DAV:   2    -0.140397979147E+03    0.62955E-08   -0.44283E-07 15360   0.314E-03
  49 F= -.14228789E+03 E0= -.14228656E+03  d E =-.267179E-06  mag=     0.0000
       N       E                     dE             d eps       ncg     rms          rms(c)
DAV:   1    -0.140397934911E+03    0.44242E-04   -0.19776E-04 14208   0.581E-02    0.301E-03
DAV:   2    -0.140397934759E+03    0.15282E-06   -0.22842E-06 14208   0.668E-03
  50 F= -.14228789E+03 E0= -.14228656E+03  d E =-.339714E-06  mag=     0.0000
       N       E                     dE             d eps       ncg     rms          rms(c)
DAV:   1    -0.140397919139E+03    0.15773E-04   -0.22178E-05 14304   0.200E-02    0.129E-03
DAV:   2    -0.140397919196E+03   -0.56873E-07   -0.32649E-07 14304   0.312E-03
  51 F= -.14228789E+03 E0= -.14228656E+03  d E =-.314336E-06  mag=    -0.0000
       N       E                     dE             d eps       ncg     rms          rms(c)
DAV:   1    -0.140397875955E+03    0.43184E-04   -0.18259E-04 14208   0.556E-02    0.294E-03
DAV:   2    -0.140397875841E+03    0.11315E-06   -0.21953E-06 14208   0.676E-03
  52 F= -.14228789E+03 E0= -.14228656E+03  d E =-.489113E-06  mag=     0.0000
       N       E                     dE             d eps       ncg     rms          rms(c)
DAV:   1    -0.140397858893E+03    0.17062E-04   -0.25441E-05 14304   0.214E-02    0.142E-03
DAV:   2    -0.140397858963E+03   -0.70557E-07   -0.43913E-07 14304   0.372E-03
  53 F= -.14228789E+03 E0= -.14228656E+03  d E =-.560850E-06  mag=    -0.0000
       N       E                     dE             d eps       ncg     rms          rms(c)
DAV:   1    -0.140397842922E+03    0.15970E-04   -0.19820E-05 14208   0.186E-02    0.120E-03
DAV:   2    -0.140397842998E+03   -0.75155E-07   -0.43112E-07 15456   0.359E-03
  54 F= -.14228789E+03 E0= -.14228656E+03  d E =-.220929E-06  mag=    -0.0000
       N       E                     dE             d eps       ncg     rms          rms(c)
DAV:   1    -0.140397812889E+03    0.30033E-04   -0.69286E-05 14208   0.344E-02    0.202E-03
DAV:   2    -0.140397812870E+03    0.19040E-07   -0.10050E-06 14208   0.478E-03
  55 F= -.14228789E+03 E0= -.14228656E+03  d E =-.311791E-06  mag=    -0.0000
       N       E                     dE             d eps       ncg     rms          rms(c)
DAV:   1    -0.140397802081E+03    0.10808E-04   -0.72026E-06 14208   0.114E-02    0.915E-04
DAV:   2    -0.140397802162E+03   -0.80424E-07   -0.22922E-07 14352   0.281E-03
  56 F= -.14228789E+03 E0= -.14228656E+03  d E =-.170266E-06  mag=    -0.0000
       N       E                     dE             d eps       ncg     rms          rms(c)
DAV:   1    -0.140397769874E+03    0.32208E-04   -0.70407E-05 15264   0.338E-02    0.207E-03
DAV:   2    -0.140397769823E+03    0.50937E-07   -0.93027E-07 14208   0.445E-03
  57 F= -.14228789E+03 E0= -.14228656E+03  d E =-.468601E-06  mag=    -0.0000
       N       E                     dE             d eps       ncg     rms          rms(c)
DAV:   1    -0.140397704985E+03    0.64889E-04   -0.27703E-04 14400   0.673E-02    0.391E-03
DAV:   2    -0.140397704798E+03    0.18667E-06   -0.34618E-06 14208   0.820E-03
  58 F= -.14228789E+03 E0= -.14228656E+03  d E =-.722157E-06  mag=    -0.0000
       N       E                     dE             d eps       ncg     rms          rms(c)
DAV:   1    -0.140397576050E+03    0.12894E-03   -0.11093E-03 16944   0.135E-01    0.781E-03
DAV:   2    -0.140397575436E+03    0.61319E-06   -0.12816E-05 14304   0.152E-02    0.467E-03
DAV:   3    -0.140397575540E+03   -0.10378E-06   -0.20749E-06 17424   0.599E-03
  59 F= -.14228789E+03 E0= -.14228657E+03  d E =-.203494E-05  mag=    -0.0000
       N       E                     dE             d eps       ncg     rms          rms(c)
DAV:   1    -0.140397659345E+03   -0.83909E-04   -0.46277E-04 14352   0.868E-02    0.446E-03
DAV:   2    -0.140397659318E+03    0.27265E-07   -0.64901E-06 16320   0.112E-02
  60 F= -.14228789E+03 E0= -.14228656E+03  d E =-.131232E-05  mag=    -0.0000
       N       E                     dE             d eps       ncg     rms          rms(c)
DAV:   1    -0.140397639011E+03    0.20334E-04   -0.35297E-05 15168   0.233E-02    0.101E-03
DAV:   2    -0.140397639183E+03   -0.17256E-06   -0.91505E-07 14208   0.496E-03
  61 F= -.14228789E+03 E0= -.14228657E+03  d E =-.796687E-06  mag=    -0.0000
       N       E                     dE             d eps       ncg     rms          rms(c)
DAV:   1    -0.140397577743E+03    0.61268E-04   -0.26023E-04 14208   0.653E-02    0.375E-03
DAV:   2    -0.140397577522E+03    0.22097E-06   -0.33988E-06 14208   0.802E-03
  62 F= -.14228789E+03 E0= -.14228657E+03  d E =-.193193E-05  mag=    -0.0000
       N       E                     dE             d eps       ncg     rms          rms(c)
DAV:   1    -0.140397452759E+03    0.12498E-03   -0.10295E-03 16032   0.130E-01    0.756E-03
DAV:   2    -0.140397452211E+03    0.54792E-06   -0.12308E-05 14304   0.149E-02    0.453E-03
DAV:   3    -0.140397452342E+03   -0.13099E-06   -0.19115E-06 15456   0.561E-03
  63 F= -.14228789E+03 E0= -.14228657E+03  d E =-.236128E-05  mag=    -0.0000
       N       E                     dE             d eps       ncg     rms          rms(c)
DAV:   1    -0.140397519894E+03   -0.67683E-04   -0.29298E-04 14544   0.692E-02    0.352E-03
DAV:   2    -0.140397519935E+03   -0.40442E-07   -0.42286E-06 15648   0.902E-03
  64 F= -.14228789E+03 E0= -.14228657E+03  d E =-.265428E-05  mag=    -0.0000
       N       E                     dE             d eps       ncg     rms          rms(c)
DAV:   1    -0.140397508117E+03    0.11777E-04   -0.13690E-05 14400   0.148E-02    0.675E-04
DAV:   2    -0.140397508256E+03   -0.13916E-06   -0.45050E-07 14208   0.358E-03
  65 F= -.14228789E+03 E0= -.14228657E+03  d E =0.271967E-06  mag=     0.0000
       N       E                     dE             d eps       ncg     rms          rms(c)
DAV:   1    -0.140397473444E+03    0.34673E-04   -0.96561E-05 16704   0.406E-02    0.217E-03
DAV:   2    -0.140397473324E+03    0.11935E-06   -0.11644E-06 14880   0.463E-03
  66 F= -.14228789E+03 E0= -.14228657E+03  d E =0.981626E-06  mag=    -0.0000
       N       E                     dE             d eps       ncg     rms          rms(c)
DAV:   1    -0.140397404493E+03    0.68951E-04   -0.38119E-04 15168   0.808E-02    0.434E-03
DAV:   2    -0.140397404204E+03    0.28899E-06   -0.43711E-06 14208   0.895E-03
  67 F= -.14228789E+03 E0= -.14228657E+03  d E =0.165645E-05  mag=     0.0000
       N       E                     dE             d eps       ncg     rms          rms(c)
DAV:   1    -0.140397452723E+03   -0.48231E-04   -0.20326E-04 15456   0.579E-02    0.263E-03
DAV:   2    -0.140397452768E+03   -0.44442E-07   -0.28321E-06 15552   0.706E-03
  68 F= -.14228789E+03 E0= -.14228657E+03  d E =0.112277E-05  mag=     0.0000
       N       E                     dE             d eps       ncg     rms          rms(c)
DAV:   1    -0.140397461684E+03   -0.89607E-05   -0.54828E-06 15936   0.104E-02    0.887E-04
DAV:   2    -0.140397461709E+03   -0.25190E-07   -0.92177E-08 16416   0.171E-03
  69 F= -.14228789E+03 E0= -.14228657E+03  d E =0.110969E-05  mag=     0.0000
       N       E                     dE             d eps       ncg     rms          rms(c)
DAV:   1    -0.140397449838E+03    0.11846E-04   -0.11949E-05 15456   0.142E-02    0.630E-04
DAV:   2    -0.140397449882E+03   -0.43933E-07   -0.20965E-07 14304   0.236E-03
  70 F= -.14228789E+03 E0= -.14228657E+03  d E =-.114154E-06  mag=    -0.0000
       N       E                     dE             d eps       ncg     rms          rms(c)
DAV:   1    -0.140397414267E+03    0.35571E-04   -0.10411E-04 14208   0.420E-02    0.222E-03
DAV:   2    -0.140397414148E+03    0.11938E-06   -0.12497E-06 14304   0.487E-03
  71 F= -.14228789E+03 E0= -.14228657E+03  d E =-.207725E-06  mag=    -0.0000
       N       E                     dE             d eps       ncg     rms          rms(c)
DAV:   1    -0.140397343259E+03    0.71008E-04   -0.41218E-04 14784   0.837E-02    0.442E-03
DAV:   2    -0.140397342929E+03    0.32952E-06   -0.46289E-06 14976   0.923E-03
  72 F= -.14228789E+03 E0= -.14228657E+03  d E =-.644799E-06  mag=    -0.0000
       N       E                     dE             d eps       ncg     rms          rms(c)
DAV:   1    -0.140397372374E+03   -0.29115E-04   -0.79373E-05 16032   0.358E-02    0.149E-03
DAV:   2    -0.140397372503E+03   -0.12830E-06   -0.12211E-06 16128   0.475E-03
  73 F= -.14228789E+03 E0= -.14228657E+03  d E =-.588159E-06  mag=    -0.0000
       N       E                     dE             d eps       ncg     rms          rms(c)
DAV:   1    -0.140397393265E+03   -0.20891E-04   -0.34120E-05 15360   0.244E-02    0.141E-03
DAV:   2    -0.140397393246E+03    0.19819E-07   -0.43490E-07 16320   0.310E-03
  74 F= -.14228789E+03 E0= -.14228657E+03  d E =-.317939E-06  mag=    -0.0000
       N       E                     dE             d eps       ncg     rms          rms(c)
DAV:   1    -0.140397380082E+03    0.13183E-04   -0.16612E-05 15120   0.168E-02    0.719E-04
DAV:   2    -0.140397380128E+03   -0.45747E-07   -0.30883E-07 14208   0.277E-03
  75 F= -.14228789E+03 E0= -.14228657E+03  d E =-.165522E-06  mag=    -0.0000
       N       E                     dE             d eps       ncg     rms          rms(c)
DAV:   1    -0.140397349403E+03    0.30679E-04   -0.84505E-05 14208   0.385E-02    0.201E-03
DAV:   2    -0.140397349320E+03    0.82354E-07   -0.11099E-06 14496   0.465E-03
  76 F= -.14228789E+03 E0= -.14228657E+03  d E =-.406003E-06  mag=    -0.0000
       N       E                     dE             d eps       ncg     rms          rms(c)
DAV:   1    -0.140397337402E+03    0.12001E-04   -0.11334E-05 14784   0.143E-02    0.955E-04
DAV:   2    -0.140397337422E+03   -0.19580E-07   -0.16327E-07 14784   0.215E-03
  77 F= -.14228789E+03 E0= -.14228657E+03  d E =-.107643E-06  mag=    -0.0000
       N       E                     dE             d eps       ncg     rms          rms(c)
DAV:   1    -0.140397301287E+03    0.36115E-04   -0.11034E-04 14304   0.434E-02    0.226E-03
DAV:   2    -0.140397301196E+03    0.90810E-07   -0.13421E-06 14208   0.521E-03
  78 F= -.14228789E+03 E0= -.14228657E+03  d E =0.969481E-07  mag=    -0.0000
       N       E                     dE             d eps       ncg     rms          rms(c)
DAV:   1    -0.140397285394E+03    0.15893E-04   -0.19906E-05 15552   0.189E-02    0.121E-03
DAV:   2    -0.140397285421E+03   -0.26408E-07   -0.28669E-07 14880   0.286E-03
  79 F= -.14228789E+03 E0= -.14228657E+03  d E =0.458969E-07  mag=    -0.0000
       N       E                     dE             d eps       ncg     rms          rms(c)
DAV:   1    -0.140397278199E+03    0.71955E-05   -0.77245E-06 14304   0.123E-02    0.772E-04
DAV:   2    -0.140397278261E+03   -0.62347E-07   -0.21447E-07 14304   0.266E-03
  80 F= -.14228789E+03 E0= -.14228657E+03  d E =-.159433E-06  mag=    -0.0000
       N       E                     dE             d eps       ncg     rms          rms(c)
DAV:   1    -0.140397271242E+03    0.69572E-05   -0.72305E-06 14592   0.118E-02    0.769E-04
DAV:   2    -0.140397271270E+03   -0.28181E-07   -0.14827E-07 15168   0.209E-03
  81 F= -.14228789E+03 E0= -.14228657E+03  d E =-.234890E-06  mag=    -0.0000
       N       E                     dE             d eps       ncg     rms          rms(c)
DAV:   1    -0.140397266257E+03    0.49844E-05   -0.31297E-06 14496   0.778E-03    0.499E-04
DAV:   2    -0.140397266295E+03   -0.37628E-07   -0.82539E-08 14496   0.164E-03
  82 F= -.14228789E+03 E0= -.14228657E+03  d E =-.776453E-07  mag=    -0.0000
       N       E                     dE             d eps       ncg     rms          rms(c)
DAV:   1    -0.140397259031E+03    0.72265E-05   -0.65616E-06 14304   0.111E-02    0.671E-04
DAV:   2    -0.140397259043E+03   -0.12407E-07   -0.10009E-07 16128   0.164E-03
  83 F= -.14228789E+03 E0= -.14228657E+03  d E =-.122119E-06  mag=    -0.0000
