SC                                      
           1
     4.311940    2.489500    0.000000
    -4.311940    2.489500    0.000000
     0.000000    0.000000   15.000000
   B    C 
     8     8
Direct configuration=     1
   0.68285955  0.98574321  0.10120496
   0.34582221  0.98571217  0.10120830
   0.01425679  0.31713945  0.10120496
   0.01428783  0.65417679  0.10120830
   0.34572526  0.31709865  0.10006198
   0.68290035  0.65427374  0.10006198
   0.68063631  0.31936269  0.08791609
   0.34739245  0.65260655  0.11379388
   0.23572668  0.26419444  0.33449661
   0.40241503  0.09754522  0.33449697
   0.23574612  0.76425288  0.33462817
   0.40242111  0.59757789  0.33457528
   0.73577348  0.26422552  0.33447922
   0.90243818  0.09756082  0.33433640
   0.73580456  0.76427232  0.33449661
   0.90245378  0.59758397  0.33449697
