  16  16   0  16
  0.2065628E+02  0.5044000E-09  0.5044000E-09  0.1500000E-08  0.5000000E-15
  1.000000000000000E-004
  CAR 
 Lattice                                 
      9.74232693    -21.30006784  301     -0.97285092      1.00000000
    -21.300  0.0000E+00  0.0000E+00
    -21.197  0.0000E+00  0.0000E+00
    -21.093  0.0000E+00  0.0000E+00
    -20.990  0.0000E+00  0.0000E+00
    -20.886  0.0000E+00  0.0000E+00
    -20.783  0.0000E+00  0.0000E+00
    -20.679  0.0000E+00  0.0000E+00
    -20.576  0.0000E+00  0.0000E+00
    -20.472  0.5821E-19  0.6023E-20
    -20.369  0.6761E-14  0.6996E-15
    -20.265  0.6699E-10  0.6932E-11
    -20.162  0.9163E-07  0.9489E-08
    -20.058  0.1871E-04  0.1945E-05
    -19.955  0.6288E-03  0.6701E-04
    -19.851  0.4256E-02  0.5074E-03
    -19.748  0.8811E-02  0.1419E-02
    -19.644  0.9811E-02  0.2434E-02
    -19.541  0.1034E-01  0.3504E-02
    -19.438  0.9297E-02  0.4466E-02
    -19.334  0.1135E-01  0.5640E-02
    -19.231  0.8552E-02  0.6525E-02
    -19.127  0.1052E-01  0.7613E-02
    -19.024  0.1181E-01  0.8836E-02
    -18.920  0.7327E-02  0.9594E-02
    -18.817  0.1064E-01  0.1069E-01
    -18.713  0.1272E-01  0.1201E-01
    -18.610  0.8876E-02  0.1293E-01
    -18.506  0.6785E-02  0.1363E-01
    -18.403  0.1349E-01  0.1503E-01
    -18.299  0.1202E-01  0.1627E-01
    -18.196  0.8485E-02  0.1715E-01
    -18.092  0.6981E-02  0.1787E-01
    -17.989  0.1519E-01  0.1944E-01
    -17.885  0.2521E-01  0.2205E-01
    -17.782  0.2296E-01  0.2443E-01
    -17.678  0.2260E-01  0.2677E-01
    -17.575  0.2654E-01  0.2951E-01
    -17.472  0.3457E-01  0.3309E-01
    -17.368  0.4298E-01  0.3754E-01
    -17.265  0.3779E-01  0.4145E-01
    -17.161  0.1561E-01  0.4306E-01
    -17.058  0.9362E-02  0.4403E-01
    -16.954  0.1447E-01  0.4553E-01
    -16.851  0.1356E-01  0.4693E-01
    -16.747  0.1110E-01  0.4808E-01
    -16.644  0.9199E-02  0.4903E-01
    -16.540  0.5474E-02  0.4960E-01
    -16.437  0.8602E-02  0.5049E-01
    -16.333  0.1853E-01  0.5241E-01
    -16.230  0.1270E-01  0.5372E-01
    -16.126  0.9592E-02  0.5471E-01
    -16.023  0.8620E-02  0.5560E-01
    -15.919  0.8409E-02  0.5647E-01
    -15.816  0.7556E-02  0.5726E-01
    -15.712  0.1835E-01  0.5915E-01
    -15.609  0.2676E-01  0.6192E-01
    -15.505  0.2822E-01  0.6484E-01
    -15.402  0.3268E-01  0.6823E-01
    -15.299  0.2842E-01  0.7117E-01
    -15.195  0.2413E-01  0.7366E-01
    -15.092  0.2835E-01  0.7660E-01
    -14.988  0.3713E-01  0.8044E-01
    -14.885  0.3060E-01  0.8361E-01
    -14.781  0.2671E-01  0.8637E-01
    -14.678  0.1991E-01  0.8843E-01
    -14.574  0.2070E-01  0.9057E-01
    -14.471  0.3187E-01  0.9387E-01
    -14.367  0.4116E-01  0.9813E-01
    -14.264  0.2893E-01  0.1011E+00
    -14.160  0.1871E-01  0.1031E+00
    -14.057  0.1523E-01  0.1046E+00
    -13.953  0.1622E-01  0.1063E+00
    -13.850  0.1564E-01  0.1079E+00
    -13.746  0.1108E-01  0.1091E+00
    -13.643  0.6459E-02  0.1097E+00
    -13.539  0.9272E-02  0.1107E+00
    -13.436  0.8950E-02  0.1116E+00
    -13.333  0.1218E-01  0.1129E+00
    -13.229  0.1187E-01  0.1141E+00
    -13.126  0.1267E-01  0.1154E+00
    -13.022  0.1626E-01  0.1171E+00
    -12.919  0.1495E-01  0.1187E+00
    -12.815  0.1686E-01  0.1204E+00
    -12.712  0.1195E-01  0.1216E+00
    -12.608  0.1356E-01  0.1230E+00
    -12.505  0.1063E-01  0.1241E+00
    -12.401  0.8090E-02  0.1250E+00
    -12.298  0.1709E-01  0.1268E+00
    -12.194  0.1388E-01  0.1282E+00
    -12.091  0.1342E-01  0.1296E+00
    -11.987  0.2370E-01  0.1320E+00
    -11.884  0.3260E-01  0.1354E+00
    -11.780  0.3034E-01  0.1385E+00
    -11.677  0.2915E-01  0.1416E+00
    -11.573  0.3227E-01  0.1449E+00
    -11.470  0.3150E-01  0.1482E+00
    -11.367  0.1696E-01  0.1499E+00
    -11.263  0.1854E-01  0.1518E+00
    -11.160  0.2296E-01  0.1542E+00
    -11.056  0.2400E-01  0.1567E+00
    -10.953  0.1289E-01  0.1580E+00
    -10.849  0.1122E-01  0.1592E+00
    -10.746  0.2889E-01  0.1622E+00
    -10.642  0.3666E-01  0.1660E+00
    -10.539  0.1833E-01  0.1679E+00
    -10.435  0.1205E-01  0.1691E+00
    -10.332  0.2240E-01  0.1714E+00
    -10.228  0.3813E-01  0.1754E+00
    -10.125  0.3266E-01  0.1788E+00
    -10.021  0.1754E-01  0.1806E+00
     -9.918  0.1771E-01  0.1824E+00
     -9.814  0.1970E-01  0.1844E+00
     -9.711  0.2338E-01  0.1869E+00
     -9.607  0.1754E-01  0.1887E+00
     -9.504  0.2121E-01  0.1909E+00
     -9.400  0.1991E-01  0.1929E+00
     -9.297  0.1963E-01  0.1950E+00
     -9.194  0.1858E-01  0.1969E+00
     -9.090  0.6450E-02  0.1975E+00
     -8.987  0.9066E-02  0.1985E+00
     -8.883  0.2576E-01  0.2012E+00
     -8.780  0.3778E-01  0.2051E+00
     -8.676  0.3318E-01  0.2085E+00
     -8.573  0.1778E-01  0.2103E+00
     -8.469  0.1675E-01  0.2121E+00
     -8.366  0.1985E-01  0.2141E+00
     -8.262  0.3528E-01  0.2178E+00
     -8.159  0.4688E-01  0.2226E+00
     -8.055  0.4584E-01  0.2274E+00
     -7.952  0.3280E-01  0.2308E+00
     -7.848  0.2721E-01  0.2336E+00
     -7.745  0.2819E-01  0.2365E+00
     -7.641  0.4889E-01  0.2416E+00
     -7.538  0.5618E-01  0.2474E+00
     -7.434  0.4312E-01  0.2518E+00
     -7.331  0.4164E-01  0.2561E+00
     -7.228  0.4820E-01  0.2611E+00
     -7.124  0.4822E-01  0.2661E+00
     -7.021  0.5306E-01  0.2716E+00
     -6.917  0.4535E-01  0.2763E+00
     -6.814  0.3942E-01  0.2804E+00
     -6.710  0.5446E-01  0.2860E+00
     -6.607  0.4811E-01  0.2910E+00
     -6.503  0.4289E-01  0.2954E+00
     -6.400  0.5050E-01  0.3007E+00
     -6.296  0.4814E-01  0.3056E+00
     -6.193  0.4668E-01  0.3105E+00
     -6.089  0.3605E-01  0.3142E+00
     -5.986  0.3401E-01  0.3177E+00
     -5.882  0.4213E-01  0.3221E+00
     -5.779  0.5302E-01  0.3276E+00
     -5.675  0.4138E-01  0.3318E+00
     -5.572  0.3922E-01  0.3359E+00
     -5.468  0.4461E-01  0.3405E+00
     -5.365  0.5471E-01  0.3462E+00
     -5.261  0.5481E-01  0.3518E+00
     -5.158  0.3264E-01  0.3552E+00
     -5.055  0.2314E-01  0.3576E+00
     -4.951  0.3459E-01  0.3612E+00
     -4.848  0.3803E-01  0.3651E+00
     -4.744  0.3487E-01  0.3687E+00
     -4.641  0.3222E-01  0.3721E+00
     -4.537  0.3306E-01  0.3755E+00
     -4.434  0.3742E-01  0.3794E+00
     -4.330  0.4080E-01  0.3836E+00
     -4.227  0.5012E-01  0.3888E+00
     -4.123  0.7952E-01  0.3970E+00
     -4.020  0.7555E-01  0.4048E+00
     -3.916  0.5482E-01  0.4105E+00
     -3.813  0.3699E-01  0.4143E+00
     -3.709  0.2731E-01  0.4171E+00
     -3.606  0.2928E-01  0.4202E+00
     -3.502  0.3437E-01  0.4237E+00
     -3.399  0.4454E-01  0.4283E+00
     -3.295  0.3368E-01  0.4318E+00
     -3.192  0.2800E-01  0.4347E+00
     -3.089  0.3220E-01  0.4381E+00
     -2.985  0.3872E-01  0.4421E+00
     -2.882  0.5229E-01  0.4475E+00
     -2.778  0.3330E-01  0.4509E+00
     -2.675  0.2579E-01  0.4536E+00
     -2.571  0.4038E-01  0.4578E+00
     -2.468  0.4367E-01  0.4623E+00
     -2.364  0.3712E-01  0.4661E+00
     -2.261  0.4338E-01  0.4706E+00
     -2.157  0.3871E-01  0.4746E+00
     -2.054  0.1388E-01  0.4761E+00
     -1.950  0.6794E-02  0.4768E+00
     -1.847  0.1576E-01  0.4784E+00
     -1.743  0.1243E-01  0.4797E+00
     -1.640  0.8781E-02  0.4806E+00
     -1.536  0.1473E-01  0.4821E+00
     -1.433  0.1186E-01  0.4833E+00
     -1.329  0.6046E-02  0.4840E+00
     -1.226  0.1737E-02  0.4841E+00
     -1.123  0.1867E-03  0.4842E+00
     -1.019  0.7389E-03  0.4842E+00
     -0.916  0.4447E-02  0.4847E+00
     -0.812  0.7625E-02  0.4855E+00
     -0.709  0.8714E-02  0.4864E+00
     -0.605  0.1819E-01  0.4883E+00
     -0.502  0.2149E-01  0.4905E+00
     -0.398  0.1876E-01  0.4924E+00
     -0.295  0.2435E-01  0.4950E+00
     -0.191  0.2352E-01  0.4974E+00
     -0.088  0.1555E-01  0.4990E+00
      0.016  0.6722E-02  0.4997E+00
      0.119  0.2528E-02  0.5000E+00
      0.223  0.2669E-02  0.5002E+00
      0.326  0.1109E-01  0.5014E+00
      0.430  0.1975E-01  0.5034E+00
      0.533  0.1627E-01  0.5051E+00
      0.637  0.7681E-02  0.5059E+00
      0.740  0.1268E-01  0.5072E+00
      0.844  0.2321E-01  0.5096E+00
      0.947  0.2569E-01  0.5123E+00
      1.050  0.2315E-01  0.5147E+00
      1.154  0.1119E-01  0.5158E+00
      1.257  0.9311E-02  0.5168E+00
      1.361  0.1087E-01  0.5179E+00
      1.464  0.9952E-02  0.5189E+00
      1.568  0.1194E-01  0.5202E+00
      1.671  0.2084E-01  0.5223E+00
      1.775  0.2025E-01  0.5244E+00
      1.878  0.8465E-02  0.5253E+00
      1.982  0.5055E-02  0.5258E+00
      2.085  0.1291E-01  0.5272E+00
      2.189  0.2945E-01  0.5302E+00
      2.292  0.3082E-01  0.5334E+00
      2.396  0.2341E-01  0.5358E+00
      2.499  0.2310E-01  0.5382E+00
      2.603  0.2449E-01  0.5407E+00
      2.706  0.2241E-01  0.5431E+00
      2.810  0.1617E-01  0.5447E+00
      2.913  0.1434E-01  0.5462E+00
      3.016  0.2427E-01  0.5487E+00
      3.120  0.2721E-01  0.5515E+00
      3.223  0.2725E-01  0.5544E+00
      3.327  0.2559E-01  0.5570E+00
      3.430  0.1601E-01  0.5587E+00
      3.534  0.1936E-01  0.5607E+00
      3.637  0.2632E-01  0.5634E+00
      3.741  0.2051E-01  0.5655E+00
      3.844  0.2115E-01  0.5677E+00
      3.948  0.3433E-01  0.5713E+00
      4.051  0.3520E-01  0.5749E+00
      4.155  0.2505E-01  0.5775E+00
      4.258  0.3008E-01  0.5806E+00
      4.362  0.3507E-01  0.5842E+00
      4.465  0.2731E-01  0.5871E+00
      4.569  0.2720E-01  0.5899E+00
      4.672  0.2607E-01  0.5926E+00
      4.776  0.3207E-01  0.5959E+00
      4.879  0.3585E-01  0.5996E+00
      4.982  0.3978E-01  0.6037E+00
      5.086  0.3612E-01  0.6075E+00
      5.189  0.3249E-01  0.6108E+00
      5.293  0.2874E-01  0.6138E+00
      5.396  0.3592E-01  0.6175E+00
      5.500  0.4001E-01  0.6217E+00
      5.603  0.3089E-01  0.6248E+00
      5.707  0.2911E-01  0.6279E+00
      5.810  0.3571E-01  0.6316E+00
      5.914  0.4524E-01  0.6362E+00
      6.017  0.4823E-01  0.6412E+00
      6.121  0.5703E-01  0.6471E+00
      6.224  0.5414E-01  0.6527E+00
      6.328  0.4994E-01  0.6579E+00
      6.431  0.4362E-01  0.6624E+00
      6.535  0.3390E-01  0.6659E+00
      6.638  0.4966E-01  0.6711E+00
      6.742  0.6708E-01  0.6780E+00
      6.845  0.5872E-01  0.6841E+00
      6.949  0.5847E-01  0.6901E+00
      7.052  0.6688E-01  0.6970E+00
      7.155  0.6471E-01  0.7037E+00
      7.259  0.5565E-01  0.7095E+00
      7.362  0.7347E-01  0.7171E+00
      7.466  0.7260E-01  0.7246E+00
      7.569  0.5067E-01  0.7299E+00
      7.673  0.5163E-01  0.7352E+00
      7.776  0.5410E-01  0.7408E+00
      7.880  0.3826E-01  0.7448E+00
      7.983  0.2582E-01  0.7474E+00
      8.087  0.1353E-01  0.7488E+00
      8.190  0.4028E-02  0.7492E+00
      8.294  0.2756E-02  0.7495E+00
      8.397  0.3399E-02  0.7499E+00
      8.501  0.1050E-02  0.7500E+00
      8.604  0.5151E-04  0.7500E+00
      8.708  0.3544E-06  0.7500E+00
      8.811  0.3181E-09  0.7500E+00
      8.915  0.3576E-13  0.7500E+00
      9.018  0.0000E+00  0.7500E+00
      9.121  0.0000E+00  0.7500E+00
      9.225  0.0000E+00  0.7500E+00
      9.328  0.0000E+00  0.7500E+00
      9.432  0.0000E+00  0.7500E+00
      9.535  0.0000E+00  0.7500E+00
      9.639  0.0000E+00  0.7500E+00
      9.742  0.0000E+00  0.7500E+00
