 vasp.6.3.2 27Jun22 (build Dec 22 2022 13:13:19) complex                        
  
 executed on             LinuxIFC date 2023.08.26  03:27:39
 running   24 mpi-ranks, with    1 threads/rank
 distrk:  each k-point on   24 cores,    1 groups
 distr:  one band on NCORE=   1 cores,   24 groups


--------------------------------------------------------------------------------------------------------


 INCAR:
   SYSTEM = Lattice
   ISTART = 0
   ICHARG = 2
   PREC = Accurate
   ENCUT = 450
   LCHARG = .FALSE.
   LWAVE = .FALSE.
   ALGO = Normal
   NELM = 64
   EDIFF = 1E-6
   EDIFFG = -1E-3
   SIGMA = 0.1
   ISMEAR = 0
   NSW = 256
   IBRION = 2
   POTIM = .5
   ISIF = 2
   GGA = PE
   IVDW = 12

 POTCAR:    PAW_PBE B 06Sep2000                   
 POTCAR:    PAW_PBE C 08Apr2002                   
 POTCAR:    PAW_PBE B 06Sep2000                   
   SHA256 =  a32ced30f5ae56fd4d10b4325ff17eb3e4e38ee0f4288bc219fb012fddfa6e97 B/POTCAR              
   COPYR  = (c) Copyright 06Sep2000 Georg Kresse                                                    
   COPYR  = This file is part of the software VASP. Any use, copying, and all other rights are regul
   COPYR  = If you do not have a valid VASP license, you may not use, copy or distribute this file. 
   VRHFIN =B: s2p1                                                                                  
   LEXCH  = PE                                                                                      
   EATOM  =    71.1703 eV,    5.2309 Ry                                                             
                                                                                                    
   TITEL  = PAW_PBE B 06Sep2000                                                                     
   LULTRA =        F    use ultrasoft PP ?                                                          
   IUNSCR =        1    unscreen: 0-lin 1-nonlin 2-no                                               
   RPACOR =    1.200    partial core radius                                                         
   POMASS =   10.811; ZVAL   =    3.000    mass and valenz                                          
   RCORE  =    1.700    outmost cutoff radius                                                       
   RWIGS  =    1.710; RWIGS  =    0.905    wigner-seitz radius (au A)                               
   ENMAX  =  318.614; ENMIN  =  238.960 eV                                                          
   ICORE  =        2    local potential                                                             
   LCOR   =        T    correct aug charges                                                         
   LPAW   =        T    paw PP                                                                      
   EAUG   =  535.514                                                                                
   DEXC   =    0.000                                                                                
   RMAX   =    1.732    core radius for proj-oper                                                   
   RAUG   =    1.300    factor for augmentation sphere                                              
   RDEP   =    1.757    radius for radial grids                                                     
   RDEPT  =    1.436    core radius for aug-charge                                                  
                                                                                                    
   Atomic configuration                                                                             
    4 entries                                                                                       
     n  l   j            E        occ.                                                              
     1  0  0.50      -180.5896   2.0000                                                             
     2  0  0.50        -9.4431   2.0000                                                             
     2  1  0.50        -3.6068   1.0000                                                             
     3  2  1.50        -4.0817   0.0000                                                             
   Description                                                                                      
     l       E           TYP  RCUT    TYP  RCUT                                                     
     0     -9.4430752     23  1.500                                                                 
     0      0.8675899     23  1.500                                                                 
     1     -3.6067955     23  1.700                                                                 
     1      6.1086146     23  1.700                                                                 
     2     -4.0817478      7  1.700                                                                 
  local pseudopotential read in
  partial core-charges read in
  partial kinetic energy density read in
  atomic valenz-charges read in
  non local Contribution for L=           0  read in
    real space projection operators read in
  non local Contribution for L=           0  read in
    real space projection operators read in
  non local Contribution for L=           1  read in
    real space projection operators read in
  non local Contribution for L=           1  read in
    real space projection operators read in
    PAW grid and wavefunctions read in
 
   number of l-projection  operators is LMAX  =           4
   number of lm-projection operators is LMMAX =           8
 
 POTCAR:    PAW_PBE C 08Apr2002                   
   SHA256 =  253f7b50bb8d59471dbedb8285d89021f4a42ed1a2c5d38a03a736e69125dd95 C/POTCAR              
   COPYR  = (c) Copyright 08Apr2002 Georg Kresse                                                    
   COPYR  = This file is part of the software VASP. Any use, copying, and all other rights are regul
   COPYR  = If you do not have a valid VASP license, you may not use, copy or distribute this file. 
   VRHFIN =C: s2p2                                                                                  
   LEXCH  = PE                                                                                      
   EATOM  =   147.1560 eV,   10.8157 Ry                                                             
                                                                                                    
   TITEL  = PAW_PBE C 08Apr2002                                                                     
   LULTRA =        F    use ultrasoft PP ?                                                          
   IUNSCR =        1    unscreen: 0-lin 1-nonlin 2-no                                               
   RPACOR =    1.200    partial core radius                                                         
   POMASS =   12.011; ZVAL   =    4.000    mass and valenz                                          
   RCORE  =    1.500    outmost cutoff radius                                                       
   RWIGS  =    1.630; RWIGS  =    0.863    wigner-seitz radius (au A)                               
   ENMAX  =  400.000; ENMIN  =  300.000 eV                                                          
   ICORE  =        2    local potential                                                             
   LCOR   =        T    correct aug charges                                                         
   LPAW   =        T    paw PP                                                                      
   EAUG   =  644.873                                                                                
   DEXC   =    0.000                                                                                
   RMAX   =    1.529    core radius for proj-oper                                                   
   RAUG   =    1.300    factor for augmentation sphere                                              
   RDEP   =    1.501    radius for radial grids                                                     
   RDEPT  =    1.300    core radius for aug-charge                                                  
                                                                                                    
   Atomic configuration                                                                             
    4 entries                                                                                       
     n  l   j            E        occ.                                                              
     1  0  0.50      -273.3789   2.0000                                                             
     2  0  0.50       -13.7508   2.0000                                                             
     2  1  0.50        -5.2854   2.0000                                                             
     3  2  1.50        -5.4423   0.0000                                                             
   Description                                                                                      
     l       E           TYP  RCUT    TYP  RCUT                                                     
     0    -13.7508458     23  1.200                                                                 
     0     -8.2022199     23  1.200                                                                 
     1     -5.2854383     23  1.500                                                                 
     1     34.0145650     23  1.500                                                                 
     2     -5.4423304      7  1.500                                                                 
  local pseudopotential read in
  partial core-charges read in
  partial kinetic energy density read in
  atomic valenz-charges read in
  non local Contribution for L=           0  read in
    real space projection operators read in
  non local Contribution for L=           0  read in
    real space projection operators read in
  non local Contribution for L=           1  read in
    real space projection operators read in
  non local Contribution for L=           1  read in
    real space projection operators read in
    PAW grid and wavefunctions read in
 
   number of l-projection  operators is LMAX  =           4
   number of lm-projection operators is LMMAX =           8
 
  PAW_PBE B 06Sep2000                   :
 energy of atom  1       EATOM=  -71.1703
 kinetic energy error for atom=    0.0015 (will be added to EATOM!!)
  PAW_PBE C 08Apr2002                   :
 energy of atom  2       EATOM= -147.1560
 kinetic energy error for atom=    0.0116 (will be added to EATOM!!)
 
 
 POSCAR: Graphene-B4C3 Top with lattice parameter
  positions in direct lattice
  No initial velocities read in
 exchange correlation table for  LEXCH =        8
   RHO(1)=    0.500       N(1)  =     2000
   RHO(2)=  100.500       N(2)  =     4000

 VTST: version 4.2, (08/11/21)

 CHAIN: initializing optimizer
 
 OPT: Using VASP Conjugate-Gradient optimizer
 CHAIN: Read ICHAIN            0
 
 POSCAR: Graphene-B4C3 Top with lattice parameter
  positions in direct lattice
  No initial velocities read in
 


--------------------------------------------------------------------------------------------------------


 ion  position               nearest neighbor table
   1  0.004  0.003  0.120-   7 1.60   6 1.60   5 1.60   4 1.74   2 1.74   3 1.74
   2  0.357  0.003  0.097-   6 1.57   5 1.64   7 1.64   1 1.74
   3  0.004  0.356  0.097-   7 1.57   5 1.64   6 1.64   1 1.74
   4  0.651  0.650  0.097-   5 1.57   6 1.64   7 1.64   1 1.74
   5  0.328  0.327  0.100-   4 1.57   1 1.60   3 1.64   2 1.64
   6  0.680  0.003  0.100-   2 1.57   1 1.60   4 1.64   3 1.64
   7  0.004  0.679  0.100-   3 1.57   1 1.60   4 1.64   2 1.64
   8  1.000  0.500  0.333-  11 1.40  13 1.40   9 1.40
   9  0.167  0.333  0.333-  10 1.40  12 1.40   8 1.40
  10  1.000  1.000  0.333-   9 1.40  15 1.40  11 1.40
  11  0.167  0.833  0.333-   8 1.40  14 1.40  10 1.40
  12  0.500  0.500  0.333-   9 1.40  15 1.40  13 1.40
  13  0.667  0.333  0.333-   8 1.40  14 1.40  12 1.40
  14  0.500  1.000  0.333-  11 1.40  13 1.40  15 1.40
  15  0.667  0.833  0.333-  10 1.40  12 1.40  14 1.40
 
  LATTYP: Found a hexagonal cell.
 ALAT       =     4.8460000000
 C/A-ratio  =     3.0953363599
  
  Lattice vectors:
  
 A1 = (   4.1967591067,   2.4230000000,   0.0000000000)
 A2 = (  -4.1967591067,   2.4230000000,   0.0000000000)
 A3 = (   0.0000000000,   0.0000000000,  15.0000000000)


Analysis of symmetry for initial positions (statically):
=====================================================================
 Subroutine PRICEL returns:
 Original cell was already a primitive cell.
 

 Routine SETGRP: Setting up the symmetry group for a 
 hexagonal supercell.


 Subroutine GETGRP returns: Found  1 space group operations
 (whereof  1 operations were pure point group operations)
 out of a pool of 24 trial point group operations.


The static configuration has the point symmetry C_1 .


Analysis of symmetry for dynamics (positions and initial velocities):
=====================================================================
 Subroutine PRICEL returns:
 Original cell was already a primitive cell.
 

 Routine SETGRP: Setting up the symmetry group for a 
 hexagonal supercell.


 Subroutine GETGRP returns: Found  1 space group operations
 (whereof  1 operations were pure point group operations)
 out of a pool of 24 trial point group operations.


The dynamic configuration has the point symmetry C_1 .


 Subroutine INISYM returns: Found  1 space group operations
 (whereof  1 operations are pure point group operations),
 and found     1 'primitive' translations


----------------------------------------------------------------------------------------

                                     Primitive cell                                     

  volume of cell :     305.0624

  direct lattice vectors                    reciprocal lattice vectors
     4.196759107  2.423000000  0.000000000     0.119139552  0.206355757  0.000000000
    -4.196759107  2.423000000  0.000000000    -0.119139552  0.206355757  0.000000000
     0.000000000  0.000000000 15.000000000     0.000000000  0.000000000  0.066666667

  length of vectors
     4.846000000  4.846000000 15.000000000     0.238279104  0.238279104  0.066666667

  position of ions in fractional coordinates (direct lattice)
     0.004153607  0.002672102  0.120341338
     0.356953351  0.002855031  0.097488934
     0.004238577  0.355506992  0.097492564
     0.651422953  0.650065570  0.097476879
     0.328086463  0.326719375  0.100305078
     0.680277748  0.002780852  0.100275621
     0.004165300  0.678838078  0.100265587
     0.999999333  0.499999667  0.333333333
     0.166666333  0.333332667  0.333333333
     0.999999333  0.999999667  0.333333333
     0.166666333  0.833332667  0.333333333
     0.499999333  0.499999667  0.333333333
     0.666666333  0.333332667  0.333333333
     0.499999333  0.999999667  0.333333333
     0.666666333  0.833332667  0.333333333

  ion indices of the primitive-cell ions
   primitive index   ion index
                 1           1
                 2           2
                 3           3
                 4           4
                 5           5
                 6           6
                 7           7
                 8           8
                 9           9
                10          10
                11          11
                12          12
                13          13
                14          14
                15          15

----------------------------------------------------------------------------------------

 
 
 KPOINTS: k-points                                

Automatic generation of k-mesh.
 Grid dimensions read from file:
 generate k-points for:   12   12    1

 Generating k-lattice:

  Cartesian coordinates                     Fractional coordinates (reciprocal lattice)
     0.009928296  0.017196313  0.000000000     0.083333333 -0.000000000  0.000000000
    -0.009928296  0.017196313  0.000000000    -0.000000000  0.083333333  0.000000000
     0.000000000  0.000000000  0.066666667     0.000000000  0.000000000  1.000000000

  Length of vectors
     0.019856592  0.019856592  0.066666667

  Shift w.r.t. Gamma in fractional coordinates (k-lattice)
     0.000000000  0.000000000  0.000000000

 
 Subroutine IBZKPT returns following result:
 ===========================================
 
 Found     74 irreducible k-points:
 
 Following reciprocal coordinates:
            Coordinates               Weight
  0.000000  0.000000  0.000000      1.000000
  0.083333  0.000000  0.000000      2.000000
  0.000000  0.083333  0.000000      2.000000
 -0.083333  0.083333  0.000000      2.000000
  0.166667  0.000000  0.000000      2.000000
 -0.000000  0.166667  0.000000      2.000000
 -0.166667  0.166667  0.000000      2.000000
  0.250000  0.000000  0.000000      2.000000
  0.000000  0.250000  0.000000      2.000000
 -0.250000  0.250000  0.000000      2.000000
  0.333333  0.000000  0.000000      2.000000
  0.000000  0.333333  0.000000      2.000000
 -0.333333  0.333333  0.000000      2.000000
  0.416667  0.000000  0.000000      2.000000
  0.000000  0.416667  0.000000      2.000000
 -0.416667  0.416667  0.000000      2.000000
  0.500000  0.000000  0.000000      1.000000
  0.000000  0.500000  0.000000      1.000000
  0.500000  0.500000  0.000000      1.000000
  0.083333  0.083333  0.000000      2.000000
 -0.083333  0.166667  0.000000      2.000000
 -0.166667  0.083333  0.000000      2.000000
  0.166667  0.083333  0.000000      2.000000
 -0.083333  0.250000  0.000000      2.000000
 -0.250000  0.166667  0.000000      2.000000
 -0.166667  0.250000  0.000000      2.000000
  0.083333  0.166667  0.000000      2.000000
  0.250000 -0.083333  0.000000      2.000000
  0.250000  0.083333  0.000000      2.000000
 -0.083333  0.333333  0.000000      2.000000
 -0.333333  0.250000  0.000000      2.000000
 -0.250000  0.333333  0.000000      2.000000
  0.083333  0.250000  0.000000      2.000000
  0.333333 -0.083333  0.000000      2.000000
  0.333333  0.083333  0.000000      2.000000
 -0.083333  0.416667  0.000000      2.000000
 -0.416667  0.333333  0.000000      2.000000
 -0.333333  0.416667  0.000000      2.000000
  0.083333  0.333333  0.000000      2.000000
  0.416667 -0.083333  0.000000      2.000000
  0.416667  0.083333  0.000000      2.000000
 -0.083333  0.500000  0.000000      2.000000
  0.500000  0.416667  0.000000      2.000000
 -0.416667  0.500000  0.000000      2.000000
  0.083333  0.416667  0.000000      2.000000
  0.500000 -0.083333  0.000000      2.000000
  0.166667  0.166667  0.000000      2.000000
 -0.166667  0.333333  0.000000      2.000000
 -0.333333  0.166667  0.000000      2.000000
  0.250000  0.166667  0.000000      2.000000
 -0.166667  0.416667  0.000000      2.000000
 -0.416667  0.250000  0.000000      2.000000
 -0.250000  0.416667  0.000000      2.000000
  0.166667  0.250000  0.000000      2.000000
  0.416667 -0.166667  0.000000      2.000000
  0.333333  0.166667  0.000000      2.000000
 -0.166667  0.500000  0.000000      2.000000
  0.500000  0.333333  0.000000      2.000000
 -0.333333  0.500000  0.000000      2.000000
  0.166667  0.333333  0.000000      2.000000
  0.500000 -0.166667  0.000000      2.000000
  0.416667  0.166667  0.000000      2.000000
 -0.166667 -0.416667  0.000000      2.000000
  0.416667  0.416667  0.000000      2.000000
  0.250000  0.250000  0.000000      2.000000
 -0.250000  0.500000  0.000000      2.000000
  0.500000  0.250000  0.000000      2.000000
  0.333333  0.250000  0.000000      2.000000
 -0.250000 -0.416667  0.000000      2.000000
  0.416667  0.333333  0.000000      2.000000
 -0.333333 -0.416667  0.000000      2.000000
  0.250000  0.333333  0.000000      2.000000
 -0.416667 -0.250000  0.000000      2.000000
  0.333333  0.333333  0.000000      2.000000
 
 Following cartesian coordinates:
            Coordinates               Weight
  0.000000  0.000000  0.000000      1.000000
  0.009928  0.017196  0.000000      2.000000
 -0.009928  0.017196  0.000000      2.000000
 -0.019857  0.000000  0.000000      2.000000
  0.019857  0.034393  0.000000      2.000000
 -0.019857  0.034393  0.000000      2.000000
 -0.039713 -0.000000  0.000000      2.000000
  0.029785  0.051589  0.000000      2.000000
 -0.029785  0.051589  0.000000      2.000000
 -0.059570 -0.000000  0.000000      2.000000
  0.039713  0.068785  0.000000      2.000000
 -0.039713  0.068785  0.000000      2.000000
 -0.079426  0.000000  0.000000      2.000000
  0.049641  0.085982  0.000000      2.000000
 -0.049641  0.085982  0.000000      2.000000
 -0.099283 -0.000000  0.000000      2.000000
  0.059570  0.103178  0.000000      1.000000
 -0.059570  0.103178  0.000000      1.000000
  0.000000  0.206356  0.000000      1.000000
  0.000000  0.034393  0.000000      2.000000
 -0.029785  0.017196  0.000000      2.000000
 -0.029785 -0.017196  0.000000      2.000000
  0.009928  0.051589  0.000000      2.000000
 -0.039713  0.034393  0.000000      2.000000
 -0.049641 -0.017196  0.000000      2.000000
 -0.049641  0.017196  0.000000      2.000000
 -0.009928  0.051589  0.000000      2.000000
  0.039713  0.034393  0.000000      2.000000
  0.019857  0.068785  0.000000      2.000000
 -0.049641  0.051589  0.000000      2.000000
 -0.069498 -0.017196  0.000000      2.000000
 -0.069498  0.017196  0.000000      2.000000
 -0.019857  0.068785  0.000000      2.000000
  0.049641  0.051589  0.000000      2.000000
  0.029785  0.085982  0.000000      2.000000
 -0.059570  0.068785  0.000000      2.000000
 -0.089355 -0.017196  0.000000      2.000000
 -0.089355  0.017196  0.000000      2.000000
 -0.029785  0.085982  0.000000      2.000000
  0.059570  0.068785  0.000000      2.000000
  0.039713  0.103178  0.000000      2.000000
 -0.069498  0.085982  0.000000      2.000000
  0.009928  0.189159  0.000000      2.000000
 -0.109211  0.017196  0.000000      2.000000
 -0.039713  0.103178  0.000000      2.000000
  0.069498  0.085982  0.000000      2.000000
  0.000000  0.068785  0.000000      2.000000
 -0.059570  0.034393  0.000000      2.000000
 -0.059570 -0.034393  0.000000      2.000000
  0.009928  0.085982  0.000000      2.000000
 -0.069498  0.051589  0.000000      2.000000
 -0.079426 -0.034393  0.000000      2.000000
 -0.079426  0.034393  0.000000      2.000000
 -0.009928  0.085982  0.000000      2.000000
  0.069498  0.051589  0.000000      2.000000
  0.019857  0.103178  0.000000      2.000000
 -0.079426  0.068785  0.000000      2.000000
  0.019857  0.171963  0.000000      2.000000
 -0.099283  0.034393  0.000000      2.000000
 -0.019857  0.103178  0.000000      2.000000
  0.079426  0.068785  0.000000      2.000000
  0.029785  0.120374  0.000000      2.000000
  0.029785 -0.120374  0.000000      2.000000
  0.000000  0.171963  0.000000      2.000000
  0.000000  0.103178  0.000000      2.000000
 -0.089355  0.051589  0.000000      2.000000
  0.029785  0.154767  0.000000      2.000000
  0.009928  0.120374  0.000000      2.000000
  0.019857 -0.137571  0.000000      2.000000
  0.009928  0.154767  0.000000      2.000000
  0.009928 -0.154767  0.000000      2.000000
 -0.009928  0.120374  0.000000      2.000000
 -0.019857 -0.137571  0.000000      2.000000
  0.000000  0.137571  0.000000      2.000000
 


--------------------------------------------------------------------------------------------------------




 Dimension of arrays:
   k-points           NKPTS =     74   k-points in BZ     NKDIM =     74   number of bands    NBANDS=     48
   number of dos      NEDOS =    301   number of ions     NIONS =     15
   non local maximal  LDIM  =      4   non local SUM 2l+1 LMDIM =      8
   total plane-waves  NPLWV = 139968
   max r-space proj   IRMAX =      1   max aug-charges    IRDMAX=   7354
   dimension x,y,z NGX =    36 NGY =   36 NGZ =  108
   dimension x,y,z NGXF=    72 NGYF=   72 NGZF=  216
   support grid    NGXF=    72 NGYF=   72 NGZF=  216
   ions per type =               4  11
   NGX,Y,Z   is equivalent  to a cutoff of  12.35, 12.35, 11.97 a.u.
   NGXF,Y,Z  is equivalent  to a cutoff of  24.70, 24.70, 23.94 a.u.

 SYSTEM =  Lattice                                 
 POSCAR =  Graphene-B4C3 Top with lattice parameter

 Startparameter for this run:
   NWRITE =      2    write-flag & timer
   PREC   = accura    normal or accurate (medium, high low for compatibility)
   ISTART =      0    job   : 0-new  1-cont  2-samecut
   ICHARG =      2    charge: 1-file 2-atom 10-const
   ISPIN  =      1    spin polarized calculation?
   LNONCOLLINEAR =      F non collinear calculations
   LSORBIT =      F    spin-orbit coupling
   INIWAV =      1    electr: 0-lowe 1-rand  2-diag
   LASPH  =      F    aspherical Exc in radial PAW
 Electronic Relaxation 1
   ENCUT  =  450.0 eV  33.07 Ry    5.75 a.u.   8.38  8.38 25.95*2*pi/ulx,y,z
   ENINI  =  450.0     initial cutoff
   ENAUG  =  644.9 eV  augmentation charge cutoff
   NELM   =     64;   NELMIN=  2; NELMDL= -5     # of ELM steps 
   EDIFF  = 0.1E-05   stopping-criterion for ELM
   LREAL  =      F    real-space projection
   NLSPLINE    = F    spline interpolate recip. space projectors
   LCOMPAT=      F    compatible to vasp.4.4
   GGA_COMPAT  = T    GGA compatible to vasp.4.4-vasp.4.6
   LMAXPAW     = -100 max onsite density
   LMAXMIX     =    2 max onsite mixed and CHGCAR
   VOSKOWN=      0    Vosko Wilk Nusair interpolation
   ROPT   =    0.00000   0.00000
 Ionic relaxation
   EDIFFG = -.1E-02   stopping-criterion for IOM
   NSW    =    256    number of steps for IOM
   NBLOCK =      1;   KBLOCK =    256    inner block; outer block 
   IBRION =      2    ionic relax: 0-MD 1-quasi-New 2-CG
   NFREE  =      1    steps in history (QN), initial steepest desc. (CG)
   ISIF   =      2    stress and relaxation
   IWAVPR =     11    prediction:  0-non 1-charg 2-wave 3-comb
   ISYM   =      2    0-nonsym 1-usesym 2-fastsym
   LCORR  =      T    Harris-Foulkes like correction to forces

   POTIM  = 0.5000    time-step for ionic-motion
   TEIN   =    0.0    initial temperature
   TEBEG  =    0.0;   TEEND  =   0.0 temperature during run
   SMASS  =  -3.00    Nose mass-parameter (am)
   estimated Nose-frequenzy (Omega)   =  0.10E-29 period in steps = 0.13E+47 mass=  -0.537E-27a.u.
   SCALEE = 1.0000    scale energy and forces
   NPACO  =    256;   APACO  = 10.0  distance and # of slots for P.C.
   PSTRESS=    0.0 pullay stress

  Mass of Ions in am
   POMASS =  10.81 12.01
  Ionic Valenz
   ZVAL   =   3.00  4.00
  Atomic Wigner-Seitz radii
   RWIGS  =  -1.00 -1.00
  virtual crystal weights 
   VCA    =   1.00  1.00
   NELECT =      56.0000    total number of electrons
   NUPDOWN=      -1.0000    fix difference up-down

 DOS related values:
   EMIN   =  10.00;   EMAX   =-10.00  energy-range for DOS
   EFERMI =   0.00
   ISMEAR =     0;   SIGMA  =   0.10  broadening in eV -4-tet -1-fermi 0-gaus

 Electronic relaxation 2 (details)
   IALGO  =     38    algorithm
   LDIAG  =      T    sub-space diagonalisation (order eigenvalues)
   LSUBROT=      F    optimize rotation matrix (better conditioning)
   TURBO    =      0    0=normal 1=particle mesh
   IRESTART =      0    0=no restart 2=restart with 2 vectors
   NREBOOT  =      0    no. of reboots
   NMIN     =      0    reboot dimension
   EREF     =   0.00    reference energy to select bands
   IMIX   =      4    mixing-type and parameters
     AMIX     =   0.40;   BMIX     =  1.00
     AMIX_MAG =   1.60;   BMIX_MAG =  1.00
     AMIN     =   0.10
     WC   =   100.;   INIMIX=   1;  MIXPRE=   1;  MAXMIX= -45

 Intra band minimization:
   WEIMIN = 0.0010     energy-eigenvalue tresh-hold
   EBREAK =  0.52E-08  absolut break condition
   DEPER  =   0.30     relativ break condition  

   TIME   =   0.40     timestep for ELM

  volume/ion in A,a.u.               =      20.34       137.24
  Fermi-wavevector in a.u.,A,eV,Ry     =   0.930411  1.758221 11.778070  0.865664
  Thomas-Fermi vector in A             =   2.056796
 
 Write flags
   LWAVE        =      F    write WAVECAR
   LDOWNSAMPLE  =      F    k-point downsampling of WAVECAR
   LCHARG       =      F    write CHGCAR
   LVTOT        =      F    write LOCPOT, total local potential
   LVHAR        =      F    write LOCPOT, Hartree potential only
   LELF         =      F    write electronic localiz. function (ELF)
   LORBIT       =      0    0 simple, 1 ext, 2 COOP (PROOUT), +10 PAW based schemes


 Dipole corrections
   LMONO  =      F    monopole corrections only (constant potential shift)
   LDIPOL =      F    correct potential (dipole corrections)
   IDIPOL =      0    1-x, 2-y, 3-z, 4-all directions 
   EPSILON=  1.0000000 bulk dielectric constant

 Exchange correlation treatment:
   GGA     =    PE    GGA type
   LEXCH   =     8    internal setting for exchange type
   LIBXC   =     F    Libxc                    
   VOSKOWN =     0    Vosko Wilk Nusair interpolation
   LHFCALC =     F    Hartree Fock is set to
   LHFONE  =     F    Hartree Fock one center treatment
   AEXX    =    0.0000 exact exchange contribution

 Linear response parameters
   LEPSILON=     F    determine dielectric tensor
   LRPA    =     F    only Hartree local field effects (RPA)
   LNABLA  =     F    use nabla operator in PAW spheres
   LVEL    =     F    velocity operator in full k-point grid
   CSHIFT  =0.1000    complex shift for real part using Kramers Kronig
   OMEGAMAX=  -1.0    maximum frequency
   DEG_THRESHOLD= 0.2000000E-02 threshold for treating states as degnerate
   RTIME   =   -0.100 relaxation time in fs
  (WPLASMAI=    0.000 imaginary part of plasma frequency in eV, 0.658/RTIME)
   DFIELD  = 0.0000000 0.0000000 0.0000000 field for delta impulse in time
 
  Optional k-point grid parameters
   LKPOINTS_OPT  =     F    use optional k-point grid
   KPOINTS_OPT_MODE=     1    mode for optional k-point grid
 
 Orbital magnetization related:
   ORBITALMAG=     F  switch on orbital magnetization
   LCHIMAG   =     F  perturbation theory with respect to B field
   DQ        =  0.001000  dq finite difference perturbation B field
   LLRAUG    =     F  two centre corrections for induced B field



--------------------------------------------------------------------------------------------------------


 conjugate gradient relaxation of ions
 charge density and potential will be updated during run
 non-spin polarized calculation
 Variant of blocked Davidson
 Davidson routine will perform the subspace rotation
 perform sub-space diagonalisation
    after iterative eigenvector-optimisation
 modified Broyden-mixing scheme, WC =      100.0
 initial mixing is a Kerker type mixing with AMIX =  0.4000 and BMIX =      1.0000
 Hartree-type preconditioning will be used
 using additional bands           20
 reciprocal scheme for non local part
 use partial core corrections
 calculate Harris-corrections to forces 
   (improved forces if not selfconsistent)
 use gradient corrections 
 use of overlap-Matrix (Vanderbilt PP)
 Gauss-broadening in eV      SIGMA  =   0.10


--------------------------------------------------------------------------------------------------------


  energy-cutoff  :      450.00
  volume of cell :      305.06
      direct lattice vectors                 reciprocal lattice vectors
     4.196759107  2.423000000  0.000000000     0.119139552  0.206355757  0.000000000
    -4.196759107  2.423000000  0.000000000    -0.119139552  0.206355757  0.000000000
     0.000000000  0.000000000 15.000000000     0.000000000  0.000000000  0.066666667

  length of vectors
     4.846000000  4.846000000 15.000000000     0.238279104  0.238279104  0.066666667


 
 k-points in units of 2pi/SCALE and weight: k-points                                
   0.00000000  0.00000000  0.00000000       0.007
   0.00992830  0.01719631  0.00000000       0.014
  -0.00992830  0.01719631  0.00000000       0.014
  -0.01985659  0.00000000  0.00000000       0.014
   0.01985659  0.03439263  0.00000000       0.014
  -0.01985659  0.03439263  0.00000000       0.014
  -0.03971318 -0.00000000  0.00000000       0.014
   0.02978489  0.05158894  0.00000000       0.014
  -0.02978489  0.05158894  0.00000000       0.014
  -0.05956978 -0.00000000  0.00000000       0.014
   0.03971318  0.06878525  0.00000000       0.014
  -0.03971318  0.06878525  0.00000000       0.014
  -0.07942637  0.00000000  0.00000000       0.014
   0.04964148  0.08598157  0.00000000       0.014
  -0.04964148  0.08598157  0.00000000       0.014
  -0.09928296 -0.00000000  0.00000000       0.014
   0.05956978  0.10317788  0.00000000       0.007
  -0.05956978  0.10317788  0.00000000       0.007
   0.00000000  0.20635576  0.00000000       0.007
   0.00000000  0.03439263  0.00000000       0.014
  -0.02978489  0.01719631  0.00000000       0.014
  -0.02978489 -0.01719631  0.00000000       0.014
   0.00992830  0.05158894  0.00000000       0.014
  -0.03971318  0.03439263  0.00000000       0.014
  -0.04964148 -0.01719631  0.00000000       0.014
  -0.04964148  0.01719631  0.00000000       0.014
  -0.00992830  0.05158894  0.00000000       0.014
   0.03971318  0.03439263  0.00000000       0.014
   0.01985659  0.06878525  0.00000000       0.014
  -0.04964148  0.05158894  0.00000000       0.014
  -0.06949807 -0.01719631  0.00000000       0.014
  -0.06949807  0.01719631  0.00000000       0.014
  -0.01985659  0.06878525  0.00000000       0.014
   0.04964148  0.05158894  0.00000000       0.014
   0.02978489  0.08598157  0.00000000       0.014
  -0.05956978  0.06878525  0.00000000       0.014
  -0.08935466 -0.01719631  0.00000000       0.014
  -0.08935466  0.01719631  0.00000000       0.014
  -0.02978489  0.08598157  0.00000000       0.014
   0.05956978  0.06878525  0.00000000       0.014
   0.03971318  0.10317788  0.00000000       0.014
  -0.06949807  0.08598157  0.00000000       0.014
   0.00992830  0.18915944  0.00000000       0.014
  -0.10921126  0.01719631  0.00000000       0.014
  -0.03971318  0.10317788  0.00000000       0.014
   0.06949807  0.08598157  0.00000000       0.014
   0.00000000  0.06878525  0.00000000       0.014
  -0.05956978  0.03439263  0.00000000       0.014
  -0.05956978 -0.03439263  0.00000000       0.014
   0.00992830  0.08598157  0.00000000       0.014
  -0.06949807  0.05158894  0.00000000       0.014
  -0.07942637 -0.03439263  0.00000000       0.014
  -0.07942637  0.03439263  0.00000000       0.014
  -0.00992830  0.08598157  0.00000000       0.014
   0.06949807  0.05158894  0.00000000       0.014
   0.01985659  0.10317788  0.00000000       0.014
  -0.07942637  0.06878525  0.00000000       0.014
   0.01985659  0.17196313  0.00000000       0.014
  -0.09928296  0.03439263  0.00000000       0.014
  -0.01985659  0.10317788  0.00000000       0.014
   0.07942637  0.06878525  0.00000000       0.014
   0.02978489  0.12037419  0.00000000       0.014
   0.02978489 -0.12037419  0.00000000       0.014
   0.00000000  0.17196313  0.00000000       0.014
   0.00000000  0.10317788  0.00000000       0.014
  -0.08935466  0.05158894  0.00000000       0.014
   0.02978489  0.15476682  0.00000000       0.014
   0.00992830  0.12037419  0.00000000       0.014
   0.01985659 -0.13757050  0.00000000       0.014
   0.00992830  0.15476682  0.00000000       0.014
   0.00992830 -0.15476682  0.00000000       0.014
  -0.00992830  0.12037419  0.00000000       0.014
  -0.01985659 -0.13757050  0.00000000       0.014
   0.00000000  0.13757050  0.00000000       0.014
 
 k-points in reciprocal lattice and weights: k-points                                
   0.00000000  0.00000000  0.00000000       0.007
   0.08333333  0.00000000  0.00000000       0.014
   0.00000000  0.08333333  0.00000000       0.014
  -0.08333333  0.08333333  0.00000000       0.014
   0.16666667  0.00000000  0.00000000       0.014
  -0.00000000  0.16666667  0.00000000       0.014
  -0.16666667  0.16666667  0.00000000       0.014
   0.25000000  0.00000000  0.00000000       0.014
   0.00000000  0.25000000  0.00000000       0.014
  -0.25000000  0.25000000  0.00000000       0.014
   0.33333333  0.00000000  0.00000000       0.014
   0.00000000  0.33333333  0.00000000       0.014
  -0.33333333  0.33333333  0.00000000       0.014
   0.41666667  0.00000000  0.00000000       0.014
   0.00000000  0.41666667  0.00000000       0.014
  -0.41666667  0.41666667  0.00000000       0.014
   0.50000000  0.00000000  0.00000000       0.007
   0.00000000  0.50000000  0.00000000       0.007
   0.50000000  0.50000000  0.00000000       0.007
   0.08333333  0.08333333  0.00000000       0.014
  -0.08333333  0.16666667  0.00000000       0.014
  -0.16666667  0.08333333  0.00000000       0.014
   0.16666667  0.08333333  0.00000000       0.014
  -0.08333333  0.25000000  0.00000000       0.014
  -0.25000000  0.16666667  0.00000000       0.014
  -0.16666667  0.25000000  0.00000000       0.014
   0.08333333  0.16666667  0.00000000       0.014
   0.25000000 -0.08333333  0.00000000       0.014
   0.25000000  0.08333333  0.00000000       0.014
  -0.08333333  0.33333333  0.00000000       0.014
  -0.33333333  0.25000000  0.00000000       0.014
  -0.25000000  0.33333333  0.00000000       0.014
   0.08333333  0.25000000  0.00000000       0.014
   0.33333333 -0.08333333  0.00000000       0.014
   0.33333333  0.08333333  0.00000000       0.014
  -0.08333333  0.41666667  0.00000000       0.014
  -0.41666667  0.33333333  0.00000000       0.014
  -0.33333333  0.41666667  0.00000000       0.014
   0.08333333  0.33333333  0.00000000       0.014
   0.41666667 -0.08333333  0.00000000       0.014
   0.41666667  0.08333333  0.00000000       0.014
  -0.08333333  0.50000000  0.00000000       0.014
   0.50000000  0.41666667  0.00000000       0.014
  -0.41666667  0.50000000  0.00000000       0.014
   0.08333333  0.41666667  0.00000000       0.014
   0.50000000 -0.08333333  0.00000000       0.014
   0.16666667  0.16666667  0.00000000       0.014
  -0.16666667  0.33333333  0.00000000       0.014
  -0.33333333  0.16666667  0.00000000       0.014
   0.25000000  0.16666667  0.00000000       0.014
  -0.16666667  0.41666667  0.00000000       0.014
  -0.41666667  0.25000000  0.00000000       0.014
  -0.25000000  0.41666667  0.00000000       0.014
   0.16666667  0.25000000  0.00000000       0.014
   0.41666667 -0.16666667  0.00000000       0.014
   0.33333333  0.16666667  0.00000000       0.014
  -0.16666667  0.50000000  0.00000000       0.014
   0.50000000  0.33333333  0.00000000       0.014
  -0.33333333  0.50000000  0.00000000       0.014
   0.16666667  0.33333333  0.00000000       0.014
   0.50000000 -0.16666667  0.00000000       0.014
   0.41666667  0.16666667  0.00000000       0.014
  -0.16666667 -0.41666667  0.00000000       0.014
   0.41666667  0.41666667  0.00000000       0.014
   0.25000000  0.25000000  0.00000000       0.014
  -0.25000000  0.50000000  0.00000000       0.014
   0.50000000  0.25000000  0.00000000       0.014
   0.33333333  0.25000000  0.00000000       0.014
  -0.25000000 -0.41666667  0.00000000       0.014
   0.41666667  0.33333333  0.00000000       0.014
  -0.33333333 -0.41666667  0.00000000       0.014
   0.25000000  0.33333333  0.00000000       0.014
  -0.41666667 -0.25000000  0.00000000       0.014
   0.33333333  0.33333333  0.00000000       0.014
 
 position of ions in fractional coordinates (direct lattice) 
   0.00415361  0.00267210  0.12034134
   0.35695335  0.00285503  0.09748893
   0.00423858  0.35550699  0.09749256
   0.65142295  0.65006557  0.09747688
   0.32808646  0.32671938  0.10030508
   0.68027775  0.00278085  0.10027562
   0.00416530  0.67883808  0.10026559
   0.99999933  0.49999967  0.33333333
   0.16666633  0.33333267  0.33333333
   0.99999933  0.99999967  0.33333333
   0.16666633  0.83333267  0.33333333
   0.49999933  0.49999967  0.33333333
   0.66666633  0.33333267  0.33333333
   0.49999933  0.99999967  0.33333333
   0.66666633  0.83333267  0.33333333
 
 position of ions in cartesian coordinates  (Angst):
   0.00621752  0.01653869  1.80512007
   1.48606535  0.87181571  1.46233401
  -1.47418892  0.87166351  1.46238846
   0.00569661  3.15350669  1.46215318
   0.00573734  1.58659455  1.50457617
   2.84329127  1.65505099  1.50413432
  -2.83143912  1.65491719  1.50398380
   2.09837815  3.63449758  5.00000000
  -0.69945845  1.21149758  5.00000000
  -0.00000140  4.84599758  5.00000000
  -2.79783801  2.42299758  5.00000000
  -0.00000140  2.42299758  5.00000000
   1.39892110  2.42299758  5.00000000
  -2.09838095  3.63449758  5.00000000
  -0.69945845  3.63449758  5.00000000
 


--------------------------------------------------------------------------------------------------------


 k-point   1 :   0.0000 0.0000 0.0000  plane waves:    6645
 k-point   2 :   0.0833 0.0000 0.0000  plane waves:    6623
 k-point   3 :   0.0000 0.0833 0.0000  plane waves:    6623
 k-point   4 :  -0.0833 0.0833 0.0000  plane waves:    6623
 k-point   5 :   0.1667 0.0000 0.0000  plane waves:    6645
 k-point   6 :  -0.0000 0.1667 0.0000  plane waves:    6645
 k-point   7 :  -0.1667 0.1667 0.0000  plane waves:    6645
 k-point   8 :   0.2500 0.0000 0.0000  plane waves:    6625
 k-point   9 :   0.0000 0.2500 0.0000  plane waves:    6625
 k-point  10 :  -0.2500 0.2500 0.0000  plane waves:    6625
 k-point  11 :   0.3333 0.0000 0.0000  plane waves:    6604
 k-point  12 :   0.0000 0.3333 0.0000  plane waves:    6604
 k-point  13 :  -0.3333 0.3333 0.0000  plane waves:    6604
 k-point  14 :   0.4167 0.0000 0.0000  plane waves:    6602
 k-point  15 :   0.0000 0.4167 0.0000  plane waves:    6602
 k-point  16 :  -0.4167 0.4167 0.0000  plane waves:    6602
 k-point  17 :   0.5000 0.0000 0.0000  plane waves:    6594
 k-point  18 :   0.0000 0.5000 0.0000  plane waves:    6594
 k-point  19 :   0.5000 0.5000 0.0000  plane waves:    6594
 k-point  20 :   0.0833 0.0833 0.0000  plane waves:    6637
 k-point  21 :  -0.0833 0.1667 0.0000  plane waves:    6637
 k-point  22 :  -0.1667 0.0833 0.0000  plane waves:    6637
 k-point  23 :   0.1667 0.0833 0.0000  plane waves:    6636
 k-point  24 :  -0.0833 0.2500 0.0000  plane waves:    6636
 k-point  25 :  -0.2500 0.1667 0.0000  plane waves:    6636
 k-point  26 :  -0.1667 0.2500 0.0000  plane waves:    6636
 k-point  27 :   0.0833 0.1667 0.0000  plane waves:    6636
 k-point  28 :   0.2500-0.0833 0.0000  plane waves:    6636
 k-point  29 :   0.2500 0.0833 0.0000  plane waves:    6604
 k-point  30 :  -0.0833 0.3333 0.0000  plane waves:    6604
 k-point  31 :  -0.3333 0.2500 0.0000  plane waves:    6604
 k-point  32 :  -0.2500 0.3333 0.0000  plane waves:    6604
 k-point  33 :   0.0833 0.2500 0.0000  plane waves:    6604
 k-point  34 :   0.3333-0.0833 0.0000  plane waves:    6604
 k-point  35 :   0.3333 0.0833 0.0000  plane waves:    6597
 k-point  36 :  -0.0833 0.4167 0.0000  plane waves:    6597
 k-point  37 :  -0.4167 0.3333 0.0000  plane waves:    6597
 k-point  38 :  -0.3333 0.4167 0.0000  plane waves:    6597
 k-point  39 :   0.0833 0.3333 0.0000  plane waves:    6597
 k-point  40 :   0.4167-0.0833 0.0000  plane waves:    6597
 k-point  41 :   0.4167 0.0833 0.0000  plane waves:    6598
 k-point  42 :  -0.0833 0.5000 0.0000  plane waves:    6598
 k-point  43 :   0.5000 0.4167 0.0000  plane waves:    6598
 k-point  44 :  -0.4167 0.5000 0.0000  plane waves:    6598
 k-point  45 :   0.0833 0.4167 0.0000  plane waves:    6598
 k-point  46 :   0.5000-0.0833 0.0000  plane waves:    6598
 k-point  47 :   0.1667 0.1667 0.0000  plane waves:    6595
 k-point  48 :  -0.1667 0.3333 0.0000  plane waves:    6595
 k-point  49 :  -0.3333 0.1667 0.0000  plane waves:    6595
 k-point  50 :   0.2500 0.1667 0.0000  plane waves:    6602
 k-point  51 :  -0.1667 0.4167 0.0000  plane waves:    6602
 k-point  52 :  -0.4167 0.2500 0.0000  plane waves:    6602
 k-point  53 :  -0.2500 0.4167 0.0000  plane waves:    6602
 k-point  54 :   0.1667 0.2500 0.0000  plane waves:    6602
 k-point  55 :   0.4167-0.1667 0.0000  plane waves:    6602
 k-point  56 :   0.3333 0.1667 0.0000  plane waves:    6607
 k-point  57 :  -0.1667 0.5000 0.0000  plane waves:    6607
 k-point  58 :   0.5000 0.3333 0.0000  plane waves:    6607
 k-point  59 :  -0.3333 0.5000 0.0000  plane waves:    6607
 k-point  60 :   0.1667 0.3333 0.0000  plane waves:    6607
 k-point  61 :   0.5000-0.1667 0.0000  plane waves:    6607
 k-point  62 :   0.4167 0.1667 0.0000  plane waves:    6604
 k-point  63 :  -0.1667-0.4167 0.0000  plane waves:    6604
 k-point  64 :   0.4167 0.4167 0.0000  plane waves:    6604
 k-point  65 :   0.2500 0.2500 0.0000  plane waves:    6606
 k-point  66 :  -0.2500 0.5000 0.0000  plane waves:    6606
 k-point  67 :   0.5000 0.2500 0.0000  plane waves:    6606
 k-point  68 :   0.3333 0.2500 0.0000  plane waves:    6606
 k-point  69 :  -0.2500-0.4167 0.0000  plane waves:    6606
 k-point  70 :   0.4167 0.3333 0.0000  plane waves:    6606
 k-point  71 :  -0.3333-0.4167 0.0000  plane waves:    6606
 k-point  72 :   0.2500 0.3333 0.0000  plane waves:    6606
 k-point  73 :  -0.4167-0.2500 0.0000  plane waves:    6606
 k-point  74 :   0.3333 0.3333 0.0000  plane waves:    6642

 maximum and minimum number of plane-waves per node :      6645     6594

 maximum number of plane-waves:      6645
 maximum index in each direction: 
   IXMAX=    8   IYMAX=    8   IZMAX=   25
   IXMIN=   -8   IYMIN=   -8   IZMIN=  -25


 serial   3D FFT for wavefunctions
 parallel 3D FFT for charge:
    minimum data exchange during FFTs selected (reduces bandwidth)


 total amount of memory used by VASP MPI-rank0   121040. kBytes
=======================================================================

   base      :      30000. kBytes
   nonl-proj :      64565. kBytes
   fftplans  :       2154. kBytes
   grid      :       8249. kBytes
   one-center:         46. kBytes
   wavefun   :      16026. kBytes
 
     INWAV:  cpu time      0.0000: real time      0.0000
 Broyden mixing: mesh for mixing (old mesh)
   NGX = 17   NGY = 17   NGZ = 51
  (NGX  = 72   NGY  = 72   NGZ  =216)
  gives a total of  14739 points

 initial charge density was supplied:
 charge density of overlapping atoms calculated
 number of electron      56.0000000 magnetization 
 keeping initial charge density in first step


--------------------------------------------------------------------------------------------------------


 Maximum index for augmentation-charges          395 (set IRDMAX)


--------------------------------------------------------------------------------------------------------


 First call to EWALD:  gamma=   0.263
 Maximum number of real-space cells 4x 4x 2
 Maximum number of reciprocal cells 2x 2x 6

    FEWALD:  cpu time      0.0015: real time      0.0023


--------------------------------------- Iteration      1(   1)  ---------------------------------------


    POTLOK:  cpu time      0.0236: real time      0.0246
    SETDIJ:  cpu time      0.0019: real time      0.0019
     EDDAV:  cpu time      3.5733: real time      3.5751
       DOS:  cpu time      0.0014: real time      0.0016
    --------------------------------------------
      LOOP:  cpu time      3.6002: real time      3.6033

 eigenvalue-minimisations  :  7104
 total energy-change (2. order) : 0.2604732E+03  (-0.2326998E+04)
 number of electron      56.0000000 magnetization 
 augmentation part       56.0000000 magnetization 

 Free energy of the ion-electron system (eV)
  ---------------------------------------------------
  alpha Z        PSCENC =        58.30706670
  Ewald energy   TEWEN  =      4793.37593264
  -Hartree energ DENC   =     -6349.52401116
  -exchange      EXHF   =         0.00000000
  -V(xc)+E(xc)   XCENC  =       172.66079531
  PAW double counting   =      1367.74197220    -1370.58415631
  entropy T*S    EENTRO =        -0.01378914
  eigenvalues    EBANDS =      -314.75405385
  atomic energy  EATOM  =      1903.26342058
  Solvation  Ediel_sol  =         0.00000000
  ---------------------------------------------------
  free energy    TOTEN  =       260.47317697 eV

  energy without entropy =      260.48696611  energy(sigma->0) =      260.48007154


--------------------------------------------------------------------------------------------------------




--------------------------------------- Iteration      1(   2)  ---------------------------------------


     EDDAV:  cpu time      4.2303: real time      4.2309
       DOS:  cpu time      0.0008: real time      0.0008
    --------------------------------------------
      LOOP:  cpu time      4.2311: real time      4.2318

 eigenvalue-minimisations  :  8928
 total energy-change (2. order) :-0.3695061E+03  (-0.3559401E+03)
 number of electron      56.0000000 magnetization 
 augmentation part       56.0000000 magnetization 

 Free energy of the ion-electron system (eV)
  ---------------------------------------------------
  alpha Z        PSCENC =        58.30706670
  Ewald energy   TEWEN  =      4793.37593264
  -Hartree energ DENC   =     -6349.52401116
  -exchange      EXHF   =         0.00000000
  -V(xc)+E(xc)   XCENC  =       172.66079531
  PAW double counting   =      1367.74197220    -1370.58415631
  entropy T*S    EENTRO =        -0.00001113
  eigenvalues    EBANDS =      -684.27394155
  atomic energy  EATOM  =      1903.26342058
  Solvation  Ediel_sol  =         0.00000000
  ---------------------------------------------------
  free energy    TOTEN  =      -109.03293272 eV

  energy without entropy =     -109.03292159  energy(sigma->0) =     -109.03292716


--------------------------------------------------------------------------------------------------------




--------------------------------------- Iteration      1(   3)  ---------------------------------------


     EDDAV:  cpu time      4.9400: real time      4.9402
       DOS:  cpu time      0.0009: real time      0.0009
    --------------------------------------------
      LOOP:  cpu time      4.9409: real time      4.9410

 eigenvalue-minimisations  : 10632
 total energy-change (2. order) :-0.2601747E+02  (-0.2584596E+02)
 number of electron      56.0000000 magnetization 
 augmentation part       56.0000000 magnetization 

 Free energy of the ion-electron system (eV)
  ---------------------------------------------------
  alpha Z        PSCENC =        58.30706670
  Ewald energy   TEWEN  =      4793.37593264
  -Hartree energ DENC   =     -6349.52401116
  -exchange      EXHF   =         0.00000000
  -V(xc)+E(xc)   XCENC  =       172.66079531
  PAW double counting   =      1367.74197220    -1370.58415631
  entropy T*S    EENTRO =        -0.00155905
  eigenvalues    EBANDS =      -710.28986512
  atomic energy  EATOM  =      1903.26342058
  Solvation  Ediel_sol  =         0.00000000
  ---------------------------------------------------
  free energy    TOTEN  =      -135.05040421 eV

  energy without entropy =     -135.04884516  energy(sigma->0) =     -135.04962469


--------------------------------------------------------------------------------------------------------




--------------------------------------- Iteration      1(   4)  ---------------------------------------


     EDDAV:  cpu time      4.4388: real time      4.4389
       DOS:  cpu time      0.0009: real time      0.0009
    --------------------------------------------
      LOOP:  cpu time      4.4396: real time      4.4398

 eigenvalue-minimisations  :  9432
 total energy-change (2. order) :-0.4382405E+00  (-0.4377983E+00)
 number of electron      56.0000000 magnetization 
 augmentation part       56.0000000 magnetization 

 Free energy of the ion-electron system (eV)
  ---------------------------------------------------
  alpha Z        PSCENC =        58.30706670
  Ewald energy   TEWEN  =      4793.37593264
  -Hartree energ DENC   =     -6349.52401116
  -exchange      EXHF   =         0.00000000
  -V(xc)+E(xc)   XCENC  =       172.66079531
  PAW double counting   =      1367.74197220    -1370.58415631
  entropy T*S    EENTRO =        -0.00155740
  eigenvalues    EBANDS =      -710.72810728
  atomic energy  EATOM  =      1903.26342058
  Solvation  Ediel_sol  =         0.00000000
  ---------------------------------------------------
  free energy    TOTEN  =      -135.48864472 eV

  energy without entropy =     -135.48708732  energy(sigma->0) =     -135.48786602


--------------------------------------------------------------------------------------------------------




--------------------------------------- Iteration      1(   5)  ---------------------------------------


     EDDAV:  cpu time      5.0378: real time      5.0379
       DOS:  cpu time      0.0009: real time      0.0009
    CHARGE:  cpu time      0.1461: real time      0.1465
    MIXING:  cpu time      0.0017: real time      0.0017
    --------------------------------------------
      LOOP:  cpu time      5.1864: real time      5.1870

 eigenvalue-minimisations  : 11016
 total energy-change (2. order) :-0.1517081E-01  (-0.1516587E-01)
 number of electron      55.9999997 magnetization 
 augmentation part        1.2008770 magnetization 

 Broyden mixing:
  rms(total) = 0.17284E+01    rms(broyden)= 0.17281E+01
  rms(prec ) = 0.19657E+01
  weight for this iteration     100.00

 Free energy of the ion-electron system (eV)
  ---------------------------------------------------
  alpha Z        PSCENC =        58.30706670
  Ewald energy   TEWEN  =      4793.37593264
  -Hartree energ DENC   =     -6349.52401116
  -exchange      EXHF   =         0.00000000
  -V(xc)+E(xc)   XCENC  =       172.66079531
  PAW double counting   =      1367.74197220    -1370.58415631
  entropy T*S    EENTRO =        -0.00155739
  eigenvalues    EBANDS =      -710.74327810
  atomic energy  EATOM  =      1903.26342058
  Solvation  Ediel_sol  =         0.00000000
  ---------------------------------------------------
  free energy    TOTEN  =      -135.50381553 eV

  energy without entropy =     -135.50225814  energy(sigma->0) =     -135.50303684


--------------------------------------------------------------------------------------------------------




--------------------------------------- Iteration      1(   6)  ---------------------------------------


    POTLOK:  cpu time      0.0206: real time      0.0206
    SETDIJ:  cpu time      0.0014: real time      0.0014
     EDDAV:  cpu time      4.7927: real time      4.7929
       DOS:  cpu time      0.0008: real time      0.0008
    CHARGE:  cpu time      0.1428: real time      0.1428
    MIXING:  cpu time      0.0013: real time      0.0013
    --------------------------------------------
      LOOP:  cpu time      4.9596: real time      4.9598

 eigenvalue-minimisations  : 10320
 total energy-change (2. order) : 0.7740806E+01  (-0.1194209E+01)
 number of electron      55.9999997 magnetization 
 augmentation part        1.1011750 magnetization 

 Broyden mixing:
  rms(total) = 0.94908E+00    rms(broyden)= 0.94899E+00
  rms(prec ) = 0.10465E+01
  weight for this iteration     100.00

 eigenvalues of (default mixing * dielectric matrix)
  average eigenvalue GAMMA=   1.6575
  1.6575

 Free energy of the ion-electron system (eV)
  ---------------------------------------------------
  alpha Z        PSCENC =        58.30706670
  Ewald energy   TEWEN  =      4793.37593264
  -Hartree energ DENC   =     -6423.60688868
  -exchange      EXHF   =         0.00000000
  -V(xc)+E(xc)   XCENC  =       176.31233524
  PAW double counting   =      2657.82644483    -2661.72193829
  entropy T*S    EENTRO =        -0.00154994
  eigenvalues    EBANDS =      -631.51783238
  atomic energy  EATOM  =      1903.26342058
  Solvation  Ediel_sol  =         0.00000000
  ---------------------------------------------------
  free energy    TOTEN  =      -127.76300930 eV

  energy without entropy =     -127.76145936  energy(sigma->0) =     -127.76223433


--------------------------------------------------------------------------------------------------------




--------------------------------------- Iteration      1(   7)  ---------------------------------------


    POTLOK:  cpu time      0.0199: real time      0.0214
    SETDIJ:  cpu time      0.0014: real time      0.0014
     EDDAV:  cpu time      4.9279: real time      4.9280
       DOS:  cpu time      0.0009: real time      0.0009
    CHARGE:  cpu time      0.1411: real time      0.1411
    MIXING:  cpu time      0.0014: real time      0.0014
    --------------------------------------------
      LOOP:  cpu time      5.0925: real time      5.0942

 eigenvalue-minimisations  : 10656
 total energy-change (2. order) : 0.2075386E+01  (-0.4319110E+00)
 number of electron      55.9999997 magnetization 
 augmentation part        1.0461606 magnetization 

 Broyden mixing:
  rms(total) = 0.37772E+00    rms(broyden)= 0.37763E+00
  rms(prec ) = 0.40350E+00
  weight for this iteration     100.00

 eigenvalues of (default mixing * dielectric matrix)
  average eigenvalue GAMMA=   1.7849
  1.1838  2.3860

 Free energy of the ion-electron system (eV)
  ---------------------------------------------------
  alpha Z        PSCENC =        58.30706670
  Ewald energy   TEWEN  =      4793.37593264
  -Hartree energ DENC   =     -6488.56807550
  -exchange      EXHF   =         0.00000000
  -V(xc)+E(xc)   XCENC  =       179.19742263
  PAW double counting   =      4437.66005580    -4442.17798028
  entropy T*S    EENTRO =        -0.00153562
  eigenvalues    EBANDS =      -566.74393033
  atomic energy  EATOM  =      1903.26342058
  Solvation  Ediel_sol  =         0.00000000
  ---------------------------------------------------
  free energy    TOTEN  =      -125.68762338 eV

  energy without entropy =     -125.68608776  energy(sigma->0) =     -125.68685557


--------------------------------------------------------------------------------------------------------




--------------------------------------- Iteration      1(   8)  ---------------------------------------


    POTLOK:  cpu time      0.0195: real time      0.0195
    SETDIJ:  cpu time      0.0013: real time      0.0013
     EDDAV:  cpu time      4.8898: real time      4.8899
       DOS:  cpu time      0.0009: real time      0.0009
    CHARGE:  cpu time      0.1432: real time      0.1432
    MIXING:  cpu time      0.0011: real time      0.0011
    --------------------------------------------
      LOOP:  cpu time      5.0558: real time      5.0560

 eigenvalue-minimisations  : 10584
 total energy-change (2. order) : 0.1542215E+00  (-0.5998370E-01)
 number of electron      55.9999997 magnetization 
 augmentation part        1.0278913 magnetization 

 Broyden mixing:
  rms(total) = 0.10075E+00    rms(broyden)= 0.10070E+00
  rms(prec ) = 0.12101E+00
  weight for this iteration     100.00

 eigenvalues of (default mixing * dielectric matrix)
  average eigenvalue GAMMA=   1.7859
  1.1193  2.2116  2.0267

 Free energy of the ion-electron system (eV)
  ---------------------------------------------------
  alpha Z        PSCENC =        58.30706670
  Ewald energy   TEWEN  =      4793.37593264
  -Hartree energ DENC   =     -6519.41534643
  -exchange      EXHF   =         0.00000000
  -V(xc)+E(xc)   XCENC  =       180.30717176
  PAW double counting   =      5588.86680689    -5593.44823840
  entropy T*S    EENTRO =        -0.00153187
  eigenvalues    EBANDS =      -536.78868373
  atomic energy  EATOM  =      1903.26342058
  Solvation  Ediel_sol  =         0.00000000
  ---------------------------------------------------
  free energy    TOTEN  =      -125.53340187 eV

  energy without entropy =     -125.53187000  energy(sigma->0) =     -125.53263593


--------------------------------------------------------------------------------------------------------




--------------------------------------- Iteration      1(   9)  ---------------------------------------


    POTLOK:  cpu time      0.0235: real time      0.0244
    SETDIJ:  cpu time      0.0014: real time      0.0014
     EDDAV:  cpu time      4.3663: real time      4.3665
       DOS:  cpu time      0.0008: real time      0.0008
    CHARGE:  cpu time      0.1430: real time      0.1430
    MIXING:  cpu time      0.0013: real time      0.0013
    --------------------------------------------
      LOOP:  cpu time      4.5363: real time      4.5373

 eigenvalue-minimisations  :  9264
 total energy-change (2. order) : 0.2398632E-01  (-0.4503743E-02)
 number of electron      55.9999997 magnetization 
 augmentation part        1.0276214 magnetization 

 Broyden mixing:
  rms(total) = 0.18401E-01    rms(broyden)= 0.18395E-01
  rms(prec ) = 0.46054E-01
  weight for this iteration     100.00

 eigenvalues of (default mixing * dielectric matrix)
  average eigenvalue GAMMA=   1.7222
  2.3773  2.1463  1.1826  1.1826

 Free energy of the ion-electron system (eV)
  ---------------------------------------------------
  alpha Z        PSCENC =        58.30706670
  Ewald energy   TEWEN  =      4793.37593264
  -Hartree energ DENC   =     -6526.03884810
  -exchange      EXHF   =         0.00000000
  -V(xc)+E(xc)   XCENC  =       180.28831051
  PAW double counting   =      5744.60243509    -5749.03848382
  entropy T*S    EENTRO =        -0.00153611
  eigenvalues    EBANDS =      -530.26771303
  atomic energy  EATOM  =      1903.26342058
  Solvation  Ediel_sol  =         0.00000000
  ---------------------------------------------------
  free energy    TOTEN  =      -125.50941555 eV

  energy without entropy =     -125.50787944  energy(sigma->0) =     -125.50864749


--------------------------------------------------------------------------------------------------------




--------------------------------------- Iteration      1(  10)  ---------------------------------------


    POTLOK:  cpu time      0.0182: real time      0.0182
    SETDIJ:  cpu time      0.0013: real time      0.0013
     EDDAV:  cpu time      4.8639: real time      4.8640
       DOS:  cpu time      0.0009: real time      0.0009
    CHARGE:  cpu time      0.1386: real time      0.1386
    MIXING:  cpu time      0.0012: real time      0.0012
    --------------------------------------------
      LOOP:  cpu time      5.0241: real time      5.0243

 eigenvalue-minimisations  : 10464
 total energy-change (2. order) : 0.1071490E-01  (-0.6114403E-03)
 number of electron      55.9999997 magnetization 
 augmentation part        1.0276987 magnetization 

 Broyden mixing:
  rms(total) = 0.14866E-01    rms(broyden)= 0.14866E-01
  rms(prec ) = 0.32779E-01
  weight for this iteration     100.00

 eigenvalues of (default mixing * dielectric matrix)
  average eigenvalue GAMMA=   1.8576
  2.6162  2.6162  1.9746  0.9881  1.0929

 Free energy of the ion-electron system (eV)
  ---------------------------------------------------
  alpha Z        PSCENC =        58.30706670
  Ewald energy   TEWEN  =      4793.37593264
  -Hartree energ DENC   =     -6533.47423768
  -exchange      EXHF   =         0.00000000
  -V(xc)+E(xc)   XCENC  =       180.37454178
  PAW double counting   =      5781.07554355    -5785.48466289
  entropy T*S    EENTRO =        -0.00153672
  eigenvalues    EBANDS =      -522.93476860
  atomic energy  EATOM  =      1903.26342058
  Solvation  Ediel_sol  =         0.00000000
  ---------------------------------------------------
  free energy    TOTEN  =      -125.49870064 eV

  energy without entropy =     -125.49716393  energy(sigma->0) =     -125.49793228


--------------------------------------------------------------------------------------------------------




--------------------------------------- Iteration      1(  11)  ---------------------------------------


    POTLOK:  cpu time      0.0186: real time      0.0186
    SETDIJ:  cpu time      0.0014: real time      0.0014
     EDDAV:  cpu time      4.6950: real time      4.6951
       DOS:  cpu time      0.0009: real time      0.0009
    CHARGE:  cpu time      0.1420: real time      0.1420
    MIXING:  cpu time      0.0010: real time      0.0010
    --------------------------------------------
      LOOP:  cpu time      4.8588: real time      4.8590

 eigenvalue-minimisations  :  9816
 total energy-change (2. order) : 0.6563785E-02  (-0.6785132E-03)
 number of electron      55.9999997 magnetization 
 augmentation part        1.0266965 magnetization 

 Broyden mixing:
  rms(total) = 0.77710E-02    rms(broyden)= 0.77687E-02
  rms(prec ) = 0.15093E-01
  weight for this iteration     100.00

 eigenvalues of (default mixing * dielectric matrix)
  average eigenvalue GAMMA=   1.9058
  3.6150  2.4505  1.9144  0.9979  1.1282  1.3286

 Free energy of the ion-electron system (eV)
  ---------------------------------------------------
  alpha Z        PSCENC =        58.30706670
  Ewald energy   TEWEN  =      4793.37593264
  -Hartree energ DENC   =     -6544.48696589
  -exchange      EXHF   =         0.00000000
  -V(xc)+E(xc)   XCENC  =       180.48988669
  PAW double counting   =      5725.83924140    -5730.25117113
  entropy T*S    EENTRO =        -0.00153762
  eigenvalues    EBANDS =      -512.02801022
  atomic energy  EATOM  =      1903.26342058
  Solvation  Ediel_sol  =         0.00000000
  ---------------------------------------------------
  free energy    TOTEN  =      -125.49213686 eV

  energy without entropy =     -125.49059924  energy(sigma->0) =     -125.49136805


--------------------------------------------------------------------------------------------------------




--------------------------------------- Iteration      1(  12)  ---------------------------------------


    POTLOK:  cpu time      0.0186: real time      0.0186
    SETDIJ:  cpu time      0.0013: real time      0.0013
     EDDAV:  cpu time      3.7425: real time      3.7426
       DOS:  cpu time      0.0008: real time      0.0008
    CHARGE:  cpu time      0.1398: real time      0.1398
    MIXING:  cpu time      0.0012: real time      0.0012
    --------------------------------------------
      LOOP:  cpu time      3.9043: real time      3.9044

 eigenvalue-minimisations  :  7584
 total energy-change (2. order) :-0.2304385E-03  (-0.1142066E-03)
 number of electron      55.9999997 magnetization 
 augmentation part        1.0262643 magnetization 

 Broyden mixing:
  rms(total) = 0.48194E-02    rms(broyden)= 0.48179E-02
  rms(prec ) = 0.92856E-02
  weight for this iteration     100.00

 eigenvalues of (default mixing * dielectric matrix)
  average eigenvalue GAMMA=   2.1245
  4.9340  2.4920  2.2804  1.9497  0.9988  1.1082  1.1082

 Free energy of the ion-electron system (eV)
  ---------------------------------------------------
  alpha Z        PSCENC =        58.30706670
  Ewald energy   TEWEN  =      4793.37593264
  -Hartree energ DENC   =     -6547.91687282
  -exchange      EXHF   =         0.00000000
  -V(xc)+E(xc)   XCENC  =       180.50835415
  PAW double counting   =      5735.33455539    -5739.74244303
  entropy T*S    EENTRO =        -0.00153804
  eigenvalues    EBANDS =      -508.62084286
  atomic energy  EATOM  =      1903.26342058
  Solvation  Ediel_sol  =         0.00000000
  ---------------------------------------------------
  free energy    TOTEN  =      -125.49236730 eV

  energy without entropy =     -125.49082926  energy(sigma->0) =     -125.49159828


--------------------------------------------------------------------------------------------------------




--------------------------------------- Iteration      1(  13)  ---------------------------------------


    POTLOK:  cpu time      0.0231: real time      0.0238
    SETDIJ:  cpu time      0.0014: real time      0.0014
     EDDAV:  cpu time      4.3118: real time      4.3119
       DOS:  cpu time      0.0009: real time      0.0009
    CHARGE:  cpu time      0.1392: real time      0.1392
    MIXING:  cpu time      0.0013: real time      0.0013
    --------------------------------------------
      LOOP:  cpu time      4.4776: real time      4.4784

 eigenvalue-minimisations  :  9048
 total energy-change (2. order) :-0.1793282E-02  (-0.4213468E-04)
 number of electron      55.9999997 magnetization 
 augmentation part        1.0262811 magnetization 

 Broyden mixing:
  rms(total) = 0.21514E-02    rms(broyden)= 0.21513E-02
  rms(prec ) = 0.41938E-02
  weight for this iteration     100.00

 eigenvalues of (default mixing * dielectric matrix)
  average eigenvalue GAMMA=   2.2173
  5.9394  2.9171  2.3877  1.9550  1.3888  0.9728  1.0887  1.0887

 Free energy of the ion-electron system (eV)
  ---------------------------------------------------
  alpha Z        PSCENC =        58.30706670
  Ewald energy   TEWEN  =      4793.37593264
  -Hartree energ DENC   =     -6549.93834028
  -exchange      EXHF   =         0.00000000
  -V(xc)+E(xc)   XCENC  =       180.50111673
  PAW double counting   =      5734.08897893    -5738.50118972
  entropy T*S    EENTRO =        -0.00153805
  eigenvalues    EBANDS =      -506.58960810
  atomic energy  EATOM  =      1903.26342058
  Solvation  Ediel_sol  =         0.00000000
  ---------------------------------------------------
  free energy    TOTEN  =      -125.49416058 eV

  energy without entropy =     -125.49262253  energy(sigma->0) =     -125.49339155


--------------------------------------------------------------------------------------------------------




--------------------------------------- Iteration      1(  14)  ---------------------------------------


    POTLOK:  cpu time      0.0189: real time      0.0189
    SETDIJ:  cpu time      0.0013: real time      0.0013
     EDDAV:  cpu time      4.4376: real time      4.4378
       DOS:  cpu time      0.0008: real time      0.0008
    CHARGE:  cpu time      0.1383: real time      0.1383
    MIXING:  cpu time      0.0012: real time      0.0012
    --------------------------------------------
      LOOP:  cpu time      4.5981: real time      4.5983

 eigenvalue-minimisations  :  9312
 total energy-change (2. order) :-0.1867675E-02  (-0.1274302E-04)
 number of electron      55.9999997 magnetization 
 augmentation part        1.0262457 magnetization 

 Broyden mixing:
  rms(total) = 0.11955E-02    rms(broyden)= 0.11954E-02
  rms(prec ) = 0.19467E-02
  weight for this iteration     100.00

 eigenvalues of (default mixing * dielectric matrix)
  average eigenvalue GAMMA=   2.4452
  7.3622  3.7075  2.4666  2.1758  1.8778  0.9649  1.2505  1.1009  1.1009

 Free energy of the ion-electron system (eV)
  ---------------------------------------------------
  alpha Z        PSCENC =        58.30706670
  Ewald energy   TEWEN  =      4793.37593264
  -Hartree energ DENC   =     -6550.70848387
  -exchange      EXHF   =         0.00000000
  -V(xc)+E(xc)   XCENC  =       180.49731733
  PAW double counting   =      5736.75236303    -5741.16427313
  entropy T*S    EENTRO =        -0.00153800
  eigenvalues    EBANDS =      -505.81783354
  atomic energy  EATOM  =      1903.26342058
  Solvation  Ediel_sol  =         0.00000000
  ---------------------------------------------------
  free energy    TOTEN  =      -125.49602825 eV

  energy without entropy =     -125.49449026  energy(sigma->0) =     -125.49525925


--------------------------------------------------------------------------------------------------------




--------------------------------------- Iteration      1(  15)  ---------------------------------------


    POTLOK:  cpu time      0.0179: real time      0.0179
    SETDIJ:  cpu time      0.0013: real time      0.0013
     EDDAV:  cpu time      4.4257: real time      4.4259
       DOS:  cpu time      0.0009: real time      0.0009
    CHARGE:  cpu time      0.1398: real time      0.1398
    MIXING:  cpu time      0.0013: real time      0.0013
    --------------------------------------------
      LOOP:  cpu time      4.5869: real time      4.5871

 eigenvalue-minimisations  :  9216
 total energy-change (2. order) :-0.1354216E-02  (-0.1795282E-04)
 number of electron      55.9999997 magnetization 
 augmentation part        1.0262353 magnetization 

 Broyden mixing:
  rms(total) = 0.62073E-03    rms(broyden)= 0.62070E-03
  rms(prec ) = 0.73478E-03
  weight for this iteration     100.00

 eigenvalues of (default mixing * dielectric matrix)
  average eigenvalue GAMMA=   2.4801
  7.8911  4.2056  2.5335  2.5335  1.9649  1.4436  0.9988  0.9988  1.1157  1.1157

 Free energy of the ion-electron system (eV)
  ---------------------------------------------------
  alpha Z        PSCENC =        58.30706670
  Ewald energy   TEWEN  =      4793.37593264
  -Hartree energ DENC   =     -6550.79717712
  -exchange      EXHF   =         0.00000000
  -V(xc)+E(xc)   XCENC  =       180.49484508
  PAW double counting   =      5738.04267038    -5742.45350043
  entropy T*S    EENTRO =        -0.00153794
  eigenvalues    EBANDS =      -505.72910235
  atomic energy  EATOM  =      1903.26342058
  Solvation  Ediel_sol  =         0.00000000
  ---------------------------------------------------
  free energy    TOTEN  =      -125.49738247 eV

  energy without entropy =     -125.49584453  energy(sigma->0) =     -125.49661350


--------------------------------------------------------------------------------------------------------




--------------------------------------- Iteration      1(  16)  ---------------------------------------


    POTLOK:  cpu time      0.0187: real time      0.0187
    SETDIJ:  cpu time      0.0015: real time      0.0014
     EDDAV:  cpu time      4.6617: real time      4.6618
       DOS:  cpu time      0.0009: real time      0.0009
    CHARGE:  cpu time      0.1380: real time      0.1380
    MIXING:  cpu time      0.0014: real time      0.0014
    --------------------------------------------
      LOOP:  cpu time      4.8221: real time      4.8222

 eigenvalue-minimisations  :  9576
 total energy-change (2. order) :-0.1913295E-03  (-0.1730860E-05)
 number of electron      55.9999997 magnetization 
 augmentation part        1.0262350 magnetization 

 Broyden mixing:
  rms(total) = 0.18633E-03    rms(broyden)= 0.18629E-03
  rms(prec ) = 0.23833E-03
  weight for this iteration     100.00

 eigenvalues of (default mixing * dielectric matrix)
  average eigenvalue GAMMA=   2.4986
  8.3876  4.4323  2.8568  2.4857  2.0190  1.8516  1.3019  1.1023  1.1023  0.9725
  0.9725

 Free energy of the ion-electron system (eV)
  ---------------------------------------------------
  alpha Z        PSCENC =        58.30706670
  Ewald energy   TEWEN  =      4793.37593264
  -Hartree energ DENC   =     -6550.85218526
  -exchange      EXHF   =         0.00000000
  -V(xc)+E(xc)   XCENC  =       180.49580647
  PAW double counting   =      5736.84476440    -5741.25560947
  entropy T*S    EENTRO =        -0.00153792
  eigenvalues    EBANDS =      -505.67523192
  atomic energy  EATOM  =      1903.26342058
  Solvation  Ediel_sol  =         0.00000000
  ---------------------------------------------------
  free energy    TOTEN  =      -125.49757380 eV

  energy without entropy =     -125.49603588  energy(sigma->0) =     -125.49680484


--------------------------------------------------------------------------------------------------------




--------------------------------------- Iteration      1(  17)  ---------------------------------------


    POTLOK:  cpu time      0.0188: real time      0.0188
    SETDIJ:  cpu time      0.0014: real time      0.0014
     EDDAV:  cpu time      4.3846: real time      4.3848
       DOS:  cpu time      0.0008: real time      0.0008
    CHARGE:  cpu time      0.1419: real time      0.1419
    MIXING:  cpu time      0.0013: real time      0.0013
    --------------------------------------------
      LOOP:  cpu time      4.5488: real time      4.5489

 eigenvalue-minimisations  :  9024
 total energy-change (2. order) :-0.5114994E-04  (-0.3625419E-06)
 number of electron      55.9999997 magnetization 
 augmentation part        1.0262286 magnetization 

 Broyden mixing:
  rms(total) = 0.69655E-04    rms(broyden)= 0.69638E-04
  rms(prec ) = 0.87713E-04
  weight for this iteration     100.00

 eigenvalues of (default mixing * dielectric matrix)
  average eigenvalue GAMMA=   2.4335
  8.3554  4.6704  2.9204  2.4807  2.0396  2.0396  1.2816  1.0032  1.0227  1.1559
  1.1164  1.1164

 Free energy of the ion-electron system (eV)
  ---------------------------------------------------
  alpha Z        PSCENC =        58.30706670
  Ewald energy   TEWEN  =      4793.37593264
  -Hartree energ DENC   =     -6550.84605926
  -exchange      EXHF   =         0.00000000
  -V(xc)+E(xc)   XCENC  =       180.49603341
  PAW double counting   =      5736.58126028    -5740.99214327
  entropy T*S    EENTRO =        -0.00153791
  eigenvalues    EBANDS =      -505.68159812
  atomic energy  EATOM  =      1903.26342058
  Solvation  Ediel_sol  =         0.00000000
  ---------------------------------------------------
  free energy    TOTEN  =      -125.49762495 eV

  energy without entropy =     -125.49608704  energy(sigma->0) =     -125.49685599


--------------------------------------------------------------------------------------------------------




--------------------------------------- Iteration      1(  18)  ---------------------------------------


    POTLOK:  cpu time      0.0179: real time      0.0179
    SETDIJ:  cpu time      0.0013: real time      0.0013
     EDDAV:  cpu time      3.9538: real time      3.9539
       DOS:  cpu time      0.0009: real time      0.0009
    CHARGE:  cpu time      0.1389: real time      0.1389
    MIXING:  cpu time      0.0013: real time      0.0013
    --------------------------------------------
      LOOP:  cpu time      4.1141: real time      4.1142

 eigenvalue-minimisations  :  7920
 total energy-change (2. order) :-0.7180688E-05  (-0.2716822E-07)
 number of electron      55.9999997 magnetization 
 augmentation part        1.0262276 magnetization 

 Broyden mixing:
  rms(total) = 0.22462E-04    rms(broyden)= 0.22458E-04
  rms(prec ) = 0.33086E-04
  weight for this iteration     100.00

 eigenvalues of (default mixing * dielectric matrix)
  average eigenvalue GAMMA=   2.4044
  8.3620  4.7521  3.0297  2.5306  2.4372  1.9768  1.5992  1.2952  1.1046  1.1046
  1.0019  1.0019  1.0617

 Free energy of the ion-electron system (eV)
  ---------------------------------------------------
  alpha Z        PSCENC =        58.30706670
  Ewald energy   TEWEN  =      4793.37593264
  -Hartree energ DENC   =     -6550.84303849
  -exchange      EXHF   =         0.00000000
  -V(xc)+E(xc)   XCENC  =       180.49600988
  PAW double counting   =      5736.58268180    -5740.99356547
  entropy T*S    EENTRO =        -0.00153791
  eigenvalues    EBANDS =      -505.68460186
  atomic energy  EATOM  =      1903.26342058
  Solvation  Ediel_sol  =         0.00000000
  ---------------------------------------------------
  free energy    TOTEN  =      -125.49763213 eV

  energy without entropy =     -125.49609422  energy(sigma->0) =     -125.49686317


--------------------------------------------------------------------------------------------------------




--------------------------------------- Iteration      1(  19)  ---------------------------------------


    POTLOK:  cpu time      0.0186: real time      0.0186
    SETDIJ:  cpu time      0.0013: real time      0.0013
     EDDAV:  cpu time      3.8175: real time      3.8177
       DOS:  cpu time      0.0008: real time      0.0008
    CHARGE:  cpu time      0.1366: real time      0.1366
    MIXING:  cpu time      0.0014: real time      0.0014
    --------------------------------------------
      LOOP:  cpu time      3.9764: real time      3.9765

 eigenvalue-minimisations  :  7560
 total energy-change (2. order) :-0.1457769E-05  (-0.7780751E-08)
 number of electron      55.9999997 magnetization 
 augmentation part        1.0262272 magnetization 

 Broyden mixing:
  rms(total) = 0.96035E-05    rms(broyden)= 0.96018E-05
  rms(prec ) = 0.16024E-04
  weight for this iteration     100.00

 eigenvalues of (default mixing * dielectric matrix)
  average eigenvalue GAMMA=   2.3667
  8.3383  4.7981  3.1295  2.6350  2.3675  1.9073  1.9073  1.5392  1.2532  0.9757
  0.9757  1.0532  1.1273  1.1273

 Free energy of the ion-electron system (eV)
[...]
     21      -5.7799      2.00000
     22      -5.5538      2.00000
     23      -5.2675      2.00000
     24      -5.1141      2.00000
     25      -3.9334      2.00000
     26      -3.4822      2.00000
     27      -2.9407      2.00000
     28      -1.1568      2.00000
     29       0.2338      0.00000
     30       2.2554      0.00000
     31       3.5694      0.00000
     32       3.7966      0.00000
     33       4.4766      0.00000
     34       4.8724      0.00000
     35       4.9975      0.00000
     36       5.1698      0.00000
     37       5.3497      0.00000
     38       5.5023      0.00000
     39       5.8810      0.00000
     40       6.0902      0.00000
     41       6.2220      0.00000
     42       6.5107      0.00000
     43       6.6382      0.00000
     44       7.0458      0.00000
     45       7.2041      0.00000
     46       7.2717      0.00000
     47       7.6910      0.00000
     48       8.2543      0.00000

 k-point    71 :      -0.3333   -0.4167    0.0000
  band No.  band energies     occupation 
      1     -18.8096      2.00000
      2     -18.3120      2.00000
      3     -17.8185      2.00000
      4     -16.6710      2.00000
      5     -14.5431      2.00000
      6     -14.1681      2.00000
      7     -13.7559      2.00000
      8     -12.7930      2.00000
      9     -11.0540      2.00000
     10      -9.3748      2.00000
     11      -9.0835      2.00000
     12      -8.6567      2.00000
     13      -8.5064      2.00000
     14      -7.6883      2.00000
     15      -7.5936      2.00000
     16      -7.5324      2.00000
     17      -6.7809      2.00000
     18      -6.6737      2.00000
     19      -6.2513      2.00000
     20      -6.0944      2.00000
     21      -5.7808      2.00000
     22      -5.5537      2.00000
     23      -5.2672      2.00000
     24      -5.1142      2.00000
     25      -3.9334      2.00000
     26      -3.4822      2.00000
     27      -2.9405      2.00000
     28      -1.1576      2.00000
     29       0.2350      0.00000
     30       2.2545      0.00000
     31       3.5709      0.00000
     32       3.7955      0.00000
     33       4.4764      0.00000
     34       4.8788      0.00000
     35       4.9766      0.00000
     36       5.2261      0.00000
     37       5.2890      0.00000
     38       5.5223      0.00000
     39       5.8806      0.00000
     40       6.1052      0.00000
     41       6.2017      0.00000
     42       6.5091      0.00000
     43       6.6440      0.00000
     44       7.0456      0.00000
     45       7.2116      0.00000
     46       7.2651      0.00000
     47       7.6913      0.00000
     48       8.2532      0.00000

 k-point    72 :       0.2500    0.3333    0.0000
  band No.  band energies     occupation 
      1     -18.8096      2.00000
      2     -18.3120      2.00000
      3     -17.8185      2.00000
      4     -16.6710      2.00000
      5     -14.5433      2.00000
      6     -14.1680      2.00000
      7     -13.7558      2.00000
      8     -12.7932      2.00000
      9     -11.0538      2.00000
     10      -9.3748      2.00000
     11      -9.0835      2.00000
     12      -8.6564      2.00000
     13      -8.5065      2.00000
     14      -7.6889      2.00000
     15      -7.5936      2.00000
     16      -7.5319      2.00000
     17      -6.7807      2.00000
     18      -6.6737      2.00000
     19      -6.2518      2.00000
     20      -6.0944      2.00000
     21      -5.7804      2.00000
     22      -5.5537      2.00000
     23      -5.2670      2.00000
     24      -5.1143      2.00000
     25      -3.9336      2.00000
     26      -3.4823      2.00000
     27      -2.9404      2.00000
     28      -1.1571      2.00000
     29       0.2342      0.00000
     30       2.2547      0.00000
     31       3.5712      0.00000
     32       3.7953      0.00000
     33       4.4765      0.00000
     34       4.8787      0.00000
     35       4.9769      0.00000
     36       5.2272      0.00000
     37       5.2879      0.00000
     38       5.5221      0.00000
     39       5.8808      0.00000
     40       6.1045      0.00000
     41       6.2018      0.00000
     42       6.5091      0.00000
     43       6.6442      0.00000
     44       7.0458      0.00000
     45       7.2122      0.00000
     46       7.2649      0.00000
     47       7.6911      0.00000
     48       8.2534      0.00000

 k-point    73 :      -0.4167   -0.2500    0.0000
  band No.  band energies     occupation 
      1     -18.8095      2.00000
      2     -18.3120      2.00000
      3     -17.8185      2.00000
      4     -16.6710      2.00000
      5     -14.5433      2.00000
      6     -14.1679      2.00000
      7     -13.7558      2.00000
      8     -12.7933      2.00000
      9     -11.0538      2.00000
     10      -9.3746      2.00000
     11      -9.0839      2.00000
     12      -8.6567      2.00000
     13      -8.5061      2.00000
     14      -7.6888      2.00000
     15      -7.5932      2.00000
     16      -7.5319      2.00000
     17      -6.7812      2.00000
     18      -6.6738      2.00000
     19      -6.2518      2.00000
     20      -6.0943      2.00000
     21      -5.7804      2.00000
     22      -5.5537      2.00000
     23      -5.2670      2.00000
     24      -5.1142      2.00000
     25      -3.9335      2.00000
     26      -3.4824      2.00000
     27      -2.9404      2.00000
     28      -1.1567      2.00000
     29       0.2336      0.00000
     30       2.2545      0.00000
     31       3.5716      0.00000
     32       3.7958      0.00000
     33       4.4763      0.00000
     34       4.8788      0.00000
     35       4.9762      0.00000
     36       5.2237      0.00000
     37       5.2916      0.00000
     38       5.5223      0.00000
     39       5.8810      0.00000
     40       6.1067      0.00000
     41       6.1995      0.00000
     42       6.5089      0.00000
     43       6.6442      0.00000
     44       7.0454      0.00000
     45       7.2123      0.00000
     46       7.2648      0.00000
     47       7.6912      0.00000
     48       8.2535      0.00000

 k-point    74 :       0.3333    0.3333    0.0000
  band No.  band energies     occupation 
      1     -18.3661      2.00000
      2     -18.3476      2.00000
      3     -18.3465      2.00000
      4     -16.6443      2.00000
      5     -14.4021      2.00000
      6     -14.3953      2.00000
      7     -13.1655      2.00000
      8     -13.1648      2.00000
      9     -11.3565      2.00000
     10      -8.9145      2.00000
     11      -8.9138      2.00000
     12      -8.2641      2.00000
     13      -8.2454      2.00000
     14      -8.2297      2.00000
     15      -7.8751      2.00000
     16      -6.9874      2.00000
     17      -6.9809      2.00000
     18      -6.9557      2.00000
     19      -6.2895      2.00000
     20      -6.0655      2.00000
     21      -6.0462      2.00000
     22      -5.5239      2.00000
     23      -5.5191      2.00000
     24      -5.1004      2.00000
     25      -3.8388      2.00000
     26      -3.3074      2.00000
     27      -3.2944      2.00000
     28      -0.4636      1.14138
     29      -0.4384      0.85862
     30       2.5527      0.00000
     31       3.6986      0.00000
     32       3.9096      0.00000
     33       3.9590      0.00000
     34       4.9529      0.00000
     35       4.9861      0.00000
     36       5.1395      0.00000
     37       5.7548      0.00000
     38       5.7550      0.00000
     39       6.0721      0.00000
     40       6.2648      0.00000
     41       6.2828      0.00000
     42       6.2845      0.00000
     43       6.5131      0.00000
     44       6.5175      0.00000
     45       6.7828      0.00000
     46       7.4251      0.00000
     47       7.4272      0.00000
     48       8.0266      0.00000


--------------------------------------------------------------------------------------------------------


 soft charge-density along one line, spin component           1
         0         1         2         3         4         5         6         7         8         9
 total charge-density along one line
 
 pseudopotential strength for first ion, spin component:           1
  6.776  10.343   0.000  -0.004  -0.000   0.000  -0.007  -0.000
 10.343  15.783   0.000  -0.007  -0.000   0.000  -0.010  -0.000
  0.000   0.000  -2.347  -0.000   0.000  -4.036  -0.000   0.000
 -0.004  -0.007  -0.000  -2.342   0.000  -0.000  -4.024   0.000
 -0.000  -0.000   0.000   0.000  -2.347   0.000   0.000  -4.036
  0.000   0.000  -4.036  -0.000   0.000  -6.743  -0.000   0.000
 -0.007  -0.010  -0.000  -4.024   0.000  -0.000  -6.718   0.000
 -0.000  -0.000   0.000   0.000  -4.036   0.000   0.000  -6.743
 total augmentation occupancy for first ion, spin component:           1
  3.774  -1.096   0.000  -0.541   0.000  -0.000   0.221  -0.000
 -1.096   0.343  -0.000   0.248  -0.000   0.000  -0.085   0.000
  0.000  -0.000   4.252   0.000  -0.000  -1.257  -0.000   0.000
 -0.541   0.248   0.000   1.851  -0.000  -0.000  -0.420   0.000
  0.000  -0.000  -0.000  -0.000   4.252   0.000   0.000  -1.257
 -0.000   0.000  -1.257  -0.000   0.000   0.382   0.000  -0.000
  0.221  -0.085  -0.000  -0.420   0.000   0.000   0.100  -0.000
 -0.000   0.000   0.000   0.000  -1.257  -0.000  -0.000   0.382


------------------------ aborting loop because EDIFF is reached ----------------------------------------


    CHARGE:  cpu time      0.1373: real time      0.1373
    FORLOC:  cpu time      0.0029: real time      0.0029
    FORNL :  cpu time      0.6929: real time      0.6929
    STRESS:  cpu time      3.2564: real time      3.2565
    FORCOR:  cpu time      0.0181: real time      0.0181
    FORHAR:  cpu time      0.0054: real time      0.0054
    MIXING:  cpu time      0.0008: real time      0.0008
    OFIELD:  cpu time      0.0000: real time      0.0000

 ---------------------------------------------------------------------------------------------

         DFTD3 V3.0 Rev 1        
 Edisp (eV)   -1.60492

 E6    (eV) :    -1.1076
 E8    (eV) :    -0.4973
 % E8        : 30.99
    FORVDW:  cpu time      0.0350: real time      0.0350

  FORCE on cell =-STRESS in cart. coord.  units (eV):
  Direction    XX          YY          ZZ          XY          YZ          ZX
  --------------------------------------------------------------------------------------
  Alpha Z    58.30707    58.30707    58.30707
  Ewald    6545.15013  6545.11208 -8293.55707    -0.02463     0.01269    -0.00626
  Hartree  6468.72826  6468.72079 -6383.87581    -0.00334     0.00503    -0.00174
  E(xc)    -201.71489  -201.71502  -208.61805    -0.00009    -0.00003    -0.00005
  Local  -13607.20315-13607.16429 13969.96269     0.02392    -0.01688     0.00738
  n-local   -43.10511   -43.10530   -41.45186    -0.00009    -0.00042     0.00004
  augment    -4.07948    -4.07916    -3.64998     0.00007     0.00004     0.00001
  Kinetic   783.52454   783.53143   903.67315     0.00449     0.00272     0.00135
  Fock        0.00000     0.00000     0.00000     0.00000     0.00000     0.00000
  vdW        -0.37009    -0.37007    -1.12195    -0.00000    -0.00001    -0.00000
  -------------------------------------------------------------------------------------
  Total      -0.76273    -0.76246    -0.33182     0.00032     0.00314     0.00073
  in kB      -4.00582    -4.00441    -1.74271     0.00166     0.01648     0.00385
  external pressure =       -3.25 kB  Pullay stress =        0.00 kB


 VOLUME and BASIS-vectors are now :
 -----------------------------------------------------------------------------
  energy-cutoff  :      450.00
  volume of cell :      305.06
      direct lattice vectors                 reciprocal lattice vectors
     4.196759107  2.423000000  0.000000000     0.119139552  0.206355757  0.000000000
    -4.196759107  2.423000000  0.000000000    -0.119139552  0.206355757  0.000000000
     0.000000000  0.000000000 15.000000000     0.000000000  0.000000000  0.066666667

  length of vectors
     4.846000000  4.846000000 15.000000000     0.238279104  0.238279104  0.066666667


 FORCES acting on ions
    electron-ion (+dipol)            ewald-force                    non-local-force                 convergence-correction
 -----------------------------------------------------------------------------------------------
   0.403E-03 0.161E-01 0.164E+03   0.368E-03 -.181E-01 -.163E+03   -.187E-02 0.144E-02 -.167E+01   0.503E-05 0.149E-05 0.154E-04
   -.239E+02 -.134E+02 0.243E+03   0.264E+02 0.149E+02 -.243E+03   -.233E+01 -.138E+01 0.440E+00   -.296E-03 -.399E-03 -.105E-03
   0.235E+02 -.140E+02 0.242E+03   -.261E+02 0.155E+02 -.243E+03   0.236E+01 -.133E+01 0.440E+00   0.488E-03 -.598E-04 -.106E-03
   0.360E+00 0.273E+02 0.243E+03   -.329E+00 -.303E+02 -.243E+03   -.293E-01 0.271E+01 0.439E+00   -.191E-03 0.459E-03 -.104E-03
   0.337E+00 -.410E+02 0.312E+03   -.322E+00 0.473E+02 -.314E+03   -.188E-01 -.571E+01 0.189E+01   -.330E-03 -.911E-03 0.228E-03
   0.353E+02 0.208E+02 0.312E+03   -.408E+02 -.239E+02 -.314E+03   0.496E+01 0.284E+01 0.190E+01   0.935E-03 0.163E-03 0.221E-03
   -.357E+02 0.202E+02 0.312E+03   0.411E+02 -.234E+02 -.314E+03   -.494E+01 0.287E+01 0.190E+01   -.613E-03 0.746E-03 0.224E-03
   0.511E+00 0.545E+00 -.228E+03   -.567E+00 -.572E+00 0.228E+03   -.534E-03 0.373E-02 0.790E-01   0.126E-03 0.289E-03 -.127E-02
   0.107E+00 -.508E+00 -.230E+03   -.477E-01 0.477E+00 0.230E+03   0.657E-01 -.106E+00 0.861E-02   -.203E-03 0.419E-03 -.138E-02
   0.216E-01 0.229E-01 -.231E+03   -.232E-01 -.236E-01 0.231E+03   -.289E-03 0.187E-02 -.401E-01   0.305E-05 -.579E-05 -.156E-02
   -.502E+00 0.173E+00 -.230E+03   0.446E+00 -.206E+00 0.230E+03   -.124E+00 -.259E-02 0.929E-02   0.461E-03 -.348E-04 -.138E-02
   -.708E+00 0.160E+00 -.228E+03   0.758E+00 -.197E+00 0.228E+03   -.323E-02 -.507E-02 0.789E-01   -.313E-03 -.238E-04 -.127E-02
   -.149E-01 -.735E-02 -.227E+03   0.159E-01 0.694E-02 0.227E+03   0.955E-03 0.364E-04 0.487E-01   -.462E-05 0.278E-05 -.121E-02
   0.189E+00 -.713E+00 -.228E+03   -.184E+00 0.774E+00 0.228E+03   0.262E-02 -.142E-02 0.785E-01   0.183E-03 -.258E-03 -.127E-02
   0.397E+00 0.329E+00 -.230E+03   -.398E+00 -.261E+00 0.230E+03   0.589E-01 0.110E+00 0.112E-01   -.252E-03 -.387E-03 -.137E-02
 -----------------------------------------------------------------------------------------------
   0.601E-03 0.113E-02 -.560E+01   0.311E-14 0.264E-13 -.227E-12   -.594E-03 -.110E-02 0.561E+01   0.546E-06 -.112E-06 -.103E-01
 
 
 POSITION                                       TOTAL-FORCE (eV/Angst)
 -----------------------------------------------------------------------------------
      0.00599      0.01680      1.78841        -0.001091     -0.000615     -0.131505
      1.48066      0.86958      1.46744         0.240125      0.136780      0.055862
     -1.46978      0.86774      1.46747        -0.242345      0.138618      0.055474
      0.00681      3.15930      1.46731         0.001600     -0.274536      0.056598
      0.00721      1.56939      1.50439        -0.003835      0.572168     -0.024599
      2.85737      1.66479      1.50407        -0.489883     -0.290355     -0.022712
     -2.84690      1.66245      1.50396         0.495132     -0.282904     -0.022455
     -2.09773      1.21175      5.00017        -0.056727     -0.022968      0.011242
     -0.70119      1.21350      5.00108         0.126755     -0.139976     -0.000251
      0.00002      4.84598      4.99852        -0.001922      0.001284      0.008623
     -2.79527      2.42347      5.00113        -0.182682     -0.036595     -0.000069
     -0.00053      2.42351      5.00021         0.047095     -0.042335      0.011407
      1.39890      2.42301      4.99929         0.001999     -0.000392     -0.008423
     -2.09847      3.63381      5.00016         0.007067      0.060382      0.011155
     -0.70032      3.63199      5.00108         0.058714      0.181444     -0.000347
 -----------------------------------------------------------------------------------
    total drift:                                0.000008      0.000036     -0.000896


--------------------------------------------------------------------------------------------------------



  FREE ENERGIE OF THE ION-ELECTRON SYSTEM (eV)
  ---------------------------------------------------
  free  energy   TOTEN  =      -127.10098298 eV

  energy  without entropy=     -127.09944046  energy(sigma->0) =     -127.10021172
 
 d Force =-0.2087254E-02[-0.327E-01, 0.286E-01]  d Energy =-0.2167376E-02 0.801E-04
 d Force =-0.3333372E+01[-0.350E+01,-0.316E+01]  d Ewald  =-0.3333575E+01 0.203E-03


--------------------------------------------------------------------------------------------------------


    POTLOK:  cpu time      0.0238: real time      0.0238


--------------------------------------------------------------------------------------------------------


 stress matrix after NEB project (eV)
     -0.76273      0.00032      0.00073
      0.00032     -0.76246      0.00314
      0.00073      0.00314     -0.33182
  FORCES: max atom, RMS     0.572709    0.300401
  FORCE total and by dimension    1.163448    0.572168
  Stress total and by dimension    1.128372    0.762727
 Steepest descent step on ions:
 trial-energy change:    0.002167  1 .order    0.002087   -0.028553    0.032728
  (g-gl).g = 0.286E-01      g.g   = 0.286E-01  gl.gl    = 0.000E+00
 g(Force)  = 0.286E-01   g(Stress)= 0.000E+00 ortho     = 0.000E+00
 gamma     =   0.00000
 trial     =   1.00000
 opt step  =   0.46399  (harmonic =   0.46594) maximal distance =0.00653307
 next E    =  -127.109767   (d E  =  -0.00662)


--------------------------------------------------------------------------------------------------------


    WAVPRE:  cpu time      0.0068: real time      0.0097
    FEWALD:  cpu time      0.0004: real time      0.0004
    ORTHCH:  cpu time      0.2963: real time      0.2963
     LOOP+:  cpu time     37.2650: real time     37.2752


--------------------------------------- Iteration      3(   1)  ---------------------------------------


    POTLOK:  cpu time      0.0166: real time      0.0169
    SETDIJ:  cpu time      0.0013: real time      0.0013
     EDDAV:  cpu time      3.6011: real time      3.6012
       DOS:  cpu time      0.0008: real time      0.0008
    CHARGE:  cpu time      0.1371: real time      0.1371
    MIXING:  cpu time      0.0009: real time      0.0009
    --------------------------------------------
      LOOP:  cpu time      3.7578: real time      3.7582

 eigenvalue-minimisations  :  7104
 total energy-change (2. order) :-0.1059386E-01  (-0.8259659E-01)
 number of electron      55.9999997 magnetization 
 augmentation part        1.0282042 magnetization 

 Broyden mixing:
  rms(total) = 0.25203E-01    rms(broyden)= 0.25189E-01
  rms(prec ) = 0.31172E-01
  weight for this iteration     100.00

 Free energy of the ion-electron system (eV)
  ---------------------------------------------------
  alpha Z        PSCENC =        58.30706670
  Ewald energy   TEWEN  =      4794.88056230
  -Hartree energ DENC   =     -6552.46159655
  -exchange      EXHF   =         0.00000000
  -V(xc)+E(xc)   XCENC  =       180.54761206
  PAW double counting   =      5762.50168411    -5766.92098107
  entropy T*S    EENTRO =        -0.00154017
  eigenvalues    EBANDS =      -505.62287982
  atomic energy  EATOM  =      1903.26342058
  Solvation  Ediel_sol  =         0.00000000
  ---------------------------------------------------
  free energy    TOTEN  =      -125.50665187 eV

  energy without entropy =     -125.50511170  energy(sigma->0) =     -125.50588179


--------------------------------------------------------------------------------------------------------




--------------------------------------- Iteration      3(   2)  ---------------------------------------


    POTLOK:  cpu time      0.0178: real time      0.0178
    SETDIJ:  cpu time      0.0013: real time      0.0013
