       N       E                     dE             d eps       ncg     rms          rms(c)
DAV:   1     0.203060149291E+03    0.20306E+03   -0.25718E+04 14208   0.859E+02
DAV:   2    -0.116450025200E+03   -0.31951E+03   -0.31816E+03 20112   0.163E+02
DAV:   3    -0.129436507053E+03   -0.12986E+02   -0.12976E+02 26640   0.431E+01
DAV:   4    -0.129461482941E+03   -0.24976E-01   -0.24976E-01 20112   0.182E+00
DAV:   5    -0.129461542000E+03   -0.59058E-04   -0.59058E-04 25680   0.902E-02    0.245E+01
DAV:   6    -0.921653478165E+02    0.37296E+02   -0.71927E+01 25824   0.255E+01    0.139E+01
DAV:   7    -0.100615629852E+03   -0.84503E+01   -0.98748E+00 21936   0.101E+01    0.813E+00
DAV:   8    -0.110472692019E+03   -0.98571E+01   -0.88612E+00 24816   0.897E+00    0.437E+00
DAV:   9    -0.117312592319E+03   -0.68399E+01   -0.40577E+00 19584   0.622E+00    0.279E+00
DAV:  10    -0.123651866724E+03   -0.63393E+01   -0.84169E+00 24192   0.709E+00    0.161E+00
DAV:  11    -0.125274160294E+03   -0.16223E+01   -0.23531E+00 25872   0.367E+00    0.985E-01
DAV:  12    -0.125430444514E+03   -0.15628E+00   -0.23082E-01 19248   0.141E+00    0.443E-01
DAV:  13    -0.125465426024E+03   -0.34982E-01   -0.24384E-02 18192   0.568E-01    0.181E-01
DAV:  14    -0.125488427998E+03   -0.23002E-01   -0.66432E-03 20400   0.286E-01    0.816E-02
DAV:  15    -0.125495138584E+03   -0.67106E-02   -0.28832E-03 18576   0.152E-01    0.424E-02
DAV:  16    -0.125497145103E+03   -0.20065E-02   -0.59320E-04 16320   0.804E-02    0.221E-02
DAV:  17    -0.125498402998E+03   -0.12579E-02   -0.15224E-04 18336   0.510E-02    0.168E-02
DAV:  18    -0.125499178117E+03   -0.77512E-03   -0.81758E-05 17280   0.390E-02    0.117E-02
DAV:  19    -0.125499601751E+03   -0.42363E-03   -0.40310E-05 20640   0.253E-02    0.691E-03
DAV:  20    -0.125499637275E+03   -0.35524E-04   -0.18034E-05 22560   0.173E-02    0.405E-03
DAV:  21    -0.125499662847E+03   -0.25572E-04   -0.57617E-06 21120   0.980E-03    0.214E-03
DAV:  22    -0.125499686556E+03   -0.23708E-04   -0.27207E-06 22464   0.583E-03    0.131E-03
DAV:  23    -0.125499697762E+03   -0.11206E-04   -0.13953E-06 21600   0.388E-03    0.689E-04
DAV:  24    -0.125499700156E+03   -0.23946E-05   -0.27317E-07 23232   0.204E-03    0.364E-04
DAV:  25    -0.125499701179E+03   -0.10224E-05   -0.11190E-07 20928   0.114E-03    0.184E-04
DAV:  26    -0.125499701679E+03   -0.50032E-06   -0.27820E-08 22464   0.565E-04
   1 F= -.12710419E+03 E0= -.12710342E+03  d E =-.127104E+03  mag=    -0.0000
       N       E                     dE             d eps       ncg     rms          rms(c)
DAV:   1    -0.125507026965E+03   -0.73258E-02   -0.30586E+00 14208   0.560E+00    0.477E-01
DAV:   2    -0.125498890385E+03    0.81366E-02   -0.60988E-02 26016   0.740E-01    0.212E-01
DAV:   3    -0.125497936349E+03    0.95404E-03   -0.53645E-03 22320   0.216E-01    0.824E-02
DAV:   4    -0.125497892794E+03    0.43555E-04   -0.59207E-04 25536   0.740E-02    0.239E-02
DAV:   5    -0.125497895370E+03   -0.25759E-05   -0.18197E-05 24528   0.147E-02    0.888E-03
DAV:   6    -0.125497895490E+03   -0.12076E-06   -0.23715E-06 22080   0.510E-03
   2 F= -.12710185E+03 E0= -.12710107E+03  d E =0.234373E-02  mag=    -0.0000
       N       E                     dE             d eps       ncg     rms          rms(c)
DAV:   1    -0.125508764786E+03   -0.10869E-01   -0.89077E-01 14208   0.303E+00    0.258E-01
DAV:   2    -0.125506339659E+03    0.24251E-02   -0.17730E-02 26352   0.397E-01    0.114E-01
DAV:   3    -0.125506069319E+03    0.27034E-03   -0.15295E-03 24000   0.116E-01    0.449E-02
DAV:   4    -0.125506057224E+03    0.12096E-04   -0.16931E-04 22992   0.395E-02    0.124E-02
DAV:   5    -0.125506058006E+03   -0.78210E-06   -0.58631E-06 23472   0.824E-03
   3 F= -.12711030E+03 E0= -.12710953E+03  d E =-.610853E-02  mag=    -0.0000
       N       E                     dE             d eps       ncg     rms          rms(c)
DAV:   1    -0.125510143325E+03   -0.40861E-02   -0.23483E-01 14208   0.186E+00    0.106E-01
DAV:   2    -0.125510151101E+03   -0.77764E-05   -0.21439E-03 28032   0.198E-01    0.611E-02
DAV:   3    -0.125510137973E+03    0.13128E-04   -0.22648E-04 22848   0.558E-02    0.208E-02
DAV:   4    -0.125510138352E+03   -0.37891E-06   -0.43506E-05 25680   0.234E-02    0.877E-03
DAV:   5    -0.125510139030E+03   -0.67802E-06   -0.19962E-06 23088   0.592E-03
   4 F= -.12711428E+03 E0= -.12711351E+03  d E =-.398111E-02  mag=     0.0000
       N       E                     dE             d eps       ncg     rms          rms(c)
DAV:   1    -0.125512186433E+03   -0.20481E-02   -0.39611E-01 14208   0.241E+00    0.137E-01
DAV:   2    -0.125512211513E+03   -0.25080E-04   -0.36155E-03 25824   0.257E-01    0.792E-02
DAV:   3    -0.125512191164E+03    0.20350E-04   -0.39255E-04 22272   0.736E-02    0.270E-02
DAV:   4    -0.125512191432E+03   -0.26786E-06   -0.76396E-05 25392   0.309E-02    0.116E-02
DAV:   5    -0.125512192570E+03   -0.11382E-05   -0.35449E-06 21888   0.791E-03    0.415E-03
DAV:   6    -0.125512192760E+03   -0.19015E-06   -0.87661E-07 23424   0.357E-03
   5 F= -.12711618E+03 E0= -.12711541E+03  d E =-.588335E-02  mag=     0.0000
       N       E                     dE             d eps       ncg     rms          rms(c)
DAV:   1    -0.125513374122E+03   -0.11816E-02   -0.14238E-02 14496   0.427E-01    0.253E-02
DAV:   2    -0.125513376331E+03   -0.22092E-05   -0.10763E-04 25344   0.428E-02    0.148E-02
DAV:   3    -0.125513375842E+03    0.48925E-06   -0.12161E-05 20256   0.130E-02    0.388E-03
DAV:   4    -0.125513376073E+03   -0.23122E-06   -0.20800E-06 24528   0.534E-03
   6 F= -.12711734E+03 E0= -.12711657E+03  d E =-.116030E-02  mag=    -0.0000
       N       E                     dE             d eps       ncg     rms          rms(c)
DAV:   1    -0.125516388851E+03   -0.30130E-02   -0.12826E-01 14208   0.128E+00    0.758E-02
DAV:   2    -0.125516408454E+03   -0.19603E-04   -0.94514E-04 24624   0.127E-01    0.442E-02
DAV:   3    -0.125516402631E+03    0.58226E-05   -0.10790E-04 20064   0.386E-02    0.115E-02
DAV:   4    -0.125516402785E+03   -0.15368E-06   -0.18084E-05 26784   0.156E-02    0.496E-03
DAV:   5    -0.125516403106E+03   -0.32123E-06   -0.62393E-07 20640   0.335E-03
   7 F= -.12712030E+03 E0= -.12711952E+03  d E =-.411599E-02  mag=     0.0000
       N       E                     dE             d eps       ncg     rms          rms(c)
DAV:   1    -0.125520103498E+03   -0.37007E-02   -0.51504E-01 14208   0.257E+00    0.151E-01
DAV:   2    -0.125520182773E+03   -0.79276E-04   -0.38358E-03 25248   0.256E-01    0.881E-02
DAV:   3    -0.125520156744E+03    0.26029E-04   -0.43082E-04 21840   0.769E-02    0.231E-02
DAV:   4    -0.125520156945E+03   -0.20143E-06   -0.69675E-05 25680   0.306E-02    0.988E-03
DAV:   5    -0.125520157870E+03   -0.92429E-06   -0.25065E-06 23424   0.669E-03
   8 F= -.12712390E+03 E0= -.12712313E+03  d E =-.771774E-02  mag=    -0.0000
       N       E                     dE             d eps       ncg     rms          rms(c)
DAV:   1    -0.125518499414E+03    0.16575E-02   -0.20722E+00 14208   0.513E+00    0.302E-01
DAV:   2    -0.125518851078E+03   -0.35166E-03   -0.15965E-02 26592   0.518E-01    0.176E-01
DAV:   3    -0.125518743987E+03    0.10709E-03   -0.16851E-03 23040   0.151E-01    0.472E-02
DAV:   4    -0.125518747748E+03   -0.37615E-05   -0.26621E-04 26016   0.598E-02    0.196E-02
DAV:   5    -0.125518751824E+03   -0.40760E-05   -0.89687E-06 23520   0.128E-02    0.824E-03
DAV:   6    -0.125518751418E+03    0.40644E-06   -0.42102E-06 24096   0.741E-03
   9 F= -.12712215E+03 E0= -.12712137E+03  d E =-.596539E-02  mag=     0.0000
       N       E                     dE             d eps       ncg     rms          rms(c)
DAV:   1    -0.125520906439E+03   -0.21546E-02   -0.86447E-01 14208   0.331E+00    0.195E-01
DAV:   2    -0.125521046686E+03   -0.14025E-03   -0.67595E-03 27648   0.336E-01    0.113E-01
DAV:   3    -0.125520999055E+03    0.47631E-04   -0.67833E-04 19440   0.965E-02    0.308E-02
DAV:   4    -0.125521002278E+03   -0.32225E-05   -0.11277E-04 24384   0.389E-02    0.125E-02
DAV:   5    -0.125521004303E+03   -0.20255E-05   -0.34843E-06 18096   0.798E-03    0.541E-03
DAV:   6    -0.125521004518E+03   -0.21508E-06   -0.14065E-06 24384   0.429E-03
  10 F= -.12712463E+03 E0= -.12712386E+03  d E =-.844800E-02  mag=    -0.0000
       N       E                     dE             d eps       ncg     rms          rms(c)
DAV:   1    -0.125522681336E+03   -0.16770E-02   -0.61113E-02 14208   0.821E-01    0.482E-02
DAV:   2    -0.125522691417E+03   -0.10081E-04   -0.38113E-04 21984   0.724E-02    0.286E-02
DAV:   3    -0.125522689174E+03    0.22430E-05   -0.43886E-05 17088   0.215E-02    0.551E-03
DAV:   4    -0.125522689491E+03   -0.31650E-06   -0.39942E-06 23376   0.763E-03
  11 F= -.12712621E+03 E0= -.12712543E+03  d E =-.157759E-02  mag=    -0.0000
       N       E                     dE             d eps       ncg     rms          rms(c)
DAV:   1    -0.125526525122E+03   -0.38359E-02   -0.55099E-01 14208   0.246E+00    0.144E-01
DAV:   2    -0.125526627178E+03   -0.10206E-03   -0.33250E-03 27744   0.215E-01    0.854E-02
DAV:   3    -0.125526598788E+03    0.28390E-04   -0.39700E-04 21504   0.636E-02    0.158E-02
DAV:   4    -0.125526598667E+03    0.12163E-06   -0.31243E-05 23808   0.221E-02    0.754E-03
DAV:   5    -0.125526597025E+03    0.16417E-05   -0.31590E-06 21504   0.685E-03    0.289E-03
DAV:   6    -0.125526596020E+03    0.10055E-05   -0.15142E-06 24768   0.422E-03    0.129E-03
DAV:   7    -0.125526595975E+03    0.45152E-07   -0.34468E-07 20832   0.189E-03
  12 F= -.12712979E+03 E0= -.12712902E+03  d E =-.516207E-02  mag=     0.0000
       N       E                     dE             d eps       ncg     rms          rms(c)
DAV:   1    -0.125529595510E+03   -0.29995E-02   -0.22064E+00 14208   0.492E+00    0.283E-01
DAV:   2    -0.125530022245E+03   -0.42673E-03   -0.12492E-02 28032   0.420E-01    0.169E-01
DAV:   3    -0.125529913896E+03    0.10835E-03   -0.16087E-03 22272   0.128E-01    0.289E-02
DAV:   4    -0.125529912248E+03    0.16471E-05   -0.11761E-04 23904   0.433E-02    0.148E-02
DAV:   5    -0.125529907555E+03    0.46939E-05   -0.11445E-05 23472   0.133E-02    0.553E-03
DAV:   6    -0.125529904857E+03    0.26972E-05   -0.50259E-06 24240   0.799E-03    0.187E-03
DAV:   7    -0.125529905536E+03   -0.67841E-06   -0.31711E-06 24672   0.554E-03
  13 F= -.12713246E+03 E0= -.12713168E+03  d E =-.782875E-02  mag=     0.0000
       N       E                     dE             d eps       ncg     rms          rms(c)
DAV:   1    -0.125531810952E+03   -0.19061E-02   -0.16073E-01 14208   0.149E+00    0.789E-02
DAV:   2    -0.125531840306E+03   -0.29354E-04   -0.11966E-03 25824   0.145E-01    0.481E-02
DAV:   3    -0.125531821781E+03    0.18525E-04   -0.16456E-04 20544   0.473E-02    0.984E-03
DAV:   4    -0.125531822274E+03   -0.49380E-06   -0.17642E-05 24048   0.167E-02    0.575E-03
DAV:   5    -0.125531822837E+03   -0.56219E-06   -0.10550E-06 23136   0.420E-03
  14 F= -.12713420E+03 E0= -.12713343E+03  d E =-.174672E-02  mag=     0.0000
       N       E                     dE             d eps       ncg     rms          rms(c)
DAV:   1    -0.125532912138E+03   -0.10899E-02   -0.29522E-01 14208   0.202E+00    0.106E-01
DAV:   2    -0.125532966006E+03   -0.53868E-04   -0.21467E-03 26496   0.195E-01    0.651E-02
DAV:   3    -0.125532931469E+03    0.34537E-04   -0.30401E-04 23232   0.640E-02    0.132E-02
DAV:   4    -0.125532931057E+03    0.41194E-06   -0.30989E-05 24624   0.224E-02    0.778E-03
DAV:   5    -0.125532931064E+03   -0.68903E-08   -0.18815E-06 23808   0.568E-03
  15 F= -.12713508E+03 E0= -.12713430E+03  d E =-.261808E-02  mag=    -0.0000
       N       E                     dE             d eps       ncg     rms          rms(c)
DAV:   1    -0.125533170455E+03   -0.23940E-03   -0.89024E-03 14592   0.371E-01    0.191E-02
DAV:   2    -0.125533171522E+03   -0.10664E-05   -0.78072E-05 23904   0.369E-02    0.113E-02
DAV:   3    -0.125533171692E+03   -0.17020E-06   -0.78444E-06 23520   0.103E-02
  16 F= -.12713526E+03 E0= -.12713448E+03  d E =-.183188E-03  mag=     0.0000
       N       E                     dE             d eps       ncg     rms          rms(c)
DAV:   1    -0.125533448935E+03   -0.27741E-03   -0.38845E-02 14208   0.775E-01    0.405E-02
DAV:   2    -0.125533453767E+03   -0.48318E-05   -0.33892E-04 26784   0.770E-02    0.242E-02
DAV:   3    -0.125533452299E+03    0.14678E-05   -0.32773E-05 20784   0.209E-02    0.724E-03
DAV:   4    -0.125533452803E+03   -0.50388E-06   -0.51998E-06 23712   0.854E-03
  17 F= -.12713542E+03 E0= -.12713464E+03  d E =-.343544E-03  mag=    -0.0000
       N       E                     dE             d eps       ncg     rms          rms(c)
DAV:   1    -0.125533708853E+03   -0.25655E-03   -0.15195E-02 14208   0.498E-01    0.251E-02
DAV:   2    -0.125533711587E+03   -0.27346E-05   -0.14976E-04 26928   0.517E-02    0.150E-02
DAV:   3    -0.125533711380E+03    0.20760E-06   -0.12308E-05 18912   0.132E-02    0.504E-03
DAV:   4    -0.125533711840E+03   -0.46025E-06   -0.22167E-06 22368   0.559E-03
  18 F= -.12713559E+03 E0= -.12713481E+03  d E =-.172236E-03  mag=     0.0000
       N       E                     dE             d eps       ncg     rms          rms(c)
DAV:   1    -0.125533801638E+03   -0.90259E-04   -0.67241E-03 14208   0.331E-01    0.169E-02
DAV:   2    -0.125533802719E+03   -0.10809E-05   -0.66826E-05 25680   0.345E-02    0.101E-02
DAV:   3    -0.125533802867E+03   -0.14769E-06   -0.56096E-06 17904   0.893E-03
  19 F= -.12713562E+03 E0= -.12713485E+03  d E =-.205135E-03  mag=     0.0000
       N       E                     dE             d eps       ncg     rms          rms(c)
DAV:   1    -0.125533933612E+03   -0.13089E-03   -0.48434E-03 14208   0.277E-01    0.158E-02
DAV:   2    -0.125533933506E+03    0.10581E-06   -0.59591E-05 27888   0.321E-02    0.926E-03
DAV:   3    -0.125533932732E+03    0.77436E-06   -0.60888E-06 16320   0.960E-03
  20 F= -.12713569E+03 E0= -.12713491E+03  d E =-.660565E-04  mag=     0.0000
       N       E                     dE             d eps       ncg     rms          rms(c)
DAV:   1    -0.125533996685E+03   -0.63179E-04   -0.27557E-03 14208   0.209E-01    0.120E-02
DAV:   2    -0.125533996736E+03   -0.51157E-07   -0.32966E-05 27600   0.240E-02    0.706E-03
DAV:   3    -0.125533996408E+03    0.32756E-06   -0.33543E-06 18240   0.717E-03
  21 F= -.12713571E+03 E0= -.12713493E+03  d E =-.815410E-04  mag=    -0.0000
       N       E                     dE             d eps       ncg     rms          rms(c)
DAV:   1    -0.125534154128E+03   -0.15739E-03   -0.50948E-03 14208   0.283E-01    0.139E-02
DAV:   2    -0.125534155101E+03   -0.97354E-06   -0.51984E-05 27264   0.296E-02    0.826E-03
DAV:   3    -0.125534155162E+03   -0.60511E-07   -0.47358E-06 14400   0.824E-03
  22 F= -.12713577E+03 E0= -.12713500E+03  d E =-.668531E-04  mag=     0.0000
       N       E                     dE             d eps       ncg     rms          rms(c)
DAV:   1    -0.125534287587E+03   -0.13249E-03   -0.67700E-03 14208   0.326E-01    0.163E-02
DAV:   2    -0.125534289095E+03   -0.15080E-05   -0.68486E-05 25584   0.341E-02    0.969E-03
DAV:   3    -0.125534289204E+03   -0.10907E-06   -0.67049E-06 18816   0.976E-03
  23 F= -.12713580E+03 E0= -.12713502E+03  d E =-.949119E-04  mag=    -0.0000
       N       E                     dE             d eps       ncg     rms          rms(c)
DAV:   1    -0.125534460732E+03   -0.17164E-03   -0.50952E-03 14208   0.280E-01    0.151E-02
DAV:   2    -0.125534461190E+03   -0.45786E-06   -0.59888E-05 21936   0.316E-02    0.893E-03
DAV:   3    -0.125534460990E+03    0.20053E-06   -0.54979E-06 18144   0.911E-03
  24 F= -.12713585E+03 E0= -.12713507E+03  d E =-.480261E-04  mag=     0.0000
       N       E                     dE             d eps       ncg     rms          rms(c)
DAV:   1    -0.125534532704E+03   -0.71514E-04   -0.14049E-03 14208   0.147E-01    0.833E-03
DAV:   2    -0.125534532940E+03   -0.23584E-06   -0.16338E-05 20304   0.168E-02    0.494E-03
DAV:   3    -0.125534532984E+03   -0.43618E-07   -0.16103E-06 15600   0.511E-03
  25 F= -.12713586E+03 E0= -.12713508E+03  d E =-.551522E-04  mag=    -0.0000
       N       E                     dE             d eps       ncg     rms          rms(c)
DAV:   1    -0.125534730576E+03   -0.19764E-03   -0.54511E-03 14208   0.285E-01    0.152E-02
DAV:   2    -0.125534730664E+03   -0.88024E-07   -0.56440E-05 18480   0.315E-02    0.905E-03
DAV:   3    -0.125534730322E+03    0.34236E-06   -0.63739E-06 25056   0.966E-03
  26 F= -.12713590E+03 E0= -.12713512E+03  d E =-.465119E-04  mag=     0.0000
       N       E                     dE             d eps       ncg     rms          rms(c)
DAV:   1    -0.125534871414E+03   -0.14075E-03   -0.39280E-03 14208   0.242E-01    0.132E-02
DAV:   2    -0.125534871636E+03   -0.22174E-06   -0.40894E-05 20064   0.268E-02    0.790E-03
DAV:   3    -0.125534871473E+03    0.16277E-06   -0.44998E-06 23616   0.818E-03
  27 F= -.12713592E+03 E0= -.12713514E+03  d E =-.598182E-04  mag=    -0.0000
       N       E                     dE             d eps       ncg     rms          rms(c)
DAV:   1    -0.125535045490E+03   -0.17385E-03   -0.34840E-03 14208   0.223E-01    0.114E-02
DAV:   2    -0.125535046000E+03   -0.50957E-06   -0.30073E-05 16320   0.236E-02    0.701E-03
DAV:   3    -0.125535046165E+03   -0.16559E-06   -0.35177E-06 21360   0.718E-03
  28 F= -.12713596E+03 E0= -.12713518E+03  d E =-.429262E-04  mag=    -0.0000
       N       E                     dE             d eps       ncg     rms          rms(c)
DAV:   1    -0.125535510154E+03   -0.46415E-03   -0.31364E-02 14208   0.670E-01    0.334E-02
DAV:   2    -0.125535515622E+03   -0.54672E-05   -0.26439E-04 20112   0.695E-02    0.204E-02
DAV:   3    -0.125535514476E+03    0.11460E-05   -0.30900E-05 27456   0.203E-02    0.498E-03
DAV:   4    -0.125535514566E+03   -0.90605E-07   -0.40878E-06 15264   0.803E-03
  29 F= -.12713603E+03 E0= -.12713525E+03  d E =-.115994E-03  mag=    -0.0000
       N       E                     dE             d eps       ncg     rms          rms(c)
DAV:   1    -0.125535673903E+03   -0.15943E-03   -0.47916E-03 14208   0.262E-01    0.132E-02
DAV:   2    -0.125535674796E+03   -0.89323E-06   -0.42900E-05 18528   0.281E-02    0.815E-03
DAV:   3    -0.125535674867E+03   -0.70795E-07   -0.48626E-06 22224   0.847E-03
  30 F= -.12713604E+03 E0= -.12713526E+03  d E =-.121877E-03  mag=    -0.0000
       N       E                     dE             d eps       ncg     rms          rms(c)
DAV:   1    -0.125535885302E+03   -0.21051E-03   -0.52289E-03 14208   0.270E-01    0.142E-02
DAV:   2    -0.125535886036E+03   -0.73358E-06   -0.47067E-05 22128   0.292E-02    0.882E-03
DAV:   3    -0.125535885985E+03    0.50994E-07   -0.50644E-06 19968   0.874E-03
  31 F= -.12713608E+03 E0= -.12713530E+03  d E =-.437992E-04  mag=    -0.0000
       N       E                     dE             d eps       ncg     rms          rms(c)
DAV:   1    -0.125536288449E+03   -0.40241E-03   -0.24732E-02 14208   0.588E-01    0.305E-02
DAV:   2    -0.125536292043E+03   -0.35931E-05   -0.21810E-04 23664   0.627E-02    0.189E-02
DAV:   3    -0.125536290630E+03    0.14126E-05   -0.24221E-05 24336   0.183E-02    0.441E-03
DAV:   4    -0.125536290767E+03   -0.13715E-06   -0.35122E-06 15504   0.788E-03
  32 F= -.12713612E+03 E0= -.12713534E+03  d E =-.845861E-04  mag=     0.0000
       N       E                     dE             d eps       ncg     rms          rms(c)
DAV:   1    -0.125536562167E+03   -0.27154E-03   -0.80410E-03 14208   0.338E-01    0.170E-02
DAV:   2    -0.125536563406E+03   -0.12381E-05   -0.70602E-05 20688   0.357E-02    0.105E-02
DAV:   3    -0.125536563333E+03    0.72752E-07   -0.78975E-06 20400   0.108E-02
  33 F= -.12713618E+03 E0= -.12713540E+03  d E =-.567742E-04  mag=    -0.0000
       N       E                     dE             d eps       ncg     rms          rms(c)
DAV:   1    -0.125537046951E+03   -0.48355E-03   -0.32887E-02 14208   0.683E-01    0.343E-02
DAV:   2    -0.125537052640E+03   -0.56890E-05   -0.28150E-04 24240   0.706E-02    0.212E-02
DAV:   3    -0.125537051294E+03    0.13464E-05   -0.31097E-05 25200   0.204E-02    0.469E-03
DAV:   4    -0.125537051445E+03   -0.15092E-06   -0.44006E-06 16080   0.887E-03
  34 F= -.12713623E+03 E0= -.12713545E+03  d E =-.108765E-03  mag=    -0.0000
       N       E                     dE             d eps       ncg     rms          rms(c)
DAV:   1    -0.125537347158E+03   -0.29586E-03   -0.97514E-03 14208   0.376E-01    0.185E-02
DAV:   2    -0.125537348376E+03   -0.12173E-05   -0.87592E-05 20976   0.396E-02    0.112E-02
DAV:   3    -0.125537348443E+03   -0.67743E-07   -0.94784E-06 18912   0.118E-02
  35 F= -.12713629E+03 E0= -.12713551E+03  d E =-.611261E-04  mag=    -0.0000
       N       E                     dE             d eps       ncg     rms          rms(c)
DAV:   1    -0.125537832627E+03   -0.48425E-03   -0.33413E-02 14208   0.697E-01    0.342E-02
DAV:   2    -0.125537836986E+03   -0.43582E-05   -0.29450E-04 23520   0.722E-02    0.209E-02
DAV:   3    -0.125537836069E+03    0.91690E-06   -0.32164E-05 23712   0.209E-02    0.528E-03
DAV:   4    -0.125537836436E+03   -0.36756E-06   -0.49266E-06 15792   0.957E-03
  36 F= -.12713634E+03 E0= -.12713556E+03  d E =-.112586E-03  mag=     0.0000
       N       E                     dE             d eps       ncg     rms          rms(c)
DAV:   1    -0.125537899035E+03   -0.62966E-04   -0.67923E-04 14208   0.994E-02    0.526E-03
DAV:   2    -0.125537899215E+03   -0.17992E-06   -0.69104E-06 19344   0.115E-02
  37 F= -.12713634E+03 E0= -.12713557E+03  d E =-.113391E-03  mag=     0.0000
       N       E                     dE             d eps       ncg     rms          rms(c)
DAV:   1    -0.125538170777E+03   -0.27174E-03   -0.93729E-03 14208   0.370E-01    0.183E-02
DAV:   2    -0.125538171611E+03   -0.83346E-06   -0.87163E-05 21696   0.390E-02    0.113E-02
DAV:   3    -0.125538171756E+03   -0.14575E-06   -0.98177E-06 14304   0.124E-02
  38 F= -.12713638E+03 E0= -.12713560E+03  d E =-.393044E-04  mag=     0.0000
       N       E                     dE             d eps       ncg     rms          rms(c)
DAV:   1    -0.125538431393E+03   -0.25978E-03   -0.10334E-02 14208   0.388E-01    0.190E-02
DAV:   2    -0.125538432975E+03   -0.15822E-05   -0.96810E-05 20688   0.413E-02    0.118E-02
DAV:   3    -0.125538433340E+03   -0.36516E-06   -0.10699E-05 14304   0.133E-02    0.295E-03
DAV:   4    -0.125538433530E+03   -0.18947E-06   -0.26570E-06 14208   0.784E-03
  39 F= -.12713640E+03 E0= -.12713562E+03  d E =-.577766E-04  mag=     0.0000
       N       E                     dE             d eps       ncg     rms          rms(c)
DAV:   1    -0.125538704557E+03   -0.27122E-03   -0.94913E-03 14208   0.380E-01    0.180E-02
DAV:   2    -0.125538705647E+03   -0.10894E-05   -0.95309E-05 21792   0.407E-02    0.111E-02
DAV:   3    -0.125538705439E+03    0.20776E-06   -0.95422E-06 17184   0.118E-02
  40 F= -.12713644E+03 E0= -.12713567E+03  d E =-.418879E-04  mag=     0.0000
       N       E                     dE             d eps       ncg     rms          rms(c)
DAV:   1    -0.125538846698E+03   -0.14105E-03   -0.32219E-03 14208   0.221E-01    0.111E-02
DAV:   2    -0.125538847160E+03   -0.46165E-06   -0.32180E-05 24768   0.238E-02    0.690E-03
DAV:   3    -0.125538847423E+03   -0.26328E-06   -0.33341E-06 14496   0.744E-03
  41 F= -.12713645E+03 E0= -.12713567E+03  d E =-.503695E-04  mag=    -0.0000
       N       E                     dE             d eps       ncg     rms          rms(c)
DAV:   1    -0.125539041371E+03   -0.19421E-03   -0.50366E-03 14208   0.278E-01    0.133E-02
DAV:   2    -0.125539041387E+03   -0.16175E-07   -0.50621E-05 16608   0.302E-02    0.815E-03
DAV:   3    -0.125539041538E+03   -0.15086E-06   -0.64766E-06 14832   0.103E-02
  42 F= -.12713647E+03 E0= -.12713570E+03  d E =-.215955E-04  mag=     0.0000
       N       E                     dE             d eps       ncg     rms          rms(c)
DAV:   1    -0.125539133157E+03   -0.91770E-04   -0.13261E-03 14208   0.143E-01    0.727E-03
DAV:   2    -0.125539133169E+03   -0.12252E-07   -0.13863E-05 15936   0.162E-02    0.454E-03
DAV:   3    -0.125539133521E+03   -0.35179E-06   -0.20815E-06 16704   0.656E-03
  43 F= -.12713648E+03 E0= -.12713570E+03  d E =-.256135E-04  mag=    -0.0000
       N       E                     dE             d eps       ncg     rms          rms(c)
DAV:   1    -0.125539301884E+03   -0.16871E-03   -0.37623E-03 14208   0.243E-01    0.119E-02
DAV:   2    -0.125539301523E+03    0.36126E-06   -0.39287E-05 15264   0.268E-02    0.720E-03
DAV:   3    -0.125539301433E+03    0.90175E-07   -0.51666E-06 14592   0.938E-03
  44 F= -.12713649E+03 E0= -.12713571E+03  d E =-.149348E-04  mag=     0.0000
       N       E                     dE             d eps       ncg     rms          rms(c)
DAV:   1    -0.125539339281E+03   -0.37758E-04   -0.22568E-04 15168   0.597E-02    0.338E-03
DAV:   2    -0.125539339231E+03    0.50572E-07   -0.25496E-06 14304   0.745E-03
  45 F= -.12713649E+03 E0= -.12713572E+03  d E =-.158607E-04  mag=     0.0000
       N       E                     dE             d eps       ncg     rms          rms(c)
DAV:   1    -0.125539508917E+03   -0.16964E-03   -0.32553E-03 14208   0.225E-01    0.111E-02
DAV:   2    -0.125539508639E+03    0.27798E-06   -0.32739E-05 14208   0.246E-02    0.677E-03
DAV:   3    -0.125539508818E+03   -0.17870E-06   -0.43844E-06 14208   0.902E-03
  46 F= -.12713651E+03 E0= -.12713573E+03  d E =-.144155E-04  mag=    -0.0000
       N       E                     dE             d eps       ncg     rms          rms(c)
DAV:   1    -0.125539591788E+03   -0.83148E-04   -0.89328E-04 14208   0.118E-01    0.606E-03
DAV:   2    -0.125539591693E+03    0.94405E-07   -0.94067E-06 14208   0.137E-02
  47 F= -.12713651E+03 E0= -.12713573E+03  d E =-.169007E-04  mag=     0.0000
       N       E                     dE             d eps       ncg     rms          rms(c)
DAV:   1    -0.125539748293E+03   -0.15651E-03   -0.34663E-03 14208   0.232E-01    0.118E-02
DAV:   2    -0.125539747989E+03    0.30387E-06   -0.34881E-05 14208   0.258E-02    0.723E-03
DAV:   3    -0.125539748393E+03   -0.40344E-06   -0.50789E-06 14208   0.102E-02
  48 F= -.12713651E+03 E0= -.12713573E+03  d E =-.127954E-04  mag=     0.0000
       N       E                     dE             d eps       ncg     rms          rms(c)
DAV:   1    -0.125539621795E+03    0.12619E-03   -0.23284E-03 14208   0.190E-01    0.878E-03
DAV:   2    -0.125539621579E+03    0.21575E-06   -0.25873E-05 18240   0.219E-02    0.528E-03
DAV:   3    -0.125539621675E+03   -0.95407E-07   -0.35397E-06 20592   0.861E-03
  49 F= -.12713651E+03 E0= -.12713573E+03  d E =-.174373E-04  mag=    -0.0000
       N       E                     dE             d eps       ncg     rms          rms(c)
DAV:   1    -0.125539817752E+03   -0.19617E-03   -0.41512E-03 14208   0.248E-01    0.119E-02
DAV:   2    -0.125539817512E+03    0.24046E-06   -0.46518E-05 19776   0.291E-02    0.742E-03
DAV:   3    -0.125539817509E+03    0.33860E-08   -0.61703E-06 15072   0.107E-02
  50 F= -.12713652E+03 E0= -.12713574E+03  d E =-.101372E-04  mag=    -0.0000
       N       E                     dE             d eps       ncg     rms          rms(c)
DAV:   1    -0.125539834989E+03   -0.17477E-04   -0.41425E-05 14208   0.258E-02    0.209E-03
DAV:   2    -0.125539834844E+03    0.14506E-06   -0.12459E-06 14208   0.601E-03
  51 F= -.12713652E+03 E0= -.12713574E+03  d E =-.102180E-04  mag=    -0.0000
       N       E                     dE             d eps       ncg     rms          rms(c)
DAV:   1    -0.125539987368E+03   -0.15238E-03   -0.24348E-03 14208   0.194E-01    0.958E-03
DAV:   2    -0.125539986893E+03    0.47490E-06   -0.27558E-05 15120   0.225E-02    0.593E-03
DAV:   3    -0.125539986961E+03   -0.68818E-07   -0.39908E-06 14784   0.860E-03
  52 F= -.12713653E+03 E0= -.12713575E+03  d E =-.108135E-04  mag=     0.0000
       N       E                     dE             d eps       ncg     rms          rms(c)
DAV:   1    -0.125540064329E+03   -0.77436E-04   -0.70124E-04 14208   0.104E-01    0.530E-03
DAV:   2    -0.125540064162E+03    0.16689E-06   -0.83064E-06 14688   0.129E-02
  53 F= -.12713654E+03 E0= -.12713576E+03  d E =-.129826E-04  mag=     0.0000
       N       E                     dE             d eps       ncg     rms          rms(c)
DAV:   1    -0.125540179472E+03   -0.11514E-03   -0.13196E-03 14208   0.144E-01    0.718E-03
DAV:   2    -0.125540179146E+03    0.32574E-06   -0.15082E-05 14208   0.172E-02    0.449E-03
DAV:   3    -0.125540179529E+03   -0.38340E-06   -0.27229E-06 14496   0.793E-03
  54 F= -.12713654E+03 E0= -.12713576E+03  d E =-.874929E-05  mag=    -0.0000
       N       E                     dE             d eps       ncg     rms          rms(c)
DAV:   1    -0.125540306221E+03   -0.12707E-03   -0.17880E-03 14208   0.167E-01    0.791E-03
DAV:   2    -0.125540306006E+03    0.21481E-06   -0.20285E-05 17232   0.193E-02    0.498E-03
DAV:   3    -0.125540306248E+03   -0.24242E-06   -0.30080E-06 15216   0.784E-03
  55 F= -.12713655E+03 E0= -.12713577E+03  d E =-.131105E-04  mag=     0.0000
       N       E                     dE             d eps       ncg     rms          rms(c)
DAV:   1    -0.125540330894E+03   -0.24888E-04   -0.75368E-05 14400   0.346E-02    0.198E-03
DAV:   2    -0.125540330786E+03    0.10798E-06   -0.13106E-06 15120   0.586E-03
  56 F= -.12713655E+03 E0= -.12713577E+03  d E =-.131758E-04  mag=     0.0000
       N       E                     dE             d eps       ncg     rms          rms(c)
DAV:   1    -0.125540435451E+03   -0.10456E-03   -0.11152E-03 14208   0.131E-01    0.644E-03
DAV:   2    -0.125540435075E+03    0.37644E-06   -0.12409E-05 14208   0.153E-02    0.401E-03
DAV:   3    -0.125540435269E+03   -0.19387E-06   -0.21099E-06 14208   0.654E-03
  57 F= -.12713655E+03 E0= -.12713577E+03  d E =-.524501E-05  mag=     0.0000
       N       E                     dE             d eps       ncg     rms          rms(c)
DAV:   1    -0.125540512960E+03   -0.77885E-04   -0.66504E-04 14208   0.101E-01    0.498E-03
DAV:   2    -0.125540512758E+03    0.20219E-06   -0.74470E-06 14544   0.121E-02
  58 F= -.12713656E+03 E0= -.12713578E+03  d E =-.681309E-05  mag=    -0.0000
       N       E                     dE             d eps       ncg     rms          rms(c)
DAV:   1    -0.125540662959E+03   -0.15000E-03   -0.25717E-03 14208   0.199E-01    0.979E-03
DAV:   2    -0.125540662358E+03    0.60025E-06   -0.27389E-05 14208   0.226E-02    0.615E-03
DAV:   3    -0.125540662633E+03   -0.27459E-06   -0.44190E-06 14496   0.918E-03
  59 F= -.12713655E+03 E0= -.12713577E+03  d E =-.483656E-05  mag=    -0.0000
       N       E                     dE             d eps       ncg     rms          rms(c)
DAV:   1    -0.125540548098E+03    0.11426E-03   -0.15418E-03 14208   0.154E-01    0.677E-03
DAV:   2    -0.125540547787E+03    0.31081E-06   -0.18767E-05 18816   0.185E-02    0.418E-03
DAV:   3    -0.125540547772E+03    0.15284E-07   -0.26411E-06 19632   0.733E-03
  60 F= -.12713656E+03 E0= -.12713578E+03  d E =-.725514E-05  mag=    -0.0000
       N       E                     dE             d eps       ncg     rms          rms(c)
DAV:   1    -0.125540641582E+03   -0.93794E-04   -0.87010E-04 14256   0.114E-01    0.487E-03
DAV:   2    -0.125540641383E+03    0.19817E-06   -0.99086E-06 18288   0.136E-02
  61 F= -.12713656E+03 E0= -.12713578E+03  d E =-.449650E-05  mag=    -0.0000
       N       E                     dE             d eps       ncg     rms          rms(c)
DAV:   1    -0.125540919281E+03   -0.27770E-03   -0.77787E-03 14208   0.342E-01    0.162E-02
DAV:   2    -0.125540917435E+03    0.18456E-05   -0.74832E-05 15888   0.365E-02    0.996E-03
DAV:   3    -0.125540917436E+03   -0.85947E-09   -0.11164E-05 15264   0.134E-02    0.242E-03
DAV:   4    -0.125540917632E+03   -0.19627E-06   -0.29803E-06 14640   0.828E-03
  62 F= -.12713657E+03 E0= -.12713579E+03  d E =-.134849E-04  mag=    -0.0000
       N       E                     dE             d eps       ncg     rms          rms(c)
DAV:   1    -0.125541453552E+03   -0.53612E-03   -0.31554E-02 14208   0.687E-01    0.316E-02
DAV:   2    -0.125541449393E+03    0.41584E-05   -0.31099E-04 20448   0.728E-02    0.193E-02
DAV:   3    -0.125541446614E+03    0.27793E-05   -0.41842E-05 26160   0.233E-02    0.427E-03
DAV:   4    -0.125541447055E+03   -0.44076E-06   -0.51024E-06 16704   0.912E-03
  63 F= -.12713656E+03 E0= -.12713578E+03  d E =-.875826E-05  mag=     0.0000
       N       E                     dE             d eps       ncg     rms          rms(c)
DAV:   1    -0.125541109132E+03    0.33748E-03   -0.13328E-02 14208   0.447E-01    0.202E-02
DAV:   2    -0.125541106643E+03    0.24895E-05   -0.13184E-04 21600   0.477E-02    0.123E-02
DAV:   3    -0.125541105652E+03    0.99014E-06   -0.18060E-05 22128   0.159E-02    0.289E-03
DAV:   4    -0.125541105883E+03   -0.23058E-06   -0.31754E-06 15120   0.844E-03
  64 F= -.12713657E+03 E0= -.12713579E+03  d E =-.151466E-04  mag=     0.0000
       N       E                     dE             d eps       ncg     rms          rms(c)
DAV:   1    -0.125541204456E+03   -0.98804E-04   -0.94945E-04 21504   0.119E-01    0.524E-03
DAV:   2    -0.125541203978E+03    0.47850E-06   -0.86453E-06 19920   0.122E-02
  65 F= -.12713658E+03 E0= -.12713580E+03  d E =-.521573E-05  mag=    -0.0000
       N       E                     dE             d eps       ncg     rms          rms(c)
DAV:   1    -0.125541493205E+03   -0.28875E-03   -0.84526E-03 14208   0.357E-01    0.170E-02
DAV:   2    -0.125541491154E+03    0.20505E-05   -0.83225E-05 14784   0.383E-02    0.105E-02
DAV:   3    -0.125541490913E+03    0.24181E-06   -0.12334E-05 17088   0.136E-02    0.252E-03
DAV:   4    -0.125541491139E+03   -0.22649E-06   -0.25431E-06 15600   0.709E-03
  66 F= -.12713658E+03 E0= -.12713580E+03  d E =-.138126E-04  mag=    -0.0000
       N       E                     dE             d eps       ncg     rms          rms(c)
DAV:   1    -0.125541556851E+03   -0.65938E-04   -0.47306E-04 14208   0.844E-02    0.413E-03
DAV:   2    -0.125541556723E+03    0.12822E-06   -0.54781E-06 14784   0.102E-02
  67 F= -.12713658E+03 E0= -.12713581E+03  d E =-.141346E-04  mag=    -0.0000
       N       E                     dE             d eps       ncg     rms          rms(c)
DAV:   1    -0.125541651435E+03   -0.94584E-04   -0.80535E-04 14208   0.110E-01    0.566E-03
DAV:   2    -0.125541651198E+03    0.23652E-06   -0.90117E-06 14208   0.131E-02
  68 F= -.12713659E+03 E0= -.12713581E+03  d E =-.479713E-05  mag=     0.0000
       N       E                     dE             d eps       ncg     rms          rms(c)
DAV:   1    -0.125541926701E+03   -0.27527E-03   -0.73542E-03 14208   0.332E-01    0.163E-02
DAV:   2    -0.125541925497E+03    0.12043E-05   -0.77419E-05 15312   0.373E-02    0.102E-02
DAV:   3    -0.125541925421E+03    0.76097E-07   -0.10737E-05 16128   0.132E-02    0.262E-03
DAV:   4    -0.125541925607E+03   -0.18601E-06   -0.27325E-06 14736   0.779E-03
  69 F= -.12713660E+03 E0= -.12713582E+03  d E =-.102154E-04  mag=    -0.0000
       N       E                     dE             d eps       ncg     rms          rms(c)
DAV:   1    -0.125542025453E+03   -0.10003E-03   -0.88350E-04 14928   0.114E-01    0.567E-03
DAV:   2    -0.125542025338E+03    0.11472E-06   -0.97704E-06 19440   0.133E-02
  70 F= -.12713660E+03 E0= -.12713582E+03  d E =-.357638E-05  mag=     0.0000
       N       E                     dE             d eps       ncg     rms          rms(c)
DAV:   1    -0.125542321482E+03   -0.29603E-03   -0.77996E-03 14208   0.339E-01    0.166E-02
DAV:   2    -0.125542320699E+03    0.78236E-06   -0.76937E-05 14640   0.370E-02    0.104E-02
DAV:   3    -0.125542320707E+03   -0.74224E-08   -0.10642E-05 18768   0.128E-02    0.233E-03
DAV:   4    -0.125542320875E+03   -0.16780E-06   -0.24048E-06 15120   0.717E-03
  71 F= -.12713661E+03 E0= -.12713583E+03  d E =-.107433E-04  mag=     0.0000
       N       E                     dE             d eps       ncg     rms          rms(c)
DAV:   1    -0.125542426880E+03   -0.10617E-03   -0.10626E-03 14208   0.125E-01    0.612E-03
DAV:   2    -0.125542426735E+03    0.14497E-06   -0.11674E-05 17280   0.147E-02    0.386E-03
DAV:   3    -0.125542426982E+03   -0.24674E-06   -0.16597E-06 15264   0.585E-03
  72 F= -.12713661E+03 E0= -.12713583E+03  d E =-.114658E-04  mag=     0.0000
       N       E                     dE             d eps       ncg     rms          rms(c)
DAV:   1    -0.125542535868E+03   -0.10913E-03   -0.11193E-03 14208   0.130E-01    0.661E-03
DAV:   2    -0.125542535503E+03    0.36461E-06   -0.13507E-05 14496   0.159E-02    0.410E-03
DAV:   3    -0.125542535676E+03   -0.17267E-06   -0.21458E-06 14496   0.654E-03
  73 F= -.12713661E+03 E0= -.12713583E+03  d E =-.608235E-05  mag=     0.0000
       N       E                     dE             d eps       ncg     rms          rms(c)
DAV:   1    -0.125542609656E+03   -0.74153E-04   -0.56214E-04 14208   0.925E-02    0.492E-03
DAV:   2    -0.125542609413E+03    0.24326E-06   -0.69364E-06 14496   0.117E-02
  74 F= -.12713661E+03 E0= -.12713583E+03  d E =-.740507E-05  mag=    -0.0000
       N       E                     dE             d eps       ncg     rms          rms(c)
DAV:   1    -0.125542751265E+03   -0.14161E-03   -0.21651E-03 14208   0.182E-01    0.958E-03
DAV:   2    -0.125542750515E+03    0.75007E-06   -0.25430E-05 14208   0.218E-02    0.594E-03
DAV:   3    -0.125542750756E+03   -0.24066E-06   -0.41479E-06 14544   0.897E-03
  75 F= -.12713661E+03 E0= -.12713583E+03  d E =-.397332E-05  mag=    -0.0000
       N       E                     dE             d eps       ncg     rms          rms(c)
DAV:   1    -0.125542631583E+03    0.11893E-03   -0.15840E-03 14208   0.156E-01    0.732E-03
DAV:   2    -0.125542631181E+03    0.40160E-06   -0.21117E-05 20448   0.195E-02    0.446E-03
DAV:   3    -0.125542631192E+03   -0.10862E-07   -0.28955E-06 18960   0.762E-03
  76 F= -.12713661E+03 E0= -.12713583E+03  d E =-.785870E-05  mag=     0.0000
       N       E                     dE             d eps       ncg     rms          rms(c)
DAV:   1    -0.125542683320E+03   -0.52139E-04   -0.28209E-04 14208   0.666E-02    0.298E-03
DAV:   2    -0.125542683174E+03    0.14658E-06   -0.43932E-06 17328   0.958E-03
  77 F= -.12713662E+03 E0= -.12713584E+03  d E =-.193378E-05  mag=    -0.0000
       N       E                     dE             d eps       ncg     rms          rms(c)
DAV:   1    -0.125542741668E+03   -0.58348E-04   -0.36608E-04 15360   0.762E-02    0.420E-03
DAV:   2    -0.125542741366E+03    0.30280E-06   -0.47326E-06 14256   0.984E-03
  78 F= -.12713662E+03 E0= -.12713584E+03  d E =-.252713E-05  mag=    -0.0000
       N       E                     dE             d eps       ncg     rms          rms(c)
DAV:   1    -0.125542786312E+03   -0.44643E-04   -0.25174E-04 15456   0.643E-02    0.337E-03
DAV:   2    -0.125542786056E+03    0.25575E-06   -0.33742E-06 14256   0.868E-03
  79 F= -.12713662E+03 E0= -.12713584E+03  d E =-.142583E-05  mag=     0.0000
       N       E                     dE             d eps       ncg     rms          rms(c)
DAV:   1    -0.125542813510E+03   -0.27198E-04   -0.96128E-05 15072   0.400E-02    0.241E-03
DAV:   2    -0.125542813322E+03    0.18771E-06   -0.16475E-06 14256   0.650E-03
  80 F= -.12713662E+03 E0= -.12713584E+03  d E =-.179500E-05  mag=     0.0000
       N       E                     dE             d eps       ncg     rms          rms(c)
DAV:   1    -0.125542861420E+03   -0.47910E-04   -0.31275E-04 14400   0.704E-02    0.364E-03
DAV:   2    -0.125542861125E+03    0.29555E-06   -0.42050E-06 14400   0.941E-03
  81 F= -.12713662E+03 E0= -.12713584E+03  d E =-.117990E-05  mag=     0.0000
       N       E                     dE             d eps       ncg     rms          rms(c)
DAV:   1    -0.125542883287E+03   -0.21866E-04   -0.65339E-05 14928   0.329E-02    0.213E-03
DAV:   2    -0.125542883141E+03    0.14551E-06   -0.12078E-06 14208   0.559E-03
  82 F= -.12713662E+03 E0= -.12713584E+03  d E =-.124308E-05  mag=     0.0000
       N       E                     dE             d eps       ncg     rms          rms(c)
DAV:   1    -0.125542919993E+03   -0.36706E-04   -0.15630E-04 14256   0.495E-02    0.262E-03
DAV:   2    -0.125542919826E+03    0.16649E-06   -0.20855E-06 14256   0.682E-03
  83 F= -.12713662E+03 E0= -.12713584E+03  d E =-.863784E-06  mag=     0.0000
       N       E                     dE             d eps       ncg     rms          rms(c)
DAV:   1    -0.125542978024E+03   -0.58031E-04   -0.39969E-04 14880   0.792E-02    0.402E-03
DAV:   2    -0.125542977719E+03    0.30466E-06   -0.45262E-06 14880   0.956E-03
  84 F= -.12713662E+03 E0= -.12713584E+03  d E =-.117310E-05  mag=     0.0000
       N       E                     dE             d eps       ncg     rms          rms(c)
DAV:   1    -0.125543004325E+03   -0.26301E-04   -0.73727E-05 15024   0.348E-02    0.209E-03
DAV:   2    -0.125543004191E+03    0.13329E-06   -0.12935E-06 14208   0.580E-03
  85 F= -.12713662E+03 E0= -.12713584E+03  d E =-.625586E-06  mag=     0.0000
       N       E                     dE             d eps       ncg     rms          rms(c)
DAV:   1    -0.125543035878E+03   -0.31553E-04   -0.11377E-04 14208   0.425E-02    0.241E-03
DAV:   2    -0.125543035740E+03    0.13743E-06   -0.16782E-06 14208   0.628E-03
  86 F= -.12713662E+03 E0= -.12713584E+03  d E =-.843622E-06  mag=     0.0000
       N       E                     dE             d eps       ncg     rms          rms(c)
DAV:   1    -0.125543047107E+03   -0.11230E-04   -0.14672E-05 14640   0.158E-02    0.117E-03
DAV:   2    -0.125543047026E+03    0.81825E-07   -0.59580E-07 14208   0.396E-03
  87 F= -.12713662E+03 E0= -.12713584E+03  d E =-.426872E-06  mag=    -0.0000
       N       E                     dE             d eps       ncg     rms          rms(c)
DAV:   1    -0.125543080281E+03   -0.33174E-04   -0.13686E-04 14208   0.465E-02    0.264E-03
DAV:   2    -0.125543080142E+03    0.13918E-06   -0.19729E-06 15936   0.610E-03
  88 F= -.12713662E+03 E0= -.12713584E+03  d E =-.969104E-06  mag=     0.0000
       N       E                     dE             d eps       ncg     rms          rms(c)
DAV:   1    -0.125543090706E+03   -0.10425E-04   -0.12830E-05 14976   0.148E-02    0.114E-03
DAV:   2    -0.125543090675E+03    0.30868E-07   -0.27185E-07 14208   0.268E-03
  89 F= -.12713662E+03 E0= -.12713584E+03  d E =-.989484E-06  mag=     0.0000
       N       E                     dE             d eps       ncg     rms          rms(c)
DAV:   1    -0.125543105640E+03   -0.14934E-04   -0.22153E-05 14256   0.186E-02    0.107E-03
DAV:   2    -0.125543105617E+03    0.23596E-07   -0.38216E-07 14208   0.316E-03
  90 F= -.12713662E+03 E0= -.12713584E+03  d E =-.335966E-06  mag=    -0.0000
       N       E                     dE             d eps       ncg     rms          rms(c)
DAV:   1    -0.125543140912E+03   -0.35272E-04   -0.12651E-04 14208   0.440E-02    0.237E-03
DAV:   2    -0.125543140849E+03    0.62801E-07   -0.15140E-06 14208   0.563E-03
  91 F= -.12713662E+03 E0= -.12713584E+03  d E =-.607921E-06  mag=    -0.0000
       N       E                     dE             d eps       ncg     rms          rms(c)
DAV:   1    -0.125543163598E+03   -0.22686E-04   -0.49151E-05 14496   0.277E-02    0.163E-03
DAV:   2    -0.125543163549E+03    0.49577E-07   -0.80474E-07 14208   0.429E-03
  92 F= -.12713662E+03 E0= -.12713584E+03  d E =-.530826E-06  mag=    -0.0000
       N       E                     dE             d eps       ncg     rms          rms(c)
DAV:   1    -0.125543202781E+03   -0.39183E-04   -0.15478E-04 14208   0.486E-02    0.276E-03
DAV:   2    -0.125543202663E+03    0.11880E-06   -0.21330E-06 14208   0.658E-03
  93 F= -.12713662E+03 E0= -.12713584E+03  d E =-.815606E-06  mag=     0.0000
       N       E                     dE             d eps       ncg     rms          rms(c)
DAV:   1    -0.125543226191E+03   -0.23409E-04   -0.60409E-05 14208   0.311E-02    0.175E-03
DAV:   2    -0.125543226130E+03    0.60760E-07   -0.92309E-07 14208   0.480E-03
  94 F= -.12713662E+03 E0= -.12713584E+03  d E =-.383427E-06  mag=     0.0000
       N       E                     dE             d eps       ncg     rms          rms(c)
DAV:   1    -0.125543247710E+03   -0.21519E-04   -0.52756E-05 14544   0.290E-02    0.165E-03
DAV:   2    -0.125543247642E+03    0.68391E-07   -0.86018E-07 14544   0.470E-03
  95 F= -.12713662E+03 E0= -.12713585E+03  d E =-.495679E-06  mag=    -0.0000
       N       E                     dE             d eps       ncg     rms          rms(c)
DAV:   1    -0.125543266120E+03   -0.18410E-04   -0.37851E-05 14640   0.243E-02    0.136E-03
DAV:   2    -0.125543266054E+03    0.65947E-07   -0.68589E-07 14496   0.420E-03
  96 F= -.12713663E+03 E0= -.12713585E+03  d E =-.367237E-06  mag=    -0.0000
       N       E                     dE             d eps       ncg     rms          rms(c)
DAV:   1    -0.125543321035E+03   -0.54915E-04   -0.34616E-04 14208   0.724E-02    0.359E-03
DAV:   2    -0.125543320807E+03    0.22740E-06   -0.38407E-06 14352   0.864E-03
  97 F= -.12713663E+03 E0= -.12713585E+03  d E =-.954611E-06  mag=     0.0000
       N       E                     dE             d eps       ncg     rms          rms(c)
DAV:   1    -0.125543429051E+03   -0.10802E-03   -0.13686E-03 14208   0.144E-01    0.701E-03
DAV:   2    -0.125543428385E+03    0.66565E-06   -0.14101E-05 14640   0.161E-02    0.431E-03
DAV:   3    -0.125543428524E+03   -0.13813E-06   -0.24321E-06 14544   0.663E-03
  98 F= -.12713663E+03 E0= -.12713585E+03  d E =-.424874E-06  mag=     0.0000
       N       E                     dE             d eps       ncg     rms          rms(c)
DAV:   1    -0.125543354035E+03    0.74350E-04   -0.67019E-04 14208   0.101E-01    0.439E-03
DAV:   2    -0.125543353777E+03    0.25883E-06   -0.81613E-06 18480   0.123E-02
  99 F= -.12713663E+03 E0= -.12713585E+03  d E =-.117862E-05  mag=    -0.0000
       N       E                     dE             d eps       ncg     rms          rms(c)
DAV:   1    -0.125543341178E+03    0.12858E-04   -0.15466E-05 20400   0.167E-02    0.143E-03
DAV:   2    -0.125543341098E+03    0.80297E-07   -0.54871E-07 14928   0.382E-03
 100 F= -.12713663E+03 E0= -.12713585E+03  d E =-.109432E-05  mag=    -0.0000
       N       E                     dE             d eps       ncg     rms          rms(c)
DAV:   1    -0.125543364227E+03   -0.23050E-04   -0.63284E-05 14208   0.314E-02    0.125E-03
DAV:   2    -0.125543364210E+03    0.16923E-07   -0.10131E-06 16560   0.490E-03
 101 F= -.12713663E+03 E0= -.12713585E+03  d E =-.443275E-06  mag=     0.0000
       N       E                     dE             d eps       ncg     rms          rms(c)
DAV:   1    -0.125543401944E+03   -0.37717E-04   -0.16754E-04 14208   0.511E-02    0.259E-03
DAV:   2    -0.125543401836E+03    0.10802E-06   -0.20152E-06 15264   0.638E-03
 102 F= -.12713663E+03 E0= -.12713585E+03  d E =-.547031E-06  mag=     0.0000
       N       E                     dE             d eps       ncg     rms          rms(c)
DAV:   1    -0.125543412853E+03   -0.10909E-04   -0.11338E-05 14880   0.138E-02    0.966E-04
DAV:   2    -0.125543412822E+03    0.31395E-07   -0.31946E-07 14208   0.299E-03
 103 F= -.12713663E+03 E0= -.12713585E+03  d E =-.162269E-06  mag=     0.0000
       N       E                     dE             d eps       ncg     rms          rms(c)
DAV:   1    -0.125543445688E+03   -0.32835E-04   -0.11505E-04 14208   0.416E-02    0.210E-03
DAV:   2    -0.125543445614E+03    0.73885E-07   -0.13046E-06 14592   0.519E-03
 104 F= -.12713663E+03 E0= -.12713585E+03  d E =-.483288E-06  mag=     0.0000
       N       E                     dE             d eps       ncg     rms          rms(c)
DAV:   1    -0.125543511025E+03   -0.65337E-04   -0.45290E-04 14448   0.828E-02    0.399E-03
DAV:   2    -0.125543510814E+03    0.21118E-06   -0.46020E-06 14736   0.938E-03
 105 F= -.12713663E+03 E0= -.12713585E+03  d E =-.749518E-06  mag=    -0.0000
       N       E                     dE             d eps       ncg     rms          rms(c)
DAV:   1    -0.125543523388E+03   -0.12363E-04   -0.21311E-05 14496   0.192E-02    0.136E-03
DAV:   2    -0.125543523343E+03    0.44378E-07   -0.57001E-07 14208   0.406E-03
 106 F= -.12713663E+03 E0= -.12713585E+03  d E =-.573913E-06  mag=    -0.0000
       N       E                     dE             d eps       ncg     rms          rms(c)
DAV:   1    -0.125543536198E+03   -0.12810E-04   -0.26009E-05 14352   0.206E-02    0.136E-03
DAV:   2    -0.125543536162E+03    0.35774E-07   -0.55982E-07 14208   0.392E-03
 107 F= -.12713663E+03 E0= -.12713585E+03  d E =-.769016E-06  mag=    -0.0000
       N       E                     dE             d eps       ncg     rms          rms(c)
DAV:   1    -0.125543541513E+03   -0.53153E-05   -0.43033E-06 14208   0.896E-03    0.658E-04
DAV:   2    -0.125543541491E+03    0.22398E-07   -0.25476E-07 14208   0.266E-03
 108 F= -.12713663E+03 E0= -.12713585E+03  d E =-.173078E-06  mag=    -0.0000
       N       E                     dE             d eps       ncg     rms          rms(c)
DAV:   1    -0.125543557182E+03   -0.15669E-04   -0.38113E-05 14304   0.250E-02    0.138E-03
DAV:   2    -0.125543557154E+03    0.28224E-07   -0.49126E-07 17664   0.323E-03
 109 F= -.12713663E+03 E0= -.12713585E+03  d E =-.369142E-06  mag=     0.0000
       N       E                     dE             d eps       ncg     rms          rms(c)
DAV:   1    -0.125543564831E+03   -0.76487E-05   -0.84405E-06 15600   0.118E-02    0.749E-04
DAV:   2    -0.125543564819E+03    0.12122E-07   -0.18710E-07 14208   0.228E-03
 110 F= -.12713663E+03 E0= -.12713585E+03  d E =-.180002E-06  mag=     0.0000
       N       E                     dE             d eps       ncg     rms          rms(c)
DAV:   1    -0.125543574456E+03   -0.96246E-05   -0.13849E-05 14208   0.150E-02    0.903E-04
DAV:   2    -0.125543574443E+03    0.12957E-07   -0.22781E-07 14208   0.243E-03
 111 F= -.12713663E+03 E0= -.12713585E+03  d E =-.246351E-06  mag=     0.0000
       N       E                     dE             d eps       ncg     rms          rms(c)
DAV:   1    -0.125543581576E+03   -0.71200E-05   -0.56448E-06 14208   0.953E-03    0.599E-04
DAV:   2    -0.125543581569E+03    0.68030E-08   -0.14150E-07 14208   0.195E-03
 112 F= -.12713663E+03 E0= -.12713585E+03  d E =-.992495E-07  mag=     0.0000
       N       E                     dE             d eps       ncg     rms          rms(c)
DAV:   1    -0.125543599793E+03   -0.18218E-04   -0.37917E-05 14208   0.243E-02    0.133E-03
DAV:   2    -0.125543599767E+03    0.26233E-07   -0.50145E-07 14208   0.323E-03
 113 F= -.12713663E+03 E0= -.12713585E+03  d E =-.184556E-06  mag=     0.0000
       N       E                     dE             d eps       ncg     rms          rms(c)
DAV:   1    -0.125543606110E+03   -0.63168E-05   -0.42721E-06 14208   0.846E-03    0.540E-04
DAV:   2    -0.125543606104E+03    0.65547E-08   -0.12009E-07 14208   0.185E-03
 114 F= -.12713663E+03 E0= -.12713585E+03  d E =-.839686E-07  mag=     0.0000
       N       E                     dE             d eps       ncg     rms          rms(c)
DAV:   1    -0.125543623147E+03   -0.17037E-04   -0.33442E-05 14208   0.228E-02    0.119E-03
DAV:   2    -0.125543623128E+03    0.19421E-07   -0.42567E-07 14208   0.302E-03
 115 F= -.12713663E+03 E0= -.12713585E+03  d E =-.176517E-06  mag=     0.0000
       N       E                     dE             d eps       ncg     rms          rms(c)
DAV:   1    -0.125543631616E+03   -0.84690E-05   -0.84077E-06 14208   0.116E-02    0.659E-04
DAV:   2    -0.125543631606E+03    0.10412E-07   -0.15849E-07 14208   0.204E-03
 116 F= -.12713663E+03 E0= -.12713585E+03  d E =-.120149E-06  mag=     0.0000
       N       E                     dE             d eps       ncg     rms          rms(c)
DAV:   1    -0.125543656925E+03   -0.25309E-04   -0.79191E-05 14208   0.348E-02    0.173E-03
DAV:   2    -0.125543656871E+03    0.54096E-07   -0.90913E-07 14208   0.424E-03
 117 F= -.12713663E+03 E0= -.12713585E+03  d E =-.312263E-06  mag=    -0.0000
       N       E                     dE             d eps       ncg     rms          rms(c)
DAV:   1    -0.125543706950E+03   -0.50025E-04   -0.31293E-04 14208   0.693E-02    0.341E-03
DAV:   2    -0.125543706776E+03    0.17383E-06   -0.33168E-06 14208   0.784E-03
 118 F= -.12713663E+03 E0= -.12713585E+03  d E =-.740372E-07  mag=    -0.0000
       N       E                     dE             d eps       ncg     rms          rms(c)
DAV:   1    -0.125543677356E+03    0.29594E-04   -0.12127E-04 14208   0.423E-02    0.171E-03
DAV:   2    -0.125543677338E+03    0.18674E-07   -0.17092E-06 14304   0.568E-03
 119 F= -.12713663E+03 E0= -.12713585E+03  d E =-.372853E-06  mag=    -0.0000
       N       E                     dE             d eps       ncg     rms          rms(c)
DAV:   1    -0.125543668201E+03    0.91553E-05   -0.94303E-06 20496   0.126E-02    0.850E-04
DAV:   2    -0.125543668183E+03    0.17768E-07   -0.18903E-07 14208   0.225E-03
 120 F= -.12713663E+03 E0= -.12713585E+03  d E =-.354107E-06  mag=    -0.0000
       N       E                     dE             d eps       ncg     rms          rms(c)
DAV:   1    -0.125543676027E+03   -0.78259E-05   -0.75191E-06 14208   0.107E-02    0.416E-04
DAV:   2    -0.125543676029E+03   -0.19782E-08   -0.19603E-07 14352   0.227E-03
 121 F= -.12713663E+03 E0= -.12713585E+03  d E =-.941851E-07  mag=    -0.0000
       N       E                     dE             d eps       ncg     rms          rms(c)
DAV:   1    -0.125543699513E+03   -0.23486E-04   -0.63647E-05 15648   0.310E-02    0.150E-03
DAV:   2    -0.125543699469E+03    0.43960E-07   -0.68345E-07 19920   0.351E-03
 122 F= -.12713663E+03 E0= -.12713585E+03  d E =-.316274E-06  mag=     0.0000
       N       E                     dE             d eps       ncg     rms          rms(c)
DAV:   1    -0.125543746216E+03   -0.46704E-04   -0.25052E-04 14208   0.617E-02    0.293E-03
DAV:   2    -0.125543746090E+03    0.12589E-06   -0.24683E-06 14208   0.668E-03
 123 F= -.12713663E+03 E0= -.12713585E+03  d E =-.432722E-06  mag=     0.0000
       N       E                     dE             d eps       ncg     rms          rms(c)
DAV:   1    -0.125543757963E+03   -0.11747E-04   -0.13099E-05 14208   0.146E-02    0.938E-04
DAV:   2    -0.125543757953E+03    0.10205E-07   -0.15925E-07 14208   0.202E-03
 124 F= -.12713663E+03 E0= -.12713585E+03  d E =-.158337E-06  mag=     0.0000
       N       E                     dE             d eps       ncg     rms          rms(c)
DAV:   1    -0.125543793463E+03   -0.35500E-04   -0.13600E-04 17328   0.450E-02    0.214E-03
DAV:   2    -0.125543793382E+03    0.80590E-07   -0.13275E-06 14880   0.507E-03
 125 F= -.12713663E+03 E0= -.12713585E+03  d E =-.477401E-06  mag=     0.0000
       N       E                     dE             d eps       ncg     rms          rms(c)
DAV:   1    -0.125543864130E+03   -0.70667E-04   -0.53685E-04 14208   0.898E-02    0.428E-03
DAV:   2    -0.125543863903E+03    0.22719E-06   -0.53923E-06 14352   0.999E-03
 126 F= -.12713663E+03 E0= -.12713585E+03  d E =-.784156E-06  mag=     0.0000
       N       E                     dE             d eps       ncg     rms          rms(c)
DAV:   1    -0.125544004518E+03   -0.14039E-03   -0.21465E-03 14208   0.180E-01    0.853E-03
DAV:   2    -0.125544003773E+03    0.74476E-06   -0.21094E-05 17040   0.193E-02    0.529E-03
DAV:   3    -0.125544003915E+03   -0.14201E-06   -0.33171E-06 14784   0.734E-03
 127 F= -.12713663E+03 E0= -.12713585E+03  d E =-.394967E-06  mag=    -0.0000
       N       E                     dE             d eps       ncg     rms          rms(c)
DAV:   1    -0.125543901337E+03    0.10244E-03   -0.11731E-03 14400   0.132E-01    0.567E-03
DAV:   2    -0.125543900973E+03    0.36472E-06   -0.13015E-05 19152   0.152E-02    0.351E-03
DAV:   3    -0.125543900924E+03    0.48333E-07   -0.20698E-06 19344   0.621E-03
 128 F= -.12713663E+03 E0= -.12713585E+03  d E =-.938449E-06  mag=     0.0000
