Lattice                                 
           1
     4.311940    2.489500    0.000000
    -4.311940    2.489500    0.000000
     0.000000    0.000000   15.000000
   B    C 
     8     8
Direct configuration=     1
   0.66888689  0.00000000  0.10000000
   0.33111211  0.00000000  0.10000000
   0.00000000  0.33111211  0.10000000
   0.00000000  0.66888689  0.10000000
   0.33111211  0.33111211  0.10000000
   0.66888689  0.66888689  0.10000000
   0.66666600  0.33333300  0.09922189
   0.33333300  0.66666600  0.10077811
   0.24999933  0.24999967  0.33533333
   0.41666633  0.08333267  0.33533333
   0.24999933  0.74999967  0.33533333
   0.41666633  0.58333267  0.33533333
   0.74999933  0.24999967  0.33533333
   0.91666633  0.08333267  0.33533333
   0.74999933  0.74999967  0.33533333
   0.91666633  0.58333267  0.33533333
Direct configuration=     2
   0.67009557 -0.00023686  0.09998347
   0.32995989 -0.00003008  0.10000609
   0.00023686  0.32990343  0.09998347
   0.00003008  0.67003911  0.10000609
   0.32984245  0.32969658  0.10000708
   0.67030242  0.67015655  0.10000708
   0.66645360  0.33354540  0.09919659
   0.33315767  0.66684133  0.10079299
   0.25000567  0.25003105  0.33532390
   0.41668619  0.08341041  0.33535268
   0.24998599  0.75001301  0.33531762
   0.41670573  0.58329327  0.33537275
   0.74998254  0.25001646  0.33535959
   0.91665845  0.08334055  0.33528071
   0.74996795  0.74999333  0.33532390
   0.91658859  0.58331281  0.33535268
Direct configuration=     3
   0.66953058 -0.00012614  0.09999120
   0.33049849 -0.00001602  0.10000324
   0.00012614  0.33046842  0.09999120
   0.00001602  0.66950051  0.10000324
   0.33043595  0.33035826  0.10000377
   0.66964074  0.66956305  0.10000377
   0.66655288  0.33344612  0.09920841
   0.33323963  0.66675937  0.10078603
   0.25000271  0.25001638  0.33532831
   0.41667691  0.08337407  0.33534364
   0.24999222  0.75000678  0.33532497
   0.41668732  0.58331168  0.33535433
   0.74999039  0.25000861  0.33534731
   0.91666214  0.08333686  0.33530531
   0.74998262  0.74999629  0.33532831
   0.91662493  0.58332209  0.33534364
Direct configuration=     4
   0.66953399 -0.00012681  0.09999115
   0.33049524 -0.00001611  0.10000326
   0.00012681  0.33046501  0.09999115
   0.00001611  0.66950376  0.10000326
   0.33043237  0.33035427  0.10000379
   0.66964473  0.66956663  0.10000379
   0.66655229  0.33344671  0.09920834
   0.33323913  0.66675987  0.10078608
   0.25000273  0.25001647  0.33532828
   0.41667697  0.08337429  0.33534369
   0.24999219  0.75000681  0.33532492
   0.41668743  0.58331157  0.33535444
   0.74999034  0.25000866  0.33534739
   0.91666211  0.08333689  0.33530516
   0.74998253  0.74999627  0.33532828
   0.91662471  0.58332203  0.33534369
Direct configuration=     5
   0.66953264 -0.00012655  0.09999117
   0.33049652 -0.00001607  0.10000325
   0.00012655  0.33046636  0.09999117
   0.00001607  0.66950248  0.10000325
   0.33043378  0.33035585  0.10000378
   0.66964315  0.66956522  0.10000378
   0.66655252  0.33344648  0.09920837
   0.33323933  0.66675967  0.10078606
   0.25000272  0.25001643  0.33532829
   0.41667694  0.08337420  0.33534367
   0.24999220  0.75000680  0.33532494
   0.41668738  0.58331162  0.33535439
   0.74999036  0.25000864  0.33534736
   0.91666212  0.08333688  0.33530522
   0.74998257  0.74999628  0.33532829
   0.91662480  0.58332206  0.33534367
Direct configuration=     6
   0.66953161 -0.00012634  0.09999118
   0.33049751 -0.00001605  0.10000325
   0.00012634  0.33046739  0.09999118
   0.00001605  0.66950149  0.10000325
   0.33043487  0.33035706  0.10000378
   0.66964194  0.66956413  0.10000378
   0.66655270  0.33344630  0.09920839
   0.33323948  0.66675952  0.10078605
   0.25000271  0.25001641  0.33532830
   0.41667693  0.08337413  0.33534365
   0.24999221  0.75000679  0.33532495
   0.41668735  0.58331165  0.33535436
   0.74999037  0.25000863  0.33534734
   0.91666213  0.08333687  0.33530526
   0.74998259  0.74999629  0.33532830
   0.91662487  0.58332207  0.33534365
Direct configuration=     7
   0.66961286 -0.00007593  0.09997628
   0.33055834 -0.00002227  0.10000810
   0.00007593  0.33038614  0.09997628
   0.00002227  0.66944066  0.10000810
   0.33043396  0.33034198  0.10000945
   0.66965702  0.66956504  0.10000945
   0.66652632  0.33347268  0.09918836
   0.33322336  0.66677564  0.10079665
   0.24997776  0.25000038  0.33532487
   0.41663699  0.08332667  0.33535466
   0.24998866  0.75001034  0.33532393
   0.41663687  0.58336213  0.33537296
   0.74998898  0.25001002  0.33536132
   0.91664941  0.08334959  0.33527675
   0.74999862  0.75002124  0.33532487
   0.91667233  0.58336201  0.33535466
Direct configuration=     8
   0.66959388 -0.00008771  0.09997976
   0.33054412 -0.00002081  0.10000696
   0.00008771  0.33040512  0.09997976
   0.00002081  0.66945488  0.10000696
   0.33043417  0.33034550  0.10000812
   0.66965350  0.66956483  0.10000812
   0.66653248  0.33346652  0.09919304
   0.33322712  0.66677188  0.10079417
   0.24998359  0.25000412  0.33532567
   0.41664632  0.08333776  0.33535209
   0.24998949  0.75000951  0.33532417
   0.41664866  0.58335034  0.33536862
   0.74998931  0.25000969  0.33535805
   0.91665238  0.08334662  0.33528341
   0.74999488  0.75001541  0.33532567
   0.91666124  0.58335268  0.33535209
Direct configuration=     9
   0.66962165 -0.00009000  0.09996288
   0.33058590 -0.00003584  0.10001253
   0.00009000  0.33037735  0.09996288
   0.00003584  0.66941310  0.10001253
   0.33043718  0.33033826  0.10001440
   0.66966074  0.66956182  0.10001440
   0.66651830  0.33348070  0.09916950
   0.33322664  0.66677236  0.10080678
   0.24997733  0.25002826  0.33532295
   0.41665219  0.08336996  0.33536236
   0.24997425  0.75002475  0.33532705
   0.41666160  0.58333740  0.33538397
   0.74997261  0.25002639  0.33536987
   0.91664566  0.08335334  0.33525925
   0.74997074  0.75002167  0.33532295
   0.91662904  0.58334681  0.33536236
Direct configuration=    10
   0.66962979 -0.00009067  0.09995793
   0.33059815 -0.00004024  0.10001417
   0.00009067  0.33036921  0.09995793
   0.00004024  0.66940085  0.10001417
   0.33043806  0.33033614  0.10001624
   0.66966286  0.66956094  0.10001624
   0.66651414  0.33348486  0.09916260
   0.33322650  0.66677250  0.10081047
   0.24997550  0.25003533  0.33532215
   0.41665392  0.08337940  0.33536538
   0.24996979  0.75002921  0.33532789
   0.41666539  0.58333361  0.33538847
   0.74996771  0.25003129  0.33537333
   0.91664368  0.08335532  0.33525217
   0.74996367  0.75002350  0.33532215
   0.91661960  0.58334508  0.33536538
Direct configuration=    11
   0.66961581 -0.00013027  0.09993645
   0.33060608 -0.00005748  0.10002126
   0.00013027  0.33038319  0.09993645
   0.00005748  0.66939292  0.10002126
   0.33045049  0.33031841  0.10002367
   0.66968059  0.66954851  0.10002367
   0.66652498  0.33347402  0.09913094
   0.33324535  0.66675365  0.10082803
   0.24997062  0.25004176  0.33532117
   0.41663423  0.08340498  0.33537433
   0.24996500  0.75003400  0.33533823
   0.41664493  0.58335407  0.33539740
   0.74996022  0.25003878  0.33538002
   0.91662235  0.08337665  0.33523828
   0.74995724  0.75002838  0.33532117
   0.91659402  0.58336477  0.33537433
Direct configuration=    12
   0.66960300 -0.00016655  0.09991676
   0.33061335 -0.00007329  0.10002776
   0.00016655  0.33039600  0.09991676
   0.00007329  0.66938565  0.10002776
   0.33046188  0.33030216  0.10003048
   0.66969684  0.66953712  0.10003048
   0.66653491  0.33346409  0.09910192
   0.33326263  0.66673637  0.10084413
   0.24996614  0.25004764  0.33532027
   0.41661618  0.08342841  0.33538253
   0.24996062  0.75003838  0.33534771
   0.41662617  0.58337283  0.33540558
   0.74995336  0.25004564  0.33538615
   0.91660279  0.08339621  0.33522555
   0.74995136  0.75003286  0.33532027
   0.91657059  0.58338282  0.33538253
Direct configuration=    13
   0.66960201 -0.00017642  0.09990752
   0.33061506 -0.00007899  0.10003078
   0.00017642  0.33039699  0.09990752
   0.00007899  0.66938394  0.10003078
   0.33046865  0.33029394  0.10003351
   0.66970506  0.66953035  0.10003351
   0.66654365  0.33345535  0.09908777
   0.33327178  0.66672722  0.10085218
   0.24995690  0.25005438  0.33532036
   0.41661026  0.08342919  0.33538568
   0.24995264  0.75004636  0.33535259
   0.41661970  0.58337930  0.33540790
   0.74994564  0.25005336  0.33538772
   0.91659846  0.08340054  0.33522278
   0.74994462  0.75004210  0.33532036
   0.91656981  0.58338874  0.33538568
Direct configuration=    14
   0.66959903 -0.00020603  0.09987980
   0.33062021 -0.00009612  0.10003985
   0.00020603  0.33039997  0.09987980
   0.00009612  0.66937879  0.10003985
   0.33048895  0.33026926  0.10004259
   0.66972974  0.66951005  0.10004259
   0.66656988  0.33342912  0.09904531
   0.33329920  0.66669980  0.10087634
   0.24992918  0.25007459  0.33532065
   0.41659251  0.08343154  0.33539514
   0.24992870  0.75007030  0.33536725
   0.41660029  0.58339871  0.33541484
   0.74992248  0.25007652  0.33539243
   0.91658547  0.08341353  0.33521446
   0.74992441  0.75006982  0.33532065
   0.91656746  0.58340649  0.33539514
Direct configuration=    15
   0.66959307 -0.00026526  0.09982435
   0.33063050 -0.00013037  0.10005797
   0.00026526  0.33040593  0.09982435
   0.00013037  0.66936850  0.10005797
   0.33052956  0.33021991  0.10006074
   0.66977909  0.66946944  0.10006074
   0.66662234  0.33337666  0.09896038
   0.33335405  0.66664495  0.10092465
   0.24987373  0.25011501  0.33532122
   0.41655701  0.08343623  0.33541405
   0.24988083  0.75011817  0.33539656
   0.41656146  0.58343754  0.33542874
   0.74987617  0.25012283  0.33540184
   0.91655947  0.08343953  0.33519782
   0.74988399  0.75012527  0.33532122
   0.91656277  0.58344199  0.33541405
Direct configuration=    16
   0.66961305 -0.00026496  0.09980668
   0.33063963 -0.00014190  0.10006373
   0.00026496  0.33038595  0.09980668
   0.00014190  0.66935937  0.10006373
   0.33054427  0.33020780  0.10006606
   0.66979120  0.66945473  0.10006606
   0.66664218  0.33335682  0.09893114
   0.33336934  0.66662966  0.10094195
   0.24986302  0.25012856  0.33532274
   0.41654451  0.08345260  0.33541857
   0.24986821  0.75013079  0.33540494
   0.41655048  0.58344852  0.33543100
   0.74986453  0.25013447  0.33540291
   0.91654554  0.08345346  0.33519915
   0.74987044  0.75013598  0.33532274
   0.91654640  0.58345449  0.33541857
Direct configuration=    17
   0.66967299 -0.00026405  0.09975368
   0.33066702 -0.00017651  0.10008101
   0.00026405  0.33032601  0.09975368
   0.00017651  0.66933198  0.10008101
   0.33058840  0.33017145  0.10008203
   0.66982755  0.66941060  0.10008203
   0.66670171  0.33329729  0.09884341
   0.33341522  0.66658378  0.10099386
   0.24983090  0.25016920  0.33532732
   0.41650699  0.08350172  0.33543212
   0.24983035  0.75016865  0.33543006
   0.41651755  0.58348145  0.33543779
   0.74982959  0.25016941  0.33540611
   0.91650375  0.08349525  0.33520313
   0.74982980  0.75016810  0.33532732
   0.91649728  0.58349201  0.33543212
Direct configuration=    18
   0.66979288 -0.00026224  0.09964767
   0.33072182 -0.00024573  0.10011558
   0.00026224  0.33020612  0.09964767
   0.00024573  0.66927718  0.10011558
   0.33067666  0.33009875  0.10011395
   0.66990025  0.66932234  0.10011395
   0.66682076  0.33317824  0.09866795
   0.33350699  0.66649201  0.10109767
   0.24976667  0.25025048  0.33533648
   0.41643196  0.08359997  0.33545921
   0.24975462  0.75024438  0.33548029
   0.41645168  0.58354732  0.33545136
   0.74975971  0.25023929  0.33541252
   0.91642016  0.08357884  0.33521109
   0.74974852  0.75023233  0.33533648
   0.91639903  0.58356704  0.33545921
Direct configuration=    19
   0.66982735 -0.00029808  0.09961449
   0.33075634 -0.00027738  0.10012606
   0.00029808  0.33017165  0.09961449
   0.00027738  0.66924266  0.10012606
   0.33070270  0.33008471  0.10012218
   0.66991429  0.66929630  0.10012218
   0.66684311  0.33315589  0.09860511
   0.33352900  0.66647000  0.10113663
   0.24973887  0.25027505  0.33534326
   0.41640436  0.08362886  0.33546480
   0.24973012  0.75026888  0.33548999
   0.41641935  0.58357965  0.33545477
   0.74973135  0.25026765  0.33541459
   0.91639329  0.08360571  0.33522399
   0.74972395  0.75026013  0.33534326
   0.91637014  0.58359464  0.33546480
Direct configuration=    20
   0.66993076 -0.00040558  0.09951495
   0.33085992 -0.00037235  0.10015750
   0.00040558  0.33006824  0.09951495
   0.00037235  0.66913908  0.10015750
   0.33078080  0.33004256  0.10014686
   0.66995644  0.66921820  0.10014686
   0.66691017  0.33308883  0.09841660
   0.33359503  0.66640397  0.10125353
   0.24965547  0.25034877  0.33536360
   0.41632156  0.08371554  0.33548159
   0.24965661  0.75034239  0.33551907
   0.41632235  0.58367665  0.33546501
   0.74964626  0.25035274  0.33542078
   0.91631270  0.08368630  0.33526267
   0.74965023  0.75034353  0.33536360
   0.91628346  0.58367744  0.33548159
Direct configuration=    21
   0.67013757 -0.00062060  0.09931586
   0.33106707 -0.00056229  0.10022039
   0.00062060  0.32986143  0.09931586
   0.00056229  0.66893193  0.10022039
   0.33093700  0.32995828  0.10019623
   0.67004072  0.66906200  0.10019623
   0.66704427  0.33295473  0.09803957
   0.33372708  0.66627192  0.10148733
   0.24948867  0.25049621  0.33540427
   0.41615595  0.08388889  0.33551518
   0.24950958  0.75048942  0.33557724
   0.41612835  0.58387065  0.33548548
   0.74947609  0.25052291  0.33543316
   0.91615151  0.08384749  0.33534004
   0.74950279  0.75051033  0.33540427
   0.91611011  0.58384305  0.33551518
Direct configuration=    22
   0.67003271 -0.00051158  0.09941680
   0.33096204 -0.00046599  0.10018850
   0.00051158  0.32996629  0.09941680
   0.00046599  0.66903696  0.10018850
   0.33085780  0.33000101  0.10017120
   0.66999799  0.66914120  0.10017120
   0.66697628  0.33302272  0.09823073
   0.33366013  0.66633887  0.10136879
   0.24957324  0.25042146  0.33538365
   0.41623992  0.08380100  0.33549815
   0.24958413  0.75041487  0.33554775
   0.41622671  0.58377229  0.33547510
   0.74956237  0.25043663  0.33542688
   0.91623324  0.08376576  0.33530081
   0.74957754  0.75042576  0.33538365
   0.91619800  0.58375908  0.33549815
Direct configuration=    23
   0.67007489 -0.00059277  0.09936191
   0.33105126 -0.00050103  0.10020422
   0.00059277  0.32992411  0.09936191
   0.00050103  0.66894774  0.10020422
   0.33093504  0.32992201  0.10017798
   0.67007699  0.66906396  0.10017798
   0.66700681  0.33299219  0.09809710
   0.33369868  0.66630032  0.10145834
   0.24950443  0.25050069  0.33540561
   0.41618413  0.08383464  0.33550292
   0.24950000  0.75049900  0.33554549
   0.41619074  0.58380826  0.33548706
   0.74950140  0.25049760  0.33544054
   0.91617884  0.08382016  0.33533287
   0.74949831  0.75049457  0.33540561
   0.91616436  0.58381487  0.33550292
Direct configuration=    24
   0.67010843 -0.00065732  0.09931827
   0.33112220 -0.00052888  0.10021671
   0.00065732  0.32989057  0.09931827
   0.00052888  0.66887680  0.10021671
   0.33099643  0.32985921  0.10018337
   0.67013979  0.66900257  0.10018337
   0.66703108  0.33296792  0.09799086
   0.33372933  0.66626967  0.10152953
   0.24944972  0.25056368  0.33542307
   0.41613978  0.08386139  0.33550671
   0.24943312  0.75056588  0.33554369
   0.41616214  0.58383686  0.33549658
   0.74945293  0.25054607  0.33545140
   0.91613559  0.08386341  0.33535835
   0.74943532  0.75054928  0.33542307
   0.91613761  0.58385922  0.33550671
Direct configuration=    25
   0.67014732 -0.00071560  0.09927939
   0.33119230 -0.00057357  0.10022608
   0.00071560  0.32985168  0.09927939
   0.00057357  0.66880670  0.10022608
   0.33106554  0.32977414  0.10018083
   0.67022486  0.66893346  0.10018083
   0.66707339  0.33292561  0.09786235
   0.33377748  0.66622152  0.10162144
   0.24940341  0.25061071  0.33544732
   0.41607401  0.08393274  0.33550833
   0.24938690  0.75061210  0.33552876
   0.41609653  0.58390247  0.33551216
   0.74940567  0.25059333  0.33547075
   0.91606851  0.08393049  0.33538732
   0.74938829  0.75059559  0.33544732
   0.91606626  0.58392499  0.33550833
Direct configuration=    26
   0.67022076 -0.00082563  0.09920597
   0.33132466 -0.00065795  0.10024378
   0.00082563  0.32977824  0.09920597
   0.00065795  0.66867434  0.10024378
   0.33119602  0.32961353  0.10017603
   0.67038547  0.66880298  0.10017603
   0.66715329  0.33284571  0.09761971
   0.33386839  0.66613061  0.10179495
   0.24931596  0.25069950  0.33549310
   0.41594983  0.08406744  0.33551139
   0.24929966  0.75069934  0.33550058
   0.41597267  0.58402633  0.33554158
   0.74931646  0.25068254  0.33550729
   0.91594186  0.08405714  0.33544201
   0.74929950  0.75068304  0.33549310
   0.91593156  0.58404917  0.33551139
Direct configuration=    27
   0.67026964 -0.00087038  0.09917971
   0.33136838 -0.00072694  0.10024842
   0.00087038  0.32972936  0.09917971
   0.00072694  0.66863062  0.10024842
   0.33124010  0.32956207  0.10016787
   0.67043693  0.66875890  0.10016787
   0.66721098  0.33278802  0.09750110
   0.33392997  0.66606903  0.10188366
   0.24925842  0.25075095  0.33551380
   0.41590471  0.08412250  0.33551405
   0.24925049  0.75074851  0.33548732
   0.41591693  0.58408207  0.33555686
   0.74925482  0.25074418  0.33552524
   0.91589642  0.08410258  0.33546477
   0.74924805  0.75074058  0.33551380
   0.91587650  0.58409429  0.33551405
Direct configuration=    28
   0.67041629 -0.00100464  0.09910094
   0.33149956 -0.00093392  0.10026235
   0.00100464  0.32958271  0.09910094
   0.00093392  0.66849944  0.10026235
   0.33137232  0.32940769  0.10014339
   0.67059131  0.66862668  0.10014339
   0.66738406  0.33261494  0.09714525
   0.33411469  0.66588431  0.10214981
   0.24908577  0.25090529  0.33557591
   0.41576935  0.08428767  0.33552202
   0.24910298  0.75089602  0.33544754
   0.41574973  0.58424927  0.33560271
   0.74906990  0.25092910  0.33557910
   0.91576011  0.08423889  0.33553305
   0.74909371  0.75091323  0.33557591
   0.91571133  0.58422965  0.33552202
Direct configuration=    29
   0.67070959 -0.00127314  0.09894339
   0.33176191 -0.00134788  0.10029021
   0.00127314  0.32928941  0.09894339
   0.00134788  0.66823709  0.10029021
   0.33163676  0.32909892  0.10009442
   0.67090008  0.66836224  0.10009442
   0.66773022  0.33226878  0.09643356
   0.33448415  0.66551485  0.10268211
   0.24874049  0.25121398  0.33570011
   0.41549862  0.08461800  0.33553797
   0.24880795  0.75119105  0.33536799
   0.41541531  0.58458369  0.33569439
   0.74870007  0.25129893  0.33568682
   0.91548748  0.08451152  0.33566960
   0.74878502  0.75125851  0.33570011
   0.91538100  0.58450038  0.33553797
Direct configuration=    30
   0.67062028 -0.00119138  0.09899137
   0.33168203 -0.00122183  0.10028173
   0.00119138  0.32937872  0.09899137
   0.00122183  0.66831697  0.10028173
   0.33155624  0.32919294  0.10010933
   0.67080606  0.66844276  0.10010933
   0.66762482  0.33237418  0.09665026
   0.33437165  0.66562735  0.10252002
   0.24884563  0.25111999  0.33566229
   0.41558106  0.08451742  0.33553311
   0.24889779  0.75110121  0.33539221
   0.41551714  0.58448186  0.33566647
   0.74881268  0.25118632  0.33565402
   0.91557049  0.08442851  0.33562802
   0.74887901  0.75115337  0.33566229
   0.91548158  0.58441794  0.33553311
Direct configuration=    31
   0.67069005 -0.00125641  0.09896495
   0.33175203 -0.00129075  0.10028385
   0.00125641  0.32930895  0.09896495
   0.00129075  0.66824697  0.10028385
   0.33162223  0.32913711  0.10009389
   0.67086189  0.66837677  0.10009389
   0.66770116  0.33229784  0.09649293
   0.33445665  0.66554235  0.10264180
   0.24878117  0.25119536  0.33568318
   0.41549986  0.08457561  0.33554157
   0.24881770  0.75118130  0.33538968
   0.41545675  0.58454225  0.33568359
   0.74875553  0.25124347  0.33567142
   0.91549047  0.08450853  0.33565236
   0.74880364  0.75121783  0.33568318
   0.91542339  0.58449914  0.33554157
Direct configuration=    32
   0.67089934 -0.00145149  0.09888572
   0.33196204 -0.00149751  0.10029023
   0.00145149  0.32909966  0.09888572
   0.00149751  0.66803696  0.10029023
   0.33182023  0.32896965  0.10004756
   0.67102935  0.66817877  0.10004756
   0.66793019  0.33206881  0.09602091
   0.33471165  0.66528735  0.10300711
   0.24858777  0.25142149  0.33574586
   0.41525629  0.08475019  0.33556693
   0.24857744  0.75142156  0.33538208
   0.41527557  0.58472343  0.33573495
   0.74858408  0.25141492  0.33572362
   0.91525040  0.08474860  0.33572539
   0.74857751  0.75141123  0.33574586
   0.91524881  0.58474271  0.33556693
Direct configuration=    33
   0.67131794 -0.00184164  0.09872725
   0.33238206 -0.00191102  0.10030299
   0.00184164  0.32868106  0.09872725
   0.00191102  0.66761694  0.10030299
   0.33221622  0.32863471  0.09995491
   0.67136429  0.66778278  0.09995491
   0.66838824  0.33161076  0.09507689
   0.33522166  0.66477734  0.10373773
   0.24820099  0.25187375  0.33587121
   0.41476914  0.08509935  0.33561765
   0.24809691  0.75190209  0.33536689
   0.41491322  0.58508578  0.33583765
   0.74824117  0.25175783  0.33582803
   0.91477027  0.08522873  0.33587145
   0.74812525  0.75179801  0.33587121
   0.91489965  0.58522986  0.33561765
Direct configuration=    34
   0.67137593 -0.00190279  0.09870658
   0.33245066 -0.00196495  0.10030333
   0.00190279  0.32862307  0.09870658
   0.00196495  0.66754834  0.10030333
   0.33228392  0.32858072  0.09993979
   0.67141828  0.66771508  0.09993979
   0.66845226  0.33154674  0.09493674
   0.33528956  0.66470944  0.10384789
   0.24813946  0.25193464  0.33588691
   0.41470642  0.08516214  0.33562730
   0.24803554  0.75196346  0.33537239
   0.41485097  0.58514803  0.33585109
   0.74818017  0.25181883  0.33584070
   0.91470754  0.08529146  0.33589005
   0.74806436  0.75185954  0.33588691
   0.91483686  0.58529258  0.33562730
Direct configuration=    35
   0.67154990 -0.00208622  0.09864459
   0.33265648 -0.00212674  0.10030435
   0.00208622  0.32844910  0.09864459
   0.00212674  0.66734252  0.10030435
   0.33248701  0.32841875  0.09989442
   0.67158025  0.66751199  0.09989442
   0.66864430  0.33135470  0.09451627
   0.33549328  0.66450572  0.10417835
   0.24795485  0.25211731  0.33593399
   0.41451827  0.08535050  0.33565623
   0.24785141  0.75214759  0.33538891
   0.41466422  0.58533478  0.33589139
   0.74799719  0.25200181  0.33587874
   0.91451936  0.08547964  0.33594585
   0.74788169  0.75204415  0.33593399
   0.91464850  0.58548073  0.33565623
Direct configuration=    36
   0.67189785 -0.00245308  0.09852060
   0.33306811 -0.00245032  0.10030639
   0.00245308  0.32810115  0.09852060
   0.00245032  0.66693089  0.10030639
   0.33289320  0.32809481  0.09980369
   0.67190419  0.66710580  0.09980369
   0.66902839  0.33097061  0.09367535
   0.33590072  0.66409828  0.10483927
   0.24758563  0.25248266  0.33602816
   0.41414197  0.08572721  0.33571408
   0.24748316  0.75251584  0.33542196
   0.41429072  0.58570828  0.33597198
   0.74763122  0.25236778  0.33595481
   0.91414299  0.08585601  0.33605745
   0.74751634  0.75241337  0.33602816
   0.91427179  0.58585703  0.33571408
Direct configuration=    37
   0.67259375 -0.00318681  0.09827263
   0.33389138 -0.00309746  0.10031046
   0.00318681  0.32740525  0.09827263
   0.00309746  0.66610762  0.10031046
   0.33370557  0.32744693  0.09962223
   0.67255207  0.66629343  0.09962223
   0.66979655  0.33020245  0.09199349
   0.33671559  0.66328341  0.10616111
   0.24684719  0.25321335  0.33621650
   0.41338938  0.08648064  0.33582980
   0.24674665  0.75325235  0.33548804
   0.41354372  0.58645528  0.33613318
   0.74689929  0.25309971  0.33610696
   0.91339027  0.08660873  0.33628066
   0.74678565  0.75315181  0.33621650
   0.91351836  0.58660962  0.33582980
Direct configuration=    38
   0.67398554 -0.00465426  0.09777668
   0.33553792 -0.00439176  0.10031860
   0.00465426  0.32601346  0.09777668
   0.00439176  0.66446108  0.10031860
   0.33533032  0.32615117  0.09925930
   0.67384783  0.66466868  0.09925930
   0.67133289  0.32866611  0.08862979
   0.33834533  0.66165367  0.10880479
   0.24537030  0.25467474  0.33659318
   0.41188419  0.08798750  0.33606123
   0.24527363  0.75472537  0.33562020
   0.41204971  0.58794929  0.33645557
   0.74543542  0.25456358  0.33641125
   0.91188481  0.08811419  0.33672707
   0.74532426  0.75462870  0.33659318
   0.91201150  0.58811481  0.33606123
Direct configuration=    39
   0.67417777 -0.00491515  0.09769922
   0.33584700 -0.00464521  0.10031515
   0.00491515  0.32582123  0.09769922
   0.00464521  0.66415200  0.10031515
   0.33565713  0.32593739  0.09919412
   0.67406161  0.66434187  0.09919412
   0.67158247  0.32841653  0.08805248
   0.33858545  0.66141355  0.10926356
   0.24510309  0.25492650  0.33664955
   0.41165141  0.08825542  0.33610696
   0.24502934  0.75496966  0.33566773
   0.41178404  0.58821496  0.33650572
   0.74515400  0.25484500  0.33645759
   0.91164991  0.08834909  0.33678961
   0.74507250  0.75489591  0.33664955
   0.91174358  0.58834759  0.33610696
Direct configuration=    40
   0.67475446 -0.00569781  0.09746684
   0.33677424 -0.00540557  0.10030478
   0.00569781  0.32524454  0.09746684
   0.00540557  0.66322476  0.10030478
   0.33663757  0.32529606  0.09899856
   0.67470294  0.66336143  0.09899856
   0.67233121  0.32766779  0.08632055
   0.33930582  0.66069318  0.11063986
   0.24430144  0.25568178  0.33681865
   0.41095309  0.08905919  0.33624414
   0.24429649  0.75570251  0.33581029
   0.41098702  0.58901198  0.33665619
   0.74430974  0.25568926  0.33659662
   0.91094522  0.08905378  0.33697721
   0.74431722  0.75569756  0.33681865
   0.91093981  0.58904591  0.33624414
Direct configuration=    41
   0.67491254 -0.00591235  0.09740315
   0.33702841 -0.00561400  0.10030194
   0.00591235  0.32508646  0.09740315
   0.00561400  0.66297059  0.10030194
   0.33690633  0.32512026  0.09894496
   0.67487874  0.66309267  0.09894496
   0.67253645  0.32746255  0.08584581
   0.33950328  0.66049572  0.11101712
   0.24408169  0.25588881  0.33686500
   0.41076167  0.08927951  0.33628174
   0.24409560  0.75590340  0.33584937
   0.41076855  0.58923045  0.33669744
   0.74407832  0.25592068  0.33663473
   0.91075206  0.08924694  0.33702864
   0.74411019  0.75591731  0.33686500
   0.91071949  0.58923733  0.33628174
Direct configuration=    42
   0.67483745 -0.00594100  0.09741518
   0.33711365 -0.00566966  0.10029154
   0.00594100  0.32516155  0.09741518
   0.00566966  0.66288535  0.10029154
   0.33700407  0.32515092  0.09893667
   0.67484808  0.66299493  0.09893667
   0.67252653  0.32747247  0.08582557
   0.33946383  0.66053517  0.11104230
   0.24407010  0.25590707  0.33685168
   0.41074841  0.08928995  0.33629542
   0.24407852  0.75592048  0.33589605
   0.41075573  0.58924327  0.33669166
   0.74406353  0.25593547  0.33662739
   0.91073815  0.08926085  0.33700270
   0.74409193  0.75592890  0.33685168
   0.91070905  0.58925059  0.33629542
Direct configuration=    43
   0.67461221 -0.00602695  0.09745129
   0.33736938 -0.00583663  0.10026033
   0.00602695  0.32538679  0.09745129
   0.00583663  0.66262962  0.10026033
   0.33729730  0.32524292  0.09891182
   0.67475608  0.66270170  0.09891182
   0.67249674  0.32750226  0.08576483
   0.33934546  0.66065354  0.11111783
   0.24403531  0.25596186  0.33681172
   0.41070861  0.08932127  0.33633647
   0.24402727  0.75597173  0.33603611
   0.41071728  0.58928172  0.33667433
   0.74401916  0.25597984  0.33660540
   0.91069641  0.08930259  0.33692491
   0.74403714  0.75596369  0.33681172
   0.91067773  0.58929039  0.33633647
Direct configuration=    44
   0.67416172 -0.00619887  0.09752350
   0.33788083 -0.00617058  0.10019792
   0.00619887  0.32583728  0.09752350
   0.00617058  0.66211817  0.10019792
   0.33788377  0.32542691  0.09886212
   0.67457209  0.66211523  0.09886212
   0.67243718  0.32756182  0.08564337
   0.33910872  0.66089028  0.11126891
   0.24396573  0.25607142  0.33673178
   0.41062902  0.08938392  0.33641857
   0.24392478  0.75607422  0.33631621
   0.41064036  0.58935864  0.33663966
   0.74393042  0.25606858  0.33656142
   0.91061294  0.08938606  0.33676931
   0.74392758  0.75603327  0.33673178
   0.91061508  0.58936998  0.33641857
Direct configuration=    45
   0.67435110 -0.00612660  0.09749314
   0.33766583 -0.00603020  0.10022415
   0.00612660  0.32564790  0.09749314
   0.00603020  0.66233317  0.10022415
   0.33763723  0.32534956  0.09888302
   0.67464944  0.66236177  0.09888302
   0.67246222  0.32753678  0.08569443
   0.33920824  0.66079076  0.11120540
   0.24399498  0.25602536  0.33676539
   0.41066248  0.08935759  0.33638406
   0.24396786  0.75603114  0.33619846
   0.41067270  0.58932630  0.33665424
   0.74396772  0.25603128  0.33657991
   0.91064803  0.08935097  0.33683472
   0.74397364  0.75600402  0.33676539
   0.91064141  0.58933652  0.33638406
Direct configuration=    46
   0.67442801 -0.00614968  0.09753823
   0.33770613 -0.00599574  0.10019470
   0.00614968  0.32557099  0.09753823
   0.00599574  0.66229287  0.10019470
   0.33762140  0.32532344  0.09886364
   0.67467556  0.66237760  0.09886364
   0.67244860  0.32755040  0.08568911
   0.33922628  0.66077272  0.11123952
   0.24397627  0.25602459  0.33672627
   0.41064332  0.08938977  0.33641511
   0.24396276  0.75603624  0.33628722
   0.41064908  0.58934992  0.33664607
   0.74396277  0.25603623  0.33656030
   0.91063044  0.08936856  0.33676857
   0.74397441  0.75602273  0.33672627
   0.91060923  0.58935568  0.33641511
Direct configuration=    47
   0.67465875 -0.00621891  0.09767349
   0.33782704 -0.00589235  0.10010632
   0.00621891  0.32534025  0.09767349
   0.00589235  0.66217196  0.10010632
   0.33757389  0.32524505  0.09880549
   0.67475395  0.66242511  0.09880549
   0.67240775  0.32759125  0.08567317
   0.33928038  0.66071862  0.11134189
   0.24392013  0.25602228  0.33660891
   0.41058583  0.08948633  0.33650826
   0.24394745  0.75605155  0.33655351
   0.41057824  0.58942076  0.33662158
   0.74394791  0.25605109  0.33650145