Lattice                                 
           1
     4.356108    2.515000    0.000000
    -4.356108    2.515000    0.000000
     0.000000    0.000000   15.000000
   B    C 
     2    14
Direct configuration=     1
   0.33833034  0.66916432  0.10000000
   0.67165522  0.33584146  0.10000000
   0.16373946  0.31999962  0.10000000
   0.32250218  0.16126397  0.10000000
   0.16376430  0.84376384  0.10000000
   0.84623863  0.16123684  0.10000000
   0.68749850  0.84373000  0.10000000
   0.84626736  0.68499594  0.10000000
   0.33333267  0.16666633  0.32553333
   0.49999967  0.99999933  0.32553333
   0.33333267  0.66666633  0.32553333
   0.49999967  0.49999933  0.32553333
   0.83333267  0.16666633  0.32553333
   0.99999967  0.99999933  0.32553333
   0.83333267  0.66666633  0.32553333
   0.99999967  0.49999933  0.32553333
Direct configuration=     2
   0.33834444  0.66917101  0.10016997
   0.67169353  0.33582061  0.09997912
   0.16737070  0.32726784  0.09994499
   0.32949982  0.16475896  0.10001649
   0.16740149  0.84012122  0.09994499
   0.84271216  0.16474512  0.10001602
   0.68022852  0.84011462  0.09994472
   0.84273739  0.67799257  0.10001601
   0.33337745  0.16668761  0.32554264
   0.50012631  0.00027009  0.32558468
   0.33332892  0.66666340  0.32532722
   0.50012631  0.49985743  0.32558467
   0.83331951  0.16669160  0.32553916
   0.00000494  0.00000307  0.32553075
   0.83331955  0.66662577  0.32553918
   0.99973429  0.49986774  0.32558605
Direct configuration=     3
   0.33833408  0.66916609  0.10004506
   0.67166537  0.33583593  0.09999446
   0.16470211  0.32192643  0.09998542
   0.32435726  0.16219049  0.10000437
   0.16472852  0.84279818  0.09998542
   0.84530376  0.16216689  0.10000425
   0.68557123  0.84277157  0.09998535
   0.84533156  0.68313935  0.10000424
   0.33334454  0.16667197  0.32553580
   0.50003324  0.00007111  0.32554695
   0.33333167  0.66666556  0.32547869
   0.50003324  0.49996171  0.32554694
   0.83332918  0.16667303  0.32553488
   0.00000107  0.00000032  0.32553265
   0.83332919  0.66665558  0.32553488
   0.99992931  0.49996445  0.32554731
Direct configuration=     4
   0.33833408  0.66916609  0.10004503
   0.67166537  0.33583594  0.09999447
   0.16470148  0.32192519  0.09998543
   0.32435606  0.16218989  0.10000437
   0.16472790  0.84279880  0.09998543
   0.84530437  0.16216629  0.10000425
   0.68557247  0.84277218  0.09998535
   0.84533216  0.68314054  0.10000424
   0.33334453  0.16667197  0.32553580
   0.50003322  0.00007106  0.32554694
   0.33333167  0.66666556  0.32547873
   0.50003322  0.49996174  0.32554693
   0.83332918  0.16667303  0.32553488
   0.00000106  0.00000032  0.32553265
   0.83332919  0.66665559  0.32553488
   0.99992936  0.49996447  0.32554730
Direct configuration=     5
   0.33833835  0.66916633  0.10015359
   0.67166882  0.33583237  0.09997752
   0.16469978  0.32192858  0.09995925
   0.32434566  0.16217901  0.10000771
   0.16471822  0.84278924  0.09995925
   0.84531949  0.16216410  0.10000735
   0.68556167  0.84277683  0.09995886
   0.84533585  0.68315536  0.10000735
   0.33335637  0.16667805  0.32554793
   0.50004409  0.00009185  0.32557341
   0.33333092  0.66666531  0.32534927
   0.50004409  0.49995158  0.32557341
   0.83332382  0.16667976  0.32554473
   0.00000330  0.00000132  0.32552771
   0.83332381  0.66664376  0.32554474
   0.99991109  0.49995522  0.32557460
Direct configuration=     6
   0.33833961  0.66916640  0.10018558
   0.67166984  0.33583133  0.09997253
   0.16469928  0.32192958  0.09995153
   0.32434260  0.16217581  0.10000869
   0.16471537  0.84278642  0.09995153
   0.84532395  0.16216345  0.10000826
   0.68555848  0.84277820  0.09995105
   0.84533694  0.68315972  0.10000826
   0.33335985  0.16667984  0.32555150
   0.50004729  0.00009797  0.32558121
   0.33333070  0.66666524  0.32531113
   0.50004729  0.49994858  0.32558121
   0.83332224  0.16668174  0.32554764
   0.00000396  0.00000162  0.32552626
   0.83332222  0.66664028  0.32554764
   0.99990571  0.49995249  0.32558264
Direct configuration=     7
   0.33831626  0.66916344  0.10024763
   0.67167143  0.33583863  0.09997698
   0.16472724  0.32190783  0.09996606
   0.32435056  0.16218393  0.09998333
   0.16472324  0.84280624  0.09996606
   0.84529280  0.16217276  0.09998253
   0.68560322  0.84278666  0.09996519
   0.84529319  0.68312724  0.09998254
   0.33333729  0.16666806  0.32557635
   0.50002374  0.00005024  0.32556170
   0.33333623  0.66666754  0.32526805
   0.50002372  0.49997376  0.32556171
   0.83333775  0.16666840  0.32557152
   0.00000055  0.00000041  0.32552250
   0.83333777  0.66666823  0.32557151
   0.99995035  0.49997529  0.32556302
Direct configuration=     8
   0.33832133  0.66916408  0.10023414
   0.67167108  0.33583704  0.09997601
   0.16472116  0.32191256  0.09996290
   0.32434883  0.16218216  0.09998884
   0.16472153  0.84280194  0.09996291
   0.84529957  0.16217074  0.09998812
   0.68559349  0.84278482  0.09996212
   0.84530270  0.68313430  0.09998813
   0.33334219  0.16667062  0.32557095
   0.50002886  0.00006061  0.32556594
   0.33333503  0.66666704  0.32527741
   0.50002884  0.49996829  0.32556595
   0.83333438  0.16667130  0.32556633
   0.00000129  0.00000067  0.32552332
   0.83333439  0.66666216  0.32556632
   0.99994065  0.49997034  0.32556728
Direct configuration=     9
   0.33834795  0.66916893  0.10028926
   0.67164658  0.33582957  0.09997944
   0.16466565  0.32191931  0.09998141
   0.32437582  0.16216965  0.09996638
   0.16466935  0.84277060  0.09998146
   0.84536246  0.16218443  0.09996518
   0.68553407  0.84278430  0.09998016
   0.84536672  0.68315508  0.09996519
   0.33335197  0.16667609  0.32558738
   0.50004431  0.00008627  0.32554047
   0.33333242  0.66666639  0.32525276
   0.50004437  0.49995699  0.32554046
   0.83332768  0.16667751  0.32558222
   0.00000651  0.00000272  0.32553130
   0.83332770  0.66665043  0.32558223
   0.99992177  0.49996039  0.32554136
Direct configuration=    10
   0.33833125  0.66916589  0.10025469
   0.67166195  0.33583426  0.09997729
   0.16470047  0.32191508  0.09996980
   0.32435889  0.16217750  0.09998047
   0.16470209  0.84279026  0.09996982
   0.84532301  0.16217584  0.09997957
   0.68557135  0.84278463  0.09996884
   0.84532656  0.68314205  0.09997958
   0.33334584  0.16667266  0.32557707
   0.50003462  0.00007017  0.32555645
   0.33333406  0.66666680  0.32526822
   0.50003463  0.49996408  0.32555645
   0.83333188  0.16667361  0.32557225
   0.00000324  0.00000143  0.32552629
   0.83333190  0.66665779  0.32557225
   0.99993361  0.49996663  0.32555762
Direct configuration=    11
   0.33833190  0.66916601  0.10025602
   0.67166136  0.33583408  0.09997737
   0.16469913  0.32191524  0.09997025
   0.32435954  0.16217720  0.09997993
   0.16470082  0.84278950  0.09997027
   0.84532453  0.16217617  0.09997902
   0.68556991  0.84278461  0.09996928
   0.84532811  0.68314255  0.09997902
   0.33334607  0.16667279  0.32557747
   0.50003499  0.00007079  0.32555583
   0.33333399  0.66666678  0.32526763
   0.50003500  0.49996381  0.32555583
   0.83333172  0.16667376  0.32557264
   0.00000336  0.00000148  0.32552649
   0.83333174  0.66665750  0.32557263
   0.99993316  0.49996639  0.32555699
Direct configuration=    12
   0.33833024  0.66916496  0.10028036
   0.67167349  0.33583055  0.09997525
   0.16471859  0.32193208  0.09997833
   0.32432914  0.16216785  0.09997616
   0.16472034  0.84278267  0.09997834
   0.84531688  0.16216240  0.09997487
   0.68556239  0.84278098  0.09997700
   0.84531583  0.68315954  0.09997488
   0.33336257  0.16668129  0.32557520
   0.50005189  0.00010324  0.32554391
   0.33333275  0.66666635  0.32526290
   0.50005189  0.49994788  0.32554391
   0.83332404  0.16668328  0.32557041
   0.00000673  0.00000299  0.32554005
   0.83332402  0.66664073  0.32557041
   0.99990456  0.49995189  0.32554466
Direct configuration=    13
   0.33833100  0.66916544  0.10026922
   0.67166794  0.33583216  0.09997622
   0.16470968  0.32192437  0.09997463
   0.32434306  0.16217213  0.09997789
   0.16471140  0.84278579  0.09997465
   0.84532038  0.16216870  0.09997677
   0.68556583  0.84278265  0.09997347
   0.84532145  0.68315176  0.09997678
   0.33335502  0.16667740  0.32557624
   0.50004416  0.00008839  0.32554937
   0.33333332  0.66666655  0.32526506
   0.50004416  0.49995517  0.32554937
   0.83332755  0.16667892  0.32557143
   0.00000519  0.00000230  0.32553384
   0.83332755  0.66664841  0.32557143
   0.99991765  0.49995853  0.32555031
Direct configuration=    14
   0.33832946  0.66916399  0.10028099
   0.67166744  0.33583252  0.09997296
   0.16470862  0.32191993  0.09997768
   0.32434543  0.16217329  0.09998163
   0.16470817  0.84278718  0.09997767
   0.84531707  0.16217099  0.09998019
   0.68557074  0.84278476  0.09997627
   0.84531620  0.68314641  0.09998023
   0.33335439  0.16667688  0.32556897
   0.50004071  0.00008162  0.32554421
   0.33333563  0.66666749  0.32526408
   0.50004071  0.49995897  0.32554421
   0.83333098  0.16667820  0.32556431
   0.00000470  0.00000229  0.32554407
   0.83333097  0.66665212  0.32556431
   0.99992411  0.49996200  0.32554487
Direct configuration=    15
   0.33832846  0.66916306  0.10028860
   0.67166712  0.33583275  0.09997085
   0.16470793  0.32191707  0.09997965
   0.32434697  0.16217403  0.09998405
   0.16470608  0.84278808  0.09997962
   0.84531494  0.16217247  0.09998240
   0.68557391  0.84278613  0.09997809
   0.84531281  0.68314295  0.09998246
   0.33335398  0.16667655  0.32556428
   0.50003848  0.00007725  0.32554088
   0.33333713  0.66666810  0.32526344
   0.50003848  0.49996143  0.32554088
   0.83333320  0.16667774  0.32555971
   0.00000439  0.00000229  0.32555068
   0.83333317  0.66665452  0.32555971
   0.99992829  0.49996424  0.32554136
Direct configuration=    16
   0.33833077  0.66916497  0.10029832
   0.67165859  0.33583084  0.09997032
   0.16469960  0.32191917  0.09998619
   0.32434871  0.16217011  0.09999034
   0.16469924  0.84278191  0.09998613
   0.84532544  0.16217298  0.09998820
   0.68555940  0.84278273  0.09998420
   0.84532528  0.68314805  0.09998826
   0.33335235  0.16667641  0.32555705
   0.50004599  0.00008452  0.32553364
   0.33333489  0.66666772  0.32526017
   0.50004598  0.49996036  0.32553364
   0.83333082  0.16667759  0.32555255
   0.00000957  0.00000422  0.32555112
   0.83333083  0.66665371  0.32555256
   0.99992790  0.49996339  0.32553399
Direct configuration=    17
   0.33833050  0.66916475  0.10029721
   0.67165956  0.33583106  0.09997038
   0.16470055  0.32191893  0.09998544
   0.32434851  0.16217056  0.09998962
   0.16470002  0.84278261  0.09998539
   0.84532424  0.16217292  0.09998753
   0.68556106  0.84278312  0.09998350
   0.84532386  0.68314747  0.09998760
   0.33335254  0.16667643  0.32555788
   0.50004514  0.00008369  0.32553446
   0.33333514  0.66666776  0.32526054
   0.50004513  0.49996048  0.32553447
   0.83333109  0.16667761  0.32555337
   0.00000898  0.00000400  0.32555107
   0.83333110  0.66665380  0.32555337
   0.99992794  0.49996349  0.32553483
Direct configuration=    18
   0.33832892  0.66916466  0.10030081
   0.67165897  0.33583063  0.09997110
   0.16470238  0.32192008  0.09998898
   0.32434532  0.16216920  0.09999270
   0.16470176  0.84278205  0.09998892
   0.84532276  0.16217126  0.09999037
   0.68555980  0.84278199  0.09998681
   0.84532254  0.68314853  0.09999043
   0.33335363  0.16667705  0.32555495
   0.50004723  0.00008635  0.32553104
   0.33333550  0.66666802  0.32525838
   0.50004721  0.49995981  0.32553104
   0.83333115  0.16667827  0.32555045
   0.00001014  0.00000453  0.32554883
   0.83333116  0.66665336  0.32555045
   0.99992685  0.49996289  0.32553138
Direct configuration=    19
   0.33832417  0.66916442  0.10031161
   0.67165720  0.33582933  0.09997326
   0.16470788  0.32192353  0.09999959
   0.32433574  0.16216510  0.10000194
   0.16470699  0.84278037  0.09999951
   0.84531834  0.16216627  0.09999889
   0.68555605  0.84277862  0.09999675
   0.84531858  0.68315171  0.09999893
   0.33335693  0.16667891  0.32554617
   0.50005349  0.00009432  0.32552076
   0.33333658  0.66666879  0.32525190
   0.50005345  0.49995780  0.32552077
   0.83333134  0.16668024  0.32554169
   0.00001363  0.00000612  0.32554213
   0.83333137  0.66665204  0.32554170
   0.99992359  0.49996110  0.32552105
Direct configuration=    20
   0.33831468  0.66916392  0.10033321
   0.67165365  0.33582675  0.09997758
   0.16471887  0.32193045  0.10002082
   0.32431660  0.16215692  0.10002042
   0.16471746  0.84277701  0.10002070
   0.84530949  0.16215629  0.10001591
   0.68554853  0.84277187  0.10001664
   0.84531068  0.68315807  0.10001594
   0.33336352  0.16668263  0.32552860
   0.50006602  0.00011026  0.32550021
   0.33333873  0.66667033  0.32523894
   0.50006594  0.49995379  0.32550022
   0.83333171  0.16668419  0.32552418
   0.00002061  0.00000930  0.32552873
   0.83333178  0.66664940  0.32552419
   0.99991706  0.49995751  0.32550039
Direct configuration=    21
   0.33831973  0.66916418  0.10032171
   0.67165554  0.33582813  0.09997528
   0.16471302  0.32192677  0.10000951
   0.32432680  0.16216128  0.10001058
   0.16471189  0.84277880  0.10000941
   0.84531420  0.16216160  0.10000684
   0.68555253  0.84277546  0.10000605
   0.84531489  0.68315468  0.10000688
   0.33336001  0.16668065  0.32553796
   0.50005935  0.00010177  0.32551115
   0.33333758  0.66666951  0.32524584
   0.50005929  0.49995593  0.32551116
   0.83333151  0.16668209  0.32553351
   0.00001690  0.00000760  0.32553587
   0.83333156  0.66665080  0.32553352
   0.99992054  0.49995942  0.32551140
Direct configuration=    22
   0.33831749  0.66916407  0.10032681
   0.67165470  0.33582752  0.09997630
   0.16471561  0.32192840  0.10001452
   0.32432228  0.16215935  0.10001494
   0.16471436  0.84277800  0.10001441
   0.84531211  0.16215925  0.10001086
   0.68555076  0.84277387  0.10001074
   0.84531302  0.68315618  0.10001089
   0.33336156  0.16668153  0.32553381
   0.50006231  0.00010553  0.32550630
   0.33333809  0.66666987  0.32524278
   0.50006224  0.49995498  0.32550631
   0.83333160  0.16668302  0.32552937
   0.00001854  0.00000835  0.32553270
   0.83333165  0.66665018  0.32552938
   0.99991900  0.49995858  0.32550652
Direct configuration=    23
   0.33831705  0.66916360  0.10032923
   0.67165431  0.33582730  0.09997735
   0.16471460  0.32192767  0.10001717
   0.32432224  0.16215932  0.10001722
   0.16471327  0.84277788  0.10001706
   0.84531148  0.16215928  0.10001296
   0.68555073  0.84277388  0.10001322
   0.84531232  0.68315547  0.10001299
   0.33336254  0.16668195  0.32553170
   0.50006219  0.00010518  0.32550392
   0.33333906  0.66667028  0.32524079
   0.50006212  0.49995539  0.32550393
   0.83333257  0.16668344  0.32552726
   0.00001865  0.00000849  0.32553045
   0.83333262  0.66665058  0.32552727
   0.99991960  0.49995897  0.32550414
Direct configuration=    24
   0.33831571  0.66916219  0.10033651
   0.67165312  0.33582664  0.09998050
   0.16471156  0.32192548  0.10002511
   0.32432214  0.16215924  0.10002406
   0.16471000  0.84277751  0.10002498
   0.84530959  0.16215936  0.10001926
   0.68555065  0.84277390  0.10002064
   0.84531019  0.68315333  0.10001928
   0.33336548  0.16668321  0.32552536
   0.50006184  0.00010413  0.32549679
   0.33334196  0.66667151  0.32523482
   0.50006178  0.49995663  0.32549680
   0.83333546  0.16668469  0.32552091
   0.00001895  0.00000891  0.32552369
   0.83333550  0.66665177  0.32552093
   0.99992141  0.49996014  0.32549701
Direct configuration=    25
   0.33831303  0.66915938  0.10035107
   0.67165073  0.33582532  0.09998681
   0.16470548  0.32192112  0.10004099
   0.32432193  0.16215908  0.10003774
   0.16470346  0.84277677  0.10004084
   0.84530580  0.16215954  0.10003187
   0.68555049  0.84277396  0.10003549
   0.84530594  0.68314905  0.10003187
   0.33337136  0.16668573  0.32551269
   0.50006114  0.00010203  0.32548252
   0.33334776  0.66667397  0.32522287
   0.50006109  0.49995911  0.32548253
   0.83334126  0.16668721  0.32550822
   0.00001956  0.00000975  0.32551018
   0.83334127  0.66665417  0.32550824
   0.99992502  0.49996249  0.32548274
Direct configuration=    26
   0.33830768  0.66915375  0.10038020
   0.67164597  0.33582267  0.09999941
   0.16469332  0.32191238  0.10007275
   0.32432152  0.16215875  0.10006510
   0.16469037  0.84277529  0.10007254
   0.84529822  0.16215989  0.10005708
   0.68555016  0.84277406  0.10006519
   0.84529745  0.68314050  0.10005704
   0.33338313  0.16669077  0.32548735
   0.50005974  0.00009783  0.32545398
   0.33335937  0.66667889  0.32519897
   0.50005972  0.49996407  0.32545399
   0.83335286  0.16669224  0.32548284
   0.00002078  0.00001143  0.32548315
   0.83335281  0.66665895  0.32548287
   0.99993225  0.49996719  0.32545420
Direct configuration=    27
   0.33829697  0.66914249  0.10043844
   0.67163645  0.33581739  0.10002462
   0.16466900  0.32189491  0.10013626
   0.32432069  0.16215810  0.10011983
   0.16466421  0.84277232  0.10013595
   0.84528306  0.16216060  0.10010749
   0.68554949  0.84277427  0.10012459
   0.84528046  0.68312339  0.10010738
   0.33340665  0.16670085  0.32543668
   0.50005695  0.00008943  0.32539690
   0.33338257  0.66668872  0.32515118
   0.50005698  0.49997399  0.32539692
   0.83337605  0.16670231  0.32543207
   0.00002322  0.00001479  0.32542910
   0.83337589  0.66666852  0.32543213
   0.99994670  0.49997659  0.32539712
Direct configuration=    28
   0.33830261  0.66914842  0.10040778
   0.67164146  0.33582017  0.10001135
   0.16468181  0.32190411  0.10010283
   0.32432113  0.16215844  0.10009102
   0.16467798  0.84277388  0.10010257
   0.84529104  0.16216023  0.10008095
   0.68554984  0.84277416  0.10009332
   0.84528940  0.68313240  0.10008088
   0.33339427  0.16669554  0.32546335
   0.50005842  0.00009385  0.32542695
   0.33337036  0.66668354  0.32517634
   0.50005842  0.49996877  0.32542697
   0.83336384  0.16669701  0.32545880
   0.00002193  0.00001302  0.32545756
   0.83336374  0.66666349  0.32545884
   0.99993909  0.49997164  0.32542717
Direct configuration=    29
   0.33830124  0.66914759  0.10042277
   0.67163640  0.33581793  0.10002687
   0.16467390  0.32190044  0.10011875
   0.32432006  0.16215804  0.10010697
   0.16467206  0.84277084  0.10011848
   0.84529036  0.16215967  0.10009572
   0.68554237  0.84277218  0.10010805
   0.84528789  0.68312914  0.10009561
   0.33338613  0.16669305  0.32544786
   0.50006860  0.00009457  0.32541414
   0.33336642  0.66668318  0.32515719
   0.50006858  0.49997526  0.32541415
   0.83336153  0.16669425  0.32544324
   0.00003355  0.00001737  0.32543915
   0.83336146  0.66666714  0.32544328
   0.99995478  0.49997801  0.32541444
Direct configuration=    30
   0.33830036  0.66914706  0.10043250
   0.67163312  0.33581648  0.10003694
   0.16466877  0.32189806  0.10012909
   0.32431937  0.16215778  0.10011732
   0.16466821  0.84276887  0.10012881
   0.84528991  0.16215931  0.10010530
   0.68553752  0.84277089  0.10011761
   0.84528691  0.68312702  0.10010518
   0.33338084  0.16669143  0.32543780
   0.50007520  0.00009504  0.32540582
   0.33336387  0.66668294  0.32514476
   0.50007518  0.49997948  0.32540584
   0.83336003  0.16669245  0.32543314
   0.00004110  0.00002020  0.32542721
   0.83335998  0.66666952  0.32543318
   0.99996497  0.49998214  0.32540618
Direct configuration=    31
   0.33829859  0.66914598  0.10045197
   0.67162655  0.33581357  0.10005709
   0.16465851  0.32189330  0.10014976
   0.32431798  0.16215726  0.10013803
   0.16466052  0.84276492  0.10014946
   0.84528903  0.16215858  0.10012447
   0.68552782  0.84276832  0.10013673
   0.84528494  0.68312279  0.10012430
   0.33337028  0.16668820  0.32541769
   0.50008841  0.00009597  0.32538919
   0.33335876  0.66668247  0.32511990
   0.50008837  0.49998791  0.32538921
   0.83335703  0.16668887  0.32541293
   0.00005618  0.00002585  0.32540332
   0.83335702  0.66667427  0.32541297
   0.99998534  0.49999041  0.32538965
Direct configuration=    32
   0.33829962  0.66914661  0.10044058
   0.67163039  0.33581527  0.10004530
   0.16466452  0.32189609  0.10013766
   0.32431879  0.16215756  0.10012591
   0.16466502  0.84276723  0.10013737
   0.84528955  0.16215900  0.10011325
   0.68553350  0.84276983  0.10012554
   0.84528609  0.68312527  0.10011311
   0.33337646  0.16669009  0.32542946
   0.50008068  0.00009543  0.32539893
   0.33336175  0.66668275  0.32513445
   0.50008065  0.49998298  0.32539894
   0.83335879  0.16669097  0.32542476
   0.00004735  0.00002254  0.32541730
   0.83335876  0.66667149  0.32542480
   0.99997342  0.49998557  0.32539933
Direct configuration=    33
   0.33829906  0.66914627  0.10044675
   0.67162831  0.33581435  0.10005169
   0.16466127  0.32189458  0.10014422
   0.32431835  0.16215740  0.10013247
   0.16466258  0.84276598  0.10014392
   0.84528926  0.16215877  0.10011933
   0.68553042  0.84276901  0.10013160
   0.84528547  0.68312393  0.10011917
   0.33337311  0.16668907  0.32542308
   0.50008487  0.00009572  0.32539365
   0.33336013  0.66668260  0.32512657
   0.50008483  0.49998565  0.32539367
   0.83335784  0.16668983  0.32541835
   0.00005214  0.00002433  0.32540972
   0.83335782  0.66667300  0.32541839
   0.99997988  0.49998819  0.32539409
Direct configuration=    34
   0.33829888  0.66914616  0.10044870
   0.67162765  0.33581405  0.10005371
   0.16466024  0.32189410  0.10014629
   0.32431821  0.16215734  0.10013455
   0.16466181  0.84276558  0.10014599
   0.84528918  0.16215870  0.10012125
   0.68552945  0.84276875  0.10013352
   0.84528527  0.68312350  0.10012109
   0.33337205  0.16668874  0.32542106
   0.50008619  0.00009582  0.32539198
   0.33335961  0.66668255  0.32512408
   0.50008615  0.49998650  0.32539200
   0.83335754  0.16668947  0.32541633
   0.00005365  0.00002490  0.32540733
   0.83335752  0.66667347  0.32541636
   0.99998192  0.49998902  0.32539243
Direct configuration=    35
   0.33829179  0.66914408  0.10046316
   0.67162497  0.33581178  0.10007605
   0.16466388  0.32189614  0.10016065
   0.32430789  0.16215308  0.10015133
   0.16466470  0.84276475  0.10016034
   0.84528045  0.16215241  0.10013686
   0.68552667  0.84276509  0.10014662
   0.84527776  0.68312408  0.10013666
   0.33337914  0.16669180  0.32540485
   0.50008884  0.00010004  0.32537996
   0.33336656  0.66668555  0.32510251
   0.50008880  0.49998613  0.32537998
   0.83336430  0.16669262  0.32540004
   0.00005501  0.00002618  0.32538708
   0.83336431  0.66667616  0.32540007
   0.99998026  0.49998879  0.32538051
Direct configuration=    36
   0.33828649  0.66914253  0.10047399
   0.67162296  0.33581008  0.10009278
   0.16466661  0.32189767  0.10017140
   0.32430015  0.16214988  0.10016391
   0.16466687  0.84276413  0.10017108
   0.84527391  0.16214770  0.10014855
   0.68552459  0.84276234  0.10015643
   0.84527214  0.68312451  0.10014832
   0.33338445  0.16669409  0.32539272
   0.50009083  0.00010321  0.32537095
   0.33337177  0.66668779  0.32508636
   0.50009079  0.49998585  0.32537097
   0.83336936  0.16669497  0.32538784
   0.00005603  0.00002714  0.32537191
   0.83336940  0.66667818  0.32538787
   0.99997901  0.49998861  0.32537159
Direct configuration=    37
   0.33827587  0.66913941  0.10049564
   0.67161894  0.33580667  0.10012625
   0.16467206  0.32190072  0.10019290
   0.32428469  0.16214348  0.10018905
   0.16467120  0.84276288  0.10019258
   0.84526083  0.16213829  0.10017192
   0.68552043  0.84275685  0.10017605
   0.84526090  0.68312538  0.10017165
   0.33339507  0.16669866  0.32536844
   0.50009480  0.00010954  0.32535294
   0.33338217  0.66669228  0.32505405
   0.50009475  0.49998529  0.32535296
   0.83337948  0.16669969  0.32536345
   0.00005806  0.00002906  0.32534158
   0.83337957  0.66668221  0.32536347
   0.99997652  0.49998827  0.32535375
Direct configuration=    38
   0.33828124  0.66914099  0.10048468
   0.67162098  0.33580839  0.10010931
   0.16466930  0.32189917  0.10018202
   0.32429251  0.16214672  0.10017632
   0.16466900  0.84276351  0.10018170
   0.84526745  0.16214305  0.10016009
   0.68552254  0.84275963  0.10016612
   0.84526659  0.68312494  0.10015984
   0.33338969  0.16669635  0.32538072
   0.50009279  0.00010633  0.32536206
   0.33337691  0.66669001  0.32507040
   0.50009274  0.49998557  0.32536207
   0.83337436  0.16669730  0.32537580
   0.00005703  0.00002809  0.32535693
   0.83337442  0.66668017  0.32537582
   0.99997778  0.49998844  0.32536278
Direct configuration=    39
   0.33827814  0.66914008  0.10049101
   0.67161980  0.33580740  0.10011909
   0.16467090  0.32190007  0.10018830
   0.32428799  0.16214485  0.10018367
   0.16467027  0.84276315  0.10018798
   0.84526363  0.16214030  0.10016693
   0.68552132  0.84275803  0.10017185
   0.84526330  0.68312519  0.10016666
   0.33339280  0.16669768  0.32537363
   0.50009395  0.00010818  0.32535679
   0.33337995  0.66669132  0.32506096
   0.50009390  0.49998541  0.32535681
   0.83337732  0.16669868  0.32536867
   0.00005763  0.00002865  0.32534807
   0.83337739  0.66668135  0.32536868
   0.99997705  0.49998834  0.32535756
Direct configuration=    40
   0.33827709  0.66913977  0.10049315
   0.67161941  0.33580706  0.10012240
   0.16467144  0.32190037  0.10019043
   0.32428647  0.16214422  0.10018615
   0.16467070  0.84276302  0.10019010
   0.84526233  0.16213937  0.10016923
   0.68552091  0.84275748  0.10017379
   0.84526219  0.68312528  0.10016896
   0.33339385  0.16669813  0.32537123
   0.50009434  0.00010881  0.32535501
   0.33338098  0.66669176  0.32505777
   0.50009430  0.49998535  0.32535503
   0.83337832  0.16669915  0.32536626
   0.00005783  0.00002884  0.32534507
   0.83337840  0.66668174  0.32536628
   0.99997680  0.49998831  0.32535580
Direct configuration=    41
   0.33827648  0.66913959  0.10049440
   0.67161917  0.33580686  0.10012432
   0.16467175  0.32190055  0.10019166
   0.32428558  0.16214385  0.10018760
   0.16467095  0.84276295  0.10019134
   0.84526158  0.16213883  0.10017058
   0.68552067  0.84275717  0.10017492
   0.84526154  0.68312533  0.10017030
   0.33339446  0.16669840  0.32536983
   0.50009457  0.00010917  0.32535398
   0.33338157  0.66669202  0.32505591
   0.50009452  0.49998532  0.32535400
   0.83337890  0.16669942  0.32536485
   0.00005794  0.00002895  0.32534333
   0.83337898  0.66668197  0.32536487
   0.99997666  0.49998829  0.32535477
Direct configuration=    42
   0.33827617  0.66913950  0.10049502
   0.67161906  0.33580677  0.10012529
   0.16467191  0.32190063  0.10019228
   0.32428513  0.16214367  0.10018832
   0.16467107  0.84276292  0.10019196
   0.84526121  0.16213856  0.10017125
   0.68552055  0.84275701  0.10017549
   0.84526122  0.68312535  0.10017097
   0.33339476  0.16669853  0.32536914
   0.50009468  0.00010936  0.32535346
   0.33338187  0.66669215  0.32505498
   0.50009464  0.49998531  0.32535348
   0.83337919  0.16669955  0.32536415
   0.00005800  0.00002900  0.32534246
   0.83337928  0.66668209  0.32536417
   0.99997659  0.49998828  0.32535426
Direct configuration=    43
   0.33827624  0.66913748  0.10050858
   0.67160968  0.33580387  0.10015350
   0.16465317  0.32189459  0.10020461
   0.32429069  0.16214261  0.10020552
   0.16465272  0.84275727  0.10020428
   0.84526864  0.16214201  0.10018733
   0.68551099  0.84275449  0.10018657
   0.84527012  0.68312452  0.10018701
   0.33341179  0.16670583  0.32535401
   0.50009355  0.00011273  0.32533892
   0.33339267  0.66669629  0.32503703
   0.50009357  0.49998356  0.32533893
   0.83338753  0.16670728  0.32534899
   0.00005563  0.00002918  0.32532259
   0.83338756  0.66668018  0.32534900
   0.99997077  0.49998676  0.32533978
Direct configuration=    44
   0.33827623  0.66913767  0.10050737
   0.67161052  0.33580413  0.10015097
   0.16465485  0.32189514  0.10020350
   0.32429019  0.16214271  0.10020398
   0.16465437  0.84275778  0.10020317
   0.84526797  0.16214170  0.10018588
   0.68551185  0.84275472  0.10018557
   0.84526932  0.68312459  0.10018557
   0.33341026  0.16670518  0.32535537
   0.50009365  0.00011243  0.32534022
   0.33339170  0.66669592  0.32503864
   0.50009366  0.49998371  0.32534024
   0.83338678  0.16670659  0.32535036
   0.00005584  0.00002917  0.32532438
   0.83338682  0.66668035  0.32535037
   0.99997130  0.49998690  0.32534108
Direct configuration=    45
   0.33827623  0.66913754  0.10050822
   0.67160993  0.33580395  0.10015275
   0.16465367  0.32189476  0.10020428
   0.32429054  0.16214264  0.10020506
   0.16465321  0.84275742  0.10020395
   0.84526844  0.16214192  0.10018690
   0.68551125  0.84275456  0.10018627
   0.84526989  0.68312454  0.10018658
   0.33341134  0.16670564  0.32535442
   0.50009358  0.00011264  0.32533931
   0.33339238  0.66669618  0.32503751
   0.50009360  0.49998360  0.32533932
   0.83338731  0.16670708  0.32534940
   0.00005569  0.00002918  0.32532312
   0.83338734  0.66668023  0.32534941
   0.99997093  0.49998680  0.32534016
Direct configuration=    46
   0.33827624  0.66913750  0.10050847
   0.67160976  0.33580389  0.10015327
   0.16465332  0.32189464  0.10020451
   0.32429064  0.16214262  0.10020538
   0.16465287  0.84275732  0.10020418
   0.84526858  0.16214198  0.10018720
   0.68551107  0.84275451  0.10018648
   0.84527005  0.68312452  0.10018688
   0.33341166  0.16670577  0.32535413
   0.50009356  0.00011271  0.32533904
   0.33339259  0.66669626  0.32503717
   0.50009358  0.49998357  0.32533905
   0.83338746  0.16670722  0.32534912
   0.00005565  0.00002918  0.32532275
   0.83338750  0.66668020  0.32534913
   0.99997082  0.49998678  0.32533989
Direct configuration=    47
   0.33827624  0.66913749  0.10050855
   0.67160971  0.33580388  0.10015343
   0.16465322  0.32189461  0.10020458
   0.32429067  0.16214261  0.10020548
   0.16465277  0.84275729  0.10020425
   0.84526862  0.16214200  0.10018729
   0.68551102  0.84275450  0.10018654
   0.84527010  0.68312452  0.10018697
   0.33341175  0.16670581  0.32535405
   0.50009356  0.00011273  0.32533896
   0.33339264  0.66669628  0.32503707
   0.50009357  0.49998356  0.32533897
   0.83338751  0.16670726  0.32534903