  16  16   0   4
  0.2065628E+02  0.5044000E-09  0.5044000E-09  0.1500000E-08  0.5000000E-15
  1.000000000000000E-004
  CAR 
 Lattice                                 
      9.75627721    -21.29847513  301     -0.97304140      1.00000000
    -21.298  0.0000E+00  0.0000E+00
    -21.195  0.0000E+00  0.0000E+00
    -21.091  0.0000E+00  0.0000E+00
    -20.988  0.0000E+00  0.0000E+00
    -20.884  0.0000E+00  0.0000E+00
    -20.781  0.0000E+00  0.0000E+00
    -20.677  0.0000E+00  0.0000E+00
    -20.574  0.0000E+00  0.0000E+00
    -20.470  0.5819E-19  0.6023E-20
    -20.367  0.6632E-14  0.6865E-15
    -20.263  0.6617E-10  0.6850E-11
    -20.160  0.9100E-07  0.9426E-08
    -20.056  0.1865E-04  0.1940E-05
    -19.953  0.6281E-03  0.6696E-04
    -19.849  0.4256E-02  0.5075E-03
    -19.746  0.8811E-02  0.1420E-02
    -19.642  0.9811E-02  0.2435E-02
    -19.539  0.1033E-01  0.3505E-02
    -19.435  0.9298E-02  0.4468E-02
    -19.332  0.1135E-01  0.5642E-02
    -19.228  0.8548E-02  0.6527E-02
    -19.125  0.1053E-01  0.7617E-02
    -19.021  0.1180E-01  0.8839E-02
    -18.918  0.7322E-02  0.9597E-02
    -18.814  0.1066E-01  0.1070E-01
    -18.711  0.1271E-01  0.1202E-01
    -18.607  0.8853E-02  0.1293E-01
    -18.504  0.6803E-02  0.1364E-01
    -18.400  0.1352E-01  0.1504E-01
    -18.297  0.1199E-01  0.1628E-01
    -18.193  0.8478E-02  0.1715E-01
    -18.089  0.7028E-02  0.1788E-01
    -17.986  0.1557E-01  0.1949E-01
    -17.882  0.2551E-01  0.2214E-01
    -17.779  0.2301E-01  0.2452E-01
    -17.675  0.2272E-01  0.2687E-01
    -17.572  0.2667E-01  0.2963E-01
    -17.468  0.3494E-01  0.3325E-01
    -17.365  0.4326E-01  0.3772E-01
    -17.261  0.3703E-01  0.4156E-01
    -17.158  0.1474E-01  0.4308E-01
    -17.054  0.9278E-02  0.4404E-01
    -16.951  0.1449E-01  0.4554E-01
    -16.847  0.1353E-01  0.4694E-01
    -16.744  0.1107E-01  0.4809E-01
    -16.640  0.9179E-02  0.4904E-01
    -16.537  0.5429E-02  0.4960E-01
    -16.433  0.8737E-02  0.5051E-01
    -16.330  0.1855E-01  0.5243E-01
    -16.226  0.1261E-01  0.5373E-01
    -16.123  0.9580E-02  0.5472E-01
    -16.019  0.8618E-02  0.5562E-01
    -15.916  0.8382E-02  0.5648E-01
    -15.812  0.7630E-02  0.5727E-01
    -15.709  0.1874E-01  0.5921E-01
    -15.605  0.2736E-01  0.6205E-01
    -15.502  0.2860E-01  0.6501E-01
    -15.398  0.3277E-01  0.6840E-01
    -15.295  0.2791E-01  0.7129E-01
    -15.191  0.2401E-01  0.7377E-01
    -15.088  0.2853E-01  0.7673E-01
    -14.984  0.3720E-01  0.8058E-01
    -14.880  0.3038E-01  0.8372E-01
    -14.777  0.2680E-01  0.8650E-01
    -14.673  0.1984E-01  0.8855E-01
    -14.570  0.2091E-01  0.9071E-01
    -14.466  0.3228E-01  0.9406E-01
    -14.363  0.4137E-01  0.9834E-01
    -14.259  0.2835E-01  0.1013E+00
    -14.156  0.1839E-01  0.1032E+00
    -14.052  0.1498E-01  0.1047E+00
    -13.949  0.1631E-01  0.1064E+00
    -13.845  0.1530E-01  0.1080E+00
    -13.742  0.1063E-01  0.1091E+00
    -13.638  0.6370E-02  0.1098E+00
    -13.535  0.9321E-02  0.1107E+00
    -13.431  0.8959E-02  0.1117E+00
    -13.328  0.1229E-01  0.1129E+00
    -13.224  0.1180E-01  0.1141E+00
    -13.121  0.1279E-01  0.1155E+00
    -13.017  0.1625E-01  0.1172E+00
    -12.914  0.1500E-01  0.1187E+00
    -12.810  0.1681E-01  0.1204E+00
    -12.707  0.1185E-01  0.1217E+00
    -12.603  0.1366E-01  0.1231E+00
    -12.500  0.1040E-01  0.1242E+00
    -12.396  0.8287E-02  0.1250E+00
    -12.293  0.1723E-01  0.1268E+00
    -12.189  0.1394E-01  0.1282E+00
    -12.086  0.1391E-01  0.1297E+00
    -11.982  0.2447E-01  0.1322E+00
    -11.879  0.3269E-01  0.1356E+00
    -11.775  0.3018E-01  0.1387E+00
    -11.672  0.2937E-01  0.1418E+00
    -11.568  0.3274E-01  0.1452E+00
    -11.464  0.3042E-01  0.1483E+00
    -11.361  0.1625E-01  0.1500E+00
    -11.257  0.1884E-01  0.1519E+00
    -11.154  0.2354E-01  0.1544E+00
    -11.050  0.2375E-01  0.1568E+00
    -10.947  0.1197E-01  0.1581E+00
    -10.843  0.1152E-01  0.1593E+00
    -10.740  0.3009E-01  0.1624E+00
    -10.636  0.3659E-01  0.1662E+00
    -10.533  0.1715E-01  0.1679E+00
    -10.429  0.1230E-01  0.1692E+00
    -10.326  0.2317E-01  0.1716E+00
    -10.222  0.3865E-01  0.1756E+00
    -10.119  0.3169E-01  0.1789E+00
    -10.015  0.1719E-01  0.1807E+00
     -9.912  0.1758E-01  0.1825E+00
     -9.808  0.2014E-01  0.1846E+00
     -9.705  0.2306E-01  0.1870E+00
     -9.601  0.1769E-01  0.1888E+00
     -9.498  0.2101E-01  0.1910E+00
     -9.394  0.1973E-01  0.1930E+00
     -9.291  0.1958E-01  0.1950E+00
     -9.187  0.1821E-01  0.1969E+00
     -9.084  0.6295E-02  0.1976E+00
     -8.980  0.1012E-01  0.1986E+00
     -8.877  0.2637E-01  0.2014E+00
     -8.773  0.3799E-01  0.2053E+00
     -8.670  0.3233E-01  0.2086E+00
     -8.566  0.1740E-01  0.2104E+00
     -8.463  0.1696E-01  0.2122E+00
     -8.359  0.2051E-01  0.2143E+00
     -8.255  0.3663E-01  0.2181E+00
     -8.152  0.4672E-01  0.2229E+00
     -8.048  0.4575E-01  0.2277E+00
     -7.945  0.3162E-01  0.2310E+00
     -7.841  0.2711E-01  0.2338E+00
     -7.738  0.2875E-01  0.2367E+00
     -7.634  0.5074E-01  0.2420E+00
     -7.531  0.5584E-01  0.2478E+00
     -7.427  0.4233E-01  0.2522E+00
     -7.324  0.4157E-01  0.2565E+00
     -7.220  0.4810E-01  0.2614E+00
     -7.117  0.4861E-01  0.2665E+00
     -7.013  0.5304E-01  0.2720E+00
     -6.910  0.4469E-01  0.2766E+00
     -6.806  0.4036E-01  0.2808E+00
     -6.703  0.5530E-01  0.2865E+00
     -6.599  0.4632E-01  0.2913E+00
     -6.496  0.4351E-01  0.2958E+00
     -6.392  0.5033E-01  0.3010E+00
     -6.289  0.4841E-01  0.3060E+00
     -6.185  0.4574E-01  0.3107E+00
     -6.082  0.3581E-01  0.3144E+00
     -5.978  0.3431E-01  0.3180E+00
     -5.875  0.4303E-01  0.3225E+00
     -5.771  0.5284E-01  0.3279E+00
     -5.668  0.4076E-01  0.3321E+00
     -5.564  0.3969E-01  0.3363E+00
     -5.461  0.4464E-01  0.3409E+00
     -5.357  0.5549E-01  0.3466E+00
     -5.254  0.5375E-01  0.3522E+00
     -5.150  0.3093E-01  0.3554E+00
     -5.046  0.2368E-01  0.3578E+00
     -4.943  0.3547E-01  0.3615E+00
     -4.839  0.3816E-01  0.3655E+00
     -4.736  0.3469E-01  0.3690E+00
     -4.632  0.3195E-01  0.3724E+00
     -4.529  0.3312E-01  0.3758E+00
     -4.425  0.3813E-01  0.3797E+00
     -4.322  0.4082E-01  0.3840E+00
     -4.218  0.5262E-01  0.3894E+00
     -4.115  0.8131E-01  0.3978E+00
     -4.011  0.7354E-01  0.4054E+00
     -3.908  0.5294E-01  0.4109E+00
     -3.804  0.3571E-01  0.4146E+00
     -3.701  0.2691E-01  0.4174E+00
     -3.597  0.2933E-01  0.4204E+00
     -3.494  0.3535E-01  0.4241E+00
     -3.390  0.4445E-01  0.4287E+00
     -3.287  0.3213E-01  0.4320E+00
     -3.183  0.2854E-01  0.4350E+00
     -3.080  0.3252E-01  0.4383E+00
     -2.976  0.3997E-01  0.4425E+00
     -2.873  0.5189E-01  0.4478E+00
     -2.769  0.3225E-01  0.4512E+00
     -2.666  0.2699E-01  0.4540E+00
     -2.562  0.4228E-01  0.4584E+00
     -2.459  0.4281E-01  0.4628E+00
     -2.355  0.3776E-01  0.4667E+00
     -2.252  0.4410E-01  0.4713E+00
     -2.148  0.3541E-01  0.4749E+00
     -2.045  0.1146E-01  0.4761E+00
     -1.941  0.7556E-02  0.4769E+00
     -1.837  0.1625E-01  0.4786E+00
     -1.734  0.1159E-01  0.4798E+00
     -1.630  0.8974E-02  0.4807E+00
     -1.527  0.1503E-01  0.4823E+00
     -1.423  0.1138E-01  0.4834E+00
     -1.320  0.5481E-02  0.4840E+00
     -1.216  0.1400E-02  0.4841E+00
     -1.113  0.1470E-03  0.4842E+00
     -1.009  0.9204E-03  0.4843E+00
     -0.906  0.5010E-02  0.4848E+00
     -0.802  0.7816E-02  0.4856E+00
     -0.699  0.9571E-02  0.4866E+00
     -0.595  0.1999E-01  0.4886E+00
     -0.492  0.2113E-01  0.4908E+00
     -0.388  0.1974E-01  0.4929E+00
     -0.285  0.2526E-01  0.4955E+00
     -0.181  0.2301E-01  0.4979E+00
     -0.078  0.1339E-01  0.4993E+00
      0.026  0.5310E-02  0.4998E+00
      0.129  0.1669E-02  0.5000E+00
      0.233  0.2082E-02  0.5002E+00
      0.336  0.1107E-01  0.5013E+00
      0.440  0.2022E-01  0.5034E+00
      0.543  0.1594E-01  0.5051E+00
      0.647  0.7096E-02  0.5058E+00
      0.750  0.1158E-01  0.5070E+00
      0.854  0.2429E-01  0.5095E+00
      0.957  0.2671E-01  0.5123E+00
      1.061  0.2313E-01  0.5147E+00
      1.164  0.1104E-01  0.5158E+00
      1.268  0.9277E-02  0.5168E+00
      1.371  0.1099E-01  0.5179E+00
      1.475  0.1030E-01  0.5190E+00
      1.579  0.1289E-01  0.5203E+00
      1.682  0.2100E-01  0.5225E+00
      1.786  0.1967E-01  0.5245E+00
      1.889  0.8003E-02  0.5254E+00
      1.993  0.4938E-02  0.5259E+00
      2.096  0.1519E-01  0.5275E+00
      2.200  0.3225E-01  0.5308E+00
      2.303  0.2915E-01  0.5338E+00
      2.407  0.2273E-01  0.5362E+00
      2.510  0.2327E-01  0.5386E+00
      2.614  0.2395E-01  0.5411E+00
      2.717  0.2246E-01  0.5434E+00
      2.821  0.1530E-01  0.5450E+00
      2.924  0.1455E-01  0.5465E+00
      3.028  0.2537E-01  0.5491E+00
      3.131  0.2668E-01  0.5519E+00
      3.235  0.2720E-01  0.5547E+00
      3.338  0.2474E-01  0.5572E+00
      3.442  0.1563E-01  0.5588E+00
      3.545  0.2060E-01  0.5610E+00
      3.649  0.2576E-01  0.5636E+00
      3.752  0.2024E-01  0.5657E+00
      3.856  0.2220E-01  0.5680E+00
      3.959  0.3570E-01  0.5717E+00
      4.063  0.3393E-01  0.5752E+00
      4.166  0.2449E-01  0.5778E+00
      4.270  0.3135E-01  0.5810E+00
      4.373  0.3482E-01  0.5846E+00
      4.477  0.2668E-01  0.5874E+00
      4.580  0.2753E-01  0.5902E+00
      4.684  0.2582E-01  0.5929E+00
      4.788  0.3225E-01  0.5963E+00
      4.891  0.3604E-01  0.6000E+00
      4.995  0.4011E-01  0.6041E+00
      5.098  0.3582E-01  0.6078E+00
      5.202  0.3211E-01  0.6112E+00
      5.305  0.2889E-01  0.6142E+00
      5.409  0.3682E-01  0.6180E+00
      5.512  0.3916E-01  0.6220E+00
      5.616  0.3042E-01  0.6252E+00
      5.719  0.2934E-01  0.6282E+00
      5.823  0.3642E-01  0.6320E+00
      5.926  0.4574E-01  0.6367E+00
      6.030  0.4956E-01  0.6418E+00
      6.133  0.5700E-01  0.6477E+00
      6.237  0.5343E-01  0.6533E+00
      6.340  0.4979E-01  0.6584E+00
      6.444  0.4217E-01  0.6628E+00
      6.547  0.3414E-01  0.6663E+00
      6.651  0.5248E-01  0.6718E+00
      6.754  0.6751E-01  0.6788E+00
      6.858  0.5763E-01  0.6847E+00
      6.961  0.5873E-01  0.6908E+00
      7.065  0.6748E-01  0.6978E+00
      7.168  0.6283E-01  0.7043E+00
      7.272  0.5588E-01  0.7101E+00
      7.375  0.7573E-01  0.7179E+00
      7.479  0.6996E-01  0.7252E+00
      7.582  0.4965E-01  0.7303E+00
      7.686  0.5232E-01  0.7357E+00
      7.789  0.5273E-01  0.7412E+00
      7.893  0.3767E-01  0.7451E+00
      7.997  0.2464E-01  0.7476E+00
      8.100  0.1231E-01  0.7489E+00
      8.204  0.3670E-02  0.7493E+00
      8.307  0.2578E-02  0.7495E+00
      8.411  0.3372E-02  0.7499E+00
      8.514  0.1052E-02  0.7500E+00
      8.618  0.5166E-04  0.7500E+00
      8.721  0.3552E-06  0.7500E+00
      8.825  0.3180E-09  0.7500E+00
      8.928  0.3561E-13  0.7500E+00
      9.032  0.0000E+00  0.7500E+00
      9.135  0.0000E+00  0.7500E+00
      9.239  0.0000E+00  0.7500E+00
      9.342  0.0000E+00  0.7500E+00
      9.446  0.0000E+00  0.7500E+00
      9.549  0.0000E+00  0.7500E+00
      9.653  0.0000E+00  0.7500E+00
      9.756  0.0000E+00  0.7500E+00
