<?xml version="1.0" encoding="ISO-8859-1"?>
<modeling>
 <generator>
  <i name="program" type="string">vasp </i>
  <i name="version" type="string">6.3.2  </i>
  <i name="subversion" type="string">27Jun22 (build Dec 22 2022 13:13:19) complex                          parallel </i>
  <i name="platform" type="string">LinuxIFC </i>
  <i name="date" type="string">2023 08 22 </i>
  <i name="time" type="string">23:40:42 </i>
 </generator>
 <incar>
  <i type="string" name="SYSTEM">Lattice</i>
  <i type="int" name="ISTART">     0</i>
  <i type="string" name="PREC">Accurate</i>
  <i type="string" name="ALGO">Normal</i>
  <i type="int" name="ISPIN">     2</i>
  <i type="int" name="ICHARG">     2</i>
  <i type="int" name="NELM">    64</i>
  <i type="int" name="IBRION">     2</i>
  <i name="EDIFF">      0.00000100</i>
  <i name="EDIFFG">     -0.00100000</i>
  <i type="int" name="NSW">   128</i>
  <i type="int" name="ISIF">     2</i>
  <i name="ENCUT">    450.00000000</i>
  <i name="POTIM">      0.50000000</i>
  <i type="int" name="ISMEAR">     0</i>
  <i name="SIGMA">      0.10000000</i>
  <i type="logical" name="LWAVE"> F  </i>
  <i type="logical" name="LCHARG"> F  </i>
  <i type="string" name="GGA">PE</i>
  <i type="int" name="IVDW">    12</i>
 </incar>
 <primitive_cell>
  <structure name="primitive_cell" >
   <crystal>
    <varray name="basis" >
     <v>       4.33878727       2.50500000       0.00000000 </v>
     <v>      -4.33878727       2.50500000       0.00000000 </v>
     <v>       0.00000000       0.00000000      15.00000000 </v>
    </varray>
    <i name="volume">    326.05986356 </i>
    <varray name="rec_basis" >
     <v>       0.11523957       0.19960080       0.00000000 </v>
     <v>      -0.11523957       0.19960080       0.00000000 </v>
     <v>       0.00000000       0.00000000       0.06666667 </v>
    </varray>
   </crystal>
   <varray name="positions" >
    <v>       0.66888689       0.00000000       0.10000000 </v>
    <v>       0.33111211       0.00000000       0.10000000 </v>
    <v>       0.00000000       0.33111211       0.10000000 </v>
    <v>       0.00000000       0.66888689       0.10000000 </v>
    <v>       0.33111211       0.33111211       0.10000000 </v>
    <v>       0.66888689       0.66888689       0.10000000 </v>
    <v>       0.66666600       0.33333300       0.09922189 </v>
    <v>       0.33333300       0.66666600       0.10077811 </v>
    <v>       0.24999933       0.24999967       0.46906667 </v>
    <v>       0.41666633       0.08333267       0.46906667 </v>
    <v>       0.24999933       0.74999967       0.46906667 </v>
    <v>       0.41666633       0.58333267       0.46906667 </v>
    <v>       0.74999933       0.24999967       0.46906667 </v>
    <v>       0.91666633       0.08333267       0.46906667 </v>
    <v>       0.74999933       0.74999967       0.46906667 </v>
    <v>       0.91666633       0.58333267       0.46906667 </v>
   </varray>
  </structure>
  <varray name="primitive_index" >
   <v type="int" >        1 </v>
   <v type="int" >        2 </v>
   <v type="int" >        3 </v>
   <v type="int" >        4 </v>
   <v type="int" >        5 </v>
   <v type="int" >        6 </v>
   <v type="int" >        7 </v>
   <v type="int" >        8 </v>
   <v type="int" >        9 </v>
   <v type="int" >       10 </v>
   <v type="int" >       11 </v>
   <v type="int" >       12 </v>
   <v type="int" >       13 </v>
   <v type="int" >       14 </v>
   <v type="int" >       15 </v>
   <v type="int" >       16 </v>
  </varray>
 </primitive_cell>
 <kpoints>
  <generation param="Gamma">
   <v type="int" name="divisions">      12       12        1 </v>
   <v name="usershift">      0.00000000       0.00000000       0.00000000 </v>
   <v name="genvec1">      0.08333333       0.00000000       0.00000000 </v>
   <v name="genvec2">      0.00000000       0.08333333       0.00000000 </v>
   <v name="genvec3">      0.00000000       0.00000000       1.00000000 </v>
   <v name="shift">      0.00000000       0.00000000       0.00000000 </v>
  </generation>
  <varray name="kpointlist" >
   <v>       0.00000000       0.00000000       0.00000000 </v>
   <v>       0.08333333       0.00000000       0.00000000 </v>
   <v>      -0.08333333       0.08333333       0.00000000 </v>
   <v>       0.16666667      -0.00000000       0.00000000 </v>
   <v>      -0.16666667       0.16666667       0.00000000 </v>
   <v>       0.25000000      -0.00000000       0.00000000 </v>
   <v>      -0.25000000       0.25000000       0.00000000 </v>
   <v>       0.33333333      -0.00000000       0.00000000 </v>
   <v>      -0.33333333       0.33333333       0.00000000 </v>
   <v>       0.41666667      -0.00000000       0.00000000 </v>
   <v>      -0.41666667       0.41666667       0.00000000 </v>
   <v>       0.50000000      -0.00000000       0.00000000 </v>
   <v>       0.50000000       0.50000000       0.00000000 </v>
   <v>       0.08333333       0.08333333       0.00000000 </v>
   <v>      -0.08333333       0.16666667       0.00000000 </v>
   <v>       0.16666667       0.08333333       0.00000000 </v>
   <v>      -0.08333333       0.25000000       0.00000000 </v>
   <v>      -0.25000000       0.16666667       0.00000000 </v>
   <v>       0.25000000       0.08333333       0.00000000 </v>
   <v>      -0.08333333       0.33333333       0.00000000 </v>
   <v>      -0.33333333       0.25000000       0.00000000 </v>
   <v>       0.33333333       0.08333333       0.00000000 </v>
   <v>      -0.08333333       0.41666667       0.00000000 </v>
   <v>      -0.41666667       0.33333333       0.00000000 </v>
   <v>       0.41666667       0.08333333       0.00000000 </v>
   <v>      -0.08333333       0.50000000       0.00000000 </v>
   <v>       0.50000000       0.41666667       0.00000000 </v>
   <v>       0.16666667       0.16666667       0.00000000 </v>
   <v>      -0.16666667       0.33333333       0.00000000 </v>
   <v>       0.25000000       0.16666667       0.00000000 </v>
   <v>      -0.16666667       0.41666667       0.00000000 </v>
   <v>      -0.41666667       0.25000000       0.00000000 </v>
   <v>       0.33333333       0.16666667       0.00000000 </v>
   <v>      -0.16666667       0.50000000       0.00000000 </v>
   <v>       0.50000000       0.33333333       0.00000000 </v>
   <v>       0.41666667       0.16666667       0.00000000 </v>
   <v>       0.41666667       0.41666667       0.00000000 </v>
   <v>       0.25000000       0.25000000       0.00000000 </v>
   <v>      -0.25000000       0.50000000       0.00000000 </v>
   <v>       0.33333333       0.25000000       0.00000000 </v>
   <v>      -0.25000000      -0.41666667       0.00000000 </v>
   <v>       0.41666667       0.33333333       0.00000000 </v>
   <v>       0.33333333       0.33333333       0.00000000 </v>
  </varray>
  <varray name="weights" >
   <v>       0.00694444 </v>
   <v>       0.02777778 </v>
   <v>       0.01388889 </v>
   <v>       0.02777778 </v>
   <v>       0.01388889 </v>
   <v>       0.02777778 </v>
   <v>       0.01388889 </v>
   <v>       0.02777778 </v>
   <v>       0.01388889 </v>
   <v>       0.02777778 </v>
   <v>       0.01388889 </v>
   <v>       0.01388889 </v>
   <v>       0.00694444 </v>
   <v>       0.01388889 </v>
   <v>       0.02777778 </v>
   <v>       0.02777778 </v>
   <v>       0.02777778 </v>
   <v>       0.02777778 </v>
   <v>       0.02777778 </v>
   <v>       0.02777778 </v>
   <v>       0.02777778 </v>
   <v>       0.02777778 </v>
   <v>       0.02777778 </v>
   <v>       0.02777778 </v>
   <v>       0.02777778 </v>
   <v>       0.02777778 </v>
   <v>       0.02777778 </v>
   <v>       0.01388889 </v>
   <v>       0.02777778 </v>
   <v>       0.02777778 </v>
   <v>       0.02777778 </v>
   <v>       0.02777778 </v>
   <v>       0.02777778 </v>
   <v>       0.02777778 </v>
   <v>       0.02777778 </v>
   <v>       0.02777778 </v>
   <v>       0.01388889 </v>
   <v>       0.01388889 </v>
   <v>       0.02777778 </v>
   <v>       0.02777778 </v>
   <v>       0.02777778 </v>
   <v>       0.02777778 </v>
   <v>       0.01388889 </v>
  </varray>
 </kpoints>
 <parameters>
  <separator name="general" >
   <i type="string" name="SYSTEM">Lattice</i>
   <i type="logical" name="LCOMPAT"> F  </i>
  </separator>
  <separator name="electronic" >
   <i type="string" name="PREC">accura</i>
   <i name="ENMAX">    450.00000000</i>
   <i name="ENAUG">    644.87300000</i>
   <i name="EDIFF">      0.00000100</i>
   <i type="int" name="IALGO">    38</i>
   <i type="int" name="IWAVPR">    11</i>
   <i type="int" name="NBANDS">    48</i>
   <i type="int" name="NBANDSLOW">    -1</i>
   <i type="int" name="NBANDSHIGH">    -1</i>
   <i name="NELECT">     56.00000000</i>
   <i type="int" name="TURBO">     0</i>
   <i type="int" name="IRESTART">     0</i>
   <i type="int" name="NREBOOT">     0</i>
   <i type="int" name="NMIN">     0</i>
   <i name="EREF">      0.00000000</i>
   <separator name="electronic smearing" >
    <i type="int" name="ISMEAR">     0</i>
    <i name="SIGMA">      0.10000000</i>
    <i name="KSPACING">      0.50000000</i>
    <i type="logical" name="KGAMMA"> T  </i>
    <i type="logical" name="KBLOWUP"> T  </i>
   </separator>
   <separator name="electronic projectors" >
    <i type="logical" name="LREAL"> F  </i>
    <v name="ROPT">      0.00000000      0.00000000</v>
    <i type="int" name="LMAXPAW">  -100</i>
    <i type="int" name="LMAXMIX">     2</i>
    <i type="logical" name="NLSPLINE"> F  </i>
   </separator>
   <separator name="electronic startup" >
    <i type="int" name="ISTART">     0</i>
    <i type="int" name="ICHARG">     2</i>
    <i type="int" name="INIWAV">     1</i>
   </separator>
   <separator name="electronic spin" >
    <i type="int" name="ISPIN">     2</i>
    <i type="logical" name="LNONCOLLINEAR"> F  </i>
    <v name="MAGMOM">      1.00000000      1.00000000      1.00000000      1.00000000      1.00000000      1.00000000      1.00000000      1.00000000      1.00000000      1.00000000      1.00000000      1.00000000      1.00000000      1.00000000      1.00000000      1.00000000</v>
    <i name="NUPDOWN">     -1.00000000</i>
    <i type="logical" name="LSORBIT"> F  </i>
    <v name="SAXIS">      0.00000000      0.00000000      1.00000000</v>
    <i type="logical" name="LSPIRAL"> F  </i>
    <v name="QSPIRAL">      0.00000000      0.00000000      0.00000000</v>
    <i type="logical" name="LZEROZ"> F  </i>
   </separator>
   <separator name="electronic exchange-correlation" >
    <i type="logical" name="LASPH"> F  </i>
    <i type="logical" name="LMETAGGA"> F  </i>
   </separator>
   <separator name="electronic convergence" >
    <i type="int" name="NELM">    64</i>
    <i type="int" name="NELMDL">    -5</i>
    <i type="int" name="NELMIN">     2</i>
    <i name="ENINI">    450.00000000</i>
    <separator name="electronic convergence detail" >
     <i type="logical" name="LDIAG"> T  </i>
     <i type="logical" name="LSUBROT"> F  </i>
     <i name="WEIMIN">      0.00100000</i>
     <i name="EBREAK">      0.00000001</i>
     <i name="DEPER">      0.30000000</i>
     <i type="int" name="NRMM">     4</i>
     <i name="TIME">      0.40000000</i>
    </separator>
   </separator>
   <separator name="electronic mixer" >
    <i name="AMIX">      0.40000000</i>
    <i name="BMIX">      1.00000000</i>
    <i name="AMIN">      0.10000000</i>
    <i name="AMIX_MAG">      1.60000000</i>
    <i name="BMIX_MAG">      1.00000000</i>
    <separator name="electronic mixer details" >
     <i type="int" name="IMIX">     4</i>
     <i type="logical" name="MIXFIRST"> F  </i>
     <i type="int" name="MAXMIX">   -45</i>
     <i name="WC">    100.00000000</i>
     <i type="int" name="INIMIX">     1</i>
     <i type="int" name="MIXPRE">     1</i>
     <i type="int" name="MREMOVE">     5</i>
    </separator>
   </separator>
   <separator name="electronic dipolcorrection" >
    <i type="logical" name="LDIPOL"> F  </i>
    <i type="logical" name="LMONO"> F  </i>
    <i type="int" name="IDIPOL">     0</i>
    <i name="EPSILON">      1.00000000</i>
    <v name="DIPOL">   -100.00000000   -100.00000000   -100.00000000</v>
    <i name="EFIELD">      0.00000000</i>
   </separator>
  </separator>
  <separator name="grids" >
   <i type="int" name="NGX">    36</i>
   <i type="int" name="NGY">    36</i>
   <i type="int" name="NGZ">   108</i>
   <i type="int" name="NGXF">    72</i>
   <i type="int" name="NGYF">    72</i>
   <i type="int" name="NGZF">   216</i>
   <i type="logical" name="ADDGRID"> F  </i>
  </separator>
  <separator name="ionic" >
   <i type="int" name="NSW">   128</i>
   <i type="int" name="IBRION">     2</i>
   <i type="int" name="MDALGO">     0</i>
   <i type="int" name="ISIF">     2</i>
   <i name="PSTRESS">      0.00000000</i>
   <i name="EDIFFG">     -0.00100000</i>
   <i type="int" name="NFREE">     1</i>
   <i name="POTIM">      0.50000000</i>
   <i name="SMASS">     -3.00000000</i>
   <i name="SCALEE">      1.00000000</i>
  </separator>
  <separator name="ionic md" >
   <i name="TEBEG">      0.00010000</i>
   <i name="TEEND">      0.00010000</i>
   <i type="int" name="NBLOCK">     1</i>
   <i type="int" name="KBLOCK">   128</i>
   <i type="int" name="NPACO">   256</i>
   <i name="APACO">     10.00000000</i>
  </separator>
  <separator name="symmetry" >
   <i type="int" name="ISYM">     2</i>
   <i name="SYMPREC">      0.00001000</i>
  </separator>
  <separator name="dos" >
   <i type="int" name="LORBIT">     0</i>
   <v name="RWIGS">     -1.00000000     -1.00000000</v>
   <i type="int" name="NEDOS">   301</i>
   <i name="EMIN">     10.00000000</i>
   <i name="EMAX">    -10.00000000</i>
   <i name="EFERMI">      0.00000000</i>
  </separator>
  <separator name="writing" >
   <i type="int" name="NWRITE">     2</i>
   <i type="logical" name="LWAVE"> F  </i>
   <i type="logical" name="LDOWNSAMPLE"> F  </i>
   <i type="logical" name="LCHARG"> F  </i>
   <i type="logical" name="LPARD"> F  </i>
   <i type="logical" name="LVTOT"> F  </i>
   <i type="logical" name="LVHAR"> F  </i>
   <i type="logical" name="LELF"> F  </i>
   <i type="logical" name="LOPTICS"> F  </i>
   <v name="STM">      0.00000000      0.00000000      0.00000000      0.00000000      0.00000000      0.00000000      0.00000000</v>
  </separator>
  <separator name="performance" >
   <i type="int" name="NPAR">    48</i>
   <i type="int" name="NSIM">     4</i>
   <i type="int" name="NBLK">    -1</i>
   <i type="logical" name="LPLANE"> T  </i>
   <i type="logical" name="LSCALAPACK"> T  </i>
   <i type="logical" name="LSCAAWARE"> F  </i>
   <i type="logical" name="LSCALU"> F  </i>
   <i type="logical" name="LASYNC"> F  </i>
   <i type="logical" name="LORBITALREAL"> F  </i>
  </separator>
  <separator name="miscellaneous" >
   <i type="int" name="IDIOT">     3</i>
   <i type="int" name="PHON_NSTRUCT">    -1</i>
   <i type="logical" name="LMUSIC"> F  </i>
   <v name="POMASS">     10.81100000     12.01100000</v>
   <v name="DARWINR">      0.00000000      0.00000000</v>
   <v name="DARWINV">      1.00000000      1.00000000</v>
   <i type="logical" name="LCORR"> T  </i>
  </separator>
  <i type="logical" name="GGA_COMPAT"> T  </i>
  <i type="logical" name="LBERRY"> F  </i>
  <i type="int" name="ICORELEVEL">     0</i>
  <i type="logical" name="LDAU"> F  </i>
  <i type="int" name="I_CONSTRAINED_M">     0</i>
  <separator name="electronic exchange-correlation" >
   <i type="string" name="GGA">PE</i>
   <i type="int" name="VOSKOWN">     0</i>
   <i type="logical" name="LHFCALC"> F  </i>
   <i type="string" name="PRECFOCK"></i>
   <i type="logical" name="LSYMGRAD"> F  </i>
   <i type="logical" name="LHFONE"> F  </i>
   <i type="logical" name="LRHFCALC"> F  </i>
   <i type="logical" name="LTHOMAS"> F  </i>
   <i type="logical" name="LMODELHF"> F  </i>
   <i type="logical" name="LFOCKACE"> F  </i>
   <i name="ENCUT4O">     -1.00000000</i>
   <i type="int" name="EXXOEP">     0</i>
   <i type="int" name="FOURORBIT">     0</i>
   <i name="AEXX">      0.00000000</i>
   <i name="HFALPHA">      0.00000000</i>
   <i name="MCALPHA">      0.00000000</i>
   <i name="ALDAX">      1.00000000</i>
   <i name="AGGAX">      1.00000000</i>
   <i name="ALDAC">      1.00000000</i>
   <i name="AGGAC">      1.00000000</i>
   <i type="int" name="NKREDX">     1</i>
   <i type="int" name="NKREDY">     1</i>
   <i type="int" name="NKREDZ">     1</i>
   <i type="logical" name="SHIFTRED"> F  </i>
   <i type="logical" name="ODDONLY"> F  </i>
   <i type="logical" name="EVENONLY"> F  </i>
   <i type="int" name="LMAXFOCK">     0</i>
   <i type="int" name="NMAXFOCKAE">     0</i>
   <i type="logical" name="LFOCKAEDFT"> F  </i>
   <i name="HFSCREEN">      0.00000000</i>
   <i name="HFSCREENC">      0.00000000</i>
   <i type="int" name="NBANDSGWLOW">     0</i>
  </separator>
  <separator name="vdW DFT" >
   <i type="logical" name="LUSE_VDW"> F  </i>
   <i name="Zab_VDW">     -0.84910000</i>
   <i name="PARAM1">      0.12340000</i>
   <i name="PARAM2">      1.00000000</i>
   <i name="PARAM3">      0.00000000</i>
  </separator>
  <separator name="model GW" >
   <i type="int" name="MODEL_GW">     0</i>
   <i name="MODEL_EPS0">     12.22724488</i>
   <i name="MODEL_ALPHA">      1.00000000</i>
  </separator>
  <separator name="linear response parameters" >
   <i type="logical" name="LEPSILON"> F  </i>
   <i type="logical" name="LRPA"> F  </i>
   <i type="logical" name="LNABLA"> F  </i>
   <i type="logical" name="LVEL"> F  </i>
   <i name="CSHIFT">      0.10000000</i>
   <i name="OMEGAMAX">     -1.00000000</i>
   <i name="DEG_THRESHOLD">      0.00200000</i>
   <i name="RTIME">     -0.10000000</i>
   <i name="WPLASMAI">      0.00000000</i>
   <v name="DFIELD">      0.00000000      0.00000000      0.00000000</v>
   <v name="WPLASMA">      0.00000000      0.00000000      0.00000000      0.00000000      0.00000000      0.00000000      0.00000000      0.00000000      0.00000000</v>
  </separator>
  <separator name="orbital magnetization" >
   <i type="logical" name="NUCIND"> F  </i>
   <v name="MAGPOS">      0.00000000      0.00000000      0.00000000</v>
   <i type="logical" name="LNICSALL"> T  </i>
   <i type="logical" name="ORBITALMAG"> F  </i>
   <i type="logical" name="LMAGBLOCH"> F  </i>
   <i type="logical" name="LCHIMAG"> F  </i>
   <i type="logical" name="LGAUGE"> T  </i>
   <i type="int" name="MAGATOM">     0</i>
   <v name="MAGDIPOL">      0.00000000      0.00000000      0.00000000</v>
   <v name="AVECCONST">      0.00000000      0.00000000      0.00000000</v>
  </separator>
  <separator name="response functions" >
   <i type="logical" name="LFINITE_TEMPERATURE"> F  </i>
   <i type="logical" name="LADDER"> F  </i>
   <i type="logical" name="LRPAFORCE"> F  </i>
   <i type="logical" name="LFXC"> F  </i>
   <i type="logical" name="LHARTREE"> T  </i>
   <i type="int" name="IBSE">     0</i>
   <v type="int" name="KPOINT">    -1     0     0     0</v>
   <i type="logical" name="LTCTC"> F  </i>
   <i type="logical" name="LTCTE"> F  </i>
   <i type="logical" name="LTETE"> F  </i>
   <i type="logical" name="LTRIPLET"> F  </i>
   <i type="logical" name="LFXCEPS"> F  </i>
   <i type="logical" name="LFXHEG"> F  </i>
   <i type="int" name="NATURALO">     2</i>
   <i type="logical" name="LHOLEGF"> F  </i>
   <i type="logical" name="L2ORDER"> F  </i>
   <i type="logical" name="LDMP1"> F  </i>
   <i type="logical" name="LMP2LT"> F  </i>
   <i type="logical" name="LSMP2LT"> F  </i>
   <i type="logical" name="LGWLF"> F  </i>
   <i name="ENCUTGW">     -2.00000000</i>
   <i name="ENCUTGWSOFT">     -2.00000000</i>
   <i name="ENCUTLF">     -1.00000000</i>
   <i type="logical" name="LESF_SPLINES"> F  </i>
   <i type="int" name="LMAXMP2">    -1</i>
   <i name="SCISSOR">      0.00000000</i>
   <i type="int" name="NOMEGA">     0</i>
   <i type="int" name="NOMEGAR">     0</i>
   <i type="int" name="NBANDSGW">    -1</i>
   <i type="int" name="NBANDSO">    -1</i>
   <i type="int" name="NBANDSV">    -1</i>
   <i type="int" name="NELMGW">     1</i>
   <i type="int" name="NELMHF">     1</i>
   <i type="int" name="DIM">     3</i>
   <i type="int" name="IESPILON">     4</i>
   <i type="int" name="ANTIRES">     0</i>
   <i name="OMEGAMAX">    -30.00000000</i>
   <i name="OMEGAMIN">    -30.00000000</i>
   <i name="OMEGATL">   -200.00000000</i>
   <i type="int" name="OMEGAGRID">     0</i>
   <i name="CSHIFT">     -0.10000000</i>
   <i type="logical" name="LSELFENERGY"> F  </i>
   <i type="logical" name="LSPECTRAL"> F  </i>
   <i type="logical" name="LSPECTRALGW"> F  </i>
   <i type="logical" name="LSINGLES"> F  </i>
   <i type="logical" name="LFERMIGW"> F  </i>
   <i type="logical" name="ODDONLYGW"> F  </i>
   <i type="logical" name="EVENONLYGW"> F  </i>
   <i type="int" name="NKREDLFX">     1</i>
   <i type="int" name="NKREDLFY">     1</i>
   <i type="int" name="NKREDLFZ">     1</i>
   <i type="int" name="MAXMEM">  2800</i>
   <i type="int" name="TELESCOPE">     0</i>
   <i type="int" name="NTAUPAR">    -1</i>
   <i type="int" name="NOMEGAPAR">    -1</i>
   <i name="DAMP_NEWTON">      0.80000001</i>
   <i name="LAMBDA">      1.00000000</i>
  </separator>
  <separator name="External order field" >
   <i name="OFIELD_KAPPA">      0.00000000</i>
   <v name="OFIELD_K">      0.00000000      0.00000000      0.00000000</v>
   <i name="OFIELD_Q6_NEAR">      0.00000000</i>
   <i name="OFIELD_Q6_FAR">      0.00000000</i>
   <i name="OFIELD_A">      0.00000000</i>
  </separator>
  <separator name="optional k-points parameters" >
   <i type="int" name="KPOINTS_OPT_MODE">     1</i>
   <i type="logical" name="LKPOINTS_OPT"> F  </i>
  </separator>
  <separator name="solvation model" >
   <i type="logical" name="LSOL"> F  </i>
  </separator>
 </parameters>
 <atominfo>
  <atoms>      16 </atoms>
  <types>       2 </types>
  <array name="atoms" >
   <dimension dim="1">ion</dimension>
   <field type="string">element</field>
   <field type="int">atomtype</field>
   <set>
    <rc><c>B </c><c>   1</c></rc>
    <rc><c>B </c><c>   1</c></rc>
    <rc><c>B </c><c>   1</c></rc>
    <rc><c>B </c><c>   1</c></rc>
    <rc><c>B </c><c>   1</c></rc>
    <rc><c>B </c><c>   1</c></rc>
    <rc><c>B </c><c>   1</c></rc>
    <rc><c>B </c><c>   1</c></rc>
    <rc><c>C </c><c>   2</c></rc>
    <rc><c>C </c><c>   2</c></rc>
    <rc><c>C </c><c>   2</c></rc>
    <rc><c>C </c><c>   2</c></rc>
    <rc><c>C </c><c>   2</c></rc>
    <rc><c>C </c><c>   2</c></rc>
    <rc><c>C </c><c>   2</c></rc>
    <rc><c>C </c><c>   2</c></rc>
   </set>
  </array>
  <array name="atomtypes" >
   <dimension dim="1">type</dimension>
   <field type="int">atomspertype</field>
   <field type="string">element</field>
   <field>mass</field>
   <field>valence</field>
   <field type="string">pseudopotential</field>
   <set>
    <rc><c>   8</c><c>B </c><c>     10.81100000</c><c>      3.00000000</c><c>  PAW_PBE B 06Sep2000                   </c></rc>
    <rc><c>   8</c><c>C </c><c>     12.01100000</c><c>      4.00000000</c><c>  PAW_PBE C 08Apr2002                   </c></rc>
   </set>
  </array>
 </atominfo>
 <structure name="initialpos" >
  <crystal>
   <varray name="basis" >
    <v>       4.33878727       2.50500000       0.00000000 </v>
    <v>      -4.33878727       2.50500000       0.00000000 </v>
    <v>       0.00000000       0.00000000      15.00000000 </v>
   </varray>
   <i name="volume">    326.05986356 </i>
   <varray name="rec_basis" >
    <v>       0.11523957       0.19960080       0.00000000 </v>
    <v>      -0.11523957       0.19960080       0.00000000 </v>
    <v>       0.00000000       0.00000000       0.06666667 </v>
   </varray>
  </crystal>
  <varray name="positions" >
   <v>       0.66888689       0.00000000       0.10000000 </v>
   <v>       0.33111211       0.00000000       0.10000000 </v>
   <v>       0.00000000       0.33111211       0.10000000 </v>
   <v>       0.00000000       0.66888689       0.10000000 </v>
   <v>       0.33111211       0.33111211       0.10000000 </v>
   <v>       0.66888689       0.66888689       0.10000000 </v>
   <v>       0.66666600       0.33333300       0.09922189 </v>
   <v>       0.33333300       0.66666600       0.10077811 </v>
   <v>       0.24999933       0.24999967       0.46906667 </v>
   <v>       0.41666633       0.08333267       0.46906667 </v>
   <v>       0.24999933       0.74999967       0.46906667 </v>
   <v>       0.41666633       0.58333267       0.46906667 </v>
   <v>       0.74999933       0.24999967       0.46906667 </v>
   <v>       0.91666633       0.08333267       0.46906667 </v>
   <v>       0.74999933       0.74999967       0.46906667 </v>
   <v>       0.91666633       0.58333267       0.46906667 </v>
  </varray>
 </structure>
 <calculation>
  <scstep>
   <time name="dav">    3.27    3.31</time>
   <time name="total">    3.31    3.36</time>
   <energy>
    <i name="alphaZ">     59.72471782 </i>
    <i name="ewald">   1832.03547079 </i>
    <i name="hartreedc">  -3250.85209658 </i>
    <i name="XCdc">    162.89424887 </i>
    <i name="pawpsdc">   1214.24570090 </i>
    <i name="pawaedc">  -1211.68112031 </i>
    <i name="eentropy">     -0.01927768 </i>
    <i name="bandstr">   -367.55310285 </i>
    <i name="atom">   1746.50554237 </i>
    <i name="e_fr_energy">    185.30008332 </i>
    <i name="e_wo_entrp">    185.31936100 </i>
    <i name="e_0_energy">    185.30972216 </i>
   </energy>
  </scstep>
  <scstep>
   <time name="dav">    5.31    5.36</time>
   <time name="total">    5.31    5.36</time>
   <energy>
    <i name="e_fr_energy">   -118.19038379 </i>
    <i name="e_wo_entrp">   -118.18040702 </i>
    <i name="e_0_energy">   -118.18539540 </i>
   </energy>
  </scstep>
  <scstep>
   <time name="dav">    5.91    5.96</time>
   <time name="total">    5.91    5.96</time>
   <energy>
    <i name="e_fr_energy">   -127.37337192 </i>
    <i name="e_wo_entrp">   -127.36073431 </i>
    <i name="e_0_energy">   -127.36705312 </i>
   </energy>
  </scstep>
  <scstep>
   <time name="dav">    5.39    5.44</time>
   <time name="total">    5.39    5.44</time>
   <energy>
    <i name="e_fr_energy">   -127.39701671 </i>
    <i name="e_wo_entrp">   -127.38427336 </i>
    <i name="e_0_energy">   -127.39064504 </i>
   </energy>
  </scstep>
  <scstep>
   <time name="dav">    5.33    5.38</time>
   <time name="total">    5.51    5.58</time>
   <energy>
    <i name="e_fr_energy">   -127.39704843 </i>
    <i name="e_wo_entrp">   -127.38430504 </i>
    <i name="e_0_energy">   -127.39067674 </i>
   </energy>
  </scstep>
  <scstep>
   <time name="dav">    4.40    4.44</time>
   <time name="total">    4.61    4.68</time>
   <energy>
    <i name="e_fr_energy">    -94.33796425 </i>
    <i name="e_wo_entrp">    -94.32797335 </i>
    <i name="e_0_energy">    -94.33296880 </i>
   </energy>
  </scstep>
  <scstep>
   <time name="dav">    5.18    5.22</time>
   <time name="total">    5.40    5.45</time>
   <energy>
    <i name="e_fr_energy">   -105.55047194 </i>
    <i name="e_wo_entrp">   -105.54097456 </i>
    <i name="e_0_energy">   -105.54572325 </i>
   </energy>
  </scstep>
  <scstep>
   <time name="dav">    5.08    5.12</time>
   <time name="total">    5.29    5.34</time>
   <energy>
    <i name="e_fr_energy">   -111.43036911 </i>
    <i name="e_wo_entrp">   -111.42082938 </i>
    <i name="e_0_energy">   -111.42559925 </i>
   </energy>
  </scstep>
  <scstep>
   <time name="dav">    4.53    4.57</time>
   <time name="total">    4.73    4.78</time>
   <energy>
    <i name="e_fr_energy">   -116.68846277 </i>
    <i name="e_wo_entrp">   -116.68553335 </i>
    <i name="e_0_energy">   -116.68699806 </i>
   </energy>
  </scstep>
  <scstep>
   <time name="dav">    4.82    4.86</time>
   <time name="total">    5.03    5.08</time>
   <energy>
    <i name="e_fr_energy">   -120.85939012 </i>
    <i name="e_wo_entrp">   -120.85463540 </i>
    <i name="e_0_energy">   -120.85701276 </i>
   </energy>
  </scstep>
  <scstep>
   <time name="dav">    4.83    4.86</time>
   <time name="total">    5.03    5.07</time>
   <energy>
    <i name="e_fr_energy">   -122.75369633 </i>
    <i name="e_wo_entrp">   -122.75045752 </i>
    <i name="e_0_energy">   -122.75207693 </i>
   </energy>
  </scstep>
  <scstep>
   <time name="dav">    5.63    5.66</time>
   <time name="total">    5.83    5.88</time>
   <energy>
    <i name="e_fr_energy">   -123.73903974 </i>
    <i name="e_wo_entrp">   -123.73461021 </i>
    <i name="e_0_energy">   -123.73682498 </i>
   </energy>
  </scstep>
  <scstep>
   <time name="dav">    4.88    4.92</time>
   <time name="total">    5.08    5.13</time>
   <energy>
    <i name="e_fr_energy">   -124.05157707 </i>
    <i name="e_wo_entrp">   -124.04558066 </i>
    <i name="e_0_energy">   -124.04857886 </i>
   </energy>
  </scstep>
  <scstep>
   <time name="dav">    4.38    4.41</time>
   <time name="total">    4.59    4.63</time>
   <energy>
    <i name="e_fr_energy">   -124.10669808 </i>
    <i name="e_wo_entrp">   -124.10058896 </i>
    <i name="e_0_energy">   -124.10364352 </i>
   </energy>
  </scstep>
  <scstep>
   <time name="dav">    3.98    4.01</time>
   <time name="total">    4.18    4.23</time>
   <energy>
    <i name="e_fr_energy">   -124.12951496 </i>
    <i name="e_wo_entrp">   -124.12341040 </i>
    <i name="e_0_energy">   -124.12646268 </i>
   </energy>
  </scstep>
  <scstep>
   <time name="dav">    4.03    4.06</time>
   <time name="total">    4.24    4.27</time>
   <energy>
    <i name="e_fr_energy">   -124.13114591 </i>
    <i name="e_wo_entrp">   -124.12508288 </i>
    <i name="e_0_energy">   -124.12811439 </i>
   </energy>
  </scstep>
  <scstep>
   <time name="dav">    3.70    3.72</time>
   <time name="total">    3.90    3.93</time>
   <energy>
    <i name="e_fr_energy">   -124.13190820 </i>
    <i name="e_wo_entrp">   -124.12586500 </i>
    <i name="e_0_energy">   -124.12888660 </i>
   </energy>
  </scstep>
  <scstep>
   <time name="dav">    3.61    3.63</time>
   <time name="total">    3.81    3.85</time>
   <energy>
    <i name="e_fr_energy">   -124.13192022 </i>
    <i name="e_wo_entrp">   -124.12586324 </i>
    <i name="e_0_energy">   -124.12889173 </i>
   </energy>
  </scstep>
  <scstep>
   <time name="dav">    3.57    3.60</time>
   <time name="total">    3.78    3.82</time>
   <energy>
    <i name="e_fr_energy">   -124.13196613 </i>
    <i name="e_wo_entrp">   -124.12590364 </i>
    <i name="e_0_energy">   -124.12893488 </i>
   </energy>
  </scstep>
  <scstep>
   <time name="dav">    3.53    3.55</time>
   <time name="total">    3.74    3.78</time>
   <energy>
    <i name="e_fr_energy">   -124.13199168 </i>
    <i name="e_wo_entrp">   -124.12593129 </i>
    <i name="e_0_energy">   -124.12896148 </i>
   </energy>
  </scstep>
  <scstep>
   <time name="dav">    3.48    3.50</time>
   <time name="total">    3.69    3.72</time>
   <energy>
    <i name="e_fr_energy">   -124.13203834 </i>
    <i name="e_wo_entrp">   -124.12597845 </i>
    <i name="e_0_energy">   -124.12900840 </i>
   </energy>
  </scstep>
  <scstep>
   <time name="dav">    4.06    4.09</time>
   <time name="total">    4.26    4.30</time>
   <energy>
    <i name="e_fr_energy">   -124.13206283 </i>
    <i name="e_wo_entrp">   -124.12600268 </i>
    <i name="e_0_energy">   -124.12903276 </i>
   </energy>
  </scstep>
  <scstep>
   <time name="dav">    4.62    4.65</time>
   <time name="total">    4.82    4.86</time>
   <energy>
    <i name="e_fr_energy">   -124.13206665 </i>
    <i name="e_wo_entrp">   -124.12600680 </i>
    <i name="e_0_energy">   -124.12903673 </i>
   </energy>
  </scstep>
  <scstep>
   <time name="dav">    4.97    5.00</time>
   <time name="total">    5.17    5.22</time>
   <energy>
    <i name="e_fr_energy">   -124.13206994 </i>
    <i name="e_wo_entrp">   -124.12601002 </i>
    <i name="e_0_energy">   -124.12903998 </i>
   </energy>
  </scstep>
  <scstep>
   <time name="dav">    4.26    4.28</time>
   <time name="total">    4.47    4.51</time>
   <energy>
    <i name="e_fr_energy">   -124.13207125 </i>
    <i name="e_wo_entrp">   -124.12601137 </i>
    <i name="e_0_energy">   -124.12904131 </i>
   </energy>
  </scstep>
  <scstep>
   <time name="dav">    6.01    6.04</time>
   <time name="total">    6.04    6.08</time>
   <energy>
    <i name="alphaZ">     59.72471782 </i>
    <i name="ewald">   1832.03547079 </i>
    <i name="hartreedc">  -3440.52774583 </i>
    <i name="XCdc">    167.55974315 </i>
    <i name="pawpsdc">   5629.44887346 </i>
    <i name="pawaedc">  -5628.75352495 </i>
    <i name="eentropy">     -0.00605972 </i>
    <i name="bandstr">   -490.11908869 </i>
    <i name="atom">   1746.50554237 </i>
    <i name="e_fr_energy">   -124.13207161 </i>
    <i name="e_wo_entrp">   -124.12601189 </i>
    <i name="e_0_energy">   -124.12904175 </i>
   </energy>
  </scstep>
  <structure>
   <crystal>
    <varray name="basis" >
     <v>       4.33878727       2.50500000       0.00000000 </v>
     <v>      -4.33878727       2.50500000       0.00000000 </v>
     <v>       0.00000000       0.00000000      15.00000000 </v>
    </varray>
    <i name="volume">    326.05986356 </i>
    <varray name="rec_basis" >
     <v>       0.11523957       0.19960080       0.00000000 </v>
     <v>      -0.11523957       0.19960080       0.00000000 </v>
     <v>       0.00000000       0.00000000       0.06666667 </v>
    </varray>
   </crystal>
   <varray name="positions" >
    <v>       0.66888689       0.00000000       0.10000000 </v>
    <v>       0.33111211       0.00000000       0.10000000 </v>
    <v>       0.00000000       0.33111211       0.10000000 </v>
    <v>       0.00000000       0.66888689       0.10000000 </v>
    <v>       0.33111211       0.33111211       0.10000000 </v>
    <v>       0.66888689       0.66888689       0.10000000 </v>
    <v>       0.66666600       0.33333300       0.09922189 </v>
    <v>       0.33333300       0.66666600       0.10077811 </v>
    <v>       0.24999933       0.24999967       0.46906667 </v>
    <v>       0.41666633       0.08333267       0.46906667 </v>
    <v>       0.24999933       0.74999967       0.46906667 </v>
    <v>       0.41666633       0.58333267       0.46906667 </v>
    <v>       0.74999933       0.24999967       0.46906667 </v>
    <v>       0.91666633       0.08333267       0.46906667 </v>
    <v>       0.74999933       0.74999967       0.46906667 </v>
    <v>       0.91666633       0.58333267       0.46906667 </v>
   </varray>
  </structure>
  <varray name="forces" >
   <v>       0.08321284       0.04802684       0.00814262 </v>
   <v>      -0.08317076      -0.04803603       0.00816971 </v>
   <v>       0.08321284      -0.04802684       0.00814262 </v>
   <v>      -0.08317076       0.04803603       0.00816971 </v>
   <v>       0.00000415      -0.09609133       0.00817386 </v>
   <v>       0.00000415       0.09609133       0.00817386 </v>
   <v>       0.00001320      -0.00000000       0.00960266 </v>
   <v>      -0.00008039       0.00000000       0.00889626 </v>
   <v>       0.00004438      -0.00046186      -0.00834943 </v>
   <v>      -0.00043344      -0.00009207      -0.00852089 </v>
   <v>      -0.00007564       0.00000000      -0.00864420 </v>
   <v>       0.00013293       0.00000000      -0.00844529 </v>
   <v>       0.00051247      -0.00000000      -0.00840351 </v>
   <v>       0.00018308      -0.00000000      -0.00823766 </v>
   <v>       0.00004438       0.00046186      -0.00834943 </v>
   <v>      -0.00043344       0.00009207      -0.00852089 </v>
  </varray>
  <varray name="stress" >
   <v>     -25.44612569       0.00000000      -0.00071183 </v>
   <v>       0.00000000     -25.44551880       0.00000000 </v>
   <v>      -0.00071183       0.00000000      -3.59352484 </v>
  </varray>
  <energy>
   <i name="e_fr_energy">   -125.60868274 </i>
   <i name="e_wo_entrp">   -125.60262302 </i>
   <i name="e_0_energy">   -125.60565288 </i>
  </energy>
  <time name="totalsc">  126.26  127.45</time>
 </calculation>
 <calculation>
  <scstep>
   <time name="dav">    3.34    3.37</time>
   <time name="total">    3.55    3.59</time>
   <energy>
    <i name="alphaZ">     59.72471782 </i>
    <i name="ewald">   1831.80583783 </i>
    <i name="hartreedc">  -3440.68439326 </i>
    <i name="XCdc">    167.54025180 </i>
    <i name="pawpsdc">   5629.44759925 </i>
    <i name="pawaedc">  -5628.75225363 </i>
    <i name="eentropy">     -0.00612497 </i>
    <i name="bandstr">   -489.71445258 </i>
    <i name="atom">   1746.50554237 </i>
    <i name="e_fr_energy">   -124.13327538 </i>
    <i name="e_wo_entrp">   -124.12715040 </i>
    <i name="e_0_energy">   -124.13021289 </i>
   </energy>
  </scstep>
  <scstep>
   <time name="dav">    5.40    5.44</time>
   <time name="total">    5.61    5.66</time>
   <energy>
    <i name="e_fr_energy">   -124.13232858 </i>
    <i name="e_wo_entrp">   -124.12624550 </i>
    <i name="e_0_energy">   -124.12928704 </i>
   </energy>
  </scstep>
  <scstep>
   <time name="dav">    5.54    5.57</time>
   <time name="total">    5.74    5.78</time>
   <energy>
    <i name="e_fr_energy">   -124.13217230 </i>
    <i name="e_wo_entrp">   -124.12612733 </i>
    <i name="e_0_energy">   -124.12914982 </i>
   </energy>
  </scstep>
  <scstep>
   <time name="dav">    4.97    5.00</time>
   <time name="total">    5.17    5.22</time>
   <energy>
    <i name="e_fr_energy">   -124.13216691 </i>
    <i name="e_wo_entrp">   -124.12612565 </i>
    <i name="e_0_energy">   -124.12914628 </i>
   </energy>
  </scstep>
  <scstep>
   <time name="dav">    5.13    5.16</time>
   <time name="total">    5.16    5.20</time>
   <energy>
    <i name="alphaZ">     59.72471782 </i>
    <i name="ewald">   1831.80583783 </i>
    <i name="hartreedc">  -3440.35972515 </i>
    <i name="XCdc">    167.53369332 </i>
    <i name="pawpsdc">   5620.50432615 </i>
    <i name="pawaedc">  -5619.80614874 </i>
    <i name="eentropy">     -0.00604137 </i>
    <i name="bandstr">   -490.03436906 </i>
    <i name="atom">   1746.50554237 </i>
    <i name="e_fr_energy">   -124.13216683 </i>
    <i name="e_wo_entrp">   -124.12612546 </i>
    <i name="e_0_energy">   -124.12914614 </i>
   </energy>
  </scstep>
  <structure>
   <crystal>
    <varray name="basis" >
     <v>       4.33878727       2.50500000       0.00000000 </v>
     <v>      -4.33878727       2.50500000       0.00000000 </v>
     <v>       0.00000000       0.00000000      15.00000000 </v>
    </varray>
    <i name="volume">    326.05986356 </i>
    <varray name="rec_basis" >
     <v>       0.11523957       0.19960080       0.00000000 </v>
     <v>      -0.11523957       0.19960080       0.00000000 </v>
     <v>       0.00000000       0.00000000       0.06666667 </v>
    </varray>
   </crystal>
   <varray name="positions" >
    <v>       0.66981197      -0.00000016       0.10002619 </v>
    <v>       0.33018718      -0.00000017       0.10002628 </v>
    <v>       0.00000016       0.33018703       0.10002619 </v>
    <v>       0.00000017       0.66981182       0.10002628 </v>
    <v>       0.33018685       0.33018680       0.10002629 </v>
    <v>       0.66981220       0.66981215       0.10002629 </v>
    <v>       0.66666607       0.33333293       0.09925277 </v>
    <v>       0.33333255       0.66666645       0.10080672 </v>
    <v>       0.24999513       0.24999497       0.46903981 </v>
    <v>       0.41666304       0.08333419       0.46903926 </v>
    <v>       0.24999891       0.75000009       0.46903887 </v>
    <v>       0.41666707       0.58333193       0.46903951 </v>
    <v>       0.75000218       0.24999682       0.46903964 </v>
    <v>       0.91666735       0.08333165       0.46904017 </v>
    <v>       0.75000403       0.75000387       0.46903981 </v>
    <v>       0.91666481       0.58333596       0.46903926 </v>
   </varray>
  </structure>
  <varray name="forces" >
   <v>      -0.07118754      -0.04109268       0.00818681 </v>
   <v>       0.07118059       0.04111546       0.00821072 </v>
   <v>      -0.07118754       0.04109268       0.00818681 </v>
   <v>       0.07118059      -0.04111546       0.00821072 </v>
   <v>       0.00000097       0.08224555       0.00821436 </v>
   <v>       0.00000097      -0.08224555       0.00821436 </v>
   <v>      -0.00002213      -0.00000000       0.01056443 </v>
   <v>       0.00005925      -0.00000000       0.00761825 </v>
   <v>      -0.00023657       0.00112390      -0.00838082 </v>
   <v>       0.00118741       0.00020088      -0.00847269 </v>
   <v>       0.00002860      -0.00000000      -0.00852699 </v>
   <v>      -0.00022701      -0.00000000      -0.00843512 </v>
   <v>      -0.00141403      -0.00000000      -0.00840826 </v>
   <v>      -0.00031439      -0.00000000      -0.00832909 </v>
   <v>      -0.00023657      -0.00112390      -0.00838082 </v>
   <v>       0.00118741      -0.00020088      -0.00847269 </v>
  </varray>
  <varray name="stress" >
   <v>     -26.23802144       0.00000000      -0.00068939 </v>
   <v>       0.00000000     -26.24039028       0.00000000 </v>
   <v>      -0.00068939       0.00000000      -3.60320041 </v>
  </varray>
  <energy>
   <i name="e_fr_energy">   -125.60893527 </i>
   <i name="e_wo_entrp">   -125.60289390 </i>
   <i name="e_0_energy">   -125.60591458 </i>
  </energy>
  <time name="totalsc">   28.36   28.60</time>
 </calculation>
 <calculation>
  <scstep>
   <time name="dav">    3.35    3.37</time>
   <time name="total">    3.56    3.59</time>
   <energy>
    <i name="alphaZ">     59.72471782 </i>
    <i name="ewald">   1831.90523099 </i>
    <i name="hartreedc">  -3440.28364912 </i>
    <i name="XCdc">    167.54240720 </i>
    <i name="pawpsdc">   5620.42763574 </i>
    <i name="pawaedc">  -5619.72946230 </i>
    <i name="eentropy">     -0.00598559 </i>
    <i name="bandstr">   -490.21939286 </i>
    <i name="atom">   1746.50554237 </i>
    <i name="e_fr_energy">   -124.13295574 </i>
    <i name="e_wo_entrp">   -124.12697015 </i>
    <i name="e_0_energy">   -124.12996295 </i>
   </energy>
  </scstep>
  <scstep>
   <time name="dav">    5.33    5.36</time>
   <time name="total">    5.54    5.59</time>
   <energy>
    <i name="e_fr_energy">   -124.13276585 </i>
    <i name="e_wo_entrp">   -124.12674879 </i>
    <i name="e_0_energy">   -124.12975732 </i>
   </energy>
  </scstep>
  <scstep>
   <time name="dav">    5.00    5.04</time>
   <time name="total">    5.21    5.26</time>
   <energy>
    <i name="e_fr_energy">   -124.13273524 </i>
    <i name="e_wo_entrp">   -124.12669814 </i>
    <i name="e_0_energy">   -124.12971669 </i>
   </energy>
  </scstep>
  <scstep>
   <time name="dav">    5.02    5.05</time>
   <time name="total">    5.23    5.26</time>
   <energy>
    <i name="e_fr_energy">   -124.13273446 </i>
    <i name="e_wo_entrp">   -124.12669616 </i>
    <i name="e_0_energy">   -124.12971531 </i>
   </energy>
  </scstep>
  <scstep>
   <time name="dav">    4.94    4.98</time>
   <time name="total">    4.97    5.01</time>
   <energy>
    <i name="alphaZ">     59.72471782 </i>
    <i name="ewald">   1831.90523099 </i>
    <i name="hartreedc">  -3440.41781813 </i>
    <i name="XCdc">    167.54518173 </i>
    <i name="pawpsdc">   5624.40051951 </i>
    <i name="pawaedc">  -5623.70358148 </i>
    <i name="eentropy">     -0.00603838 </i>
    <i name="bandstr">   -490.08648894 </i>
    <i name="atom">   1746.50554237 </i>
    <i name="e_fr_energy">   -124.13273451 </i>
    <i name="e_wo_entrp">   -124.12669612 </i>
    <i name="e_0_energy">   -124.12971531 </i>
   </energy>
  </scstep>
  <structure>
   <crystal>
    <varray name="basis" >
     <v>       4.33878727       2.50500000       0.00000000 </v>
     <v>      -4.33878727       2.50500000       0.00000000 </v>
     <v>       0.00000000       0.00000000      15.00000000 </v>
    </varray>
    <i name="volume">    326.05986356 </i>
    <varray name="rec_basis" >
     <v>       0.11523957       0.19960080       0.00000000 </v>
     <v>      -0.11523957       0.19960080       0.00000000 </v>
     <v>       0.00000000       0.00000000       0.06666667 </v>
    </varray>
   </crystal>
   <varray name="positions" >
    <v>       0.66939699      -0.00000009       0.10001444 </v>
    <v>       0.33060209      -0.00000009       0.10001449 </v>
    <v>       0.00000009       0.33060201       0.10001444 </v>
    <v>       0.00000009       0.66939691       0.10001449 </v>
    <v>       0.33060191       0.33060188       0.10001450 </v>
    <v>       0.66939712       0.66939709       0.10001450 </v>
    <v>       0.66666604       0.33333296       0.09923892 </v>
    <v>       0.33333275       0.66666625       0.10079389 </v>
    <v>       0.24999702       0.24999708       0.46905186 </v>
    <v>       0.41666452       0.08333351       0.46905156 </v>
    <v>       0.24999910       0.74999990       0.46905134 </v>
    <v>       0.41666674       0.58333226       0.46905169 </v>
    <v>       0.75000090       0.24999810       0.46905176 </v>
    <v>       0.91666689       0.08333211       0.46905206 </v>
    <v>       0.75000192       0.75000198       0.46905186 </v>
    <v>       0.91666549       0.58333448       0.46905156 </v>
   </varray>
  </structure>
  <varray name="forces" >
   <v>      -0.00132418      -0.00076773       0.00818477 </v>
   <v>       0.00133945       0.00077611       0.00821022 </v>
   <v>      -0.00132418       0.00076773       0.00818477 </v>
   <v>       0.00133945      -0.00077611       0.00821022 </v>
   <v>       0.00000219       0.00155192       0.00821400 </v>
   <v>       0.00000219      -0.00155192       0.00821400 </v>
   <v>      -0.00000640      -0.00000000       0.01013587 </v>
   <v>      -0.00000345      -0.00000000       0.00818393 </v>
   <v>      -0.00010964       0.00040946      -0.00837857 </v>
   <v>       0.00045769       0.00006812      -0.00850761 </v>
   <v>      -0.00001942      -0.00000000      -0.00859317 </v>
   <v>      -0.00006503      -0.00000000      -0.00845356 </v>
   <v>      -0.00054734      -0.00000000      -0.00841982 </v>
   <v>      -0.00008938      -0.00000000      -0.00829884 </v>
   <v>      -0.00010964      -0.00040946      -0.00837857 </v>
   <v>       0.00045769      -0.00006812      -0.00850761 </v>
  </varray>
  <varray name="stress" >
   <v>     -25.89964666       0.00000000      -0.00069967 </v>
   <v>       0.00000000     -25.90059792       0.00000000 </v>
   <v>      -0.00069968       0.00000000      -3.59370164 </v>
  </varray>
  <energy>
   <i name="e_fr_energy">   -125.60943271 </i>
   <i name="e_wo_entrp">   -125.60339433 </i>
   <i name="e_0_energy">   -125.60641352 </i>
  </energy>
  <time name="totalsc">   27.61   27.85</time>
 </calculation>
 <calculation>
  <scstep>
   <time name="dav">    5.33    5.36</time>
   <time name="total">    5.54    5.58</time>
   <energy>
    <i name="alphaZ">     59.72471782 </i>
    <i name="ewald">   1831.90467940 </i>
    <i name="hartreedc">  -3440.41825806 </i>
    <i name="XCdc">    167.54508493 </i>
    <i name="pawpsdc">   5624.45284709 </i>
    <i name="pawaedc">  -5623.75590954 </i>
    <i name="eentropy">     -0.00603842 </i>
    <i name="bandstr">   -490.08539970 </i>
    <i name="atom">   1746.50554237 </i>
    <i name="e_fr_energy">   -124.13273412 </i>
    <i name="e_wo_entrp">   -124.12669570 </i>
    <i name="e_0_energy">   -124.12971491 </i>
   </energy>
  </scstep>
  <scstep>
   <time name="dav">    5.31    5.35</time>
   <time name="total">    5.35    5.38</time>
   <energy>
    <i name="alphaZ">     59.72471782 </i>
    <i name="ewald">   1831.90467940 </i>
    <i name="hartreedc">  -3440.41824262 </i>
    <i name="XCdc">    167.54507963 </i>
    <i name="pawpsdc">   5624.43904499 </i>
    <i name="pawaedc">  -5623.74210580 </i>
    <i name="eentropy">     -0.00603842 </i>
    <i name="bandstr">   -490.08541145 </i>
    <i name="atom">   1746.50554237 </i>
    <i name="e_fr_energy">   -124.13273410 </i>
    <i name="e_wo_entrp">   -124.12669568 </i>
    <i name="e_0_energy">   -124.12971489 </i>
   </energy>
  </scstep>
  <structure>
   <crystal>
    <varray name="basis" >
     <v>       4.33878727       2.50500000       0.00000000 </v>
     <v>      -4.33878727       2.50500000       0.00000000 </v>
     <v>       0.00000000       0.00000000      15.00000000 </v>
    </varray>
    <i name="volume">    326.05986356 </i>
    <varray name="rec_basis" >
     <v>       0.11523957       0.19960080       0.00000000 </v>
     <v>      -0.11523957       0.19960080       0.00000000 </v>
     <v>       0.00000000       0.00000000       0.06666667 </v>
    </varray>
   </crystal>
   <varray name="positions" >
    <v>       0.66939923      -0.00000009       0.10001450 </v>
    <v>       0.33059986      -0.00000009       0.10001455 </v>
    <v>       0.00000009       0.33059977       0.10001450 </v>
    <v>       0.00000009       0.66939914       0.10001455 </v>
    <v>       0.33059967       0.33059965       0.10001456 </v>
    <v>       0.66939935       0.66939933       0.10001456 </v>
    <v>       0.66666604       0.33333296       0.09923899 </v>
    <v>       0.33333275       0.66666625       0.10079396 </v>
    <v>       0.24999701       0.24999707       0.46905179 </v>
    <v>       0.41666451       0.08333351       0.46905149 </v>
    <v>       0.24999910       0.74999990       0.46905127 </v>
    <v>       0.41666674       0.58333226       0.46905162 </v>
    <v>       0.75000091       0.24999809       0.46905170 </v>
    <v>       0.91666690       0.08333210       0.46905199 </v>
    <v>       0.75000193       0.75000199       0.46905179 </v>
    <v>       0.91666549       0.58333449       0.46905149 </v>
   </varray>
  </structure>
  <varray name="forces" >
   <v>      -0.00193190      -0.00111838       0.00817892 </v>
   <v>       0.00194679       0.00112714       0.00820439 </v>
   <v>      -0.00193190       0.00111838       0.00817892 </v>
   <v>       0.00194679      -0.00112714       0.00820439 </v>
   <v>       0.00000223       0.00225389       0.00820831 </v>
   <v>       0.00000223      -0.00225389       0.00820831 </v>
   <v>      -0.00000630      -0.00000000       0.01013509 </v>
   <v>      -0.00000291      -0.00000000       0.00817301 </v>
   <v>      -0.00011050       0.00041430      -0.00837333 </v>
   <v>       0.00046245       0.00006909      -0.00850140 </v>
   <v>      -0.00001882      -0.00000000      -0.00858687 </v>
   <v>      -0.00006616      -0.00000000      -0.00844723 </v>
   <v>      -0.00055277      -0.00000000      -0.00841362 </v>
   <v>      -0.00009118      -0.00000000      -0.00829419 </v>
   <v>      -0.00011050      -0.00041430      -0.00837333 </v>
   <v>       0.00046245      -0.00006909      -0.00850140 </v>
  </varray>
  <varray name="stress" >
   <v>     -25.89916067       0.00000000      -0.00069930 </v>
   <v>       0.00000000     -25.90013342       0.00000000 </v>
   <v>      -0.00069930       0.00000000      -3.59350204 </v>
  </varray>
  <energy>
   <i name="e_fr_energy">   -125.60943269 </i>
   <i name="e_wo_entrp">   -125.60339426 </i>
   <i name="e_0_energy">   -125.60641347 </i>
  </energy>
  <time name="totalsc">   13.99   14.09</time>
 </calculation>
 <calculation>
  <scstep>
   <time name="dav">    3.37    3.39</time>
   <time name="total">    3.57    3.61</time>
   <energy>
    <i name="alphaZ">     59.72471782 </i>
    <i name="ewald">   1832.54020687 </i>
    <i name="hartreedc">  -3441.05392908 </i>
    <i name="XCdc">    167.54508720 </i>
    <i name="pawpsdc">   5624.43074746 </i>
    <i name="pawaedc">  -5623.73380734 </i>
    <i name="eentropy">     -0.00603833 </i>
    <i name="bandstr">   -490.08526783 </i>
    <i name="atom">   1746.50554237 </i>
    <i name="e_fr_energy">   -124.13274087 </i>
    <i name="e_wo_entrp">   -124.12670254 </i>
    <i name="e_0_energy">   -124.12972171 </i>
   </energy>
  </scstep>
  <scstep>
   <time name="dav">    3.72    3.75</time>
   <time name="total">    3.92    3.96</time>
   <energy>
    <i name="e_fr_energy">   -124.13274008 </i>
    <i name="e_wo_entrp">   -124.12670137 </i>
    <i name="e_0_energy">   -124.12972073 </i>
   </energy>
  </scstep>
  <scstep>
   <time name="dav">    3.88    3.91</time>
   <time name="total">    3.91    3.94</time>
   <energy>
    <i name="alphaZ">     59.72471782 </i>
    <i name="ewald">   1832.54020687 </i>
    <i name="hartreedc">  -3441.06231678 </i>
    <i name="XCdc">    167.54511258 </i>
    <i name="pawpsdc">   5624.40318472 </i>
    <i name="pawaedc">  -5623.70624278 </i>
    <i name="eentropy">     -0.00603848 </i>
    <i name="bandstr">   -490.07690577 </i>
    <i name="atom">   1746.50554237 </i>
    <i name="e_fr_energy">   -124.13273946 </i>
    <i name="e_wo_entrp">   -124.12670098 </i>
    <i name="e_0_energy">   -124.12972022 </i>
   </energy>
  </scstep>
  <structure>
   <crystal>
    <varray name="basis" >
     <v>       4.33878727       2.50500000       0.00000000 </v>
     <v>      -4.33878727       2.50500000       0.00000000 </v>
     <v>       0.00000000       0.00000000      15.00000000 </v>
    </varray>
    <i name="volume">    326.05986356 </i>
    <varray name="rec_basis" >
     <v>       0.11523957       0.19960080       0.00000000 </v>
     <v>      -0.11523957       0.19960080       0.00000000 </v>
     <v>       0.00000000       0.00000000       0.06666667 </v>
    </varray>
   </crystal>
   <varray name="positions" >
    <v>       0.66939943      -0.00000012       0.10003902 </v>
    <v>       0.33059980      -0.00000007       0.10003915 </v>
    <v>       0.00000012       0.33059957       0.10003902 </v>
    <v>       0.00000007       0.66939920       0.10003915 </v>
    <v>       0.33059965       0.33059960       0.10003917 </v>
    <v>       0.66939940       0.66939935       0.10003917 </v>
    <v>       0.66666601       0.33333299       0.09926934 </v>
    <v>       0.33333273       0.66666627       0.10081851 </v>
    <v>       0.24999999       0.25000116       0.46902669 </v>
    <v>       0.41666738       0.08333181       0.46902600 </v>
    <v>       0.24999900       0.75000000       0.46902552 </v>
    <v>       0.41666642       0.58333258       0.46902630 </v>
    <v>       0.74999817       0.25000083       0.46902647 </v>
    <v>       0.91666646       0.08333254       0.46902713 </v>
    <v>       0.74999784       0.74999901       0.46902669 </v>
    <v>       0.91666719       0.58333162       0.46902600 </v>
   </varray>
  </structure>
  <varray name="forces" >
   <v>      -0.00206117      -0.00119665       0.00787948 </v>
   <v>       0.00206989       0.00118492       0.00790305 </v>
   <v>      -0.00206117       0.00119665       0.00787948 </v>
   <v>       0.00206989      -0.00118492       0.00790305 </v>
   <v>      -0.00000134       0.00238016       0.00790585 </v>
   <v>      -0.00000134      -0.00238016       0.00790585 </v>
   <v>       0.00000981       0.00000000       0.00980702 </v>
   <v>      -0.00000101       0.00000000       0.00784233 </v>
   <v>       0.00037830      -0.00089800      -0.00809356 </v>
   <v>      -0.00117178      -0.00013925      -0.00816320 </v>
   <v>       0.00019412      -0.00000000      -0.00820541 </v>
   <v>      -0.00001159      -0.00000000      -0.00813817 </v>
   <v>       0.00135249       0.00000000      -0.00812020 </v>
   <v>       0.00002840      -0.00000000      -0.00804883 </v>
   <v>       0.00037830       0.00089800      -0.00809356 </v>
   <v>      -0.00117178       0.00013925      -0.00816320 </v>
  </varray>
  <varray name="stress" >
   <v>     -25.90046557       0.00000000      -0.00070103 </v>
   <v>       0.00000000     -25.89863610       0.00000000 </v>
   <v>      -0.00070106       0.00000000      -3.59614940 </v>
  </varray>
  <energy>
   <i name="e_fr_energy">   -125.60948393 </i>
   <i name="e_wo_entrp">   -125.60344545 </i>
   <i name="e_0_energy">   -125.60646469 </i>
  </energy>
  <time name="totalsc">   14.53   14.66</time>
 </calculation>
 <calculation>
  <scstep>
   <time name="dav">    3.26    3.28</time>
   <time name="total">    3.46    3.49</time>
   <energy>
    <i name="alphaZ">     59.72471782 </i>
    <i name="ewald">   1834.44825700 </i>
    <i name="hartreedc">  -3442.96797744 </i>
    <i name="XCdc">    167.54512529 </i>
    <i name="pawpsdc">   5624.40457872 </i>
    <i name="pawaedc">  -5623.70763650 </i>
    <i name="eentropy">     -0.00603815 </i>
    <i name="bandstr">   -490.07933518 </i>
    <i name="atom">   1746.50554237 </i>
    <i name="e_fr_energy">   -124.13276608 </i>
    <i name="e_wo_entrp">   -124.12672792 </i>
    <i name="e_0_energy">   -124.12974700 </i>
   </energy>
  </scstep>
  <scstep>
   <time name="dav">    4.06    4.09</time>
   <time name="total">    4.27    4.31</time>
   <energy>
    <i name="e_fr_energy">   -124.13276016 </i>
    <i name="e_wo_entrp">   -124.12672094 </i>
    <i name="e_0_energy">   -124.12974055 </i>
   </energy>
  </scstep>
  <scstep>
   <time name="dav">    4.31    4.34</time>
   <time name="total">    4.52    4.55</time>
   <energy>
    <i name="e_fr_energy">   -124.13275393 </i>
    <i name="e_wo_entrp">   -124.12671546 </i>
    <i name="e_0_energy">   -124.12973470 </i>
   </energy>
  </scstep>
  <scstep>
   <time name="dav">    3.98    4.00</time>
   <time name="total">    4.01    4.04</time>
   <energy>
    <i name="alphaZ">     59.72471782 </i>
    <i name="ewald">   1834.44825700 </i>
    <i name="hartreedc">  -3442.98252778 </i>
    <i name="XCdc">    167.54516198 </i>
    <i name="pawpsdc">   5624.38875429 </i>
    <i name="pawaedc">  -5623.69180700 </i>
    <i name="eentropy">     -0.00603816 </i>
    <i name="bandstr">   -490.06481494 </i>
    <i name="atom">   1746.50554237 </i>
    <i name="e_fr_energy">   -124.13275443 </i>
    <i name="e_wo_entrp">   -124.12671627 </i>
    <i name="e_0_energy">   -124.12973535 </i>
   </energy>
  </scstep>
  <structure>
   <crystal>
    <varray name="basis" >
     <v>       4.33878727       2.50500000       0.00000000 </v>
     <v>      -4.33878727       2.50500000       0.00000000 </v>
     <v>       0.00000000       0.00000000      15.00000000 </v>
    </varray>
    <i name="volume">    326.05986356 </i>
    <varray name="rec_basis" >
     <v>       0.11523957       0.19960080       0.00000000 </v>
     <v>      -0.11523957       0.19960080       0.00000000 </v>
     <v>       0.00000000       0.00000000       0.06666667 </v>
    </varray>
   </crystal>
   <varray name="positions" >
    <v>       0.66940005      -0.00000020       0.10011258 </v>
    <v>       0.33059965       0.00000000       0.10011293 </v>
    <v>       0.00000020       0.33059895       0.10011258 </v>
    <v>      -0.00000000       0.66939935       0.10011293 </v>
    <v>       0.33059958       0.33059946       0.10011298 </v>
    <v>       0.66939954       0.66939942       0.10011298 </v>
    <v>       0.66666592       0.33333308       0.09936039 </v>
    <v>       0.33333266       0.66666634       0.10089217 </v>
    <v>       0.25000894       0.25001344       0.46895139 </v>
    <v>       0.41667602       0.08332670       0.46894953 </v>
    <v>       0.24999868       0.75000032       0.46894828 </v>
    <v>       0.41666547       0.58333353       0.46895032 </v>
    <v>       0.74998996       0.25000904       0.46895080 </v>
    <v>       0.91666514       0.08333386       0.46895254 </v>
    <v>       0.74998556       0.74999006       0.46895139 </v>
    <v>       0.91667230       0.58332298       0.46894953 </v>
   </varray>
  </structure>
  <varray name="forces" >
   <v>      -0.00213420      -0.00126506       0.00826973 </v>
   <v>       0.00213843       0.00117300       0.00828680 </v>
   <v>      -0.00213420       0.00126506       0.00826973 </v>
   <v>       0.00213843      -0.00117300       0.00828680 </v>
   <v>      -0.00002392       0.00240678       0.00828739 </v>
   <v>      -0.00002392      -0.00240678       0.00828739 </v>
   <v>       0.00005771      -0.00000000       0.00994039 </v>
   <v>       0.00000754      -0.00000000       0.00799031 </v>
   <v>       0.00184131      -0.00466272      -0.00850355 </v>
   <v>      -0.00596816      -0.00069887      -0.00839969 </v>
   <v>       0.00091747      -0.00000000      -0.00831510 </v>
   <v>       0.00010001      -0.00000000      -0.00845353 </v>
   <v>       0.00695081      -0.00000000      -0.00847990 </v>
   <v>       0.00025953      -0.00000000      -0.00856352 </v>
   <v>       0.00184131       0.00466272      -0.00850355 </v>
   <v>      -0.00596816       0.00069887      -0.00839969 </v>
  </varray>
  <varray name="stress" >
   <v>     -25.90664008       0.00000000      -0.00070675 </v>
   <v>       0.00000000     -25.89266603       0.00000000 </v>
   <v>      -0.00070677       0.00000000      -3.60062984 </v>
  </varray>
  <energy>
   <i name="e_fr_energy">   -125.60963680 </i>
   <i name="e_wo_entrp">   -125.60359864 </i>
   <i name="e_0_energy">   -125.60661772 </i>
  </energy>
  <time name="totalsc">   19.35   19.51</time>
 </calculation>
 <calculation>
  <scstep>
   <time name="dav">    3.26    3.28</time>
   <time name="total">    3.47    3.50</time>
   <energy>
    <i name="alphaZ">     59.72471782 </i>
    <i name="ewald">   1838.27096194 </i>
    <i name="hartreedc">  -3446.79837910 </i>
    <i name="XCdc">    167.54519158 </i>
    <i name="pawpsdc">   5624.40711126 </i>
    <i name="pawaedc">  -5623.71016701 </i>
    <i name="eentropy">     -0.00603750 </i>
    <i name="bandstr">   -490.07176658 </i>
    <i name="atom">   1746.50554237 </i>
    <i name="e_fr_energy">   -124.13282523 </i>
    <i name="e_wo_entrp">   -124.12678772 </i>
    <i name="e_0_energy">   -124.12980648 </i>
   </energy>
  </scstep>
  <scstep>
   <time name="dav">    4.06    4.08</time>
   <time name="total">    4.26    4.29</time>
   <energy>
    <i name="e_fr_energy">   -124.13280515 </i>
    <i name="e_wo_entrp">   -124.12676553 </i>
    <i name="e_0_energy">   -124.12978534 </i>
   </energy>
  </scstep>
  <scstep>
   <time name="dav">    4.46    4.49</time>
   <time name="total">    4.66    4.70</time>
   <energy>
    <i name="e_fr_energy">   -124.13277685 </i>
    <i name="e_wo_entrp">   -124.12673868 </i>
    <i name="e_0_energy">   -124.12975777 </i>
   </energy>
  </scstep>
  <scstep>
   <time name="dav">    4.32    4.35</time>
   <time name="total">    4.52    4.57</time>
   <energy>
    <i name="e_fr_energy">   -124.13277838 </i>
    <i name="e_wo_entrp">   -124.12674084 </i>
    <i name="e_0_energy">   -124.12975961 </i>
   </energy>
  </scstep>
  <scstep>
   <time name="dav">    3.48    3.51</time>
   <time name="total">    3.69    3.72</time>
   <energy>
    <i name="e_fr_energy">   -124.13277949 </i>
    <i name="e_wo_entrp">   -124.12674209 </i>
    <i name="e_0_energy">   -124.12976079 </i>
   </energy>
  </scstep>
  <scstep>
   <time name="dav">    3.97    4.00</time>
   <time name="total">    4.00    4.03</time>
   <energy>
    <i name="alphaZ">     59.72471782 </i>
    <i name="ewald">   1838.27096194 </i>
    <i name="hartreedc">  -3446.81018088 </i>
    <i name="XCdc">    167.54524988 </i>
    <i name="pawpsdc">   5624.41666721 </i>
    <i name="pawaedc">  -5623.71972116 </i>
    <i name="eentropy">     -0.00603742 </i>
    <i name="bandstr">   -490.05997872 </i>
    <i name="atom">   1746.50554237 </i>
    <i name="e_fr_energy">   -124.13277896 </i>
    <i name="e_wo_entrp">   -124.12674154 </i>
    <i name="e_0_energy">   -124.12976025 </i>
   </energy>
  </scstep>
  <structure>
   <crystal>
    <varray name="basis" >
     <v>       4.33878727       2.50500000       0.00000000 </v>
     <v>      -4.33878727       2.50500000       0.00000000 </v>
     <v>       0.00000000       0.00000000      15.00000000 </v>
    </varray>
    <i name="volume">    326.05986356 </i>
    <varray name="rec_basis" >
     <v>       0.11523957       0.19960080       0.00000000 </v>
     <v>      -0.11523957       0.19960080       0.00000000 </v>
     <v>       0.00000000       0.00000000       0.06666667 </v>
    </varray>
   </crystal>
   <varray name="positions" >
    <v>       0.66940130      -0.00000038       0.10025968 </v>
    <v>       0.33059934       0.00000015       0.10026050 </v>
    <v>       0.00000038       0.33059770       0.10025968 </v>
    <v>      -0.00000015       0.66939966       0.10026050 </v>
    <v>       0.33059944       0.33059918       0.10026062 </v>
    <v>       0.66939982       0.66939956       0.10026062 </v>
    <v>       0.66666574       0.33333326       0.09954248 </v>
    <v>       0.33333251       0.66666649       0.10103948 </v>
    <v>       0.25002685       0.25003799       0.46880078 </v>
    <v>       0.41669328       0.08331648       0.46879660 </v>
    <v>       0.24999806       0.75000094       0.46879379 </v>
    <v>       0.41666355       0.58333545       0.46879838 </v>
    <v>       0.74997353       0.25002547       0.46879946 </v>
    <v>       0.91666250       0.08333650       0.46880337 </v>
    <v>       0.74996101       0.74997215       0.46880078 </v>
    <v>       0.91668252       0.58330572       0.46879660 </v>
   </varray>
  </structure>
  <varray name="forces" >
   <v>      -0.00228141      -0.00137615       0.00842315 </v>
   <v>       0.00225215       0.00116106       0.00842767 </v>
   <v>      -0.00228141       0.00137615       0.00842315 </v>
   <v>       0.00225215      -0.00116106       0.00842767 </v>
   <v>      -0.00004683       0.00244521       0.00842382 </v>
   <v>      -0.00004683      -0.00244521       0.00842382 </v>
   <v>       0.00015494      -0.00000000       0.00947701 </v>
   <v>       0.00002377      -0.00000000       0.00759519 </v>
   <v>       0.00480052      -0.01225578      -0.00867366 </v>
   <v>      -0.01562196      -0.00185199      -0.00821878 </v>
   <v>       0.00235172      -0.00000000      -0.00788718 </v>
   <v>       0.00030953      -0.00000000      -0.00843897 </v>
   <v>       0.01820901      -0.00000000      -0.00855278 </v>
   <v>       0.00074611      -0.00000000      -0.00895767 </v>
   <v>       0.00480052       0.01225578      -0.00867366 </v>
   <v>      -0.01562196       0.00185199      -0.00821878 </v>
  </varray>
  <varray name="stress" >
   <v>     -25.91966688       0.00000000      -0.00071924 </v>
   <v>       0.00000000     -25.88011198       0.00000000 </v>
   <v>      -0.00071924       0.00000000      -3.61103983 </v>
  </varray>
  <energy>
   <i name="e_fr_energy">   -125.60993819 </i>
   <i name="e_wo_entrp">   -125.60390077 </i>
   <i name="e_0_energy">   -125.60691948 </i>
  </energy>
  <time name="totalsc">   27.69   27.93</time>
 </calculation>
 <calculation>
  <scstep>
   <time name="dav">    3.24    3.26</time>
   <time name="total">    3.44    3.48</time>
   <energy>
    <i name="alphaZ">     59.72471782 </i>
    <i name="ewald">   1845.94278955 </i>
    <i name="hartreedc">  -3454.47115913 </i>
    <i name="XCdc">    167.54528211 </i>
    <i name="pawpsdc">   5624.42083278 </i>
    <i name="pawaedc">  -5623.72388826 </i>
    <i name="eentropy">     -0.00603596 </i>
    <i name="bandstr">   -490.07107934 </i>
    <i name="atom">   1746.50554237 </i>
    <i name="e_fr_energy">   -124.13299807 </i>
    <i name="e_wo_entrp">   -124.12696211 </i>
    <i name="e_0_energy">   -124.12998009 </i>
   </energy>
  </scstep>
  <scstep>
   <time name="dav">    4.07    4.09</time>
   <time name="total">    4.27    4.31</time>
   <energy>
    <i name="e_fr_energy">   -124.13292640 </i>
    <i name="e_wo_entrp">   -124.12688645 </i>
    <i name="e_0_energy">   -124.12990643 </i>
   </energy>
  </scstep>
  <scstep>
   <time name="dav">    4.71    4.74</time>
   <time name="total">    4.92    4.96</time>
   <energy>
    <i name="e_fr_energy">   -124.13280637 </i>
    <i name="e_wo_entrp">   -124.12676908 </i>
    <i name="e_0_energy">   -124.12978773 </i>
   </energy>
  </scstep>
  <scstep>
   <time name="dav">    5.29    5.32</time>
   <time name="total">    5.49    5.53</time>
   <energy>
    <i name="e_fr_energy">   -124.13280994 </i>
    <i name="e_wo_entrp">   -124.12677392 </i>
    <i name="e_0_energy">   -124.12979193 </i>
   </energy>
  </scstep>
  <scstep>
   <time name="dav">    3.96    3.99</time>
   <time name="total">    3.99    4.02</time>
   <energy>
    <i name="alphaZ">     59.72471782 </i>
    <i name="ewald">   1845.94278955 </i>
    <i name="hartreedc">  -3454.50986514 </i>
    <i name="XCdc">    167.54538364 </i>
    <i name="pawpsdc">   5624.39658557 </i>
    <i name="pawaedc">  -5623.69963647 </i>
    <i name="eentropy">     -0.00603562 </i>
    <i name="bandstr">   -490.03229116 </i>
    <i name="atom">   1746.50554237 </i>
    <i name="e_fr_energy">   -124.13280945 </i>
    <i name="e_wo_entrp">   -124.12677383 </i>
    <i name="e_0_energy">   -124.12979164 </i>
   </energy>
  </scstep>
  <structure>
   <crystal>
    <varray name="basis" >
     <v>       4.33878727       2.50500000       0.00000000 </v>
     <v>      -4.33878727       2.50500000       0.00000000 </v>
     <v>       0.00000000       0.00000000      15.00000000 </v>
    </varray>
    <i name="volume">    326.05986356 </i>
    <varray name="rec_basis" >
     <v>       0.11523957       0.19960080       0.00000000 </v>
     <v>      -0.11523957       0.19960080       0.00000000 </v>
     <v>       0.00000000       0.00000000       0.06666667 </v>
    </varray>
   </crystal>
   <varray name="positions" >
    <v>       0.66940378      -0.00000074       0.10055390 </v>
    <v>       0.33059872       0.00000044       0.10055563 </v>
    <v>       0.00000074       0.33059522       0.10055390 </v>
    <v>      -0.00000044       0.66940028       0.10055563 </v>
    <v>       0.33059916       0.33059862       0.10055590 </v>
    <v>       0.66940038       0.66939984       0.10055590 </v>
    <v>       0.66666537       0.33333363       0.09990666 </v>
    <v>       0.33333222       0.66666678       0.10133412 </v>
    <v>       0.25006266       0.25008710       0.46849956 </v>
    <v>       0.41672780       0.08329604       0.46849074 </v>
    <v>       0.24999681       0.75000219       0.46848482 </v>
    <v>       0.41665972       0.58333928       0.46849448 </v>
    <v>       0.74994068       0.25005832       0.46849678 </v>
    <v>       0.91665722       0.08334178       0.46850503 </v>
    <v>       0.74991190       0.74993634       0.46849956 </v>
    <v>       0.91670296       0.58327120       0.46849074 </v>
   </varray>
  </structure>
  <varray name="forces" >
   <v>      -0.00257833      -0.00161209       0.00855283 </v>
   <v>       0.00249308       0.00113282       0.00853127 </v>
   <v>      -0.00257833       0.00161209       0.00855283 </v>
   <v>       0.00249308      -0.00113282       0.00853127 </v>
   <v>      -0.00010299       0.00253179       0.00851913 </v>
   <v>      -0.00010299      -0.00253179       0.00851913 </v>
   <v>       0.00034890       0.00000000       0.00855103 </v>
   <v>       0.00005580       0.00000000       0.00677678 </v>
   <v>       0.01069301      -0.02746667      -0.00887873 </v>
   <v>      -0.03492539      -0.00416905      -0.00772250 </v>
   <v>       0.00520161       0.00000000      -0.00689139 </v>
   <v>       0.00074699       0.00000000      -0.00827705 </v>
   <v>       0.04074051      -0.00000000      -0.00856405 </v>
   <v>       0.00174743       0.00000000      -0.00959933 </v>
   <v>       0.01069301       0.02746667      -0.00887873 </v>
   <v>      -0.03492539       0.00416905      -0.00772250 </v>
  </varray>
  <varray name="stress" >
   <v>     -25.94459013       0.00000000      -0.00074955 </v>
   <v>       0.00000000     -25.85613516       0.00000000 </v>
   <v>      -0.00074955       0.00000000      -3.62906244 </v>
  </varray>
  <energy>
   <i name="e_fr_energy">   -125.61052613 </i>
   <i name="e_wo_entrp">   -125.60449051 </i>
   <i name="e_0_energy">   -125.60750832 </i>
  </energy>
  <time name="totalsc">   25.22   25.43</time>
 </calculation>
 <calculation>
  <scstep>
   <time name="dav">    3.39    3.42</time>
   <time name="total">    3.59    3.63</time>
   <energy>
    <i name="alphaZ">     59.72471782 </i>
    <i name="ewald">   1861.39212205 </i>
    <i name="hartreedc">  -3469.93452893 </i>
    <i name="XCdc">    167.54539847 </i>
    <i name="pawpsdc">   5624.40771102 </i>
    <i name="pawaedc">  -5623.71076364 </i>
    <i name="eentropy">     -0.00603147 </i>
    <i name="bandstr">   -490.05770238 </i>
    <i name="atom">   1746.50554237 </i>
    <i name="e_fr_energy">   -124.13353470 </i>
    <i name="e_wo_entrp">   -124.12750322 </i>
    <i name="e_0_energy">   -124.13051896 </i>
   </energy>
  </scstep>
  <scstep>
   <time name="dav">    3.75    3.78</time>
   <time name="total">    3.96    3.99</time>
   <energy>
    <i name="e_fr_energy">   -124.13325809 </i>
    <i name="e_wo_entrp">   -124.12721949 </i>
    <i name="e_0_energy">   -124.13023879 </i>
   </energy>
  </scstep>
  <scstep>
   <time name="dav">    3.93    3.95</time>
   <time name="total">    4.13    4.17</time>
   <energy>
    <i name="e_fr_energy">   -124.13278909 </i>
    <i name="e_wo_entrp">   -124.12675438 </i>
    <i name="e_0_energy">   -124.12977174 </i>
   </energy>
  </scstep>
  <scstep>
   <time name="dav">    5.48    5.51</time>
   <time name="total">    5.68    5.73</time>
   <energy>
    <i name="e_fr_energy">   -124.13280064 </i>
    <i name="e_wo_entrp">   -124.12676883 </i>
    <i name="e_0_energy">   -124.12978473 </i>
   </energy>
  </scstep>
  <scstep>
   <time name="dav">    4.21    4.24</time>
   <time name="total">    4.41    4.46</time>
   <energy>
    <i name="e_fr_energy">   -124.13279650 </i>
    <i name="e_wo_entrp">   -124.12676555 </i>
    <i name="e_0_energy">   -124.12978102 </i>
   </energy>
  </scstep>
  <scstep>
   <time name="dav">    4.04    4.07</time>
   <time name="total">    4.26    4.30</time>
   <energy>
    <i name="e_fr_energy">   -124.13279501 </i>
    <i name="e_wo_entrp">   -124.12676402 </i>
    <i name="e_0_energy">   -124.12977951 </i>
   </energy>
  </scstep>
  <scstep>
   <time name="dav">    4.23    4.25</time>
   <time name="total">    4.43    4.47</time>
   <energy>
    <i name="e_fr_energy">   -124.13279687 </i>
    <i name="e_wo_entrp">   -124.12676578 </i>
    <i name="e_0_energy">   -124.12978133 </i>
   </energy>
  </scstep>
  <scstep>
   <time name="dav">    4.06    4.08</time>
   <time name="total">    4.26    4.29</time>
   <energy>
    <i name="e_fr_energy">   -124.13280308 </i>
    <i name="e_wo_entrp">   -124.12677213 </i>
    <i name="e_0_energy">   -124.12978760 </i>
   </energy>
  </scstep>
  <scstep>
   <time name="dav">    4.46    4.48</time>
   <time name="total">    4.66    4.70</time>
   <energy>
    <i name="e_fr_energy">   -124.13280727 </i>
    <i name="e_wo_entrp">   -124.12677640 </i>
    <i name="e_0_energy">   -124.12979183 </i>
   </energy>
  </scstep>
  <scstep>
   <time name="dav">    4.20    4.23</time>
   <time name="total">    4.41    4.45</time>
   <energy>
    <i name="e_fr_energy">   -124.13281238 </i>
    <i name="e_wo_entrp">   -124.12678150 </i>
    <i name="e_0_energy">   -124.12979694 </i>
   </energy>
  </scstep>
  <scstep>
   <time name="dav">    4.07    4.10</time>
   <time name="total">    4.27    4.32</time>
   <energy>
    <i name="e_fr_energy">   -124.13281602 </i>
    <i name="e_wo_entrp">   -124.12678508 </i>
    <i name="e_0_energy">   -124.12980055 </i>
   </energy>
  </scstep>
  <scstep>
   <time name="dav">    5.09    5.12</time>
   <time name="total">    5.12    5.15</time>
   <energy>
    <i name="alphaZ">     59.72471782 </i>
    <i name="ewald">   1861.39212205 </i>
    <i name="hartreedc">  -3469.90022033 </i>
    <i name="XCdc">    167.54514910 </i>
    <i name="pawpsdc">   5624.42127268 </i>
    <i name="pawaedc">  -5623.72433164 </i>
    <i name="eentropy">     -0.00603096 </i>
    <i name="bandstr">   -490.09103769 </i>
    <i name="atom">   1746.50554237 </i>
    <i name="e_fr_energy">   -124.13281660 </i>
    <i name="e_wo_entrp">   -124.12678564 </i>
    <i name="e_0_energy">   -124.12980112 </i>
   </energy>
  </scstep>
  <structure>
   <crystal>
    <varray name="basis" >
     <v>       4.33878727       2.50500000       0.00000000 </v>
     <v>      -4.33878727       2.50500000       0.00000000 </v>
     <v>       0.00000000       0.00000000      15.00000000 </v>
    </varray>
    <i name="volume">    326.05986356 </i>
    <varray name="rec_basis" >
     <v>       0.11523957       0.19960080       0.00000000 </v>
     <v>      -0.11523957       0.19960080       0.00000000 </v>
     <v>       0.00000000       0.00000000       0.06666667 </v>
    </varray>
   </crystal>
   <varray name="positions" >
    <v>       0.66940875      -0.00000145       0.10114233 </v>
    <v>       0.33059748       0.00000102       0.10114590 </v>
    <v>       0.00000145       0.33059025       0.10114233 </v>
    <v>      -0.00000102       0.66940152       0.10114590 </v>
    <v>       0.33059860       0.33059749       0.10114645 </v>
    <v>       0.66940151       0.66940040       0.10114645 </v>
    <v>       0.66666464       0.33333436       0.10063502 </v>
    <v>       0.33333164       0.66666736       0.10192338 </v>
    <v>       0.25013427       0.25018532       0.46789712 </v>
    <v>       0.41679685       0.08325517       0.46787901 </v>
    <v>       0.24999430       0.75000470       0.46786689 </v>
    <v>       0.41665206       0.58334694       0.46788668 </v>
    <v>       0.74987497       0.25012403       0.46789142 </v>
    <v>       0.91664666       0.08335234       0.46790833 </v>
    <v>       0.74981368       0.74986473       0.46789712 </v>
    <v>       0.91674383       0.58320215       0.46787901 </v>
   </varray>
  </structure>
  <varray name="forces" >
   <v>      -0.00321324      -0.00206912       0.00954667 </v>
   <v>       0.00298414       0.00111690       0.00947591 </v>
   <v>      -0.00321324       0.00206912       0.00954667 </v>
   <v>       0.00298414      -0.00111690       0.00947591 </v>
   <v>      -0.00018239       0.00273316       0.00944584 </v>
   <v>      -0.00018239      -0.00273316       0.00944584 </v>
   <v>       0.00073421      -0.00000000       0.00720237 </v>
   <v>       0.00011633      -0.00000000       0.00558621 </v>
   <v>       0.02242497      -0.05793311      -0.00995566 </v>
   <v>      -0.07347847      -0.00885614      -0.00740444 </v>
   <v>       0.01084454      -0.00000000      -0.00558034 </v>
   <v>       0.00163539      -0.00000000      -0.00862256 </v>
   <v>       0.08575914       0.00000000      -0.00925371 </v>
   <v>       0.00384037      -0.00000000      -0.01154862 </v>
   <v>       0.02242497       0.05793311      -0.00995566 </v>
   <v>      -0.07347847       0.00885614      -0.00740444 </v>
  </varray>
  <varray name="stress" >
   <v>     -25.99381643       0.00000000      -0.00068714 </v>
   <v>       0.00000000     -25.81058228       0.00000000 </v>
   <v>      -0.00068713       0.00000000      -3.64308063 </v>
  </varray>
  <energy>
   <i name="e_fr_energy">   -125.61166308 </i>
   <i name="e_wo_entrp">   -125.60563212 </i>
   <i name="e_0_energy">   -125.60864760 </i>
  </energy>
  <time name="totalsc">   56.28   56.77</time>
 </calculation>
 <calculation>
  <scstep>
   <time name="dav">    3.26    3.28</time>
   <time name="total">    3.46    3.49</time>
   <energy>
    <i name="alphaZ">     59.72471782 </i>
    <i name="ewald">   1892.71348615 </i>
    <i name="hartreedc">  -3501.15851003 </i>
    <i name="XCdc">    167.54491447 </i>
    <i name="pawpsdc">   5624.43054604 </i>
    <i name="pawaedc">  -5623.73360663 </i>
    <i name="eentropy">     -0.00601775 </i>
    <i name="bandstr">   -490.15649048 </i>
    <i name="atom">   1746.50554237 </i>
    <i name="e_fr_energy">   -124.13541803 </i>
    <i name="e_wo_entrp">   -124.12940028 </i>
    <i name="e_0_energy">   -124.13240916 </i>
   </energy>
  </scstep>
  <scstep>
   <time name="dav">    3.54    3.56</time>
   <time name="total">    3.75    3.79</time>
   <energy>
    <i name="e_fr_energy">   -124.13434784 </i>
[...]
    <i name="pawaedc">  -5601.86948587 </i>
    <i name="eentropy">     -0.00574957 </i>
    <i name="bandstr">   -490.78527278 </i>
    <i name="atom">   1746.50554237 </i>
    <i name="e_fr_energy">   -124.02427100 </i>
    <i name="e_wo_entrp">   -124.01852143 </i>
    <i name="e_0_energy">   -124.02139622 </i>
   </energy>
  </scstep>
  <structure>
   <crystal>
    <varray name="basis" >
     <v>       4.33878727       2.50500000       0.00000000 </v>
     <v>      -4.33878727       2.50500000       0.00000000 </v>
     <v>       0.00000000       0.00000000      15.00000000 </v>
    </varray>
    <i name="volume">    326.05986356 </i>
    <varray name="rec_basis" >
     <v>       0.11523957       0.19960080       0.00000000 </v>
     <v>      -0.11523957       0.19960080       0.00000000 </v>
     <v>       0.00000000       0.00000000       0.06666667 </v>
    </varray>
   </crystal>
   <varray name="positions" >
    <v>       0.66972609      -0.00005306       0.15926256 </v>
    <v>       0.33058243       0.00003897       0.15944405 </v>
    <v>       0.00005306       0.33027291       0.15926256 </v>
    <v>      -0.00003897       0.66941657       0.15944405 </v>
    <v>       0.33063029       0.33055464       0.15947154 </v>
    <v>       0.66944436       0.66936871       0.15947154 </v>
    <v>       0.66663321       0.33336579       0.17242906 </v>
    <v>       0.33328028       0.66671872       0.15999975 </v>
    <v>       0.25288918       0.25311137       0.40838743 </v>
    <v>       0.41867780       0.08235588       0.40753840 </v>
    <v>       0.25035663       0.74964237       0.40697259 </v>
    <v>       0.41595342       0.58404558       0.40789265 </v>
    <v>       0.74812645       0.25187255       0.40811894 </v>
    <v>       0.91581467       0.08418433       0.40891240 </v>
    <v>       0.74688763       0.74710982       0.40838743 </v>
    <v>       0.91764312       0.58132120       0.40753840 </v>
   </varray>
  </structure>
  <varray name="forces" >
   <v>      -0.16691839       0.02122860       0.07562220 </v>
   <v>       0.05382300       0.14426785       0.07325040 </v>
   <v>      -0.16691839      -0.02122860       0.07562220 </v>
   <v>       0.05382300      -0.14426785       0.07325040 </v>
   <v>       0.12327759       0.09324264       0.08361339 </v>
   <v>       0.12327759      -0.09324264       0.08361339 </v>
   <v>       0.00316386      -0.00000000      -0.21219843 </v>
   <v>      -0.01340765      -0.00000000      -0.13252386 </v>
   <v>       0.12131355      -1.06381790      -0.08059203 </v>
   <v>      -1.04318906      -0.19152891       0.05748915 </v>
   <v>      -0.15952222      -0.00000000       0.13094248 </v>
   <v>       0.35356141      -0.00000000      -0.00425452 </v>
   <v>       1.24799691      -0.00000000      -0.02965697 </v>
   <v>       0.39159431      -0.00000000      -0.17107492 </v>
   <v>       0.12131355       1.06381790      -0.08059203 </v>
   <v>      -1.04318906       0.19152891       0.05748915 </v>
  </varray>
  <varray name="stress" >
   <v>     -29.58362715       0.00000000      -0.05151496 </v>
   <v>       0.00000000     -27.00228404       0.00000000 </v>
   <v>      -0.05151492       0.00000000      -4.03219420 </v>
  </varray>
  <energy>
   <i name="e_fr_energy">   -125.80393045 </i>
   <i name="e_wo_entrp">   -125.79818088 </i>
   <i name="e_0_energy">   -125.80105567 </i>
  </energy>
  <time name="totalsc">   82.78   83.45</time>
 </calculation>
 <calculation>
  <scstep>
   <time name="dav">    3.24    3.26</time>
   <time name="total">    3.45    3.48</time>
   <energy>
    <i name="alphaZ">     59.72471782 </i>
    <i name="ewald">   4327.55898218 </i>
    <i name="hartreedc">  -5934.15107219 </i>
    <i name="XCdc">    167.70663016 </i>
    <i name="pawpsdc">   5602.56860786 </i>
    <i name="pawaedc">  -5601.86548520 </i>
    <i name="eentropy">     -0.00552333 </i>
    <i name="bandstr">   -492.05608016 </i>
    <i name="atom">   1746.50554237 </i>
    <i name="e_fr_energy">   -124.01368049 </i>
    <i name="e_wo_entrp">   -124.00815716 </i>
    <i name="e_0_energy">   -124.01091882 </i>
   </energy>
  </scstep>
  <scstep>
   <time name="dav">    4.29    4.32</time>
   <time name="total">    4.49    4.54</time>
   <energy>
    <i name="e_fr_energy">   -124.00463127 </i>
    <i name="e_wo_entrp">   -123.99881949 </i>
    <i name="e_0_energy">   -124.00172538 </i>
   </energy>
  </scstep>
  <scstep>
   <time name="dav">    6.14    6.18</time>
   <time name="total">    6.35    6.39</time>
   <energy>
    <i name="e_fr_energy">   -123.97359369 </i>
    <i name="e_wo_entrp">   -123.96770547 </i>
    <i name="e_0_energy">   -123.97064958 </i>
   </energy>
  </scstep>
  <scstep>
   <time name="dav">    5.96    5.99</time>
   <time name="total">    6.16    6.22</time>
   <energy>
    <i name="e_fr_energy">   -123.97381764 </i>
    <i name="e_wo_entrp">   -123.96799686 </i>
    <i name="e_0_energy">   -123.97090725 </i>
   </energy>
  </scstep>
  <scstep>
   <time name="dav">    6.50    6.54</time>
   <time name="total">    6.70    6.75</time>
   <energy>
    <i name="e_fr_energy">   -123.97341172 </i>
    <i name="e_wo_entrp">   -123.96761209 </i>
    <i name="e_0_energy">   -123.97051191 </i>
   </energy>
  </scstep>
  <scstep>
   <time name="dav">    4.50    4.53</time>
   <time name="total">    4.70    4.74</time>
   <energy>
    <i name="e_fr_energy">   -123.97336497 </i>
    <i name="e_wo_entrp">   -123.96756801 </i>
    <i name="e_0_energy">   -123.97046649 </i>
   </energy>
  </scstep>
  <scstep>
   <time name="dav">    4.89    4.92</time>
   <time name="total">    5.09    5.13</time>
   <energy>
    <i name="e_fr_energy">   -123.97342182 </i>
    <i name="e_wo_entrp">   -123.96762774 </i>
    <i name="e_0_energy">   -123.97052478 </i>
   </energy>
  </scstep>
  <scstep>
   <time name="dav">    4.66    4.69</time>
   <time name="total">    4.86    4.90</time>
   <energy>
    <i name="e_fr_energy">   -123.97347373 </i>
    <i name="e_wo_entrp">   -123.96768259 </i>
    <i name="e_0_energy">   -123.97057816 </i>
   </energy>
  </scstep>
  <scstep>
   <time name="dav">    5.16    5.19</time>
   <time name="total">    5.36    5.40</time>
   <energy>
    <i name="e_fr_energy">   -123.97351596 </i>
    <i name="e_wo_entrp">   -123.96772534 </i>
    <i name="e_0_energy">   -123.97062065 </i>
   </energy>
  </scstep>
  <scstep>
   <time name="dav">    5.05    5.07</time>
   <time name="total">    5.25    5.30</time>
   <energy>
    <i name="e_fr_energy">   -123.97353621 </i>
    <i name="e_wo_entrp">   -123.96774550 </i>
    <i name="e_0_energy">   -123.97064085 </i>
   </energy>
  </scstep>
  <scstep>
   <time name="dav">    5.21    5.24</time>
   <time name="total">    5.41    5.46</time>
   <energy>
    <i name="e_fr_energy">   -123.97355039 </i>
    <i name="e_wo_entrp">   -123.96775953 </i>
    <i name="e_0_energy">   -123.97065496 </i>
   </energy>
  </scstep>
  <scstep>
   <time name="dav">    5.62    5.65</time>
   <time name="total">    5.83    5.87</time>
   <energy>
    <i name="e_fr_energy">   -123.97355531 </i>
    <i name="e_wo_entrp">   -123.96776435 </i>
    <i name="e_0_energy">   -123.97065983 </i>
   </energy>
  </scstep>
  <scstep>
   <time name="dav">    5.69    5.72</time>
   <time name="total">    5.89    5.93</time>
   <energy>
    <i name="e_fr_energy">   -123.97355694 </i>
    <i name="e_wo_entrp">   -123.96776589 </i>
    <i name="e_0_energy">   -123.97066142 </i>
   </energy>
  </scstep>
  <scstep>
   <time name="dav">    5.34    5.37</time>
   <time name="total">    5.54    5.59</time>
   <energy>
    <i name="e_fr_energy">   -123.97355805 </i>
    <i name="e_wo_entrp">   -123.96776693 </i>
    <i name="e_0_energy">   -123.97066249 </i>
   </energy>
  </scstep>
  <scstep>
   <time name="dav">    6.16    6.20</time>
   <time name="total">    6.19    6.24</time>
   <energy>
    <i name="alphaZ">     59.72471782 </i>
    <i name="ewald">   4327.55898218 </i>
    <i name="hartreedc">  -5934.77587174 </i>
    <i name="XCdc">    167.66189207 </i>
    <i name="pawpsdc">   5599.26867039 </i>
    <i name="pawaedc">  -5598.56467764 </i>
    <i name="eentropy">     -0.00579112 </i>
    <i name="bandstr">   -491.34702266 </i>
    <i name="atom">   1746.50554237 </i>
    <i name="e_fr_energy">   -123.97355832 </i>
    <i name="e_wo_entrp">   -123.96776720 </i>
    <i name="e_0_energy">   -123.97066276 </i>
   </energy>
  </scstep>
  <structure>
   <crystal>
    <varray name="basis" >
     <v>       4.33878727       2.50500000       0.00000000 </v>
     <v>      -4.33878727       2.50500000       0.00000000 </v>
     <v>       0.00000000       0.00000000      15.00000000 </v>
    </varray>
    <i name="volume">    326.05986356 </i>
    <varray name="rec_basis" >
     <v>       0.11523957       0.19960080       0.00000000 </v>
     <v>      -0.11523957       0.19960080       0.00000000 </v>
     <v>       0.00000000       0.00000000       0.06666667 </v>
    </varray>
   </crystal>
   <varray name="positions" >
    <v>       0.66975040      -0.00005715       0.16415664 </v>
    <v>       0.33058266       0.00004190       0.16435306 </v>
    <v>       0.00005715       0.33024860       0.16415664 </v>
    <v>      -0.00004190       0.66941634       0.16435306 </v>
    <v>       0.33063417       0.33055198       0.16438281 </v>
    <v>       0.66944702       0.66936483       0.16438281 </v>
    <v>       0.66663113       0.33336787       0.17847251 </v>
    <v>       0.33327604       0.66672296       0.16488838 </v>
    <v>       0.25306111       0.25326354       0.40337627 </v>
    <v>       0.41876751       0.08232379       0.40245848 </v>
    <v>       0.25039561       0.74960339       0.40184687 </v>
    <v>       0.41589539       0.58410361       0.40284132 </v>
    <v>       0.74804516       0.25195384       0.40308601 </v>
    <v>       0.91574754       0.08425146       0.40394375 </v>
    <v>       0.74673546       0.74693789       0.40337627 </v>
    <v>       0.91767521       0.58123149       0.40245848 </v>
   </varray>
  </structure>
  <varray name="forces" >
   <v>      -0.19435839       0.02041696       0.06481765 </v>
   <v>       0.07068882       0.17428799       0.06350410 </v>
   <v>      -0.19435839      -0.02041696       0.06481765 </v>
   <v>       0.07068882      -0.17428799       0.06350410 </v>
   <v>       0.15121918       0.11381644       0.08325943 </v>
   <v>       0.15121918      -0.11381644       0.08325943 </v>
   <v>      -0.00951608       0.00000000      -0.25798797 </v>
   <v>      -0.02878570       0.00000000      -0.16318769 </v>
   <v>       0.11375448      -1.11790114      -0.07376398 </v>
   <v>      -1.08723089      -0.20299568       0.08232486 </v>
   <v>      -0.18553140       0.00000000       0.15392321 </v>
   <v>       0.39064561       0.00000000       0.01444421 </v>
   <v>       1.29920846      -0.00000000      -0.01102600 </v>
   <v>       0.42583269       0.00000000      -0.17644989 </v>
   <v>       0.11375448       1.11790114      -0.07376398 </v>
   <v>      -1.08723089       0.20299568       0.08232486 </v>
  </varray>
  <varray name="stress" >
   <v>     -30.28651059       0.00000000      -0.15695986 </v>
   <v>       0.00000000     -27.63819034       0.00000000 </v>
   <v>      -0.15695987       0.00000000      -1.92863553 </v>
  </varray>
  <energy>
   <i name="e_fr_energy">   -125.80518018 </i>
   <i name="e_wo_entrp">   -125.79938907 </i>
   <i name="e_0_energy">   -125.80228463 </i>
  </energy>
  <time name="totalsc">   84.36   85.06</time>
 </calculation>
 <calculation>
  <scstep>
   <time name="dav">    4.88    4.91</time>
   <time name="total">    5.08    5.12</time>
   <energy>
    <i name="alphaZ">     59.72471782 </i>
    <i name="ewald">   2092.47719871 </i>
    <i name="hartreedc">  -3602.01906787 </i>
    <i name="XCdc">    165.83401115 </i>
    <i name="pawpsdc">   5599.26457958 </i>
    <i name="pawaedc">  -5598.56059029 </i>
    <i name="eentropy">     -0.00290287 </i>
    <i name="bandstr">   -582.46528746 </i>
    <i name="atom">   1746.50554237 </i>
    <i name="e_fr_energy">   -119.24179887 </i>
    <i name="e_wo_entrp">   -119.23889600 </i>
    <i name="e_0_energy">   -119.24034743 </i>
   </energy>
  </scstep>
  <scstep>
   <time name="dav">    3.84    3.86</time>
   <time name="total">    4.04    4.08</time>
   <energy>
    <i name="e_fr_energy">   -127.78166990 </i>
    <i name="e_wo_entrp">   -127.77628552 </i>
    <i name="e_0_energy">   -127.77897771 </i>
   </energy>
  </scstep>
  <scstep>
   <time name="dav">    6.36    6.40</time>
   <time name="total">    6.57    6.61</time>
   <energy>
    <i name="e_fr_energy">   -125.13095215 </i>
    <i name="e_wo_entrp">   -125.12612419 </i>
    <i name="e_0_energy">   -125.12853817 </i>
   </energy>
  </scstep>
  <scstep>
   <time name="dav">    5.44    5.47</time>
   <time name="total">    5.64    5.69</time>
   <energy>
    <i name="e_fr_energy">   -124.10547973 </i>
    <i name="e_wo_entrp">   -124.09995996 </i>
    <i name="e_0_energy">   -124.10271985 </i>
   </energy>
  </scstep>
  <scstep>
   <time name="dav">    4.78    4.82</time>
   <time name="total">    4.99    5.03</time>
   <energy>
    <i name="e_fr_energy">   -124.11390982 </i>
    <i name="e_wo_entrp">   -124.10836736 </i>
    <i name="e_0_energy">   -124.11113859 </i>
   </energy>
  </scstep>
  <scstep>
   <time name="dav">    5.99    6.02</time>
   <time name="total">    6.19    6.24</time>
   <energy>
    <i name="e_fr_energy">   -124.12188595 </i>
    <i name="e_wo_entrp">   -124.11618507 </i>
    <i name="e_0_energy">   -124.11903551 </i>
   </energy>
  </scstep>
  <scstep>
   <time name="dav">    5.13    5.16</time>
   <time name="total">    5.33    5.38</time>
   <energy>
    <i name="e_fr_energy">   -124.12142950 </i>
    <i name="e_wo_entrp">   -124.11565637 </i>
    <i name="e_0_energy">   -124.11854294 </i>
   </energy>
  </scstep>
  <scstep>
   <time name="dav">    5.14    5.18</time>
   <time name="total">    5.35    5.39</time>
   <energy>
    <i name="e_fr_energy">   -124.12119135 </i>
    <i name="e_wo_entrp">   -124.11535501 </i>
    <i name="e_0_energy">   -124.11827318 </i>
   </energy>
  </scstep>
  <scstep>
   <time name="dav">    3.79    3.81</time>
   <time name="total">    3.99    4.02</time>
   <energy>
    <i name="e_fr_energy">   -124.12167453 </i>
    <i name="e_wo_entrp">   -124.11583926 </i>
    <i name="e_0_energy">   -124.11875689 </i>
   </energy>
  </scstep>
  <scstep>
   <time name="dav">    4.32    4.35</time>
   <time name="total">    4.52    4.56</time>
   <energy>
    <i name="e_fr_energy">   -124.12232995 </i>
    <i name="e_wo_entrp">   -124.11650431 </i>
    <i name="e_0_energy">   -124.11941713 </i>
   </energy>
  </scstep>
  <scstep>
   <time name="dav">    4.90    4.93</time>
   <time name="total">    5.10    5.14</time>
   <energy>
    <i name="e_fr_energy">   -124.12258269 </i>
    <i name="e_wo_entrp">   -124.11676172 </i>
    <i name="e_0_energy">   -124.11967221 </i>
   </energy>
  </scstep>
  <scstep>
   <time name="dav">    4.50    4.53</time>
   <time name="total">    4.71    4.75</time>
   <energy>
    <i name="e_fr_energy">   -124.12280396 </i>
    <i name="e_wo_entrp">   -124.11698450 </i>
    <i name="e_0_energy">   -124.11989423 </i>
   </energy>
  </scstep>
  <scstep>
   <time name="dav">    5.46    5.48</time>
   <time name="total">    5.66    5.70</time>
   <energy>
    <i name="e_fr_energy">   -124.12282230 </i>
    <i name="e_wo_entrp">   -124.11700069 </i>
    <i name="e_0_energy">   -124.11991150 </i>
   </energy>
  </scstep>
  <scstep>
   <time name="dav">    4.59    4.62</time>
   <time name="total">    4.79    4.83</time>
   <energy>
    <i name="e_fr_energy">   -124.12283023 </i>
    <i name="e_wo_entrp">   -124.11700853 </i>
    <i name="e_0_energy">   -124.11991938 </i>
   </energy>
  </scstep>
  <scstep>
   <time name="dav">    4.59    4.63</time>
   <time name="total">    4.80    4.85</time>
   <energy>
    <i name="e_fr_energy">   -124.12283396 </i>
    <i name="e_wo_entrp">   -124.11701291 </i>
    <i name="e_0_energy">   -124.11992344 </i>
   </energy>
  </scstep>
  <scstep>
   <time name="dav">    4.81    4.84</time>
   <time name="total">    4.84    4.87</time>
   <energy>
    <i name="alphaZ">     59.72471782 </i>
    <i name="ewald">   2092.47719871 </i>
    <i name="hartreedc">  -3700.89029578 </i>
    <i name="XCdc">    167.54458107 </i>
    <i name="pawpsdc">   5624.27675939 </i>
    <i name="pawaedc">  -5623.57991320 </i>
    <i name="eentropy">     -0.00582065 </i>
    <i name="bandstr">   -490.17560462 </i>
    <i name="atom">   1746.50554237 </i>
    <i name="e_fr_energy">   -124.12283490 </i>
    <i name="e_wo_entrp">   -124.11701425 </i>
    <i name="e_0_energy">   -124.11992457 </i>
   </energy>
  </scstep>
  <structure>
   <crystal>
    <varray name="basis" >
     <v>       4.33878727       2.50500000       0.00000000 </v>
     <v>      -4.33878727       2.50500000       0.00000000 </v>
     <v>       0.00000000       0.00000000      15.00000000 </v>
    </varray>
    <i name="volume">    326.05986356 </i>
    <varray name="rec_basis" >
     <v>       0.11523957       0.19960080       0.00000000 </v>
     <v>      -0.11523957       0.19960080       0.00000000 </v>
     <v>       0.00000000       0.00000000       0.06666667 </v>
    </varray>
   </crystal>
   <varray name="positions" >
    <v>       0.66947832      -0.00001140       0.10938038 </v>
    <v>       0.33058010       0.00000912       0.10940965 </v>
    <v>       0.00001140       0.33052068       0.10938038 </v>
    <v>      -0.00000912       0.66941890       0.10940965 </v>
    <v>       0.33059079       0.33058177       0.10941415 </v>
    <v>       0.66941723       0.66940821       0.10941415 </v>
    <v>       0.66665445       0.33334455       0.11083210 </v>
    <v>       0.33332348       0.66667552       0.11017304 </v>
    <v>       0.25113691       0.25156038       0.45946294 </v>
    <v>       0.41776349       0.08268295       0.45931483 </v>
    <v>       0.24995926       0.75003974       0.45921573 </v>
    <v>       0.41654481       0.58345419       0.45937756 </v>
    <v>       0.74895503       0.25104397       0.45941634 </v>
    <v>       0.91649885       0.08350015       0.45955464 </v>
    <v>       0.74843862       0.74886209       0.45946294 </v>
    <v>       0.91731605       0.58223551       0.45931483 </v>
   </varray>
  </structure>
  <varray name="forces" >
   <v>      -0.01450900      -0.00675535       0.02000585 </v>
   <v>       0.00959041       0.00386679       0.01918452 </v>
   <v>      -0.01450900       0.00675535       0.02000585 </v>
   <v>       0.00959041      -0.00386679       0.01918452 </v>
   <v>       0.00142755       0.00676936       0.01894655 </v>
   <v>       0.00142755      -0.00676936       0.01894655 </v>
   <v>       0.00613101      -0.00000000      -0.01387975 </v>
   <v>       0.00093065      -0.00000000      -0.01295557 </v>
   <v>       0.18605268      -0.48485907      -0.02200132 </v>
   <v>      -0.61152586      -0.07870788       0.00030663 </v>
   <v>       0.09242087      -0.00000000       0.01581003 </v>
   <v>       0.00864711      -0.00000000      -0.01053752 </v>
   <v>       0.71802350      -0.00000000      -0.01534062 </v>
   <v>       0.03177529      -0.00000000      -0.03598103 </v>
   <v>       0.18605268       0.48485907      -0.02200132 </v>
   <v>      -0.61152586       0.07870788       0.00030663 </v>
  </varray>
  <varray name="stress" >
   <v>     -26.67226526       0.00000000       0.00851720 </v>
   <v>       0.00000000     -25.05806275       0.00000000 </v>
   <v>       0.00851719       0.00000000      -4.02041284 </v>
  </varray>
  <energy>
   <i name="e_fr_energy">   -125.61980946 </i>
   <i name="e_wo_entrp">   -125.61398881 </i>
   <i name="e_0_energy">   -125.61689913 </i>
  </energy>
