Lattice                                 
           1
     4.338788    2.505000    0.000000
    -4.338788    2.505000    0.000000
     0.000000    0.000000   15.000000
   B    C 
     8     8
Direct configuration=     1
   0.66888689  0.00000000  0.10000000
   0.33111211  0.00000000  0.10000000
   0.00000000  0.33111211  0.10000000
   0.00000000  0.66888689  0.10000000
   0.33111211  0.33111211  0.10000000
   0.66888689  0.66888689  0.10000000
   0.66666600  0.33333300  0.09922189
   0.33333300  0.66666600  0.10077811
   0.24999933  0.24999967  0.46906667
   0.41666633  0.08333267  0.46906667
   0.24999933  0.74999967  0.46906667
   0.41666633  0.58333267  0.46906667
   0.74999933  0.24999967  0.46906667
   0.91666633  0.08333267  0.46906667
   0.74999933  0.74999967  0.46906667
   0.91666633  0.58333267  0.46906667
Direct configuration=     2
   0.66981195 -0.00000016  0.10002619
   0.33018720 -0.00000017  0.10002628
   0.00000016  0.33018705  0.10002619
   0.00000017  0.66981180  0.10002628
   0.33018687  0.33018682  0.10002629
   0.66981218  0.66981213  0.10002629
   0.66666607  0.33333293  0.09925277
   0.33333255  0.66666645  0.10080672
   0.24999513  0.24999497  0.46903981
   0.41666304  0.08333419  0.46903926
   0.24999891  0.75000009  0.46903887
   0.41666707  0.58333193  0.46903951
   0.75000218  0.24999682  0.46903964
   0.91666735  0.08333165  0.46904017
   0.75000403  0.75000387  0.46903981
   0.91666481  0.58333596  0.46903926
Direct configuration=     3
   0.66939698 -0.00000009  0.10001444
   0.33060210 -0.00000009  0.10001449
   0.00000009  0.33060202  0.10001444
   0.00000009  0.66939690  0.10001449
   0.33060192  0.33060190  0.10001450
   0.66939710  0.66939708  0.10001450
   0.66666604  0.33333296  0.09923892
   0.33333275  0.66666625  0.10079389
   0.24999702  0.24999708  0.46905186
   0.41666452  0.08333351  0.46905156
   0.24999910  0.74999990  0.46905134
   0.41666674  0.58333226  0.46905169
   0.75000090  0.24999810  0.46905176
   0.91666689  0.08333211  0.46905206
   0.75000192  0.75000198  0.46905186
   0.91666549  0.58333448  0.46905156
Direct configuration=     4
   0.66939921 -0.00000009  0.10001450
   0.33059987 -0.00000009  0.10001455
   0.00000009  0.33059979  0.10001450
   0.00000009  0.66939913  0.10001455
   0.33059968  0.33059966  0.10001456
   0.66939934  0.66939932  0.10001456
   0.66666604  0.33333296  0.09923899
   0.33333275  0.66666625  0.10079396
   0.24999701  0.24999707  0.46905179
   0.41666451  0.08333351  0.46905149
   0.24999910  0.74999990  0.46905127
   0.41666674  0.58333226  0.46905162
   0.75000091  0.24999809  0.46905170
   0.91666690  0.08333210  0.46905199
   0.75000193  0.75000199  0.46905179
   0.91666549  0.58333449  0.46905149
Direct configuration=     5
   0.66939942 -0.00000012  0.10003902
   0.33059982 -0.00000007  0.10003915
   0.00000012  0.33059958  0.10003902
   0.00000007  0.66939918  0.10003915
   0.33059966  0.33059961  0.10003917
   0.66939939  0.66939934  0.10003917
   0.66666601  0.33333299  0.09926934
   0.33333273  0.66666627  0.10081851
   0.24999999  0.25000116  0.46902669
   0.41666738  0.08333181  0.46902600
   0.24999900  0.75000000  0.46902552
   0.41666642  0.58333258  0.46902630
   0.74999817  0.25000083  0.46902647
   0.91666646  0.08333254  0.46902713
   0.74999784  0.74999901  0.46902669
   0.91666719  0.58333162  0.46902600
