Lattice                                 
           1
     4.338787    2.505000    0.000000
    -4.338787    2.505000    0.000000
     0.000000    0.000000   15.000000
   B    C 
     8     8
Direct configuration=     1
   0.66888689  0.00000000  0.10000000
   0.33111211  0.00000000  0.10000000
   0.00000000  0.33111211  0.10000000
   0.00000000  0.66888689  0.10000000
   0.33111211  0.33111211  0.10000000
   0.66888689  0.66888689  0.10000000
   0.66666600  0.33333300  0.09922189
   0.33333300  0.66666600  0.10077811
   0.24999933  0.24999967  0.46906667
   0.41666633  0.08333267  0.46906667
   0.24999933  0.74999967  0.46906667
   0.41666633  0.58333267  0.46906667
   0.74999933  0.24999967  0.46906667
   0.91666633  0.08333267  0.46906667
   0.74999933  0.74999967  0.46906667
   0.91666633  0.58333267  0.46906667
Direct configuration=     2
   0.66981197 -0.00000016  0.10002619
   0.33018718 -0.00000017  0.10002628
   0.00000016  0.33018703  0.10002619
   0.00000017  0.66981182  0.10002628
   0.33018685  0.33018680  0.10002629
   0.66981220  0.66981215  0.10002629
   0.66666607  0.33333293  0.09925277
   0.33333255  0.66666645  0.10080672
   0.24999513  0.24999497  0.46903981
   0.41666304  0.08333419  0.46903926
   0.24999891  0.75000009  0.46903887
   0.41666707  0.58333193  0.46903951
   0.75000218  0.24999682  0.46903964
   0.91666735  0.08333165  0.46904017
   0.75000403  0.75000387  0.46903981
   0.91666481  0.58333596  0.46903926
Direct configuration=     3
   0.66939699 -0.00000009  0.10001444
   0.33060209 -0.00000009  0.10001449
   0.00000009  0.33060201  0.10001444
   0.00000009  0.66939691  0.10001449
   0.33060191  0.33060188  0.10001450
   0.66939712  0.66939709  0.10001450
   0.66666604  0.33333296  0.09923892
   0.33333275  0.66666625  0.10079389
   0.24999702  0.24999708  0.46905186
   0.41666452  0.08333351  0.46905156
   0.24999910  0.74999990  0.46905134
   0.41666674  0.58333226  0.46905169
   0.75000090  0.24999810  0.46905176
   0.91666689  0.08333211  0.46905206
   0.75000192  0.75000198  0.46905186
   0.91666549  0.58333448  0.46905156
Direct configuration=     4
   0.66939923 -0.00000009  0.10001450
   0.33059986 -0.00000009  0.10001455
   0.00000009  0.33059977  0.10001450
   0.00000009  0.66939914  0.10001455
   0.33059967  0.33059965  0.10001456
   0.66939935  0.66939933  0.10001456
   0.66666604  0.33333296  0.09923899
   0.33333275  0.66666625  0.10079396
   0.24999701  0.24999707  0.46905179
   0.41666451  0.08333351  0.46905149
   0.24999910  0.74999990  0.46905127
   0.41666674  0.58333226  0.46905162
   0.75000091  0.24999809  0.46905170
   0.91666690  0.08333210  0.46905199
   0.75000193  0.75000199  0.46905179
   0.91666549  0.58333449  0.46905149
Direct configuration=     5
   0.66939943 -0.00000012  0.10003902
   0.33059980 -0.00000007  0.10003915
   0.00000012  0.33059957  0.10003902
   0.00000007  0.66939920  0.10003915
   0.33059965  0.33059960  0.10003917
   0.66939940  0.66939935  0.10003917
   0.66666601  0.33333299  0.09926934
   0.33333273  0.66666627  0.10081851
   0.24999999  0.25000116  0.46902669
   0.41666738  0.08333181  0.46902600
   0.24999900  0.75000000  0.46902552
   0.41666642  0.58333258  0.46902630
   0.74999817  0.25000083  0.46902647
   0.91666646  0.08333254  0.46902713
   0.74999784  0.74999901  0.46902669
   0.91666719  0.58333162  0.46902600
Direct configuration=     6
   0.66940005 -0.00000020  0.10011258
   0.33059965  0.00000000  0.10011293
   0.00000020  0.33059895  0.10011258
  -0.00000000  0.66939935  0.10011293
   0.33059958  0.33059946  0.10011298
   0.66939954  0.66939942  0.10011298
   0.66666592  0.33333308  0.09936039
   0.33333266  0.66666634  0.10089217
   0.25000894  0.25001344  0.46895139
   0.41667602  0.08332670  0.46894953
   0.24999868  0.75000032  0.46894828
   0.41666547  0.58333353  0.46895032
   0.74998996  0.25000904  0.46895080
   0.91666514  0.08333386  0.46895254
   0.74998556  0.74999006  0.46895139
   0.91667230  0.58332298  0.46894953
Direct configuration=     7
   0.66940130 -0.00000038  0.10025968
   0.33059934  0.00000015  0.10026050
   0.00000038  0.33059770  0.10025968
  -0.00000015  0.66939966  0.10026050
   0.33059944  0.33059918  0.10026062
   0.66939982  0.66939956  0.10026062
   0.66666574  0.33333326  0.09954248
   0.33333251  0.66666649  0.10103948
   0.25002685  0.25003799  0.46880078
   0.41669328  0.08331648  0.46879660
   0.24999806  0.75000094  0.46879379
   0.41666355  0.58333545  0.46879838
   0.74997353  0.25002547  0.46879946
   0.91666250  0.08333650  0.46880337
   0.74996101  0.74997215  0.46880078
   0.91668252  0.58330572  0.46879660
Direct configuration=     8
   0.66940378 -0.00000074  0.10055390
   0.33059872  0.00000044  0.10055563
   0.00000074  0.33059522  0.10055390
  -0.00000044  0.66940028  0.10055563
   0.33059916  0.33059862  0.10055590
   0.66940038  0.66939984  0.10055590
   0.66666537  0.33333363  0.09990666
   0.33333222  0.66666678  0.10133412
   0.25006266  0.25008710  0.46849956
   0.41672780  0.08329604  0.46849074
   0.24999681  0.75000219  0.46848482
   0.41665972  0.58333928  0.46849448
   0.74994068  0.25005832  0.46849678
   0.91665722  0.08334178  0.46850503
   0.74991190  0.74993634  0.46849956
   0.91670296  0.58327120  0.46849074
Direct configuration=     9
   0.66940875 -0.00000145  0.10114233
   0.33059748  0.00000102  0.10114590
   0.00000145  0.33059025  0.10114233
  -0.00000102  0.66940152  0.10114590
   0.33059860  0.33059749  0.10114645
   0.66940151  0.66940040  0.10114645
   0.66666464  0.33333436  0.10063502
   0.33333164  0.66666736  0.10192338
   0.25013427  0.25018532  0.46789712
   0.41679685  0.08325517  0.46787901
   0.24999430  0.75000470  0.46786689
   0.41665206  0.58334694  0.46788668
   0.74987497  0.25012403  0.46789142
   0.91664666  0.08335234  0.46790833
   0.74981368  0.74986473  0.46789712
   0.91674383  0.58320215  0.46787901
Direct configuration=    10
   0.66941869 -0.00000287  0.10231920
   0.33059499  0.00000217  0.10232643
   0.00000287  0.33058031  0.10231920
  -0.00000217  0.66940401  0.10232643
   0.33059749  0.33059525  0.10232755
   0.66940375  0.66940151  0.10232755
   0.66666319  0.33333581  0.10209175
   0.33333047  0.66666853  0.10310190
   0.25027751  0.25038176  0.46669223
   0.41693494  0.08317342  0.46665556
   0.24998930  0.75000970  0.46663101
   0.41663674  0.58336226  0.46667110
   0.74974355  0.25025545  0.46668069
   0.91662554  0.08337346  0.46671495
   0.74961724  0.74972149  0.46669223
   0.91682558  0.58306406  0.46665556
Direct configuration=    11
   0.66943856 -0.00000571  0.10467293
   0.33059003  0.00000449  0.10468750
   0.00000571  0.33056044  0.10467293
  -0.00000449  0.66940897  0.10468750
   0.33059526  0.33059076  0.10468975
   0.66940824  0.66940374  0.10468975
   0.66666027  0.33333873  0.10500520
   0.33332814  0.66667086  0.10545895
   0.25056397  0.25077463  0.46428247
   0.41721112  0.08300993  0.46420865
   0.24997929  0.75001971  0.46415925
   0.41660610  0.58339290  0.46423992
   0.74948071  0.25051829  0.46425924
   0.91658331  0.08341569  0.46432818
   0.74922437  0.74943503  0.46428247
   0.91698907  0.58278788  0.46420865
Direct configuration=    12
   0.66947832 -0.00001140  0.10938038
   0.33058010  0.00000912  0.10940965
   0.00001140  0.33052068  0.10938038
  -0.00000912  0.66941890  0.10940965
   0.33059079  0.33058177  0.10941415
   0.66941723  0.66940821  0.10941415
   0.66665445  0.33334455  0.11083210
   0.33332348  0.66667552  0.11017304
   0.25113691  0.25156038  0.45946294
   0.41776349  0.08268295  0.45931483
   0.24995926  0.75003974  0.45921573
   0.41654481  0.58345419  0.45937756
   0.74895503  0.25104397  0.45941634
   0.91649885  0.08350015  0.45955464
   0.74843862  0.74886209  0.45946294
   0.91731605  0.58223551  0.45931483
Direct configuration=    13
   0.66947832 -0.00001140  0.10938160
   0.33058010  0.00000912  0.10941086
   0.00001140  0.33052068  0.10938160
  -0.00000912  0.66941890  0.10941086
   0.33059080  0.33058177  0.10941536
   0.66941723  0.66940820  0.10941536
   0.66665445  0.33334455  0.11083360
   0.33332347  0.66667553  0.11017426
   0.25113695  0.25156042  0.45946170
   0.41776351  0.08268294  0.45931357
   0.24995927  0.75003973  0.45921446
   0.41654480  0.58345420  0.45937631
   0.74895501  0.25104399  0.45941510
   0.91649883  0.08350017  0.45955341
   0.74843858  0.74886205  0.45946170
   0.91731606  0.58223549  0.45931357
Direct configuration=    14
   0.66947834 -0.00001140  0.10938524
   0.33058010  0.00000912  0.10941452
   0.00001140  0.33052066  0.10938524
  -0.00000912  0.66941890  0.10941452
   0.33059080  0.33058177  0.10941902
   0.66941723  0.66940820  0.10941902
   0.66665444  0.33334456  0.11083810
   0.33332347  0.66667553  0.11017789
   0.25113708  0.25156053  0.45945797
   0.41776358  0.08268292  0.45930979
   0.24995930  0.75003970  0.45921065
   0.41654476  0.58345424  0.45937255
   0.74895495  0.25104405  0.45941135
   0.91649878  0.08350022  0.45954971
   0.74843847  0.74886192  0.45945797
   0.91731608  0.58223542  0.45930979
Direct configuration=    15
   0.66947838 -0.00001141  0.10939252
   0.33058010  0.00000912  0.10942182
   0.00001141  0.33052062  0.10939252
  -0.00000912  0.66941890  0.10942182
   0.33059080  0.33058176  0.10942633
   0.66941724  0.66940820  0.10942633
   0.66665444  0.33334456  0.11084709
   0.33332347  0.66667553  0.11018517
   0.25113734  0.25156076  0.45945051
   0.41776371  0.08268287  0.45930223
   0.24995936  0.75003964  0.45920302
   0.41654467  0.58345433  0.45936503
   0.74895483  0.25104417  0.45940386
   0.91649868  0.08350032  0.45954232
   0.74843824  0.74886166  0.45945051
   0.91731613  0.58223529  0.45930223
Direct configuration=    16
   0.66947845 -0.00001142  0.10940709
   0.33058010  0.00000913  0.10943644
   0.00001142  0.33052055  0.10940709
  -0.00000913  0.66941890  0.10943644
   0.33059082  0.33058176  0.10944095
   0.66941724  0.66940818  0.10944095
   0.66665444  0.33334456  0.11086508
   0.33332345  0.66667555  0.11019972
   0.25113785  0.25156121  0.45943560
   0.41776398  0.08268277  0.45928711
   0.24995947  0.75003953  0.45918776
   0.41654450  0.58345450  0.45935000
   0.74895459  0.25104441  0.45938888
   0.91649848  0.08350052  0.45952753
   0.74843779  0.74886115  0.45943560
   0.91731623  0.58223502  0.45928711
Direct configuration=    17
   0.66947860 -0.00001144  0.10943623
   0.33058010  0.00000915  0.10946566
   0.00001144  0.33052040  0.10943623
  -0.00000915  0.66941890  0.10946566
   0.33059084  0.33058174  0.10947019
   0.66941726  0.66940816  0.10947019
   0.66665442  0.33334458  0.11090106
   0.33332343  0.66667557  0.11022883
   0.25113887  0.25156212  0.45940576
   0.41776451  0.08268258  0.45925687
   0.24995971  0.75003929  0.45915724
   0.41654415  0.58345485  0.45931992
   0.74895410  0.25104490  0.45935891
   0.91649808  0.08350092  0.45949795
   0.74843688  0.74886013  0.45940576
   0.91731642  0.58223449  0.45925687
Direct configuration=    18
   0.66947888 -0.00001149  0.10949450
   0.33058011  0.00000918  0.10952411
   0.00001149  0.33052012  0.10949450
  -0.00000918  0.66941889  0.10952411
   0.33059088  0.33058171  0.10952867
   0.66941729  0.66940812  0.10952867
   0.66665440  0.33334460  0.11097302
   0.33332338  0.66667562  0.11028704
   0.25114092  0.25156393  0.45934609
   0.41776558  0.08268220  0.45919638
   0.24996017  0.75003883  0.45909621
   0.41654346  0.58345554  0.45925978
   0.74895314  0.25104586  0.45929899
   0.91649728  0.08350172  0.45943878
   0.74843507  0.74885808  0.45934609
   0.91731680  0.58223342  0.45919638
Direct configuration=    19
   0.66947946 -0.00001159  0.10961105
   0.33058011  0.00000925  0.10964102
   0.00001159  0.33051954  0.10961105
  -0.00000925  0.66941889  0.10964102
   0.33059098  0.33058164  0.10964563
   0.66941736  0.66940802  0.10964563
   0.66665435  0.33334465  0.11111694
   0.33332328  0.66667572  0.11040345
   0.25114501  0.25156756  0.45922676
   0.41776772  0.08268143  0.45907541
   0.24996110  0.75003790  0.45897415
   0.41654208  0.58345692  0.45913948
   0.74895120  0.25104780  0.45917913
   0.91649569  0.08350331  0.45932046
   0.74843144  0.74885399  0.45922676
   0.91731757  0.58223128  0.45907541
Direct configuration=    20
   0.66948062 -0.00001178  0.10984415
   0.33058012  0.00000939  0.10987483
   0.00001178  0.33051838  0.10984415
  -0.00000939  0.66941888  0.10987483
   0.33059116  0.33058152  0.10987954
   0.66941748  0.66940784  0.10987954
   0.66665425  0.33334475  0.11140478
   0.33332307  0.66667593  0.11063629
   0.25115320  0.25157480  0.45898808
   0.41777199  0.08267991  0.45883346
   0.24996296  0.75003604  0.45873002
   0.41653931  0.58345969  0.45889890
   0.74894733  0.25105167  0.45893942
   0.91649249  0.08350651  0.45908381
   0.74842420  0.74884580  0.45898808
   0.91731909  0.58222701  0.45883346
Direct configuration=    21
   0.66948294 -0.00001217  0.11031034
   0.33058014  0.00000967  0.11034244
   0.00001217  0.33051606  0.11031034
  -0.00000967  0.66941886  0.11034244
   0.33059153  0.33058126  0.11034737
   0.66941774  0.66940747  0.11034737
   0.66665405  0.33334495  0.11198046
   0.33332267  0.66667633  0.11110197
   0.25116958  0.25158930  0.45851074
   0.41778053  0.08267685  0.45834956
   0.24996667  0.75003233  0.45824176
   0.41653379  0.58346521  0.45841772
   0.74893958  0.25105942  0.45846000
   0.91648609  0.08351291  0.45861051
   0.74840970  0.74882942  0.45851074
   0.91732215  0.58221847  0.45834956
Direct configuration=    22
   0.66948757 -0.00001295  0.11124273
   0.33058019  0.00001023  0.11127767
   0.00001295  0.33051143  0.11124273
  -0.00001023  0.66941881  0.11127767
   0.33059227  0.33058076  0.11128303
   0.66941824  0.66940673  0.11128303
   0.66665365  0.33334535  0.11313182
   0.33332186  0.66667714  0.11203332
   0.25120233  0.25161829  0.45755604
   0.41779762  0.08267074  0.45738177
   0.24997410  0.75002490  0.45726524
   0.41652273  0.58347627  0.45745538
   0.74892410  0.25107490  0.45750116
   0.91647331  0.08352569  0.45766392
   0.74838071  0.74879667  0.45755604
   0.91732826  0.58220138  0.45738177
Direct configuration=    23
   0.66949683 -0.00001451  0.11310750
   0.33058027  0.00001135  0.11314814
   0.00001451  0.33050217  0.11310750
  -0.00001135  0.66941873  0.11314814
   0.33059375  0.33057974  0.11315436
   0.66941926  0.66940525  0.11315436
   0.66665286  0.33334614  0.11543453
   0.33332025  0.66667875  0.11389602
   0.25126784  0.25167627  0.45564666
   0.41783180  0.08265851  0.45544618
   0.24998895  0.75001005  0.45531220
   0.41650062  0.58349838  0.45553069
   0.74889312  0.25110588  0.45558348
   0.91644773  0.08355127  0.45577073
   0.74832273  0.74873116  0.45564666
   0.91734049  0.58216720  0.45544618
Direct configuration=    24
   0.66951536 -0.00001762  0.11683705
   0.33058045  0.00001358  0.11688907
   0.00001762  0.33048364  0.11683705
  -0.00001358  0.66941855  0.11688907
   0.33059670  0.33057771  0.11689701
   0.66942129  0.66940230  0.11689701
   0.66665127  0.33334773  0.12003996
   0.33331702  0.66668198  0.11762142
   0.25139885  0.25179223  0.45182789
   0.41790016  0.08263405  0.45157500
   0.25001866  0.74998034  0.45140613
   0.41645641  0.58354259  0.45168131
   0.74883117  0.25116783  0.45174812
   0.91639657  0.08360243  0.45198436
   0.74820677  0.74860015  0.45182789
   0.91736495  0.58209884  0.45157500
Direct configuration=    25
   0.66955241 -0.00002386  0.12429615
   0.33058080  0.00001804  0.12437093
   0.00002386  0.33044659  0.12429615
  -0.00001804  0.66941820  0.12437093
   0.33060260  0.33057366  0.12438230
   0.66942534  0.66939640  0.12438230
   0.66664810  0.33335090  0.12925082
   0.33331056  0.66668844  0.12507222
   0.25166087  0.25202416  0.44419035
   0.41803689  0.08258515  0.44383265
   0.25007808  0.74992092  0.44359399
   0.41636797  0.58363103  0.44398255
   0.74870727  0.25129173  0.44407740
   0.91629427  0.08370473  0.44441161
   0.74797484  0.74833813  0.44419035
   0.91741385  0.58196211  0.44383265
Direct configuration=    26
   0.66962651 -0.00003632  0.13921434
   0.33058149  0.00002697  0.13933464
   0.00003632  0.33037249  0.13921434
  -0.00002697  0.66941751  0.13933464
   0.33061442  0.33056554  0.13935289
   0.66943346  0.66938458  0.13935289
   0.66664175  0.33335725  0.14767253
   0.33329764  0.66670136  0.13997382
   0.25218493  0.25248801  0.42891527
   0.41831033  0.08248733  0.42834795
   0.25019692  0.74980208  0.42796971
   0.41619111  0.58380789  0.42858503
   0.74845947  0.25153953  0.42873596
   0.91608965  0.08390935  0.42926610
   0.74751099  0.74781407  0.42891527
   0.91751167  0.58168867  0.42834795
Direct configuration=    27
   0.66977471 -0.00006124  0.16905072
   0.33058289  0.00004482  0.16926207
   0.00006124  0.33022429  0.16905072
  -0.00004482  0.66941611  0.16926207
   0.33063804  0.33054931  0.16929407
   0.66944969  0.66936096  0.16929407
   0.66662905  0.33336995  0.18451595
   0.33327180  0.66672720  0.16977702
   0.25323303  0.25341572  0.39836511
   0.41885721  0.08229170  0.39737855
   0.25043460  0.74956440  0.39672115
   0.41583737  0.58416163  0.39778999
   0.74796386  0.25203514  0.39805308
   0.91568042  0.08431858  0.39897510
   0.74658328  0.74676597  0.39836511
   0.91770730  0.58114179  0.39737855
Direct configuration=    28
   0.66967747 -0.00004489  0.14947441
   0.33058197  0.00003311  0.14962602
   0.00004489  0.33032153  0.14947441
  -0.00003311  0.66941703  0.14962602
   0.33062254  0.33055996  0.14964900
   0.66943904  0.66937646  0.14964900
   0.66663738  0.33336162  0.16034217
   0.33328875  0.66671025  0.15022248
   0.25254534  0.25280703  0.41840975
   0.41849839  0.08242006  0.41769826
   0.25027865  0.74972035  0.41722403
   0.41606946  0.58392954  0.41799530
   0.74828904  0.25170996  0.41818480
   0.91594892  0.08405008  0.41884970
   0.74719197  0.74745366  0.41840975
   0.91757894  0.58150061  0.41769826
Direct configuration=    29
   0.66972609 -0.00005306  0.15926256
   0.33058243  0.00003897  0.15944405
   0.00005306  0.33027291  0.15926256
  -0.00003897  0.66941657  0.15944405
   0.33063029  0.33055464  0.15947154
   0.66944436  0.66936871  0.15947154
   0.66663321  0.33336579  0.17242906
   0.33328028  0.66671872  0.15999975
   0.25288918  0.25311137  0.40838743
   0.41867780  0.08235588  0.40753840
   0.25035663  0.74964237  0.40697259
   0.41595342  0.58404558  0.40789265
   0.74812645  0.25187255  0.40811894
   0.91581467  0.08418433  0.40891240
   0.74688763  0.74710982  0.40838743
   0.91764312  0.58132120  0.40753840
Direct configuration=    30
   0.66975040 -0.00005715  0.16415664
   0.33058266  0.00004190  0.16435306
   0.00005715  0.33024860  0.16415664
  -0.00004190  0.66941634  0.16435306
   0.33063417  0.33055198  0.16438281
   0.66944702  0.66936483  0.16438281
   0.66663113  0.33336787  0.17847251
   0.33327604  0.66672296  0.16488838
   0.25306111  0.25326354  0.40337627
   0.41876751  0.08232379  0.40245848
   0.25039561  0.74960339  0.40184687
   0.41589539  0.58410361  0.40284132
   0.74804516  0.25195384  0.40308601
   0.91574754  0.08425146  0.40394375
   0.74673546  0.74693789  0.40337627
   0.91767521  0.58123149  0.40245848
