  15  15   1   4
  0.2033749E+02  0.4846000E-09  0.4846000E-09  0.1500000E-08  0.5000000E-15
  1.000000000000000E-004
  CAR 
 BS                                      
     10.39963997    -21.70582762  301     -0.32649678      1.00000000
    -21.706  0.0000E+00  0.0000E+00
    -21.599  0.0000E+00  0.0000E+00
    -21.492  0.0000E+00  0.0000E+00
    -21.385  0.0000E+00  0.0000E+00
    -21.278  0.0000E+00  0.0000E+00
    -21.171  0.0000E+00  0.0000E+00
    -21.064  0.0000E+00  0.0000E+00
    -20.957  0.0000E+00  0.0000E+00
    -20.850  0.0000E+00  0.0000E+00
    -20.743  0.1030E-11  0.1102E-12
    -20.636  0.1871E-07  0.2002E-08
    -20.529  0.3771E-04  0.4038E-05
    -20.422  0.8956E-02  0.9625E-03
    -20.315  0.2809E+00  0.3103E-01
    -20.208  0.1436E+01  0.1847E+00
    -20.101  0.1777E+01  0.3750E+00
    -19.994  0.1210E+01  0.5044E+00
    -19.887  0.9238E+00  0.6033E+00
    -19.779  0.7849E+00  0.6873E+00
    -19.672  0.6964E+00  0.7618E+00
    -19.565  0.6330E+00  0.8296E+00
    -19.458  0.5847E+00  0.8921E+00
    -19.351  0.5462E+00  0.9506E+00
    -19.244  0.5146E+00  0.1006E+01
    -19.137  0.4880E+00  0.1058E+01
    -19.030  0.4654E+00  0.1108E+01
    -18.923  0.4550E+00  0.1156E+01
    -18.816  0.8038E+00  0.1242E+01
    -18.709  0.2799E+01  0.1542E+01
    -18.602  0.3833E+01  0.1952E+01
    -18.495  0.2773E+01  0.2249E+01
    -18.388  0.2159E+01  0.2480E+01
    -18.281  0.1880E+01  0.2681E+01
    -18.174  0.1564E+01  0.2849E+01
    -18.067  0.1190E+01  0.2976E+01
    -17.960  0.1055E+01  0.3089E+01
    -17.853  0.1003E+01  0.3196E+01
    -17.746  0.9630E+00  0.3299E+01
    -17.639  0.9286E+00  0.3399E+01
    -17.532  0.9319E+00  0.3498E+01
    -17.425  0.1503E+01  0.3659E+01
    -17.318  0.2942E+01  0.3974E+01
    -17.211  0.2877E+01  0.4282E+01
    -17.104  0.2300E+01  0.4528E+01
    -16.997  0.2103E+01  0.4753E+01
    -16.890  0.2385E+01  0.5008E+01
    -16.783  0.4224E+01  0.5460E+01
    -16.676  0.5122E+01  0.6009E+01
    -16.569  0.2221E+01  0.6246E+01
    -16.462  0.8179E+00  0.6334E+01
    -16.355  0.7072E+00  0.6409E+01
    -16.248  0.6957E+00  0.6484E+01
    -16.141  0.6863E+00  0.6557E+01
    -16.034  0.6793E+00  0.6630E+01
    -15.927  0.7783E+00  0.6713E+01
    -15.820  0.1733E+01  0.6899E+01
    -15.713  0.2773E+01  0.7196E+01
    -15.606  0.2246E+01  0.7436E+01
    -15.499  0.1793E+01  0.7628E+01
    -15.392  0.1606E+01  0.7800E+01
    -15.285  0.1504E+01  0.7961E+01
    -15.178  0.1452E+01  0.8116E+01
    -15.071  0.1593E+01  0.8287E+01
    -14.964  0.2908E+01  0.8598E+01
    -14.857  0.4466E+01  0.9076E+01
    -14.750  0.4950E+01  0.9606E+01
    -14.643  0.4677E+01  0.1011E+02
    -14.536  0.3391E+01  0.1047E+02
    -14.429  0.2648E+01  0.1075E+02
    -14.322  0.2360E+01  0.1101E+02
    -14.215  0.2232E+01  0.1124E+02
    -14.108  0.2194E+01  0.1148E+02
    -14.001  0.2347E+01  0.1173E+02
    -13.893  0.3709E+01  0.1213E+02
    -13.786  0.6186E+01  0.1279E+02
    -13.679  0.5761E+01  0.1341E+02
    -13.572  0.5320E+01  0.1397E+02
    -13.465  0.5218E+01  0.1453E+02
    -13.358  0.2891E+01  0.1484E+02
    -13.251  0.1720E+01  0.1503E+02
    -13.144  0.1637E+01  0.1520E+02
    -13.037  0.1726E+01  0.1539E+02
    -12.930  0.1839E+01  0.1558E+02
    -12.823  0.1791E+01  0.1577E+02
    -12.716  0.1294E+01  0.1591E+02
    -12.609  0.1044E+01  0.1603E+02
    -12.502  0.1011E+01  0.1613E+02
    -12.395  0.9962E+00  0.1624E+02
    -12.288  0.9828E+00  0.1635E+02
    -12.181  0.9709E+00  0.1645E+02
    -12.074  0.9606E+00  0.1655E+02
    -11.967  0.9517E+00  0.1665E+02
    -11.860  0.9445E+00  0.1675E+02
    -11.753  0.9391E+00  0.1686E+02
    -11.646  0.9359E+00  0.1696E+02
    -11.539  0.9356E+00  0.1706E+02
    -11.432  0.9416E+00  0.1716E+02
    -11.325  0.1050E+01  0.1727E+02
    -11.218  0.1637E+01  0.1744E+02
    -11.111  0.2033E+01  0.1766E+02
    -11.004  0.1956E+01  0.1787E+02
    -10.897  0.1820E+01  0.1807E+02
    -10.790  0.1296E+01  0.1820E+02
    -10.683  0.1501E+01  0.1837E+02
    -10.576  0.2654E+01  0.1865E+02
    -10.469  0.2920E+01  0.1896E+02
    -10.362  0.3229E+01  0.1931E+02
    -10.255  0.3217E+01  0.1965E+02
    -10.148  0.2803E+01  0.1995E+02
    -10.041  0.2067E+01  0.2017E+02
     -9.934  0.2205E+01  0.2041E+02
     -9.827  0.2890E+01  0.2072E+02
     -9.720  0.2815E+01  0.2102E+02
     -9.613  0.3204E+01  0.2136E+02
     -9.506  0.4059E+01  0.2180E+02
     -9.399  0.4929E+01  0.2232E+02
     -9.292  0.4305E+01  0.2278E+02
     -9.185  0.3600E+01  0.2317E+02
     -9.078  0.3516E+01  0.2355E+02
     -8.971  0.3078E+01  0.2388E+02
     -8.864  0.2564E+01  0.2415E+02
     -8.757  0.2453E+01  0.2441E+02
     -8.650  0.2452E+01  0.2467E+02
     -8.543  0.2502E+01  0.2494E+02
     -8.436  0.2930E+01  0.2526E+02
     -8.329  0.4259E+01  0.2571E+02
     -8.222  0.5196E+01  0.2627E+02
     -8.115  0.5561E+01  0.2686E+02
     -8.007  0.5021E+01  0.2740E+02
     -7.900  0.6160E+01  0.2806E+02
     -7.793  0.8830E+01  0.2900E+02
     -7.686  0.6398E+01  0.2969E+02
     -7.579  0.3609E+01  0.3008E+02
     -7.472  0.2393E+01  0.3033E+02
     -7.365  0.2031E+01  0.3055E+02
     -7.258  0.2012E+01  0.3076E+02
     -7.151  0.2752E+01  0.3106E+02
     -7.044  0.5149E+01  0.3161E+02
     -6.937  0.6628E+01  0.3232E+02
     -6.830  0.7224E+01  0.3309E+02
     -6.723  0.5598E+01  0.3369E+02
     -6.616  0.5570E+01  0.3429E+02
     -6.509  0.6207E+01  0.3495E+02
     -6.402  0.5810E+01  0.3557E+02
     -6.295  0.5397E+01  0.3615E+02
     -6.188  0.6141E+01  0.3681E+02
     -6.081  0.5686E+01  0.3742E+02
     -5.974  0.5191E+01  0.3797E+02
     -5.867  0.5395E+01  0.3855E+02
     -5.760  0.4968E+01  0.3908E+02
     -5.653  0.5143E+01  0.3963E+02
     -5.546  0.6423E+01  0.4032E+02
     -5.439  0.8315E+01  0.4121E+02
     -5.332  0.7682E+01  0.4203E+02
     -5.225  0.5101E+01  0.4258E+02
     -5.118  0.3034E+01  0.4290E+02
     -5.011  0.1921E+01  0.4311E+02
     -4.904  0.1706E+01  0.4329E+02
     -4.797  0.1663E+01  0.4347E+02
     -4.690  0.1644E+01  0.4364E+02
     -4.583  0.1642E+01  0.4382E+02
     -4.476  0.1868E+01  0.4402E+02
     -4.369  0.3140E+01  0.4436E+02
     -4.262  0.3775E+01  0.4476E+02
     -4.155  0.3567E+01  0.4514E+02
     -4.048  0.4092E+01  0.4558E+02
     -3.941  0.5513E+01  0.4617E+02
     -3.834  0.5833E+01  0.4679E+02
     -3.727  0.4193E+01  0.4724E+02
     -3.620  0.3811E+01  0.4765E+02
     -3.513  0.4411E+01  0.4812E+02
     -3.406  0.5010E+01  0.4866E+02
     -3.299  0.5653E+01  0.4926E+02
     -3.192  0.6021E+01  0.4991E+02
     -3.085  0.5831E+01  0.5053E+02
     -2.978  0.5786E+01  0.5115E+02
     -2.871  0.6499E+01  0.5185E+02
     -2.764  0.5713E+01  0.5246E+02
     -2.657  0.2980E+01  0.5278E+02
     -2.550  0.1715E+01  0.5296E+02
     -2.443  0.1610E+01  0.5313E+02
     -2.336  0.1361E+01  0.5328E+02
     -2.229  0.9290E+00  0.5338E+02
     -2.121  0.1225E+01  0.5351E+02
     -2.014  0.1730E+01  0.5369E+02
     -1.907  0.2293E+01  0.5394E+02
     -1.800  0.2243E+01  0.5418E+02
     -1.693  0.1690E+01  0.5436E+02
     -1.586  0.1482E+01  0.5452E+02
     -1.479  0.1412E+01  0.5467E+02
     -1.372  0.1387E+01  0.5482E+02
     -1.265  0.1398E+01  0.5497E+02
     -1.158  0.1453E+01  0.5512E+02
     -1.051  0.1610E+01  0.5530E+02
     -0.944  0.2033E+01  0.5551E+02
     -0.837  0.2032E+01  0.5573E+02
     -0.730  0.9111E+00  0.5583E+02
     -0.623  0.4290E+00  0.5587E+02
     -0.516  0.4002E+00  0.5592E+02
     -0.409  0.4180E+00  0.5596E+02
     -0.302  0.4699E+00  0.5601E+02
     -0.195  0.4477E+00  0.5606E+02
     -0.088  0.4099E+00  0.5610E+02
      0.019  0.4064E+00  0.5615E+02
      0.126  0.4083E+00  0.5619E+02
      0.233  0.4118E+00  0.5623E+02
      0.340  0.4172E+00  0.5628E+02
      0.447  0.4252E+00  0.5632E+02
      0.554  0.4433E+00  0.5637E+02
      0.661  0.7099E+00  0.5645E+02
      0.768  0.2032E+01  0.5667E+02
      0.875  0.3149E+01  0.5700E+02
      0.982  0.3766E+01  0.5741E+02
      1.089  0.3812E+01  0.5781E+02
      1.196  0.3336E+01  0.5817E+02
      1.303  0.2439E+01  0.5843E+02
      1.410  0.2443E+01  0.5869E+02
      1.517  0.3244E+01  0.5904E+02
      1.624  0.3380E+01  0.5940E+02
      1.731  0.3196E+01  0.5974E+02
      1.838  0.2676E+01  0.6003E+02
      1.945  0.2393E+01  0.6029E+02
      2.052  0.2479E+01  0.6055E+02
      2.159  0.2772E+01  0.6085E+02
      2.266  0.2670E+01  0.6113E+02
      2.373  0.2596E+01  0.6141E+02
      2.480  0.2752E+01  0.6171E+02
      2.587  0.3273E+01  0.6206E+02
      2.694  0.3134E+01  0.6239E+02
      2.801  0.1851E+01  0.6259E+02
      2.908  0.2047E+01  0.6281E+02
      3.015  0.2672E+01  0.6310E+02
      3.122  0.2247E+01  0.6334E+02
      3.229  0.1925E+01  0.6354E+02
      3.336  0.1789E+01  0.6373E+02
      3.443  0.1948E+01  0.6394E+02
      3.550  0.3309E+01  0.6430E+02
      3.657  0.5118E+01  0.6484E+02
      3.765  0.6392E+01  0.6553E+02
      3.872  0.6296E+01  0.6620E+02
      3.979  0.5679E+01  0.6681E+02
      4.086  0.5482E+01  0.6740E+02
      4.193  0.5557E+01  0.6799E+02
      4.300  0.4497E+01  0.6847E+02
      4.407  0.4043E+01  0.6890E+02
      4.514  0.5302E+01  0.6947E+02
      4.621  0.7493E+01  0.7027E+02
      4.728  0.7652E+01  0.7109E+02
      4.835  0.5791E+01  0.7171E+02
      4.942  0.5403E+01  0.7229E+02
      5.049  0.7348E+01  0.7308E+02
      5.156  0.7654E+01  0.7390E+02
      5.263  0.5337E+01  0.7447E+02
      5.370  0.4325E+01  0.7493E+02
      5.477  0.4283E+01  0.7539E+02
      5.584  0.5278E+01  0.7595E+02
      5.691  0.5690E+01  0.7656E+02
      5.798  0.5888E+01  0.7719E+02
      5.905  0.5021E+01  0.7773E+02
      6.012  0.4468E+01  0.7821E+02
      6.119  0.5624E+01  0.7881E+02
      6.226  0.5616E+01  0.7941E+02
      6.333  0.4356E+01  0.7988E+02
      6.440  0.4614E+01  0.8037E+02
      6.547  0.5802E+01  0.8099E+02
      6.654  0.6612E+01  0.8170E+02
      6.761  0.7360E+01  0.8249E+02
      6.868  0.8239E+01  0.8337E+02
      6.975  0.9007E+01  0.8433E+02
      7.082  0.8155E+01  0.8521E+02
      7.189  0.6896E+01  0.8594E+02
      7.296  0.7169E+01  0.8671E+02
      7.403  0.5637E+01  0.8731E+02
      7.510  0.5129E+01  0.8786E+02
      7.617  0.7800E+01  0.8870E+02
      7.724  0.8957E+01  0.8966E+02
      7.831  0.7834E+01  0.9049E+02
      7.938  0.7220E+01  0.9127E+02
      8.045  0.5891E+01  0.9190E+02
      8.152  0.5768E+01  0.9252E+02
      8.259  0.5632E+01  0.9312E+02
      8.366  0.6739E+01  0.9384E+02
      8.473  0.7495E+01  0.9464E+02
      8.580  0.5062E+01  0.9518E+02
      8.687  0.2844E+01  0.9549E+02
      8.794  0.2056E+01  0.9571E+02
      8.901  0.1876E+01  0.9591E+02
      9.008  0.7634E+00  0.9599E+02
      9.115  0.9387E-01  0.9600E+02
      9.222  0.2362E-02  0.9600E+02
      9.329  0.8896E-05  0.9600E+02
      9.436  0.4202E-08  0.9600E+02
      9.543  0.2269E-12  0.9600E+02
      9.651  0.0000E+00  0.9600E+02
      9.758  0.0000E+00  0.9600E+02
      9.865  0.0000E+00  0.9600E+02
      9.972  0.0000E+00  0.9600E+02
     10.079  0.0000E+00  0.9600E+02
     10.186  0.0000E+00  0.9600E+02
     10.293  0.0000E+00  0.9600E+02
     10.400  0.0000E+00  0.9600E+02
     10.39963997    -21.70582762  301     -0.32649678      1.00000000
    -21.706  0.0000E+00  0.0000E+00  0.0000E+00  0.0000E+00  0.0000E+00  0.0000E+00  0.0000E+00  0.0000E+00  0.0000E+00
    -21.599  0.0000E+00  0.0000E+00  0.0000E+00  0.0000E+00  0.0000E+00  0.0000E+00  0.0000E+00  0.0000E+00  0.0000E+00
    -21.492  0.0000E+00  0.0000E+00  0.0000E+00  0.0000E+00  0.0000E+00  0.0000E+00  0.0000E+00  0.0000E+00  0.0000E+00
    -21.385  0.0000E+00  0.0000E+00  0.0000E+00  0.0000E+00  0.0000E+00  0.0000E+00  0.0000E+00  0.0000E+00  0.0000E+00
    -21.278  0.0000E+00  0.0000E+00  0.0000E+00  0.0000E+00  0.0000E+00  0.0000E+00  0.0000E+00  0.0000E+00  0.0000E+00
    -21.171  0.0000E+00  0.0000E+00  0.0000E+00  0.0000E+00  0.0000E+00  0.0000E+00  0.0000E+00  0.0000E+00  0.0000E+00
    -21.064  0.0000E+00  0.0000E+00  0.0000E+00  0.0000E+00  0.0000E+00  0.0000E+00  0.0000E+00  0.0000E+00  0.0000E+00
    -20.957  0.0000E+00  0.0000E+00  0.0000E+00  0.0000E+00  0.0000E+00  0.0000E+00  0.0000E+00  0.0000E+00  0.0000E+00
    -20.850  0.0000E+00  0.0000E+00  0.0000E+00  0.0000E+00  0.0000E+00  0.0000E+00  0.0000E+00  0.0000E+00  0.0000E+00
    -20.743  0.5163E-16  0.1237E-19  0.2250E-17  0.1917E-20  0.0000E+00  0.0000E+00  0.0000E+00  0.0000E+00  0.0000E+00
    -20.636  0.9376E-12  0.2820E-15  0.4085E-13  0.4340E-16  0.0000E+00  0.0000E+00  0.0000E+00  0.0000E+00  0.0000E+00
    -20.529  0.1890E-08  0.7525E-12  0.8232E-10  0.1151E-12  0.0000E+00  0.0000E+00  0.0000E+00  0.0000E+00  0.0000E+00
    -20.422  0.4490E-06  0.2557E-09  0.1954E-07  0.3892E-10  0.0000E+00  0.0000E+00  0.0000E+00  0.0000E+00  0.0000E+00
    -20.315  0.1408E-04  0.1292E-07  0.6122E-06  0.1960E-08  0.0000E+00  0.0000E+00  0.0000E+00  0.0000E+00  0.0000E+00
    -20.208  0.7204E-04  0.1276E-06  0.3121E-05  0.1932E-07  0.0000E+00  0.0000E+00  0.0000E+00  0.0000E+00  0.0000E+00
    -20.101  0.8928E-04  0.3798E-06  0.3829E-05  0.5754E-07  0.0000E+00  0.0000E+00  0.0000E+00  0.0000E+00  0.0000E+00
    -19.994  0.6098E-04  0.5940E-06  0.2554E-05  0.9014E-07  0.0000E+00  0.0000E+00  0.0000E+00  0.0000E+00  0.0000E+00
    -19.887  0.4683E-04  0.7418E-06  0.1907E-05  0.1124E-06  0.0000E+00  0.0000E+00  0.0000E+00  0.0000E+00  0.0000E+00
    -19.779  0.4007E-04  0.8587E-06  0.1585E-05  0.1300E-06  0.0000E+00  0.0000E+00  0.0000E+00  0.0000E+00  0.0000E+00
    -19.672  0.3586E-04  0.9585E-06  0.1376E-05  0.1450E-06  0.0000E+00  0.0000E+00  0.0000E+00  0.0000E+00  0.0000E+00
    -19.565  0.3294E-04  0.1046E-05  0.1223E-05  0.1580E-06  0.0000E+00  0.0000E+00  0.0000E+00  0.0000E+00  0.0000E+00
    -19.458  0.3081E-04  0.1125E-05  0.1105E-05  0.1697E-06  0.0000E+00  0.0000E+00  0.0000E+00  0.0000E+00  0.0000E+00
    -19.351  0.2921E-04  0.1196E-05  0.1010E-05  0.1804E-06  0.0000E+00  0.0000E+00  0.0000E+00  0.0000E+00  0.0000E+00
    -19.244  0.2800E-04  0.1262E-05  0.9312E-06  0.1902E-06  0.0000E+00  0.0000E+00  0.0000E+00  0.0000E+00  0.0000E+00
    -19.137  0.2711E-04  0.1323E-05  0.8636E-06  0.1991E-06  0.0000E+00  0.0000E+00  0.0000E+00  0.0000E+00  0.0000E+00
    -19.030  0.2649E-04  0.1379E-05  0.8056E-06  0.2068E-06  0.0000E+00  0.0000E+00  0.0000E+00  0.0000E+00  0.0000E+00
    -18.923  0.2680E-04  0.1455E-05  0.7720E-06  0.2214E-06  0.0000E+00  0.0000E+00  0.0000E+00  0.0000E+00  0.0000E+00
    -18.816  0.5175E-04  0.2601E-05  0.1353E-05  0.5877E-06  0.0000E+00  0.0000E+00  0.0000E+00  0.0000E+00  0.0000E+00
    -18.709  0.1819E-03  0.9115E-05  0.4523E-05  0.2808E-05  0.0000E+00  0.0000E+00  0.0000E+00  0.0000E+00  0.0000E+00
    -18.602  0.2451E-03  0.1300E-04  0.5909E-05  0.4401E-05  0.0000E+00  0.0000E+00  0.0000E+00  0.0000E+00  0.0000E+00
    -18.495  0.1834E-03  0.9775E-05  0.4149E-05  0.3630E-05  0.0000E+00  0.0000E+00  0.0000E+00  0.0000E+00  0.0000E+00
    -18.388  0.1522E-03  0.7865E-05  0.3167E-05  0.3168E-05  0.0000E+00  0.0000E+00  0.0000E+00  0.0000E+00  0.0000E+00
    -18.281  0.1429E-03  0.6821E-05  0.2724E-05  0.3210E-05  0.0000E+00  0.0000E+00  0.0000E+00  0.0000E+00  0.0000E+00
    -18.174  0.1220E-03  0.4809E-05  0.2134E-05  0.4036E-05  0.0000E+00  0.0000E+00  0.0000E+00  0.0000E+00  0.0000E+00
    -18.067  0.9634E-04  0.2762E-05  0.1488E-05  0.4387E-05  0.0000E+00  0.0000E+00  0.0000E+00  0.0000E+00  0.0000E+00
    -17.960  0.9603E-04  0.2366E-05  0.1276E-05  0.4167E-05  0.0000E+00  0.0000E+00  0.0000E+00  0.0000E+00  0.0000E+00
    -17.853  0.1032E-03  0.2373E-05  0.1160E-05  0.4008E-05  0.0000E+00  0.0000E+00  0.0000E+00  0.0000E+00  0.0000E+00
    -17.746  0.1139E-03  0.2360E-05  0.1044E-05  0.3897E-05  0.0000E+00  0.0000E+00  0.0000E+00  0.0000E+00  0.0000E+00
    -17.639  0.1789E-03  0.2311E-05  0.9800E-06  0.3808E-05  0.0000E+00  0.0000E+00  0.0000E+00  0.0000E+00  0.0000E+00
    -17.532  0.6672E-02  0.4650E-05  0.8113E-05  0.4109E-05  0.0000E+00  0.0000E+00  0.0000E+00  0.0000E+00  0.0000E+00
    -17.425  0.1216E+00  0.7842E-04  0.1370E-03  0.1554E-04  0.0000E+00  0.0000E+00  0.0000E+00  0.0000E+00  0.0000E+00
    -17.318  0.4048E+00  0.5065E-03  0.4557E-03  0.8198E-04  0.0000E+00  0.0000E+00  0.0000E+00  0.0000E+00  0.0000E+00
    -17.211  0.4030E+00  0.1139E-02  0.4550E-03  0.1800E-03  0.0000E+00  0.0000E+00  0.0000E+00  0.0000E+00  0.0000E+00
    -17.104  0.3037E+00  0.1499E-02  0.3446E-03  0.2347E-03  0.0000E+00  0.0000E+00  0.0000E+00  0.0000E+00  0.0000E+00
    -16.997  0.2791E+00  0.1607E-02  0.3222E-03  0.2540E-03  0.0000E+00  0.0000E+00  0.0000E+00  0.0000E+00  0.0000E+00
    -16.890  0.3620E+00  0.1530E-02  0.4276E-03  0.2417E-03  0.0000E+00  0.0000E+00  0.0000E+00  0.0000E+00  0.0000E+00
    -16.783  0.8233E+00  0.1132E-02  0.9780E-03  0.2434E-03  0.0000E+00  0.0000E+00  0.0000E+00  0.0000E+00  0.0000E+00
    -16.676  0.1063E+01  0.5118E-03  0.1271E-02  0.2167E-03  0.0000E+00  0.0000E+00  0.0000E+00  0.0000E+00  0.0000E+00
    -16.569  0.3663E+00  0.1005E-03  0.4412E-03  0.6485E-04  0.0000E+00  0.0000E+00  0.0000E+00  0.0000E+00  0.0000E+00
    -16.462  0.2492E-01  0.1268E-04  0.3189E-04  0.8650E-05  0.0000E+00  0.0000E+00  0.0000E+00  0.0000E+00  0.0000E+00
    -16.355  0.3359E-03  0.8304E-05  0.2070E-05  0.5367E-05  0.0000E+00  0.0000E+00  0.0000E+00  0.0000E+00  0.0000E+00
    -16.248  0.4067E-04  0.8125E-05  0.1520E-05  0.5306E-05  0.0000E+00  0.0000E+00  0.0000E+00  0.0000E+00  0.0000E+00
    -16.141  0.2223E-04  0.8119E-05  0.1365E-05  0.5351E-05  0.0000E+00  0.0000E+00  0.0000E+00  0.0000E+00  0.0000E+00
    -16.034  0.1325E-04  0.8224E-05  0.1257E-05  0.5467E-05  0.0000E+00  0.0000E+00  0.0000E+00  0.0000E+00  0.0000E+00
    -15.927  0.9892E-05  0.9028E-05  0.1377E-05  0.7057E-05  0.0000E+00  0.0000E+00  0.0000E+00  0.0000E+00  0.0000E+00
    -15.820  0.1950E-04  0.1540E-04  0.3089E-05  0.2088E-04  0.0000E+00  0.0000E+00  0.0000E+00  0.0000E+00  0.0000E+00
    -15.713  0.2451E-04  0.2397E-04  0.4816E-05  0.3701E-04  0.0000E+00  0.0000E+00  0.0000E+00  0.0000E+00  0.0000E+00
    -15.606  0.9480E-05  0.2278E-04  0.3651E-05  0.3067E-04  0.0000E+00  0.0000E+00  0.0000E+00  0.0000E+00  0.0000E+00
    -15.499  0.2866E-05  0.2080E-04  0.2750E-05  0.2471E-04  0.0000E+00  0.0000E+00  0.0000E+00  0.0000E+00  0.0000E+00
    -15.392  0.1454E-05  0.2037E-04  0.2379E-05  0.2250E-04  0.0000E+00  0.0000E+00  0.0000E+00  0.0000E+00  0.0000E+00
    -15.285  0.1015E-05  0.2121E-04  0.2175E-05  0.2167E-04  0.0000E+00  0.0000E+00  0.0000E+00  0.0000E+00  0.0000E+00
    -15.178  0.1250E-05  0.2191E-03  0.2055E-05  0.8671E-04  0.0000E+00  0.0000E+00  0.0000E+00  0.0000E+00  0.0000E+00
    -15.071  0.3864E-04  0.1173E-01  0.2056E-05  0.3914E-02  0.0000E+00  0.0000E+00  0.0000E+00  0.0000E+00  0.0000E+00
    -14.964  0.6018E-03  0.1050E+00  0.2889E-05  0.3492E-01  0.0000E+00  0.0000E+00  0.0000E+00  0.0000E+00  0.0000E+00
    -14.857  0.2568E-02  0.1997E+00  0.6110E-05  0.6535E-01  0.0000E+00  0.0000E+00  0.0000E+00  0.0000E+00  0.0000E+00
    -14.750  0.6566E-02  0.1970E+00  0.1325E-04  0.5145E-01  0.0000E+00  0.0000E+00  0.0000E+00  0.0000E+00  0.0000E+00
    -14.643  0.1252E-01  0.2292E+00  0.2148E-04  0.5523E-01  0.0000E+00  0.0000E+00  0.0000E+00  0.0000E+00  0.0000E+00
    -14.536  0.1434E-01  0.1619E+00  0.2260E-04  0.9749E-01  0.0000E+00  0.0000E+00  0.0000E+00  0.0000E+00  0.0000E+00
    -14.429  0.1444E-01  0.9705E-01  0.2247E-04  0.1176E+00  0.0000E+00  0.0000E+00  0.0000E+00  0.0000E+00  0.0000E+00
    -14.322  0.1460E-01  0.8430E-01  0.2272E-04  0.1152E+00  0.0000E+00  0.0000E+00  0.0000E+00  0.0000E+00  0.0000E+00
    -14.215  0.1456E-01  0.8318E-01  0.2258E-04  0.1151E+00  0.0000E+00  0.0000E+00  0.0000E+00  0.0000E+00  0.0000E+00
    -14.108  0.1424E-01  0.8565E-01  0.2218E-04  0.1206E+00  0.0000E+00  0.0000E+00  0.0000E+00  0.0000E+00  0.0000E+00
    -14.001  0.1366E-01  0.9277E-01  0.2169E-04  0.1368E+00  0.0000E+00  0.0000E+00  0.0000E+00  0.0000E+00  0.0000E+00
    -13.893  0.1307E-01  0.1157E+00  0.2215E-04  0.1964E+00  0.0000E+00  0.0000E+00  0.0000E+00  0.0000E+00  0.0000E+00
    -13.786  0.1238E-01  0.1611E+00  0.2322E-04  0.3174E+00  0.0000E+00  0.0000E+00  0.0000E+00  0.0000E+00  0.0000E+00
    -13.679  0.9746E-02  0.1725E+00  0.1877E-04  0.3181E+00  0.0000E+00  0.0000E+00  0.0000E+00  0.0000E+00  0.0000E+00
    -13.572  0.6310E-02  0.2023E+00  0.1232E-04  0.3364E+00  0.0000E+00  0.0000E+00  0.0000E+00  0.0000E+00  0.0000E+00
    -13.465  0.2804E-02  0.2170E+00  0.5775E-05  0.3542E+00  0.0000E+00  0.0000E+00  0.0000E+00  0.0000E+00  0.0000E+00
    -13.358  0.5086E-03  0.7738E-01  0.1896E-05  0.1242E+00  0.0000E+00  0.0000E+00  0.0000E+00  0.0000E+00  0.0000E+00
    -13.251  0.3391E-04  0.5233E-02  0.1218E-05  0.8429E-02  0.0000E+00  0.0000E+00  0.0000E+00  0.0000E+00  0.0000E+00
    -13.144  0.9081E-05  0.1102E-03  0.1217E-05  0.2035E-03  0.0000E+00  0.0000E+00  0.0000E+00  0.0000E+00  0.0000E+00
    -13.037  0.6702E-05  0.2848E-04  0.1186E-05  0.5607E-04  0.0000E+00  0.0000E+00  0.0000E+00  0.0000E+00  0.0000E+00
    -12.930  0.5339E-05  0.1496E-04  0.9700E-06  0.2957E-04  0.0000E+00  0.0000E+00  0.0000E+00  0.0000E+00  0.0000E+00
    -12.823  0.4479E-05  0.8485E-05  0.8226E-06  0.1724E-04  0.0000E+00  0.0000E+00  0.0000E+00  0.0000E+00  0.0000E+00
    -12.716  0.3923E-05  0.4984E-05  0.7326E-06  0.1016E-04  0.0000E+00  0.0000E+00  0.0000E+00  0.0000E+00  0.0000E+00
    -12.609  0.3530E-05  0.3023E-05  0.6838E-06  0.6431E-05  0.0000E+00  0.0000E+00  0.0000E+00  0.0000E+00  0.0000E+00
    -12.502  0.3234E-05  0.1892E-05  0.6609E-06  0.4417E-05  0.0000E+00  0.0000E+00  0.0000E+00  0.0000E+00  0.0000E+00
    -12.395  0.2998E-05  0.1217E-05  0.6409E-06  0.3153E-05  0.0000E+00  0.0000E+00  0.0000E+00  0.0000E+00  0.0000E+00
    -12.288  0.2805E-05  0.8144E-06  0.6219E-06  0.2324E-05  0.0000E+00  0.0000E+00  0.0000E+00  0.0000E+00  0.0000E+00
    -12.181  0.2644E-05  0.5814E-06  0.6038E-06  0.1769E-05  0.0000E+00  0.0000E+00  0.0000E+00  0.0000E+00  0.0000E+00
    -12.074  0.2509E-05  0.4578E-06  0.5864E-06  0.1394E-05  0.0000E+00  0.0000E+00  0.0000E+00  0.0000E+00  0.0000E+00
    -11.967  0.2394E-05  0.4064E-06  0.5695E-06  0.1140E-05  0.0000E+00  0.0000E+00  0.0000E+00  0.0000E+00  0.0000E+00
    -11.860  0.2298E-05  0.4040E-06  0.5533E-06  0.9712E-06  0.0000E+00  0.0000E+00  0.0000E+00  0.0000E+00  0.0000E+00
    -11.753  0.2219E-05  0.4363E-06  0.5380E-06  0.8637E-06  0.0000E+00  0.0000E+00  0.0000E+00  0.0000E+00  0.0000E+00
    -11.646  0.2158E-05  0.4948E-06  0.5237E-06  0.8020E-06  0.0000E+00  0.0000E+00  0.0000E+00  0.0000E+00  0.0000E+00
    -11.539  0.2119E-05  0.5753E-06  0.5104E-06  0.7772E-06  0.0000E+00  0.0000E+00  0.0000E+00  0.0000E+00  0.0000E+00
    -11.432  0.2108E-05  0.6788E-06  0.4996E-06  0.7902E-06  0.0000E+00  0.0000E+00  0.0000E+00  0.0000E+00  0.0000E+00
    -11.325  0.2206E-05  0.8748E-06  0.5286E-06  0.1053E-05  0.0000E+00  0.0000E+00  0.0000E+00  0.0000E+00  0.0000E+00
    -11.218  0.2703E-05  0.1450E-05  0.7547E-06  0.2419E-05  0.0000E+00  0.0000E+00  0.0000E+00  0.0000E+00  0.0000E+00
    -11.111  0.3220E-05  0.2006E-05  0.9219E-06  0.3349E-05  0.0000E+00  0.0000E+00  0.0000E+00  0.0000E+00  0.0000E+00
    -11.004  0.3900E-05  0.2424E-05  0.8784E-06  0.3147E-05  0.0000E+00  0.0000E+00  0.0000E+00  0.0000E+00  0.0000E+00
    -10.897  0.9640E-05  0.3686E-05  0.8069E-06  0.6242E-05  0.0000E+00  0.0000E+00  0.0000E+00  0.0000E+00  0.0000E+00
    -10.790  0.7972E-03  0.1482E-03  0.1975E-05  0.4477E-03  0.0000E+00  0.0000E+00  0.0000E+00  0.0000E+00  0.0000E+00
    -10.683  0.1641E-01  0.3040E-02  0.2921E-04  0.9254E-02  0.0000E+00  0.0000E+00  0.0000E+00  0.0000E+00  0.0000E+00
    -10.576  0.6093E-01  0.1118E-01  0.1070E-03  0.3399E-01  0.0000E+00  0.0000E+00  0.0000E+00  0.0000E+00  0.0000E+00
    -10.469  0.1024E+00  0.1223E-01  0.1752E-03  0.3620E-01  0.0000E+00  0.0000E+00  0.0000E+00  0.0000E+00  0.0000E+00
    -10.362  0.2083E+00  0.1179E-01  0.3470E-03  0.2809E-01  0.0000E+00  0.0000E+00  0.0000E+00  0.0000E+00  0.0000E+00
    -10.255  0.2216E+00  0.1563E-01  0.3678E-03  0.2623E-01  0.0000E+00  0.0000E+00  0.0000E+00  0.0000E+00  0.0000E+00
    -10.148  0.1686E+00  0.1817E-01  0.2802E-03  0.2482E-01  0.0000E+00  0.0000E+00  0.0000E+00  0.0000E+00  0.0000E+00
    -10.041  0.8900E-01  0.1508E-01  0.1477E-03  0.2221E-01  0.0000E+00  0.0000E+00  0.0000E+00  0.0000E+00  0.0000E+00
     -9.934  0.5000E-01  0.1421E-01  0.8274E-04  0.5331E-01  0.0000E+00  0.0000E+00  0.0000E+00  0.0000E+00  0.0000E+00
     -9.827  0.4238E-01  0.1587E-01  0.7001E-04  0.1019E+00  0.0000E+00  0.0000E+00  0.0000E+00  0.0000E+00  0.0000E+00
     -9.720  0.4012E-01  0.2068E-01  0.6546E-04  0.9465E-01  0.0000E+00  0.0000E+00  0.0000E+00  0.0000E+00  0.0000E+00
     -9.613  0.4574E-01  0.3450E-01  0.7209E-04  0.9665E-01  0.0000E+00  0.0000E+00  0.0000E+00  0.0000E+00  0.0000E+00
     -9.506  0.4631E-01  0.4783E-01  0.7253E-04  0.1053E+00  0.0000E+00  0.0000E+00  0.0000E+00  0.0000E+00  0.0000E+00
     -9.399  0.4042E-01  0.7593E-01  0.6401E-04  0.1065E+00  0.0000E+00  0.0000E+00  0.0000E+00  0.0000E+00  0.0000E+00
     -9.292  0.3587E-01  0.9055E-01  0.5671E-04  0.8780E-01  0.0000E+00  0.0000E+00  0.0000E+00  0.0000E+00  0.0000E+00
     -9.185  0.3235E-01  0.1023E+00  0.5081E-04  0.7543E-01  0.0000E+00  0.0000E+00  0.0000E+00  0.0000E+00  0.0000E+00
     -9.078  0.2910E-01  0.1511E+00  0.4537E-04  0.5119E-01  0.0000E+00  0.0000E+00  0.0000E+00  0.0000E+00  0.0000E+00
     -8.971  0.2066E-01  0.1431E+00  0.3155E-04  0.3145E-01  0.0000E+00  0.0000E+00  0.0000E+00  0.0000E+00  0.0000E+00
     -8.864  0.1266E-01  0.1011E+00  0.1834E-04  0.2980E-01  0.0000E+00  0.0000E+00  0.0000E+00  0.0000E+00  0.0000E+00
     -8.757  0.1069E-01  0.9659E-01  0.1491E-04  0.3133E-01  0.0000E+00  0.0000E+00  0.0000E+00  0.0000E+00  0.0000E+00
     -8.650  0.9838E-02  0.1026E+00  0.1378E-04  0.3352E-01  0.0000E+00  0.0000E+00  0.0000E+00  0.0000E+00  0.0000E+00
     -8.543  0.8992E-02  0.1122E+00  0.9883E-04  0.3670E-01  0.0000E+00  0.0000E+00  0.0000E+00  0.0000E+00  0.0000E+00
     -8.436  0.8087E-02  0.1275E+00  0.2109E-02  0.4174E-01  0.0000E+00  0.0000E+00  0.0000E+00  0.0000E+00  0.0000E+00
     -8.329  0.8334E-02  0.1595E+00  0.8587E-02  0.5220E-01  0.0000E+00  0.0000E+00  0.0000E+00  0.0000E+00  0.0000E+00
     -8.222  0.2880E-01  0.2252E+00  0.9294E-02  0.7408E-01  0.0000E+00  0.0000E+00  0.0000E+00  0.0000E+00  0.0000E+00
     -8.115  0.7870E-01  0.1975E+00  0.6450E-02  0.6730E-01  0.0000E+00  0.0000E+00  0.0000E+00  0.0000E+00  0.0000E+00
     -8.007  0.7670E-01  0.8265E-01  0.5137E-02  0.3308E-01  0.0000E+00  0.0000E+00  0.0000E+00  0.0000E+00  0.0000E+00
     -7.900  0.6040E-01  0.7443E-01  0.4467E-02  0.3208E-01  0.0000E+00  0.0000E+00  0.0000E+00  0.0000E+00  0.0000E+00
     -7.793  0.5441E-01  0.7057E-01  0.4055E-02  0.4726E-01  0.0000E+00  0.0000E+00  0.0000E+00  0.0000E+00  0.0000E+00
     -7.686  0.5180E-01  0.3658E-01  0.3770E-02  0.7210E-01  0.0000E+00  0.0000E+00  0.0000E+00  0.0000E+00  0.0000E+00
     -7.579  0.3069E-01  0.1718E-01  0.3571E-02  0.5048E-01  0.0000E+00  0.0000E+00  0.0000E+00  0.0000E+00  0.0000E+00
     -7.472  0.4515E-02  0.2662E-02  0.3441E-02  0.8316E-02  0.0000E+00  0.0000E+00  0.0000E+00  0.0000E+00  0.0000E+00
     -7.365  0.1149E-03  0.2328E-03  0.3366E-02  0.1045E-02  0.0000E+00  0.0000E+00  0.0000E+00  0.0000E+00  0.0000E+00
     -7.258  0.6882E-05  0.2101E-03  0.3334E-02  0.1037E-02  0.0000E+00  0.0000E+00  0.0000E+00  0.0000E+00  0.0000E+00
     -7.151  0.4803E-05  0.2469E-03  0.3344E-02  0.1181E-02  0.0000E+00  0.0000E+00  0.0000E+00  0.0000E+00  0.0000E+00
     -7.044  0.3695E-05  0.2863E-03  0.3404E-02  0.1310E-02  0.0000E+00  0.0000E+00  0.0000E+00  0.0000E+00  0.0000E+00
     -6.937  0.3095E-05  0.3259E-03  0.3702E-02  0.1433E-02  0.0000E+00  0.0000E+00  0.0000E+00  0.0000E+00  0.0000E+00
     -6.830  0.3733E-04  0.3690E-03  0.1462E-01  0.1555E-02  0.0000E+00  0.0000E+00  0.0000E+00  0.0000E+00  0.0000E+00
     -6.723  0.3324E-03  0.4188E-03  0.1076E+00  0.1690E-02  0.0000E+00  0.0000E+00  0.0000E+00  0.0000E+00  0.0000E+00
     -6.616  0.6444E-03  0.5021E-03  0.2176E+00  0.1872E-02  0.0000E+00  0.0000E+00  0.0000E+00  0.0000E+00  0.0000E+00
     -6.509  0.5067E-03  0.7667E-03  0.1836E+00  0.2111E-02  0.0000E+00  0.0000E+00  0.0000E+00  0.0000E+00  0.0000E+00
     -6.402  0.3904E-03  0.1314E-02  0.1392E+00  0.2449E-02  0.0000E+00  0.0000E+00  0.0000E+00  0.0000E+00  0.0000E+00
     -6.295  0.3864E-03  0.4097E-02  0.1229E+00  0.3650E-02  0.0000E+00  0.0000E+00  0.0000E+00  0.0000E+00  0.0000E+00
     -6.188  0.5250E-03  0.1402E-01  0.1210E+00  0.7527E-02  0.0000E+00  0.0000E+00  0.0000E+00  0.0000E+00  0.0000E+00
     -6.081  0.9357E-03  0.2396E-01  0.1176E+00  0.1131E-01  0.0000E+00  0.0000E+00  0.0000E+00  0.0000E+00  0.0000E+00
     -5.974  0.3412E-02  0.3530E-01  0.1111E+00  0.1334E-01  0.0000E+00  0.0000E+00  0.0000E+00  0.0000E+00  0.0000E+00
     -5.867  0.6607E-02  0.4805E-01  0.1051E+00  0.1529E-01  0.0000E+00  0.0000E+00  0.0000E+00  0.0000E+00  0.0000E+00
     -5.760  0.5322E-02  0.4572E-01  0.8657E-01  0.2266E-01  0.0000E+00  0.0000E+00  0.0000E+00  0.0000E+00  0.0000E+00
     -5.653  0.4872E-02  0.2989E-01  0.1110E+00  0.4434E-01  0.0000E+00  0.0000E+00  0.0000E+00  0.0000E+00  0.0000E+00
     -5.546  0.9197E-02  0.1763E-01  0.2408E+00  0.6300E-01  0.0000E+00  0.0000E+00  0.0000E+00  0.0000E+00  0.0000E+00
     -5.439  0.2448E-01  0.1909E-01  0.3726E+00  0.7847E-01  0.0000E+00  0.0000E+00  0.0000E+00  0.0000E+00  0.0000E+00
     -5.332  0.5490E-01  0.2492E-01  0.2118E+00  0.8961E-01  0.0000E+00  0.0000E+00  0.0000E+00  0.0000E+00  0.0000E+00
     -5.225  0.3825E-01  0.1459E-01  0.1873E+00  0.4079E-01  0.0000E+00  0.0000E+00  0.0000E+00  0.0000E+00  0.0000E+00
     -5.118  0.7231E-02  0.4855E-02  0.1423E+00  0.5366E-02  0.0000E+00  0.0000E+00  0.0000E+00  0.0000E+00  0.0000E+00
     -5.011  0.2466E-02  0.3909E-02  0.2631E-01  0.1915E-02  0.0000E+00  0.0000E+00  0.0000E+00  0.0000E+00  0.0000E+00