<?xml version="1.0" encoding="ISO-8859-1"?>
<modeling>
 <generator>
  <i name="program" type="string">vasp </i>
  <i name="version" type="string">5.4.4.18Apr17-6-g9f103f2a35  </i>
  <i name="subversion" type="string">(build Mar 30 2023 15:39:25) complex            parallel </i>
  <i name="platform" type="string">LinuxIFC </i>
  <i name="date" type="string">2023 08 22 </i>
  <i name="time" type="string">20:44:46 </i>
 </generator>
 <incar>
  <i type="string" name="SYSTEM"> Lattice</i>
  <i type="int" name="ISTART">     0</i>
  <i type="string" name="PREC">accurate</i>
  <i type="string" name="ALGO"> Normal</i>
  <i type="int" name="ISPIN">     2</i>
  <i type="int" name="ICHARG">     2</i>
  <i type="int" name="NELM">    64</i>
  <i type="int" name="IBRION">     2</i>
  <i name="EDIFF">      0.00000100</i>
  <i name="EDIFFG">     -0.00100000</i>
  <i type="int" name="NSW">   128</i>
  <i type="int" name="ISIF">     2</i>
  <i name="ENCUT">    450.00000000</i>
  <i name="POTIM">      0.50000000</i>
  <i type="int" name="ISMEAR">     0</i>
  <i name="SIGMA">      0.10000000</i>
  <i type="logical" name="LWAVE"> F  </i>
  <i type="logical" name="LCHARG"> F  </i>
  <v type="int" name="KPOINT_BSE">    -1     0     0     0</v>
  <i type="int" name="NELM">    64</i>
  <i type="string" name="GGA"> PE</i>
 </incar>
 <structure name="primitive_cell" >
  <crystal>
   <varray name="basis" >
    <v>       4.31280564       2.48999950       0.00000000 </v>
    <v>      -4.31280564       2.48999950       0.00000000 </v>
    <v>       0.00000000       0.00000000      15.00000000 </v>
   </varray>
   <i name="volume">    322.16651698 </i>
   <varray name="rec_basis" >
    <v>       0.11593381       0.20080325       0.00000000 </v>
    <v>      -0.11593381       0.20080325       0.00000000 </v>
    <v>       0.00000000       0.00000000       0.06666667 </v>
   </varray>
  </crystal>
  <varray name="positions" >
   <v>       0.33833034      -0.33083568       0.10000000 </v>
   <v>       0.16373946       0.31999962       0.10000000 </v>
   <v>       0.16376430      -0.15623616       0.10000000 </v>
   <v>      -0.31250150      -0.15627000       0.10000000 </v>
   <v>      -0.15373264      -0.31500406       0.10000000 </v>
   <v>       0.32250218       0.16126397       0.10000000 </v>
   <v>      -0.15376137       0.16123684       0.10000000 </v>
   <v>      -0.32834478       0.33584146       0.10000000 </v>
   <v>       0.33333267      -0.33333367       0.32553333 </v>
   <v>       0.49999967       0.49999933       0.32553333 </v>
   <v>       0.49999967      -0.00000067       0.32553333 </v>
   <v>      -0.00000033       0.49999933       0.32553333 </v>
   <v>      -0.16666733      -0.33333367       0.32553333 </v>
   <v>      -0.16666733       0.16666633       0.32553333 </v>
   <v>       0.33333267       0.16666633       0.32553333 </v>
   <v>      -0.00000033      -0.00000067       0.32553333 </v>
  </varray>
 </structure>
 <varray name="primitive_index" >
  <v type="int" >        1 </v>
  <v type="int" >        3 </v>
  <v type="int" >        5 </v>
  <v type="int" >        7 </v>
  <v type="int" >        8 </v>
  <v type="int" >        4 </v>
  <v type="int" >        6 </v>
  <v type="int" >        2 </v>
  <v type="int" >       11 </v>
  <v type="int" >       12 </v>
  <v type="int" >       10 </v>
  <v type="int" >       16 </v>
  <v type="int" >       15 </v>
  <v type="int" >       13 </v>
  <v type="int" >        9 </v>
  <v type="int" >       14 </v>
 </varray>
 <kpoints>
  <generation param="Gamma">
   <v type="int" name="divisions">      12       12        1 </v>
   <v name="usershift">      0.00000000       0.00000000       0.00000000 </v>
   <v name="genvec1">      0.08333333       0.00000000       0.00000000 </v>
   <v name="genvec2">      0.00000000       0.08333333       0.00000000 </v>
   <v name="genvec3">      0.00000000       0.00000000       1.00000000 </v>
   <v name="shift">      0.00000000       0.00000000       0.00000000 </v>
  </generation>
  <varray name="kpointlist" >
   <v>       0.00000000       0.00000000       0.00000000 </v>
   <v>       0.08333333      -0.00000000       0.00000000 </v>
   <v>       0.16666667      -0.00000000       0.00000000 </v>
   <v>       0.25000000      -0.00000000       0.00000000 </v>
   <v>       0.33333333       0.00000000       0.00000000 </v>
   <v>       0.41666667       0.00000000       0.00000000 </v>
   <v>       0.50000000      -0.00000000       0.00000000 </v>
   <v>      -0.00000000       0.08333333       0.00000000 </v>
   <v>       0.08333333       0.08333333       0.00000000 </v>
   <v>       0.16666667       0.08333333       0.00000000 </v>
   <v>       0.25000000       0.08333333       0.00000000 </v>
   <v>       0.33333333       0.08333333       0.00000000 </v>
   <v>       0.41666667       0.08333333       0.00000000 </v>
   <v>       0.50000000       0.08333333       0.00000000 </v>
   <v>      -0.41666667       0.08333333       0.00000000 </v>
   <v>      -0.33333333       0.08333333       0.00000000 </v>
   <v>      -0.25000000       0.08333333       0.00000000 </v>
   <v>      -0.16666667       0.08333333       0.00000000 </v>
   <v>      -0.08333333       0.08333333       0.00000000 </v>
   <v>      -0.00000000       0.16666667       0.00000000 </v>
   <v>       0.08333333       0.16666667       0.00000000 </v>
   <v>       0.16666667       0.16666667       0.00000000 </v>
   <v>       0.25000000       0.16666667       0.00000000 </v>
   <v>       0.33333333       0.16666667       0.00000000 </v>
   <v>       0.41666667       0.16666667       0.00000000 </v>
   <v>       0.50000000       0.16666667       0.00000000 </v>
   <v>      -0.41666667       0.16666667       0.00000000 </v>
   <v>      -0.33333333       0.16666667       0.00000000 </v>
   <v>      -0.25000000       0.16666667       0.00000000 </v>
   <v>      -0.16666667       0.16666667       0.00000000 </v>
   <v>      -0.08333333       0.16666667       0.00000000 </v>
   <v>      -0.00000000       0.25000000       0.00000000 </v>
   <v>       0.08333333       0.25000000       0.00000000 </v>
   <v>       0.16666667       0.25000000       0.00000000 </v>
   <v>       0.25000000       0.25000000       0.00000000 </v>
   <v>       0.33333333       0.25000000       0.00000000 </v>
   <v>       0.41666667       0.25000000       0.00000000 </v>
   <v>       0.50000000       0.25000000       0.00000000 </v>
   <v>      -0.41666667       0.25000000       0.00000000 </v>
   <v>      -0.33333333       0.25000000       0.00000000 </v>
   <v>      -0.25000000       0.25000000       0.00000000 </v>
   <v>      -0.16666667       0.25000000       0.00000000 </v>
   <v>      -0.08333333       0.25000000       0.00000000 </v>
   <v>       0.00000000       0.33333333       0.00000000 </v>
   <v>       0.08333333       0.33333333       0.00000000 </v>
   <v>       0.16666667       0.33333333       0.00000000 </v>
   <v>       0.25000000       0.33333333       0.00000000 </v>
   <v>       0.33333333       0.33333333       0.00000000 </v>
   <v>       0.41666667       0.33333333       0.00000000 </v>
   <v>       0.50000000       0.33333333       0.00000000 </v>
   <v>      -0.41666667       0.33333333       0.00000000 </v>
   <v>      -0.33333333       0.33333333       0.00000000 </v>
   <v>      -0.25000000       0.33333333       0.00000000 </v>
   <v>      -0.16666667       0.33333333       0.00000000 </v>
   <v>      -0.08333333       0.33333333       0.00000000 </v>
   <v>       0.00000000       0.41666667       0.00000000 </v>
   <v>       0.08333333       0.41666667       0.00000000 </v>
   <v>       0.16666667       0.41666667       0.00000000 </v>
   <v>       0.25000000       0.41666667       0.00000000 </v>
   <v>       0.33333333       0.41666667       0.00000000 </v>
   <v>       0.41666667       0.41666667       0.00000000 </v>
   <v>       0.50000000       0.41666667       0.00000000 </v>
   <v>      -0.41666667       0.41666667       0.00000000 </v>
   <v>      -0.33333333       0.41666667       0.00000000 </v>
   <v>      -0.25000000       0.41666667       0.00000000 </v>
   <v>      -0.16666667       0.41666667       0.00000000 </v>
   <v>      -0.08333333       0.41666667       0.00000000 </v>
   <v>      -0.00000000       0.50000000       0.00000000 </v>
   <v>       0.08333333       0.50000000       0.00000000 </v>
   <v>       0.16666667       0.50000000       0.00000000 </v>
   <v>       0.25000000       0.50000000       0.00000000 </v>
   <v>       0.33333333       0.50000000       0.00000000 </v>
   <v>       0.41666667       0.50000000       0.00000000 </v>
   <v>       0.50000000       0.50000000       0.00000000 </v>
  </varray>
  <varray name="weights" >
   <v>       0.00694444 </v>
   <v>       0.01388889 </v>
   <v>       0.01388889 </v>
   <v>       0.01388889 </v>
   <v>       0.01388889 </v>
   <v>       0.01388889 </v>
   <v>       0.00694444 </v>
   <v>       0.01388889 </v>
   <v>       0.01388889 </v>
   <v>       0.01388889 </v>
   <v>       0.01388889 </v>
   <v>       0.01388889 </v>
   <v>       0.01388889 </v>
   <v>       0.01388889 </v>
   <v>       0.01388889 </v>
   <v>       0.01388889 </v>
   <v>       0.01388889 </v>
   <v>       0.01388889 </v>
   <v>       0.01388889 </v>
   <v>       0.01388889 </v>
   <v>       0.01388889 </v>
   <v>       0.01388889 </v>
   <v>       0.01388889 </v>
   <v>       0.01388889 </v>
   <v>       0.01388889 </v>
   <v>       0.01388889 </v>
   <v>       0.01388889 </v>
   <v>       0.01388889 </v>
   <v>       0.01388889 </v>
   <v>       0.01388889 </v>
   <v>       0.01388889 </v>
   <v>       0.01388889 </v>
   <v>       0.01388889 </v>
   <v>       0.01388889 </v>
   <v>       0.01388889 </v>
   <v>       0.01388889 </v>
   <v>       0.01388889 </v>
   <v>       0.01388889 </v>
   <v>       0.01388889 </v>
   <v>       0.01388889 </v>
   <v>       0.01388889 </v>
   <v>       0.01388889 </v>
   <v>       0.01388889 </v>
   <v>       0.01388889 </v>
   <v>       0.01388889 </v>
   <v>       0.01388889 </v>
   <v>       0.01388889 </v>
   <v>       0.01388889 </v>
   <v>       0.01388889 </v>
   <v>       0.01388889 </v>
   <v>       0.01388889 </v>
   <v>       0.01388889 </v>
   <v>       0.01388889 </v>
   <v>       0.01388889 </v>
   <v>       0.01388889 </v>
   <v>       0.01388889 </v>
   <v>       0.01388889 </v>
   <v>       0.01388889 </v>
   <v>       0.01388889 </v>
   <v>       0.01388889 </v>
   <v>       0.01388889 </v>
   <v>       0.01388889 </v>
   <v>       0.01388889 </v>
   <v>       0.01388889 </v>
   <v>       0.01388889 </v>
   <v>       0.01388889 </v>
   <v>       0.01388889 </v>
   <v>       0.00694444 </v>
   <v>       0.01388889 </v>
   <v>       0.01388889 </v>
   <v>       0.01388889 </v>
   <v>       0.01388889 </v>
   <v>       0.01388889 </v>
   <v>       0.00694444 </v>
  </varray>
 </kpoints>
 <parameters>
  <separator name="general" >
   <i type="string" name="SYSTEM">Lattice</i>
   <i type="logical" name="LCOMPAT"> F  </i>
  </separator>
  <separator name="electronic" >
   <i type="string" name="PREC">accura</i>
   <i name="ENMAX">    450.00000000</i>
   <i name="ENAUG">    644.87300000</i>
   <i name="EDIFF">      0.00000100</i>
   <i type="int" name="IALGO">    38</i>
   <i type="int" name="IWAVPR">    11</i>
   <i type="int" name="NBANDS">    48</i>
   <i name="NELECT">     62.00000000</i>
   <i type="int" name="TURBO">     0</i>
   <i type="int" name="IRESTART">     0</i>
   <i type="int" name="NREBOOT">     0</i>
   <i type="int" name="NMIN">     0</i>
   <i name="EREF">      0.00000000</i>
   <separator name="electronic smearing" >
    <i type="int" name="ISMEAR">     0</i>
    <i name="SIGMA">      0.10000000</i>
    <i name="KSPACING">      0.50000000</i>
    <i type="logical" name="KGAMMA"> T  </i>
   </separator>
   <separator name="electronic projectors" >
    <i type="logical" name="LREAL"> F  </i>
    <v name="ROPT">      0.00000000      0.00000000</v>
    <i type="int" name="LMAXPAW">  -100</i>
    <i type="int" name="LMAXMIX">     2</i>
    <i type="logical" name="NLSPLINE"> F  </i>
   </separator>
   <separator name="electronic startup" >
    <i type="int" name="ISTART">     0</i>
    <i type="int" name="ICHARG">     2</i>
    <i type="int" name="INIWAV">     1</i>
   </separator>
   <separator name="electronic spin" >
    <i type="int" name="ISPIN">     2</i>
    <i type="logical" name="LNONCOLLINEAR"> F  </i>
    <v name="MAGMOM">      1.00000000      1.00000000      1.00000000      1.00000000      1.00000000      1.00000000      1.00000000      1.00000000      1.00000000      1.00000000      1.00000000      1.00000000      1.00000000      1.00000000      1.00000000      1.00000000</v>
    <i name="NUPDOWN">     -1.00000000</i>
    <i type="logical" name="LSORBIT"> F  </i>
    <v name="SAXIS">      0.00000000      0.00000000      1.00000000</v>
    <i type="logical" name="LSPIRAL"> F  </i>
    <v name="QSPIRAL">      0.00000000      0.00000000      0.00000000</v>
    <i type="logical" name="LZEROZ"> F  </i>
   </separator>
   <separator name="electronic exchange-correlation" >
    <i type="logical" name="LASPH"> F  </i>
    <i type="logical" name="LMETAGGA"> F  </i>
   </separator>
   <separator name="electronic convergence" >
    <i type="int" name="NELM">    64</i>
    <i type="int" name="NELMDL">    -5</i>
    <i type="int" name="NELMIN">     2</i>
    <i name="ENINI">    450.00000000</i>
    <separator name="electronic convergence detail" >
     <i type="logical" name="LDIAG"> T  </i>
     <i type="logical" name="LSUBROT"> F  </i>
     <i name="WEIMIN">      0.00100000</i>
     <i name="EBREAK">      0.00000001</i>
     <i name="DEPER">      0.30000000</i>
     <i type="int" name="NRMM">     4</i>
     <i name="TIME">      0.40000000</i>
    </separator>
   </separator>
   <separator name="electronic mixer" >
    <i name="AMIX">      0.40000000</i>
    <i name="BMIX">      1.00000000</i>
    <i name="AMIN">      0.10000000</i>
    <i name="AMIX_MAG">      1.60000000</i>
    <i name="BMIX_MAG">      1.00000000</i>
    <separator name="electronic mixer details" >
     <i type="int" name="IMIX">     4</i>
     <i type="logical" name="MIXFIRST"> F  </i>
     <i type="int" name="MAXMIX">   -45</i>
     <i name="WC">    100.00000000</i>
     <i type="int" name="INIMIX">     1</i>
     <i type="int" name="MIXPRE">     1</i>
     <i type="int" name="MREMOVE">     5</i>
    </separator>
   </separator>
   <separator name="electronic dipolcorrection" >
    <i type="logical" name="LDIPOL"> F  </i>
    <i type="logical" name="LMONO"> F  </i>
    <i type="int" name="IDIPOL">     0</i>
    <i name="EPSILON">      1.00000000</i>
    <v name="DIPOL">   -100.00000000   -100.00000000   -100.00000000</v>
    <i name="EFIELD">      0.00000000</i>
   </separator>
  </separator>
  <separator name="grids" >
   <i type="int" name="NGX">    36</i>
   <i type="int" name="NGY">    36</i>
   <i type="int" name="NGZ">   108</i>
   <i type="int" name="NGXF">    72</i>
   <i type="int" name="NGYF">    72</i>
   <i type="int" name="NGZF">   216</i>
   <i type="logical" name="ADDGRID"> F  </i>
  </separator>
  <separator name="ionic" >
   <i type="int" name="NSW">   128</i>
   <i type="int" name="IBRION">     2</i>
   <i type="int" name="MDALGO">     0</i>
   <i type="int" name="ISIF">     2</i>
   <i name="PSTRESS">      0.00000000</i>
   <i name="EDIFFG">     -0.00100000</i>
   <i type="int" name="NFREE">     1</i>
   <i name="POTIM">      0.50000000</i>
   <i name="SMASS">     -3.00000000</i>
   <i name="SCALEE">      1.00000000</i>
  </separator>
  <separator name="ionic md" >
   <i name="TEBEG">      0.00010000</i>
   <i name="TEEND">      0.00010000</i>
   <i type="int" name="NBLOCK">     1</i>
   <i type="int" name="KBLOCK">   128</i>
   <i type="int" name="NPACO">   256</i>
   <i name="APACO">     16.00000000</i>
  </separator>
  <separator name="symmetry" >
   <i type="int" name="ISYM">     2</i>
   <i name="SYMPREC">      0.00001000</i>
  </separator>
  <separator name="dos" >
   <i type="int" name="LORBIT">     0</i>
   <v name="RWIGS">     -1.00000000     -1.00000000</v>
   <i type="int" name="NEDOS">   301</i>
   <i name="EMIN">     10.00000000</i>
   <i name="EMAX">    -10.00000000</i>
   <i name="EFERMI">      0.00000000</i>
  </separator>
  <separator name="writing" >
   <i type="int" name="NWRITE">     2</i>
   <i type="logical" name="LWAVE"> F  </i>
   <i type="logical" name="LDOWNSAMPLE"> F  </i>
   <i type="logical" name="LCHARG"> F  </i>
   <i type="logical" name="LPARD"> F  </i>
   <i type="logical" name="LVTOT"> F  </i>
   <i type="logical" name="LVHAR"> F  </i>
   <i type="logical" name="LELF"> F  </i>
   <i type="logical" name="LOPTICS"> F  </i>
   <v name="STM">      0.00000000      0.00000000      0.00000000      0.00000000      0.00000000      0.00000000      0.00000000</v>
  </separator>
  <separator name="performance" >
   <i type="int" name="NPAR">    16</i>
   <i type="int" name="NSIM">     4</i>
   <i type="int" name="NBLK">    -1</i>
   <i type="logical" name="LPLANE"> T  </i>
   <i type="logical" name="LSCALAPACK"> T  </i>
   <i type="logical" name="LSCAAWARE"> F  </i>
   <i type="logical" name="LSCALU"> F  </i>
   <i type="logical" name="LASYNC"> F  </i>
   <i type="logical" name="LORBITALREAL"> F  </i>
  </separator>
  <separator name="miscellaneous" >
   <i type="int" name="IDIOT">     3</i>
   <i type="int" name="ISPECIAL">     0</i>
   <i type="logical" name="LMUSIC"> F  </i>
   <v name="POMASS">     10.81100000     12.01100000</v>
   <v name="DARWINR">      0.00000000      0.00000000</v>
   <v name="DARWINV">      1.00000000      1.00000000</v>
   <i type="logical" name="LCORR"> T  </i>
  </separator>
  <i type="logical" name="GGA_COMPAT"> T  </i>
  <i type="logical" name="LBERRY"> F  </i>
  <i type="int" name="ICORELEVEL">     0</i>
  <i type="logical" name="LDAU"> F  </i>
  <i type="int" name="I_CONSTRAINED_M">     0</i>
  <separator name="electronic exchange-correlation" >
   <i type="string" name="GGA">PE</i>
   <i type="int" name="VOSKOWN">     0</i>
   <i type="logical" name="LHFCALC"> F  </i>
   <i type="string" name="PRECFOCK"></i>
   <i type="logical" name="LSYMGRAD"> F  </i>
   <i type="logical" name="LHFONE"> F  </i>
   <i type="logical" name="LRHFCALC"> F  </i>
   <i type="logical" name="LTHOMAS"> F  </i>
   <i type="logical" name="LMODELHF"> F  </i>
   <i name="ENCUT4O">     -1.00000000</i>
   <i type="int" name="EXXOEP">     0</i>
   <i type="int" name="FOURORBIT">     0</i>
   <i name="AEXX">      0.00000000</i>
   <i name="HFALPHA">      0.00000000</i>
   <i name="MCALPHA">      0.00000000</i>
   <i name="ALDAX">      1.00000000</i>
   <i name="AGGAX">      1.00000000</i>
   <i name="ALDAC">      1.00000000</i>
   <i name="AGGAC">      1.00000000</i>
   <i type="int" name="NKREDX">     1</i>
   <i type="int" name="NKREDY">     1</i>
   <i type="int" name="NKREDZ">     1</i>
   <i type="logical" name="SHIFTRED"> F  </i>
   <i type="logical" name="ODDONLY"> F  </i>
   <i type="logical" name="EVENONLY"> F  </i>
   <i type="int" name="LMAXFOCK">     0</i>
   <i type="int" name="NMAXFOCKAE">     0</i>
   <i type="logical" name="LFOCKAEDFT"> F  </i>
   <i name="HFSCREEN">      0.00000000</i>
   <i name="HFSCREENC">      0.00000000</i>
   <i type="int" name="NBANDSGWLOW">     0</i>
  </separator>
  <separator name="vdW DFT" >
   <i type="logical" name="LUSE_VDW"> F  </i>
   <i name="Zab_VDW">     -0.84910000</i>
   <i name="PARAM1">      0.12340000</i>
   <i name="PARAM2">      1.00000000</i>
   <i name="PARAM3">      0.00000000</i>
  </separator>
  <separator name="model GW" >
   <i type="int" name="MODEL_GW">     0</i>
   <i name="MODEL_EPS0">     12.08124439</i>
   <i name="MODEL_ALPHA">      1.00000000</i>
  </separator>
  <separator name="linear response parameters" >
   <i type="logical" name="LEPSILON"> F  </i>
   <i type="logical" name="LRPA"> F  </i>
   <i type="logical" name="LNABLA"> F  </i>
   <i type="logical" name="LVEL"> F  </i>
   <i type="int" name="KINTER">     0</i>
   <i name="CSHIFT">      0.10000000</i>
   <i name="OMEGAMAX">     -1.00000000</i>
   <i name="DEG_THRESHOLD">      0.00200000</i>
   <i name="RTIME">     -0.10000000</i>
   <i name="WPLASMAI">      0.00000000</i>
   <v name="DFIELD">      0.00000000      0.00000000      0.00000000</v>
   <v name="WPLASMA">      0.00000000      0.00000000      0.00000000      0.00000000      0.00000000      0.00000000      0.00000000      0.00000000      0.00000000</v>
  </separator>
  <separator name="orbital magnetization" >
   <i type="logical" name="NUCIND"> F  </i>
   <v name="MAGPOS">      0.00000000      0.00000000      0.00000000</v>
   <i type="logical" name="LNICSALL"> T  </i>
   <i type="logical" name="ORBITALMAG"> F  </i>
   <i type="logical" name="LMAGBLOCH"> F  </i>
   <i type="logical" name="LCHIMAG"> F  </i>
   <i type="logical" name="LGAUGE"> T  </i>
   <i type="int" name="MAGATOM">     0</i>
   <v name="MAGDIPOL">      0.00000000      0.00000000      0.00000000</v>
   <v name="AVECCONST">      0.00000000      0.00000000      0.00000000</v>
  </separator>
  <separator name="response functions" >
   <i type="logical" name="LADDER"> F  </i>
   <i type="logical" name="LRPAFORCE"> F  </i>
   <i type="logical" name="LFXC"> F  </i>
   <i type="logical" name="LHARTREE"> T  </i>
   <i type="int" name="IBSE">     0</i>
   <v type="int" name="KPOINT">    -1     0     0     0</v>
   <i type="logical" name="LTCTE"> F  </i>
   <i type="logical" name="LTETE"> F  </i>
   <i type="logical" name="LTRIPLET"> F  </i>
   <i type="logical" name="LFXCEPS"> F  </i>
   <i type="logical" name="LFXHEG"> F  </i>
   <i type="int" name="NATURALO">     2</i>
   <i type="logical" name="L2ORDER"> F  </i>
   <i type="logical" name="LMP2LT"> F  </i>
   <i type="logical" name="LUSEW"> F  </i>
   <i name="ENCUTGW">     -2.00000000</i>
   <i name="ENCUTGWSOFT">     -2.00000000</i>
   <i name="ENCUTLF">     -1.00000000</i>
   <i type="int" name="LMAXMP2">    -1</i>
   <i name="SCISSOR">      0.00000000</i>
   <i type="int" name="NOMEGA">     0</i>
   <i type="int" name="NOMEGAR">     0</i>
   <i type="int" name="NBANDSGW">    -1</i>
   <i type="int" name="NBANDSO">    -1</i>
   <i type="int" name="NBANDSV">    -1</i>
   <i type="int" name="NELM">    64</i>
   <i type="int" name="NELMHF">     1</i>
   <i type="int" name="DIM">     3</i>
   <i type="int" name="ANTIRES">     0</i>
   <i name="OMEGAMAX">    -30.00000000</i>
   <i name="OMEGAMIN">    -30.00000000</i>
   <i name="OMEGATL">   -200.00000000</i>
   <i type="int" name="OMEGAGRID">   140</i>
   <i name="CSHIFT">     -0.10000000</i>
   <i type="logical" name="SELFENERGY"> F  </i>
   <i type="logical" name="LSPECTRAL"> F  </i>
   <i type="logical" name="LSPECTRALGW"> F  </i>
   <i type="logical" name="LSINGLES"> F  </i>
   <i type="logical" name="LFERMIGW"> F  </i>
   <i type="logical" name="ODDONLYGW"> F  </i>
   <i type="logical" name="EVENONLYGW"> F  </i>
   <i type="int" name="NKREDLFX">     1</i>
   <i type="int" name="NKREDLFY">     1</i>
   <i type="int" name="NKREDLFZ">     1</i>
   <i type="int" name="MAXMEM">  2800</i>
   <i type="int" name="TELESCOPE">     0</i>
   <i type="int" name="TAUPAR">     1</i>
   <i type="int" name="OMEGAPAR">    -1</i>
   <i name="LAMBDA">      1.00000000</i>
  </separator>
  <separator name="External order field" >
   <i name="OFIELD_KAPPA">      0.00000000</i>
   <v name="OFIELD_K">      0.00000000      0.00000000      0.00000000</v>
   <i name="OFIELD_Q6_NEAR">      0.00000000</i>
   <i name="OFIELD_Q6_FAR">      0.00000000</i>
   <i name="OFIELD_A">      0.00000000</i>
  </separator>
 </parameters>
 <atominfo>
  <atoms>      16 </atoms>
  <types>       2 </types>
  <array name="atoms" >
   <dimension dim="1">ion</dimension>
   <field type="string">element</field>
   <field type="int">atomtype</field>
   <set>
    <rc><c>B </c><c>   1</c></rc>
    <rc><c>B </c><c>   1</c></rc>
    <rc><c>C </c><c>   2</c></rc>
    <rc><c>C </c><c>   2</c></rc>
    <rc><c>C </c><c>   2</c></rc>
    <rc><c>C </c><c>   2</c></rc>
    <rc><c>C </c><c>   2</c></rc>
    <rc><c>C </c><c>   2</c></rc>
    <rc><c>C </c><c>   2</c></rc>
    <rc><c>C </c><c>   2</c></rc>
    <rc><c>C </c><c>   2</c></rc>
    <rc><c>C </c><c>   2</c></rc>
    <rc><c>C </c><c>   2</c></rc>
    <rc><c>C </c><c>   2</c></rc>
    <rc><c>C </c><c>   2</c></rc>
    <rc><c>C </c><c>   2</c></rc>
   </set>
  </array>
  <array name="atomtypes" >
   <dimension dim="1">type</dimension>
   <field type="int">atomspertype</field>
   <field type="string">element</field>
   <field>mass</field>
   <field>valence</field>
   <field type="string">pseudopotential</field>
   <set>
    <rc><c>   2</c><c>B </c><c>     10.81100000</c><c>      3.00000000</c><c>  PAW_PBE B 06Sep2000                   </c></rc>
    <rc><c>  14</c><c>C </c><c>     12.01100000</c><c>      4.00000000</c><c>  PAW_PBE C 08Apr2002                   </c></rc>
   </set>
  </array>
 </atominfo>
 <structure name="initialpos" >
  <crystal>
   <varray name="basis" >
    <v>       4.31280564       2.48999950       0.00000000 </v>
    <v>      -4.31280564       2.48999950       0.00000000 </v>
    <v>       0.00000000       0.00000000      15.00000000 </v>
   </varray>
   <i name="volume">    322.16651698 </i>
   <varray name="rec_basis" >
    <v>       0.11593381       0.20080325       0.00000000 </v>
    <v>      -0.11593381       0.20080325       0.00000000 </v>
    <v>       0.00000000       0.00000000       0.06666667 </v>
   </varray>
  </crystal>
  <varray name="positions" >
   <v>       0.33833034       0.66916432       0.10000000 </v>
   <v>       0.67165522       0.33584146       0.10000000 </v>
   <v>       0.16373946       0.31999962       0.10000000 </v>
   <v>       0.32250218       0.16126397       0.10000000 </v>
   <v>       0.16376430       0.84376384       0.10000000 </v>
   <v>       0.84623863       0.16123684       0.10000000 </v>
   <v>       0.68749850       0.84373000       0.10000000 </v>
   <v>       0.84626736       0.68499594       0.10000000 </v>
   <v>       0.33333267       0.16666633       0.32553333 </v>
   <v>       0.49999967       0.99999933       0.32553333 </v>
   <v>       0.33333267       0.66666633       0.32553333 </v>
   <v>       0.49999967       0.49999933       0.32553333 </v>
   <v>       0.83333267       0.16666633       0.32553333 </v>
   <v>       0.99999967       0.99999933       0.32553333 </v>
   <v>       0.83333267       0.66666633       0.32553333 </v>
   <v>       0.99999967       0.49999933       0.32553333 </v>
  </varray>
 </structure>
 <calculation>
  <scstep>
   <time name="dav">   17.06   17.08</time>
   <time name="total">   17.20   17.22</time>
   <energy>
    <i name="alphaZ">     64.15740606 </i>
    <i name="ewald">   5651.97549846 </i>
    <i name="hartreedc">  -7459.76192346 </i>
    <i name="XCdc">    201.11892962 </i>
    <i name="pawpsdc">   1604.28699987 </i>
    <i name="pawaedc">  -1610.37247880 </i>
    <i name="eentropy">     -0.01850203 </i>
    <i name="bandstr">   -294.06022326 </i>
    <i name="atom">   2202.35892741 </i>
    <i name="e_fr_energy">    359.68463388 </i>
    <i name="e_wo_entrp">    359.70313591 </i>
    <i name="e_0_energy">    359.69388489 </i>
   </energy>
  </scstep>
  <scstep>
   <time name="dav">   23.79   23.81</time>
   <time name="total">   23.79   23.81</time>
   <energy>
    <i name="e_fr_energy">   -109.68669364 </i>
    <i name="e_wo_entrp">   -109.67614044 </i>
    <i name="e_0_energy">   -109.68141704 </i>
   </energy>
  </scstep>
  <scstep>
   <time name="dav">   21.22   21.24</time>
   <time name="total">   21.22   21.24</time>
   <energy>
    <i name="e_fr_energy">   -145.88446977 </i>
    <i name="e_wo_entrp">   -145.87797289 </i>
    <i name="e_0_energy">   -145.88122133 </i>
   </energy>
  </scstep>
  <scstep>
   <time name="dav">   21.74   21.76</time>
   <time name="total">   21.74   21.76</time>
   <energy>
    <i name="e_fr_energy">   -146.73151284 </i>
    <i name="e_wo_entrp">   -146.72519258 </i>
    <i name="e_0_energy">   -146.72835271 </i>
   </energy>
  </scstep>
  <scstep>
   <time name="dav">   22.74   22.76</time>
   <time name="total">   23.63   23.65</time>
   <energy>
    <i name="e_fr_energy">   -146.75891738 </i>
    <i name="e_wo_entrp">   -146.75260526 </i>
    <i name="e_0_energy">   -146.75576132 </i>
   </energy>
  </scstep>
  <scstep>
   <time name="dav">   19.89   19.91</time>
   <time name="total">   20.91   20.93</time>
   <energy>
    <i name="e_fr_energy">   -107.19894249 </i>
    <i name="e_wo_entrp">   -107.17795723 </i>
    <i name="e_0_energy">   -107.18844986 </i>
   </energy>
  </scstep>
  <scstep>
   <time name="dav">   19.95   19.97</time>
   <time name="total">   20.97   20.99</time>
   <energy>
    <i name="e_fr_energy">   -115.28783471 </i>
    <i name="e_wo_entrp">   -115.26990309 </i>
    <i name="e_0_energy">   -115.27886890 </i>
   </energy>
  </scstep>
  <scstep>
   <time name="dav">   20.97   20.99</time>
   <time name="total">   21.99   22.01</time>
   <energy>
    <i name="e_fr_energy">   -123.96508670 </i>
    <i name="e_wo_entrp">   -123.95429764 </i>
    <i name="e_0_energy">   -123.95969217 </i>
   </energy>
  </scstep>
  <scstep>
   <time name="dav">   17.97   17.98</time>
   <time name="total">   18.99   19.00</time>
   <energy>
    <i name="e_fr_energy">   -132.02950979 </i>
    <i name="e_wo_entrp">   -132.02378767 </i>
    <i name="e_0_energy">   -132.02664873 </i>
   </energy>
  </scstep>
  <scstep>
   <time name="dav">   19.59   19.60</time>
   <time name="total">   20.61   20.63</time>
   <energy>
    <i name="e_fr_energy">   -138.72193892 </i>
    <i name="e_wo_entrp">   -138.71927403 </i>
    <i name="e_0_energy">   -138.72060648 </i>
   </energy>
  </scstep>
  <scstep>
   <time name="dav">   19.06   19.08</time>
   <time name="total">   20.09   20.10</time>
   <energy>
    <i name="e_fr_energy">   -139.83715989 </i>
    <i name="e_wo_entrp">   -139.83475571 </i>
    <i name="e_0_energy">   -139.83595780 </i>
   </energy>
  </scstep>
  <scstep>
   <time name="dav">   19.06   19.08</time>
   <time name="total">   20.08   20.10</time>
   <energy>
    <i name="e_fr_energy">   -140.06558561 </i>
    <i name="e_wo_entrp">   -140.06338050 </i>
    <i name="e_0_energy">   -140.06448306 </i>
   </energy>
  </scstep>
  <scstep>
   <time name="dav">   17.79   17.81</time>
   <time name="total">   18.81   18.83</time>
   <energy>
    <i name="e_fr_energy">   -140.13633748 </i>
    <i name="e_wo_entrp">   -140.13379387 </i>
    <i name="e_0_energy">   -140.13506567 </i>
   </energy>
  </scstep>
  <scstep>
   <time name="dav">   18.36   18.38</time>
   <time name="total">   19.38   19.40</time>
   <energy>
    <i name="e_fr_energy">   -140.15899349 </i>
    <i name="e_wo_entrp">   -140.15624067 </i>
    <i name="e_0_energy">   -140.15761708 </i>
   </energy>
  </scstep>
  <scstep>
   <time name="dav">   18.56   18.58</time>
   <time name="total">   19.59   19.60</time>
   <energy>
    <i name="e_fr_energy">   -140.16804044 </i>
    <i name="e_wo_entrp">   -140.16522168 </i>
    <i name="e_0_energy">   -140.16663106 </i>
   </energy>
  </scstep>
  <scstep>
   <time name="dav">   17.73   17.76</time>
   <time name="total">   18.75   18.78</time>
   <energy>
    <i name="e_fr_energy">   -140.16987886 </i>
    <i name="e_wo_entrp">   -140.16705694 </i>
    <i name="e_0_energy">   -140.16846790 </i>
   </energy>
  </scstep>
  <scstep>
   <time name="dav">   17.38   17.39</time>
   <time name="total">   18.40   18.42</time>
   <energy>
    <i name="e_fr_energy">   -140.17187260 </i>
    <i name="e_wo_entrp">   -140.16906232 </i>
    <i name="e_0_energy">   -140.17046746 </i>
   </energy>
  </scstep>
  <scstep>
   <time name="dav">   17.63   17.65</time>
   <time name="total">   18.65   18.67</time>
   <energy>
    <i name="e_fr_energy">   -140.17299244 </i>
    <i name="e_wo_entrp">   -140.17018824 </i>
    <i name="e_0_energy">   -140.17159034 </i>
   </energy>
  </scstep>
  <scstep>
   <time name="dav">   17.50   17.51</time>
   <time name="total">   18.52   18.54</time>
   <energy>
    <i name="e_fr_energy">   -140.17357522 </i>
    <i name="e_wo_entrp">   -140.17077084 </i>
    <i name="e_0_energy">   -140.17217303 </i>
   </energy>
  </scstep>
  <scstep>
   <time name="dav">   18.03   18.05</time>
   <time name="total">   19.06   19.07</time>
   <energy>
    <i name="e_fr_energy">   -140.17376156 </i>
    <i name="e_wo_entrp">   -140.17095152 </i>
    <i name="e_0_energy">   -140.17235654 </i>
   </energy>
  </scstep>
  <scstep>
   <time name="dav">   17.96   17.97</time>
   <time name="total">   18.97   18.99</time>
   <energy>
    <i name="e_fr_energy">   -140.17377404 </i>
    <i name="e_wo_entrp">   -140.17096167 </i>
    <i name="e_0_energy">   -140.17236786 </i>
   </energy>
  </scstep>
  <scstep>
   <time name="dav">   18.18   18.19</time>
   <time name="total">   19.19   19.20</time>
   <energy>
    <i name="e_fr_energy">   -140.17383422 </i>
    <i name="e_wo_entrp">   -140.17102190 </i>
    <i name="e_0_energy">   -140.17242806 </i>
   </energy>
  </scstep>
  <scstep>
   <time name="dav">   17.87   17.88</time>
   <time name="total">   18.88   18.89</time>
   <energy>
    <i name="e_fr_energy">   -140.17385097 </i>
    <i name="e_wo_entrp">   -140.17103867 </i>
    <i name="e_0_energy">   -140.17244482 </i>
   </energy>
  </scstep>
  <scstep>
   <time name="dav">   17.33   17.34</time>
   <time name="total">   18.34   18.36</time>
   <energy>
    <i name="e_fr_energy">   -140.17385487 </i>
    <i name="e_wo_entrp">   -140.17104272 </i>
    <i name="e_0_energy">   -140.17244880 </i>
   </energy>
  </scstep>
  <scstep>
   <time name="dav">   15.37   15.38</time>
   <time name="total">   16.38   16.40</time>
   <energy>
    <i name="e_fr_energy">   -140.17385692 </i>
    <i name="e_wo_entrp">   -140.17104499 </i>
    <i name="e_0_energy">   -140.17245095 </i>
   </energy>
  </scstep>
  <scstep>
   <time name="dav">   15.25   15.26</time>
   <time name="total">   15.38   15.39</time>
   <energy>
    <i name="alphaZ">     64.15740606 </i>
    <i name="ewald">   5651.97549846 </i>
    <i name="hartreedc">  -7706.07978960 </i>
    <i name="XCdc">    208.15119529 </i>
    <i name="pawpsdc">   6694.31528745 </i>
    <i name="pawaedc">  -6702.48401012 </i>
    <i name="eentropy">     -0.00281188 </i>
    <i name="bandstr">   -552.56556086 </i>
    <i name="atom">   2202.35892741 </i>
    <i name="e_fr_energy">   -140.17385780 </i>
    <i name="e_wo_entrp">   -140.17104591 </i>
    <i name="e_0_energy">   -140.17245185 </i>
   </energy>
  </scstep>
  <structure>
   <crystal>
    <varray name="basis" >
     <v>       4.31280564       2.48999950       0.00000000 </v>
     <v>      -4.31280564       2.48999950       0.00000000 </v>
     <v>       0.00000000       0.00000000      15.00000000 </v>
    </varray>
    <i name="volume">    322.16651698 </i>
    <varray name="rec_basis" >
     <v>       0.11593381       0.20080325       0.00000000 </v>
     <v>      -0.11593381       0.20080325       0.00000000 </v>
     <v>       0.00000000       0.00000000       0.06666667 </v>
    </varray>
   </crystal>
   <varray name="positions" >
    <v>       0.33833034       0.66916432       0.10000000 </v>
    <v>       0.67165522       0.33584146       0.10000000 </v>
    <v>       0.16373946       0.31999962       0.10000000 </v>
    <v>       0.32250218       0.16126397       0.10000000 </v>
    <v>       0.16376430       0.84376384       0.10000000 </v>
    <v>       0.84623863       0.16123684       0.10000000 </v>
    <v>       0.68749850       0.84373000       0.10000000 </v>
    <v>       0.84626736       0.68499594       0.10000000 </v>
    <v>       0.33333267       0.16666633       0.32553333 </v>
    <v>       0.49999967       0.99999933       0.32553333 </v>
    <v>       0.33333267       0.66666633       0.32553333 </v>
    <v>       0.49999967       0.49999933       0.32553333 </v>
    <v>       0.83333267       0.16666633       0.32553333 </v>
    <v>       0.99999967       0.99999933       0.32553333 </v>
    <v>       0.83333267       0.66666633       0.32553333 </v>
    <v>       0.99999967       0.49999933       0.32553333 </v>
   </varray>
  </structure>
  <varray name="forces" >
   <v>       0.00067050       0.00110662       0.04976615 </v>
   <v>       0.00561628       0.00089347      -0.00671918 </v>
   <v>      -0.46429396       0.80321176      -0.01483220 </v>
   <v>       0.45253862       0.78301314       0.00629849 </v>
   <v>       0.92882399      -0.00033018      -0.01483175 </v>
   <v>      -0.90767877      -0.00108404       0.00610935 </v>
   <v>      -0.46576760      -0.80255451      -0.01488411 </v>
   <v>       0.44969797      -0.78495168       0.00610557 </v>
   <v>       0.00219418       0.00355206       0.00223399 </v>
   <v>      -0.01268485       0.02025408       0.01422140 </v>
   <v>      -0.00008006      -0.00037541      -0.06258852 </v>
   <v>       0.02366943      -0.00073503       0.01421841 </v>
   <v>      -0.00359677       0.00058680       0.00118563 </v>
   <v>       0.00013341       0.00047698      -0.00210807 </v>
   <v>       0.00251845      -0.00293978       0.00119237 </v>
   <v>      -0.01176083      -0.02012427       0.01463249 </v>
  </varray>
  <varray name="stress" >
   <v>      70.04366868      -0.00545222       0.00377425 </v>
   <v>      -0.00545225      70.04475144       0.00646534 </v>
   <v>       0.00377428       0.00646531      -2.68557862 </v>
  </varray>
  <energy>
   <i name="e_fr_energy">   -142.08974550 </i>
   <i name="e_wo_entrp">   -142.08833955 </i>
   <i name="e_0_energy">     -0.00281188 </i>
  </energy>
  <time name="totalsc">  524.24  524.73</time>
 </calculation>
 <calculation>
  <scstep>
   <time name="dav">   16.99   17.00</time>
   <time name="total">   18.00   18.02</time>
   <energy>
    <i name="alphaZ">     64.15740606 </i>
    <i name="ewald">   5639.60059654 </i>
    <i name="hartreedc">  -7697.15251425 </i>
    <i name="XCdc">    207.93468062 </i>
    <i name="pawpsdc">   6694.32767967 </i>
    <i name="pawaedc">  -6702.49639166 </i>
    <i name="eentropy">     -0.00555892 </i>
    <i name="bandstr">   -548.72961531 </i>
    <i name="atom">   2202.35892741 </i>
    <i name="e_fr_energy">   -140.00478985 </i>
    <i name="e_wo_entrp">   -139.99923093 </i>
    <i name="e_0_energy">   -140.00201039 </i>
   </energy>
  </scstep>
  <scstep>
   <time name="dav">   19.67   19.69</time>
   <time name="total">   20.69   20.71</time>
   <energy>
    <i name="e_fr_energy">   -139.92743746 </i>
    <i name="e_wo_entrp">   -139.92410054 </i>
    <i name="e_0_energy">   -139.92576900 </i>
   </energy>
  </scstep>
  <scstep>
   <time name="dav">   20.73   20.76</time>
   <time name="total">   21.75   21.78</time>
   <energy>
    <i name="e_fr_energy">   -139.91780478 </i>
    <i name="e_wo_entrp">   -139.91479737 </i>
    <i name="e_0_energy">   -139.91630107 </i>
   </energy>
  </scstep>
  <scstep>
   <time name="dav">   19.58   19.60</time>
   <time name="total">   20.60   20.61</time>
   <energy>
    <i name="e_fr_energy">   -139.91806050 </i>
    <i name="e_wo_entrp">   -139.91490712 </i>
    <i name="e_0_energy">   -139.91648381 </i>
   </energy>
  </scstep>
  <scstep>
   <time name="dav">   18.89   18.90</time>
   <time name="total">   19.90   19.92</time>
   <energy>
    <i name="e_fr_energy">   -139.91750484 </i>
    <i name="e_wo_entrp">   -139.91437104 </i>
    <i name="e_0_energy">   -139.91593794 </i>
   </energy>
  </scstep>
  <scstep>
   <time name="dav">   20.36   20.38</time>
   <time name="total">   21.38   21.40</time>
   <energy>
    <i name="e_fr_energy">   -139.91750433 </i>
    <i name="e_wo_entrp">   -139.91437730 </i>
    <i name="e_0_energy">   -139.91594081 </i>
   </energy>
  </scstep>
  <scstep>
   <time name="dav">   21.06   21.08</time>
   <time name="total">   22.08   22.10</time>
   <energy>
    <i name="e_fr_energy">   -139.91750840 </i>
    <i name="e_wo_entrp">   -139.91437704 </i>
    <i name="e_0_energy">   -139.91594272 </i>
   </energy>
  </scstep>
  <scstep>
   <time name="dav">   18.68   18.70</time>
   <time name="total">   19.70   19.72</time>
   <energy>
    <i name="e_fr_energy">   -139.91751428 </i>
    <i name="e_wo_entrp">   -139.91437022 </i>
    <i name="e_0_energy">   -139.91594225 </i>
   </energy>
  </scstep>
  <scstep>
   <time name="dav">   18.51   18.53</time>
   <time name="total">   19.53   19.55</time>
   <energy>
    <i name="e_fr_energy">   -139.91753206 </i>
    <i name="e_wo_entrp">   -139.91438272 </i>
    <i name="e_0_energy">   -139.91595739 </i>
   </energy>
  </scstep>
  <scstep>
   <time name="dav">   18.22   18.23</time>
   <time name="total">   19.24   19.25</time>
   <energy>
    <i name="e_fr_energy">   -139.91754322 </i>
    <i name="e_wo_entrp">   -139.91439242 </i>
    <i name="e_0_energy">   -139.91596782 </i>
   </energy>
  </scstep>
  <scstep>
   <time name="dav">   16.08   16.09</time>
   <time name="total">   17.10   17.12</time>
   <energy>
    <i name="e_fr_energy">   -139.91755112 </i>
    <i name="e_wo_entrp">   -139.91440014 </i>
    <i name="e_0_energy">   -139.91597563 </i>
   </energy>
  </scstep>
  <scstep>
   <time name="dav">   16.39   16.40</time>
   <time name="total">   17.40   17.42</time>
   <energy>
    <i name="e_fr_energy">   -139.91755860 </i>
    <i name="e_wo_entrp">   -139.91440817 </i>
    <i name="e_0_energy">   -139.91598338 </i>
   </energy>
  </scstep>
  <scstep>
   <time name="dav">   14.61   14.62</time>
   <time name="total">   15.62   15.64</time>
   <energy>
    <i name="e_fr_energy">   -139.91756112 </i>
    <i name="e_wo_entrp">   -139.91441100 </i>
    <i name="e_0_energy">   -139.91598606 </i>
   </energy>
  </scstep>
  <scstep>
   <time name="dav">   14.57   14.59</time>
   <time name="total">   14.70   14.72</time>
   <energy>
    <i name="alphaZ">     64.15740606 </i>
    <i name="ewald">   5639.60059654 </i>
    <i name="hartreedc">  -7693.16628999 </i>
    <i name="XCdc">    207.77392500 </i>
    <i name="pawpsdc">   6637.88081130 </i>
    <i name="pawaedc">  -6646.03147823 </i>
    <i name="eentropy">     -0.00315005 </i>
    <i name="bandstr">   -552.48830973 </i>
    <i name="atom">   2202.35892741 </i>
    <i name="e_fr_energy">   -139.91756171 </i>
    <i name="e_wo_entrp">   -139.91441165 </i>
    <i name="e_0_energy">   -139.91598668 </i>
   </energy>
  </scstep>
  <structure>
   <crystal>
    <varray name="basis" >
     <v>       4.31280564       2.48999950       0.00000000 </v>
     <v>      -4.31280564       2.48999950       0.00000000 </v>
     <v>       0.00000000       0.00000000      15.00000000 </v>
    </varray>
    <i name="volume">    322.16651698 </i>
    <varray name="rec_basis" >
     <v>       0.11593381       0.20080325       0.00000000 </v>
     <v>      -0.11593381       0.20080325       0.00000000 </v>
     <v>       0.00000000       0.00000000       0.06666667 </v>
    </varray>
   </crystal>
   <varray name="positions" >
    <v>       0.33834481       0.66917129       0.10016006 </v>
    <v>       0.67169528       0.33581870       0.09997839 </v>
    <v>       0.16892363       0.33037734       0.09995230 </v>
    <v>       0.33261848       0.16631821       0.10002026 </v>
    <v>       0.16895597       0.83856577       0.09995230 </v>
    <v>       0.84115153       0.16630295       0.10001965 </v>
    <v>       0.67711891       0.83856045       0.09995213 </v>
    <v>       0.84117845       0.67487675       0.10001964 </v>
    <v>       0.33337935       0.16668847       0.32554052 </v>
    <v>       0.50012493       0.00026649       0.32557907 </v>
    <v>       0.33332858       0.66666314       0.32533204 </v>
    <v>       0.50012493       0.49985983       0.32557906 </v>
    <v>       0.83331823       0.16669213       0.32553715 </v>
    <v>       0.00000503       0.00000321       0.32552655 </v>
    <v>       0.83331827       0.66662377       0.32553717 </v>
    <v>       0.99973894       0.49987016       0.32558039 </v>
   </varray>
  </structure>
  <varray name="forces" >
   <v>      -0.00042318      -0.00282286       0.00849418 </v>
   <v>      -0.01617125      -0.00277400      -0.00772799 </v>
   <v>       1.38701531      -2.40129114       0.01099775 </v>
   <v>      -1.35046585      -2.34159319      -0.00789563 </v>
   <v>      -2.77758739      -0.00248895       0.01099662 </v>
   <v>       2.71847686       0.00527309      -0.00789574 </v>
   <v>       1.38664241       2.39916533       0.01075063 </v>
   <v>      -1.34773792       2.34606112      -0.00788622 </v>
   <v>      -0.00485927      -0.00742919       0.00644103 </v>
   <v>       0.03510801      -0.05449254      -0.00751789 </v>
   <v>      -0.00004910       0.00082185      -0.00008883 </v>
   <v>      -0.06393495       0.00268491      -0.00750300 </v>
   <v>       0.00673147      -0.00163209       0.00634774 </v>
   <v>       0.00025519      -0.00048643      -0.00628680 </v>
   <v>      -0.00561037       0.00546688       0.00632225 </v>
   <v>       0.03261005       0.05553721      -0.00754810 </v>
  </varray>
  <varray name="stress" >
   <v>      59.04377680      -0.03604829       0.00296083 </v>
   <v>      -0.03604827      58.95332782       0.00501841 </v>
   <v>       0.00296082       0.00501844      -2.58958297 </v>
  </varray>
  <energy>
   <i name="e_fr_energy">   -141.84279319 </i>
   <i name="e_wo_entrp">   -141.84121816 </i>
   <i name="e_0_energy">     -0.00315005 </i>
  </energy>
  <time name="totalsc">  282.44  282.69</time>
 </calculation>
 <calculation>
  <scstep>
   <time name="dav">   17.01   17.02</time>
   <time name="total">   18.02   18.03</time>
   <energy>
    <i name="alphaZ">     64.15740606 </i>
    <i name="ewald">   5648.37146953 </i>
    <i name="hartreedc">  -7699.17341694 </i>
    <i name="XCdc">    207.91652254 </i>
    <i name="pawpsdc">   6637.88671685 </i>
    <i name="pawaedc">  -6646.03739264 </i>
    <i name="eentropy">     -0.00207915 </i>
    <i name="bandstr">   -555.72953004 </i>
    <i name="atom">   2202.35892741 </i>
    <i name="e_fr_energy">   -140.25137640 </i>
    <i name="e_wo_entrp">   -140.24929725 </i>
    <i name="e_0_energy">   -140.25033682 </i>
   </energy>
  </scstep>
  <scstep>
   <time name="dav">   19.84   19.85</time>
   <time name="total">   20.86   20.87</time>
   <energy>
    <i name="e_fr_energy">   -140.20732694 </i>
    <i name="e_wo_entrp">   -140.20454239 </i>
    <i name="e_0_energy">   -140.20593466 </i>
   </energy>
  </scstep>
  <scstep>
   <time name="dav">   19.76   19.78</time>
   <time name="total">   20.78   20.80</time>
   <energy>
    <i name="e_fr_energy">   -140.20035086 </i>
    <i name="e_wo_entrp">   -140.19740979 </i>
    <i name="e_0_energy">   -140.19888033 </i>
   </energy>
  </scstep>
  <scstep>
   <time name="dav">   19.72   19.74</time>
   <time name="total">   20.74   20.76</time>
   <energy>
    <i name="e_fr_energy">   -140.20029130 </i>
    <i name="e_wo_entrp">   -140.19736240 </i>
    <i name="e_0_energy">   -140.19882685 </i>
   </energy>
  </scstep>
  <scstep>
   <time name="dav">   18.02   18.04</time>
   <time name="total">   19.04   19.06</time>
   <energy>
    <i name="e_fr_energy">   -140.20030664 </i>
    <i name="e_wo_entrp">   -140.19736272 </i>
    <i name="e_0_energy">   -140.19883468 </i>
   </energy>
  </scstep>
  <scstep>
   <time name="dav">   20.26   20.30</time>
   <time name="total">   21.28   21.32</time>
   <energy>
    <i name="e_fr_energy">   -140.20029721 </i>
    <i name="e_wo_entrp">   -140.19735498 </i>
    <i name="e_0_energy">   -140.19882609 </i>
   </energy>
  </scstep>
  <scstep>
   <time name="dav">   21.50   21.52</time>
   <time name="total">   22.52   22.54</time>
   <energy>
    <i name="e_fr_energy">   -140.20030789 </i>
    <i name="e_wo_entrp">   -140.19736583 </i>
    <i name="e_0_energy">   -140.19883686 </i>
   </energy>
  </scstep>
  <scstep>
   <time name="dav">   17.88   17.90</time>
   <time name="total">   18.90   18.92</time>
   <energy>
    <i name="e_fr_energy">   -140.20031263 </i>
    <i name="e_wo_entrp">   -140.19737034 </i>
    <i name="e_0_energy">   -140.19884148 </i>
   </energy>
  </scstep>
  <scstep>
   <time name="dav">   16.58   16.60</time>
   <time name="total">   17.59   17.61</time>
   <energy>
    <i name="e_fr_energy">   -140.20032845 </i>
    <i name="e_wo_entrp">   -140.19738571 </i>
    <i name="e_0_energy">   -140.19885708 </i>
   </energy>
  </scstep>
  <scstep>
   <time name="dav">   15.48   15.49</time>
   <time name="total">   16.49   16.51</time>
   <energy>
    <i name="e_fr_energy">   -140.20033215 </i>
    <i name="e_wo_entrp">   -140.19738933 </i>
    <i name="e_0_energy">   -140.19886074 </i>
   </energy>
  </scstep>
  <scstep>
   <time name="dav">   13.43   13.44</time>
   <time name="total">   14.45   14.46</time>
   <energy>
    <i name="e_fr_energy">   -140.20033658 </i>
    <i name="e_wo_entrp">   -140.19739364 </i>
    <i name="e_0_energy">   -140.19886511 </i>
   </energy>
  </scstep>
  <scstep>
   <time name="dav">   15.26   15.28</time>
   <time name="total">   16.28   16.30</time>
   <energy>
    <i name="e_fr_energy">   -140.20033822 </i>
    <i name="e_wo_entrp">   -140.19739522 </i>
    <i name="e_0_energy">   -140.19886672 </i>
   </energy>
  </scstep>
  <scstep>
   <time name="dav">   15.03   15.04</time>
   <time name="total">   15.16   15.17</time>
   <energy>
    <i name="alphaZ">     64.15740606 </i>
    <i name="ewald">   5648.37146953 </i>
    <i name="hartreedc">  -7702.44575896 </i>
    <i name="XCdc">    208.04657100 </i>
    <i name="pawpsdc">   6673.52579850 </i>
    <i name="pawaedc">  -6681.68728110 </i>
    <i name="eentropy">     -0.00294296 </i>
    <i name="bandstr">   -552.52452814 </i>
    <i name="atom">   2202.35892741 </i>
    <i name="e_fr_energy">   -140.20033867 </i>
    <i name="e_wo_entrp">   -140.19739570 </i>
    <i name="e_0_energy">   -140.19886719 </i>
   </energy>
  </scstep>
  <structure>
   <crystal>
    <varray name="basis" >
     <v>       4.31280564       2.48999950       0.00000000 </v>
     <v>      -4.31280564       2.48999950       0.00000000 </v>
     <v>       0.00000000       0.00000000      15.00000000 </v>
    </varray>
    <i name="volume">    322.16651698 </i>
    <varray name="rec_basis" >
     <v>       0.11593381       0.20080325       0.00000000 </v>
     <v>      -0.11593381       0.20080325       0.00000000 </v>
     <v>       0.00000000       0.00000000       0.06666667 </v>
    </varray>
   </crystal>
   <varray name="positions" >
    <v>       0.33833389       0.66916603       0.10003926 </v>
    <v>       0.67166504       0.33583588       0.09999470 </v>
    <v>       0.16501120       0.32254539       0.09998830 </v>
    <v>       0.32498383       0.16250383       0.10000497 </v>
    <v>       0.16503788       0.84248870       0.09998830 </v>
    <v>       0.84499071       0.16247961       0.10000482 </v>
    <v>       0.68495227       0.84246185       0.09998826 </v>
    <v>       0.84501899       0.68251359       0.10000482 </v>
    <v>       0.33334412       0.16667176       0.32553510 </v>
    <v>       0.50003039       0.00006487       0.32554455 </v>
    <v>       0.33333166       0.66666555       0.32548395 </v>
    <v>       0.50003039       0.49996511       0.32554455 </v>
    <v>       0.83332913       0.16667266       0.32553427 </v>
    <v>       0.00000098       0.00000028       0.32553167 </v>
    <v>       0.83332914       0.66665589       0.32553427 </v>
    <v>       0.99993571       0.49996765       0.32554488 </v>
   </varray>
  </structure>
  <varray name="forces" >
   <v>       0.00044425       0.00026591       0.03714242 </v>
   <v>       0.00084321       0.00004319      -0.00744999 </v>
   <v>       0.00024336      -0.00132192      -0.00804137 </v>
   <v>      -0.00114351      -0.00325932       0.00305756 </v>
   <v>      -0.00158835      -0.00116486      -0.00804084 </v>
   <v>       0.00392429       0.00069466       0.00294339 </v>
   <v>      -0.00077132       0.00117521      -0.00815013 </v>
   <v>      -0.00232764       0.00289504       0.00294456 </v>
   <v>       0.00044631       0.00081670       0.00333383 </v>
   <v>      -0.00090088       0.00177854       0.00900534 </v>
   <v>      -0.00005359      -0.00005674      -0.04699155 </v>
   <v>       0.00202075       0.00009214       0.00900509 </v>
   <v>      -0.00098309       0.00006564       0.00252156 </v>
   <v>       0.00015375       0.00023288      -0.00311304 </v>
   <v>       0.00051333      -0.00080112       0.00252146 </v>
   <v>      -0.00082088      -0.00145595       0.00931172 </v>
  </varray>
  <varray name="stress" >
   <v>      66.02403639      -0.01399538       0.00364715 </v>
   <v>      -0.01399540      66.00618098       0.00629912 </v>
   <v>       0.00364717       0.00629912      -2.64637798 </v>
  </varray>
  <energy>
   <i name="e_fr_energy">   -142.11951425 </i>
   <i name="e_wo_entrp">   -142.11804277 </i>
   <i name="e_0_energy">     -0.00294296 </i>
  </energy>
  <time name="totalsc">  256.83  257.09</time>
 </calculation>
 <calculation>
  <scstep>
   <time name="dav">   18.77   18.79</time>
   <time name="total">   19.79   19.80</time>
   <energy>
    <i name="alphaZ">     64.15740606 </i>
    <i name="ewald">   5648.37644466 </i>
    <i name="hartreedc">  -7702.45088631 </i>
    <i name="XCdc">    208.04665682 </i>
    <i name="pawpsdc">   6673.52818425 </i>
    <i name="pawaedc">  -6681.68966067 </i>
    <i name="eentropy">     -0.00294273 </i>
    <i name="bandstr">   -552.52447277 </i>
    <i name="atom">   2202.35892741 </i>
    <i name="e_fr_energy">   -140.20034329 </i>
    <i name="e_wo_entrp">   -140.19740055 </i>
    <i name="e_0_energy">   -140.19887192 </i>
   </energy>
  </scstep>
  <scstep>
   <time name="dav">   16.07   16.08</time>
   <time name="total">   16.20   16.21</time>
   <energy>
    <i name="alphaZ">     64.15740606 </i>
    <i name="ewald">   5648.37644466 </i>
    <i name="hartreedc">  -7702.45240493 </i>
    <i name="XCdc">    208.04670843 </i>
    <i name="pawpsdc">   6673.52916879 </i>
    <i name="pawaedc">  -6681.69065079 </i>
    <i name="eentropy">     -0.00294280 </i>
    <i name="bandstr">   -552.52300017 </i>
    <i name="atom">   2202.35892741 </i>
    <i name="e_fr_energy">   -140.20034334 </i>
    <i name="e_wo_entrp">   -140.19740053 </i>
    <i name="e_0_energy">   -140.19887193 </i>
   </energy>
  </scstep>
  <structure>
   <crystal>
    <varray name="basis" >
     <v>       4.31280564       2.48999950       0.00000000 </v>
     <v>      -4.31280564       2.48999950       0.00000000 </v>
     <v>       0.00000000       0.00000000      15.00000000 </v>
    </varray>
    <i name="volume">    322.16651698 </i>
    <varray name="rec_basis" >
     <v>       0.11593381       0.20080325       0.00000000 </v>
     <v>      -0.11593381       0.20080325       0.00000000 </v>
     <v>       0.00000000       0.00000000       0.06666667 </v>
    </varray>
   </crystal>
   <varray name="positions" >
    <v>       0.33833389       0.66916603       0.10003921 </v>
    <v>       0.67166503       0.33583589       0.09999471 </v>
    <v>       0.16500935       0.32254169       0.09998831 </v>
    <v>       0.32498021       0.16250202       0.10000496 </v>
    <v>       0.16503602       0.84249055       0.09998832 </v>
    <v>       0.84499253       0.16247781       0.10000481 </v>
    <v>       0.68495598       0.84246370       0.09998827 </v>
    <v>       0.84502081       0.68251721       0.10000481 </v>
    <v>       0.33334410       0.16667176       0.32553509 </v>
    <v>       0.50003035       0.00006477       0.32554454 </v>
    <v>       0.33333167       0.66666555       0.32548403 </v>
    <v>       0.50003035       0.49996516       0.32554453 </v>
    <v>       0.83332913       0.16667265       0.32553427 </v>
    <v>       0.00000098       0.00000028       0.32553167 </v>
    <v>       0.83332914       0.66665591       0.32553427 </v>
    <v>       0.99993580       0.49996769       0.32554486 </v>
   </varray>
  </structure>
  <varray name="forces" >
   <v>       0.00044472       0.00026697       0.03715558 </v>
   <v>       0.00084998       0.00004449      -0.00745221 </v>
   <v>      -0.00032555      -0.00033489      -0.00805606 </v>
   <v>      -0.00059186      -0.00230235       0.00305844 </v>
   <v>      -0.00044774      -0.00116421      -0.00805557 </v>
   <v>       0.00281342       0.00069284       0.00294415 </v>
   <v>      -0.00134095       0.00018904      -0.00816488 </v>
   <v>      -0.00177797       0.00193586       0.00294534 </v>
   <v>       0.00044860       0.00082022       0.00333731 </v>
   <v>      -0.00091908       0.00180704       0.00901839 </v>
   <v>      -0.00005349      -0.00005701      -0.04701379 </v>
   <v>       0.00205420       0.00009082       0.00901819 </v>
   <v>      -0.00098610       0.00006652       0.00252449 </v>
   <v>       0.00015370       0.00023319      -0.00310874 </v>
   <v>       0.00051598      -0.00080351       0.00252443 </v>
   <v>      -0.00083789      -0.00148502       0.00932494 </v>
  </varray>
  <varray name="stress" >
   <v>      66.03076951      -0.01398675       0.00364833 </v>
   <v>      -0.01398677      66.01293866       0.00630074 </v>
   <v>       0.00364839       0.00630076      -2.64356831 </v>
  </varray>
  <energy>
   <i name="e_fr_energy">   -142.11951467 </i>
   <i name="e_wo_entrp">   -142.11804327 </i>
   <i name="e_0_energy">     -0.00294280 </i>
  </energy>
  <time name="totalsc">   50.71   50.76</time>
 </calculation>
 <calculation>
  <scstep>
   <time name="dav">   14.95   14.96</time>
   <time name="total">   15.97   15.98</time>
   <energy>
    <i name="alphaZ">     64.15740606 </i>
    <i name="ewald">   5648.37739431 </i>
    <i name="hartreedc">  -7702.45427636 </i>
    <i name="XCdc">    208.04675307 </i>
    <i name="pawpsdc">   6673.53228204 </i>
    <i name="pawaedc">  -6681.69377212 </i>
    <i name="eentropy">     -0.00294280 </i>
    <i name="bandstr">   -552.52211580 </i>
    <i name="atom">   2202.35892741 </i>
    <i name="e_fr_energy">   -140.20034421 </i>
    <i name="e_wo_entrp">   -140.19740140 </i>
    <i name="e_0_energy">   -140.19887280 </i>
   </energy>
  </scstep>
  <scstep>
   <time name="dav">   15.77   15.79</time>
   <time name="total">   15.90   15.92</time>
   <energy>
    <i name="alphaZ">     64.15740606 </i>
    <i name="ewald">   5648.37739431 </i>
    <i name="hartreedc">  -7702.45467795 </i>
    <i name="XCdc">    208.04675545 </i>
    <i name="pawpsdc">   6673.53470413 </i>
    <i name="pawaedc">  -6681.69619512 </i>
    <i name="eentropy">     -0.00294281 </i>
    <i name="bandstr">   -552.52171571 </i>
    <i name="atom">   2202.35892741 </i>
    <i name="e_fr_energy">   -140.20034424 </i>
    <i name="e_wo_entrp">   -140.19740143 </i>
    <i name="e_0_energy">   -140.19887283 </i>
   </energy>
  </scstep>
  <structure>
   <crystal>
    <varray name="basis" >
     <v>       4.31280564       2.48999950       0.00000000 </v>
     <v>      -4.31280564       2.48999950       0.00000000 </v>
     <v>       0.00000000       0.00000000      15.00000000 </v>
    </varray>
    <i name="volume">    322.16651698 </i>
    <varray name="rec_basis" >
     <v>       0.11593381       0.20080325       0.00000000 </v>
     <v>      -0.11593381       0.20080325       0.00000000 </v>
     <v>       0.00000000       0.00000000       0.06666667 </v>
    </varray>
   </crystal>
   <varray name="positions" >
    <v>       0.33833389       0.66916603       0.10003920 </v>
    <v>       0.67166503       0.33583589       0.09999471 </v>
    <v>       0.16500899       0.32254098       0.09998832 </v>
    <v>       0.32497952       0.16250168       0.10000496 </v>
    <v>       0.16503567       0.84249091       0.09998832 </v>
    <v>       0.84499287       0.16247746       0.10000481 </v>
    <v>       0.68495669       0.84246405       0.09998828 </v>
    <v>       0.84502115       0.68251789       0.10000481 </v>
    <v>       0.33334410       0.16667175       0.32553509 </v>
    <v>       0.50003034       0.00006476       0.32554453 </v>
    <v>       0.33333167       0.66666555       0.32548404 </v>
    <v>       0.50003034       0.49996517       0.32554453 </v>
    <v>       0.83332913       0.16667265       0.32553427 </v>
    <v>       0.00000098       0.00000028       0.32553167 </v>
    <v>       0.83332914       0.66665591       0.32553427 </v>
    <v>       0.99993582       0.49996770       0.32554486 </v>
   </varray>
  </structure>
  <varray name="forces" >
   <v>       0.00044469       0.00026751       0.03716177 </v>
   <v>       0.00085206       0.00004467      -0.00745079 </v>
   <v>      -0.00057335       0.00009322      -0.00805645 </v>
   <v>      -0.00034801      -0.00188064       0.00306031 </v>
   <v>       0.00004773      -0.00116372      -0.00805595 </v>
   <v>       0.00232512       0.00069185       0.00294610 </v>
   <v>      -0.00158895      -0.00023869      -0.00816515 </v>
   <v>      -0.00153511       0.00151367       0.00294729 </v>
   <v>       0.00045048       0.00082340       0.00333597 </v>
   <v>      -0.00092389       0.00181468       0.00901766 </v>
   <v>      -0.00005357      -0.00005724      -0.04702097 </v>
   <v>       0.00206316       0.00009053       0.00901747 </v>
   <v>      -0.00098976       0.00006667       0.00252319 </v>
   <v>       0.00015375       0.00023332      -0.00310779 </v>
   <v>       0.00051800      -0.00080664       0.00252309 </v>
   <v>      -0.00084233      -0.00149260       0.00932423 </v>
  </varray>
  <varray name="stress" >
   <v>      66.03043597      -0.01398368       0.00364820 </v>
   <v>      -0.01398366      66.01261503       0.00630038 </v>
   <v>       0.00364818       0.00630039      -2.64675218 </v>
  </varray>
  <energy>
   <i name="e_fr_energy">   -142.11951476 </i>
   <i name="e_wo_entrp">   -142.11804336 </i>
   <i name="e_0_energy">     -0.00294281 </i>
  </energy>
  <time name="totalsc">   46.61   46.65</time>
 </calculation>
 <calculation>
  <scstep>
   <time name="dav">   14.49   14.51</time>
   <time name="total">   15.51   15.53</time>
   <energy>
    <i name="alphaZ">     64.15740606 </i>
    <i name="ewald">   5648.37685947 </i>
    <i name="hartreedc">  -7702.45504165 </i>
    <i name="XCdc">    208.04675076 </i>
    <i name="pawpsdc">   6673.54386725 </i>
    <i name="pawaedc">  -6681.70535799 </i>
    <i name="eentropy">     -0.00294284 </i>
    <i name="bandstr">   -552.52081229 </i>
    <i name="atom">   2202.35892741 </i>
    <i name="e_fr_energy">   -140.20034383 </i>
    <i name="e_wo_entrp">   -140.19740099 </i>
    <i name="e_0_energy">   -140.19887241 </i>
   </energy>
  </scstep>
  <scstep>
   <time name="dav">   16.13   16.15</time>
   <time name="total">   16.26   16.28</time>
   <energy>
    <i name="alphaZ">     64.15740606 </i>
    <i name="ewald">   5648.37685947 </i>
    <i name="hartreedc">  -7702.45517440 </i>
    <i name="XCdc">    208.04674722 </i>
    <i name="pawpsdc">   6673.54718290 </i>
    <i name="pawaedc">  -6681.70867270 </i>
    <i name="eentropy">     -0.00294283 </i>
    <i name="bandstr">   -552.52067696 </i>
    <i name="atom">   2202.35892741 </i>
    <i name="e_fr_energy">   -140.20034384 </i>
    <i name="e_wo_entrp">   -140.19740101 </i>
    <i name="e_0_energy">   -140.19887243 </i>
   </energy>
  </scstep>
  <structure>
   <crystal>
    <varray name="basis" >
     <v>       4.31280564       2.48999950       0.00000000 </v>
     <v>      -4.31280564       2.48999950       0.00000000 </v>
     <v>       0.00000000       0.00000000      15.00000000 </v>
    </varray>
    <i name="volume">    322.16651698 </i>
    <varray name="rec_basis" >
     <v>       0.11593381       0.20080325       0.00000000 </v>
     <v>      -0.11593381       0.20080325       0.00000000 </v>
     <v>       0.00000000       0.00000000       0.06666667 </v>
    </varray>
   </crystal>
   <varray name="positions" >
    <v>       0.33833389       0.66916603       0.10003920 </v>
    <v>       0.67166503       0.33583589       0.09999471 </v>
    <v>       0.16500919       0.32254138       0.09998832 </v>
    <v>       0.32497991       0.16250187       0.10000496 </v>
    <v>       0.16503587       0.84249071       0.09998832 </v>
    <v>       0.84499268       0.16247765       0.10000481 </v>
    <v>       0.68495629       0.84246385       0.09998828 </v>
    <v>       0.84502096       0.68251751       0.10000481 </v>
    <v>       0.33334410       0.16667176       0.32553509 </v>
    <v>       0.50003035       0.00006477       0.32554454 </v>
    <v>       0.33333167       0.66666555       0.32548403 </v>
    <v>       0.50003035       0.49996517       0.32554453 </v>
    <v>       0.83332913       0.16667265       0.32553427 </v>
    <v>       0.00000098       0.00000028       0.32553167 </v>
    <v>       0.83332914       0.66665591       0.32553427 </v>
    <v>       0.99993581       0.49996770       0.32554486 </v>
   </varray>
  </structure>
  <varray name="forces" >
   <v>       0.00044465       0.00026734       0.03716149 </v>
   <v>       0.00085115       0.00004454      -0.00744888 </v>
   <v>      -0.00048002      -0.00006834      -0.00805408 </v>
   <v>      -0.00043896      -0.00203798       0.00306026 </v>
   <v>      -0.00013918      -0.00116374      -0.00805357 </v>
   <v>       0.00250760       0.00069218       0.00294607 </v>
   <v>      -0.00149530      -0.00007734      -0.00816277 </v>
   <v>      -0.00162542       0.00167148       0.00294726 </v>
   <v>       0.00044966       0.00082211       0.00333434 </v>
   <v>      -0.00092044       0.00180920       0.00901425 </v>
   <v>      -0.00005360      -0.00005720      -0.04701379 </v>
   <v>       0.00205670       0.00009076       0.00901407 </v>
   <v>      -0.00098849       0.00006646       0.00252176 </v>
   <v>       0.00015370       0.00023320      -0.00310881 </v>
   <v>       0.00051708      -0.00080558       0.00252164 </v>
   <v>      -0.00083912      -0.00148706       0.00932077 </v>
  </varray>
  <varray name="stress" >
   <v>      66.02964047      -0.01398459       0.00364813 </v>
   <v>      -0.01398459      66.01181944       0.00630022 </v>
   <v>       0.00364815       0.00630019      -2.64792080 </v>
  </varray>
  <energy>
   <i name="e_fr_energy">   -142.11951483 </i>
   <i name="e_wo_entrp">   -142.11804341 </i>
   <i name="e_0_energy">     -0.00294283 </i>
  </energy>
  <time name="totalsc">   46.49   46.54</time>
 </calculation>
 <calculation>
  <scstep>
   <time name="dav">   17.12   17.14</time>
   <time name="total">   18.13   18.15</time>
   <energy>
    <i name="alphaZ">     64.15740606 </i>
    <i name="ewald">   5648.62612720 </i>
    <i name="hartreedc">  -7702.70323087 </i>
    <i name="XCdc">    208.04700781 </i>
    <i name="pawpsdc">   6673.54828906 </i>
    <i name="pawaedc">  -6681.70977813 </i>
    <i name="eentropy">     -0.00294133 </i>
    <i name="bandstr">   -552.52219488 </i>
    <i name="atom">   2202.35892741 </i>
    <i name="e_fr_energy">   -140.20038768 </i>
    <i name="e_wo_entrp">   -140.19744635 </i>
    <i name="e_0_energy">   -140.19891702 </i>
   </energy>
  </scstep>
  <scstep>
   <time name="dav">   19.24   19.25</time>
   <time name="total">   20.25   20.26</time>
   <energy>
    <i name="e_fr_energy">   -140.20038922 </i>
    <i name="e_wo_entrp">   -140.19744811 </i>
    <i name="e_0_energy">   -140.19891866 </i>
   </energy>
  </scstep>
  <scstep>
   <time name="dav">   17.33   17.35</time>
   <time name="total">   18.34   18.36</time>
   <energy>
    <i name="e_fr_energy">   -140.20039203 </i>
    <i name="e_wo_entrp">   -140.19745124 </i>
    <i name="e_0_energy">   -140.19892164 </i>
   </energy>
  </scstep>
  <scstep>
   <time name="dav">   19.29   19.31</time>
   <time name="total">   19.42   19.44</time>
   <energy>
    <i name="alphaZ">     64.15740606 </i>
    <i name="ewald">   5648.62612720 </i>
    <i name="hartreedc">  -7702.69777592 </i>
    <i name="XCdc">    208.04693039 </i>
    <i name="pawpsdc">   6673.54644431 </i>
    <i name="pawaedc">  -6681.70793014 </i>
    <i name="eentropy">     -0.00294071 </i>
    <i name="bandstr">   -552.52758070 </i>
    <i name="atom">   2202.35892741 </i>
    <i name="e_fr_energy">   -140.20039210 </i>
    <i name="e_wo_entrp">   -140.19745139 </i>
    <i name="e_0_energy">   -140.19892174 </i>
   </energy>
  </scstep>
  <structure>
   <crystal>
    <varray name="basis" >
     <v>       4.31280564       2.48999950       0.00000000 </v>
     <v>      -4.31280564       2.48999950       0.00000000 </v>
     <v>       0.00000000       0.00000000      15.00000000 </v>
    </varray>
    <i name="volume">    322.16651698 </i>
    <varray name="rec_basis" >
     <v>       0.11593381       0.20080325       0.00000000 </v>
     <v>      -0.11593381       0.20080325       0.00000000 </v>
     <v>       0.00000000       0.00000000       0.06666667 </v>
    </varray>
   </crystal>
   <varray name="positions" >
    <v>       0.33833821       0.66916612       0.10014077 </v>
    <v>       0.67166946       0.33583220       0.09997435 </v>
    <v>       0.16500956       0.32254951       0.09996630 </v>
    <v>       0.32496732       0.16249032       0.10001333 </v>
    <v>       0.16502885       0.84247858       0.09996630 </v>
    <v>       0.84500713       0.16247457       0.10001287 </v>
    <v>       0.68494213       0.84246712       0.09996596 </v>
    <v>       0.84502384       0.68253271       0.10001287 </v>
    <v>       0.33335303       0.16667640       0.32554420 </v>
    <v>       0.50004093       0.00008418       0.32556918 </v>
    <v>       0.33333094       0.66666533       0.32535554 </v>
    <v>       0.50004094       0.49995606       0.32556917 </v>
    <v>       0.83332498       0.16667791       0.32554116 </v>
    <v>       0.00000363       0.00000147       0.32552318 </v>
    <v>       0.83332496       0.66664680       0.32554116 </v>
    <v>       0.99991943       0.49995937       0.32557034 </v>
   </varray>
  </structure>
  <varray name="forces" >
   <v>      -0.00161211      -0.00113288       0.01758447 </v>
   <v>      -0.00091177       0.00011084       0.00071245 </v>
   <v>       0.00434466      -0.00031085       0.00419415 </v>
   <v>       0.00048709       0.00147138      -0.00532440 </v>
   <v>      -0.00181447       0.00113830       0.00420154 </v>
   <v>      -0.00371898      -0.00073400      -0.00543878 </v>
   <v>       0.00322898       0.00263737       0.00409009 </v>
   <v>      -0.00036505      -0.00384351      -0.00544244 </v>
   <v>      -0.00069198      -0.00130985       0.00594510 </v>
   <v>       0.00193803      -0.00346736      -0.00534455 </v>
   <v>       0.00032060       0.00045232      -0.01324939 </v>
   <v>      -0.00407361       0.00000061      -0.00534213 </v>
   <v>       0.00218771       0.00019254       0.00566975 </v>
   <v>      -0.00024103      -0.00030386      -0.00256978 </v>
   <v>      -0.00083570       0.00194324       0.00566426 </v>
   <v>       0.00175765       0.00315572      -0.00535033 </v>
  </varray>
  <varray name="stress" >
   <v>      66.02267746      -0.00397643       0.00369416 </v>
   <v>      -0.00397642      66.03143689       0.00650410 </v>
   <v>       0.00369419       0.00650407      -2.66193690 </v>
  </varray>
  <energy>
   <i name="e_fr_energy">   -142.11962100 </i>
   <i name="e_wo_entrp">   -142.11815065 </i>
   <i name="e_0_energy">     -0.00294071 </i>
  </energy>
  <time name="totalsc">   90.88   90.97</time>
 </calculation>
 <calculation>
  <scstep>
   <time name="dav">   17.19   17.19</time>
   <time name="total">   18.21   18.21</time>
   <energy>
    <i name="alphaZ">     64.15740606 </i>
    <i name="ewald">   5648.70125721 </i>
    <i name="hartreedc">  -7702.77023981 </i>
    <i name="XCdc">    208.04698960 </i>
    <i name="pawpsdc">   6673.54610476 </i>
    <i name="pawaedc">  -6681.70758942 </i>
    <i name="eentropy">     -0.00294018 </i>
    <i name="bandstr">   -552.53029601 </i>
    <i name="atom">   2202.35892741 </i>
    <i name="e_fr_energy">   -140.20038039 </i>
    <i name="e_wo_entrp">   -140.19744021 </i>
    <i name="e_0_energy">   -140.19891030 </i>
   </energy>
  </scstep>
  <scstep>
   <time name="dav">   18.98   18.98</time>
   <time name="total">   19.11   19.11</time>
   <energy>
    <i name="alphaZ">     64.15740606 </i>
    <i name="ewald">   5648.70125721 </i>
    <i name="hartreedc">  -7702.76941567 </i>
    <i name="XCdc">    208.04696038 </i>
    <i name="pawpsdc">   6673.54572794 </i>
    <i name="pawaedc">  -6681.70721187 </i>
    <i name="eentropy">     -0.00294011 </i>
    <i name="bandstr">   -552.53109173 </i>
    <i name="atom">   2202.35892741 </i>
    <i name="e_fr_energy">   -140.20038039 </i>
    <i name="e_wo_entrp">   -140.19744028 </i>
    <i name="e_0_energy">   -140.19891034 </i>
   </energy>
  </scstep>
  <structure>
   <crystal>
    <varray name="basis" >
     <v>       4.31280564       2.48999950       0.00000000 </v>
     <v>      -4.31280564       2.48999950       0.00000000 </v>
     <v>       0.00000000       0.00000000      15.00000000 </v>
    </varray>
    <i name="volume">    322.16651698 </i>
    <varray name="rec_basis" >
     <v>       0.11593381       0.20080325       0.00000000 </v>
     <v>      -0.11593381       0.20080325       0.00000000 </v>
     <v>       0.00000000       0.00000000       0.06666667 </v>
    </varray>
   </crystal>
   <varray name="positions" >
    <v>       0.33833952       0.66916615       0.10017160 </v>
    <v>       0.67167081       0.33583108       0.09996818 </v>
    <v>       0.16500967       0.32255198       0.09995961 </v>
    <v>       0.32496350       0.16248681       0.10001587 </v>
    <v>       0.16502671       0.84247490       0.09995961 </v>
    <v>       0.84501152       0.16247364       0.10001531 </v>
    <v>       0.68493784       0.84246811       0.09995918 </v>
    <v>       0.84502471       0.68253733       0.10001532 </v>
    <v>       0.33335574       0.16667780       0.32554697 </v>
    <v>       0.50004415       0.00009007       0.32557666 </v>
    <v>       0.33333072       0.66666527       0.32531653 </v>
    <v>       0.50004415       0.49995330       0.32557666 </v>
    <v>       0.83332371       0.16667950       0.32554325 </v>
    <v>       0.00000444       0.00000183       0.32552060 </v>
    <v>       0.83332369       0.66664404       0.32554325 </v>
    <v>       0.99991446       0.49995684       0.32557807 </v>
   </varray>
  </structure>
  <varray name="forces" >
   <v>      -0.00222690      -0.00153990       0.01194643 </v>
   <v>      -0.00133043       0.00017246       0.00328892 </v>
   <v>       0.00562856      -0.00054280       0.00820459 </v>
   <v>       0.00069933       0.00241063      -0.00795560 </v>
   <v>      -0.00231166       0.00178532       0.00820344 </v>
   <v>      -0.00540899      -0.00117499      -0.00808510 </v>
   <v>       0.00457970       0.00357588       0.00808965 </v>
   <v>       0.00001426      -0.00533513      -0.00808294 </v>
   <v>      -0.00093791      -0.00178125       0.00680380 </v>
   <v>       0.00269990      -0.00489948      -0.00996094 </v>
   <v>       0.00042396       0.00058973      -0.00341943 </v>
   <v>      -0.00573154      -0.00003451      -0.00995682 </v>
   <v>       0.00293322       0.00023708       0.00668225 </v>
   <v>      -0.00034846      -0.00044957      -0.00236685 </v>
   <v>      -0.00113213       0.00259086       0.00667476 </v>
   <v>       0.00244909       0.00439566      -0.01006616 </v>
  </varray>
  <varray name="stress" >
   <v>      66.02276394      -0.00215519       0.00372562 </v>
   <v>      -0.00215519      66.03635464       0.00647543 </v>
   <v>       0.00372557       0.00647542      -2.66522481 </v>
  </varray>
  <energy>
   <i name="e_fr_energy">   -142.11962692 </i>
   <i name="e_wo_entrp">   -142.11815686 </i>
   <i name="e_0_energy">     -0.00294011 </i>
  </energy>
  <time name="totalsc">   52.05   52.06</time>
 </calculation>
 <calculation>
  <scstep>
   <time name="dav">   17.01   17.01</time>
   <time name="total">   18.02   18.02</time>
   <energy>
    <i name="alphaZ">     64.15740606 </i>
    <i name="ewald">   5649.11456658 </i>
    <i name="hartreedc">  -7703.18052498 </i>
    <i name="XCdc">    208.04715239 </i>
    <i name="pawpsdc">   6673.54640958 </i>
    <i name="pawaedc">  -6681.70789450 </i>
    <i name="eentropy">     -0.00293987 </i>
    <i name="bandstr">   -552.53341086 </i>
    <i name="atom">   2202.35892741 </i>
    <i name="e_fr_energy">   -140.20030819 </i>
    <i name="e_wo_entrp">   -140.19736832 </i>
    <i name="e_0_energy">   -140.19883826 </i>
   </energy>
  </scstep>
  <scstep>
   <time name="dav">   17.50   17.50</time>
   <time name="total">   18.51   18.51</time>
   <energy>
    <i name="e_fr_energy">   -140.20030808 </i>
    <i name="e_wo_entrp">   -140.19736838 </i>
    <i name="e_0_energy">   -140.19883823 </i>
   </energy>
  </scstep>
  <scstep>
   <time name="dav">   18.03   18.04</time>
   <time name="total">   18.16   18.17</time>
   <energy>
    <i name="alphaZ">     64.15740606 </i>
    <i name="ewald">   5649.11456658 </i>
    <i name="hartreedc">  -7703.17683874 </i>
    <i name="XCdc">    208.04699629 </i>
    <i name="pawpsdc">   6673.58648387 </i>
    <i name="pawaedc">  -6681.74795892 </i>
    <i name="eentropy">     -0.00293937 </i>
    <i name="bandstr">   -552.53695197 </i>
    <i name="atom">   2202.35892741 </i>
    <i name="e_fr_energy">   -140.20030878 </i>
    <i name="e_wo_entrp">   -140.19736941 </i>
    <i name="e_0_energy">   -140.19883910 </i>
   </energy>
  </scstep>
  <structure>
   <crystal>
    <varray name="basis" >
     <v>       4.31280564       2.48999950       0.00000000 </v>
     <v>      -4.31280564       2.48999950       0.00000000 </v>
     <v>       0.00000000       0.00000000      15.00000000 </v>
    </varray>
    <i name="volume">    322.16651698 </i>
    <varray name="rec_basis" >
     <v>       0.11593381       0.20080325       0.00000000 </v>
     <v>      -0.11593381       0.20080325       0.00000000 </v>
     <v>       0.00000000       0.00000000       0.06666667 </v>
    </varray>
   </crystal>
   <varray name="positions" >
    <v>       0.33831623       0.66916396       0.10023814 </v>
    <v>       0.67166700       0.33583812       0.09997130 </v>
    <v>       0.16503339       0.32252145       0.09997645 </v>
    <v>       0.32498409       0.16250069       0.09999546 </v>
    <v>       0.16502844       0.84249831       0.09997645 </v>
    <v>       0.84497857       0.16248966       0.09999443 </v>
    <v>       0.68498765       0.84247727       0.09997559 </v>
    <v>       0.84497915       0.68249550       0.09999444 </v>
    <v>       0.33333828       0.16666845       0.32556954 </v>
    <v>       0.50001833       0.00003984       0.32555556 </v>
    <v>       0.33333777       0.66666821       0.32526622 </v>
    <v>       0.50001831       0.49997900       0.32555556 </v>
    <v>       0.83333925       0.16666845       0.32556477 </v>
    <v>      -0.00000041       0.00000004       0.32551108 </v>
    <v>       0.83333928       0.66666948       0.32556475 </v>
    <v>       0.99995999       0.49998024       0.32555693 </v>
   </varray>
  </structure>
  <varray name="forces" >
   <v>       0.00551370       0.00414735       0.00487045 </v>
   <v>      -0.00006873      -0.00234156       0.00073509 </v>
   <v>      -0.01652024      -0.00263980       0.00318331 </v>
   <v>       0.00399080      -0.00343505      -0.00044514 </v>
[...]
       <r>     2.6480     1.3559    34.3514 </r>
       <r>     2.7530     1.3896    34.4972 </r>
       <r>     2.8579     1.4981    34.6544 </r>
       <r>     2.9629     1.6374    34.8262 </r>
       <r>     3.0678     1.2691    34.9594 </r>
       <r>     3.1728     1.1979    35.0851 </r>
       <r>     3.2777     1.6932    35.2628 </r>
       <r>     3.3826     1.5920    35.4299 </r>
       <r>     3.4876     1.5328    35.5907 </r>
       <r>     3.5925     1.5802    35.7566 </r>
       <r>     3.6975     1.4922    35.9132 </r>
       <r>     3.8024     1.2468    36.0440 </r>
       <r>     3.9073     1.3354    36.1841 </r>
       <r>     4.0123     1.8994    36.3835 </r>
       <r>     4.1172     2.0457    36.5982 </r>
       <r>     4.2222     1.6472    36.7710 </r>
       <r>     4.3271     1.3767    36.9155 </r>
       <r>     4.4320     1.6363    37.0872 </r>
       <r>     4.5370     2.9240    37.3940 </r>
       <r>     4.6419     2.4213    37.6481 </r>
       <r>     4.7469     0.8172    37.7339 </r>
       <r>     4.8518     1.4703    37.8882 </r>
       <r>     4.9568     2.8701    38.1894 </r>
       <r>     5.0617     2.8453    38.4880 </r>
       <r>     5.1666     1.9323    38.6908 </r>
       <r>     5.2716     1.5784    38.8564 </r>
       <r>     5.3765     2.1145    39.0783 </r>
       <r>     5.4815     2.1630    39.3053 </r>
       <r>     5.5864     2.7050    39.5892 </r>
       <r>     5.6913     2.7176    39.8743 </r>
       <r>     5.7963     1.7374    40.0567 </r>
       <r>     5.9012     1.2103    40.1837 </r>
       <r>     6.0062     1.8742    40.3804 </r>
       <r>     6.1111     2.0696    40.5976 </r>
       <r>     6.2161     2.3399    40.8431 </r>
       <r>     6.3210     3.1880    41.1777 </r>
       <r>     6.4259     3.1338    41.5065 </r>
       <r>     6.5309     2.9610    41.8173 </r>
       <r>     6.6358     2.6212    42.0923 </r>
       <r>     6.7408     2.6347    42.3688 </r>
       <r>     6.8457     2.7985    42.6625 </r>
       <r>     6.9506     2.8469    42.9613 </r>
       <r>     7.0556     3.7407    43.3538 </r>
       <r>     7.1605     4.0998    43.7841 </r>
       <r>     7.2655     4.0214    44.2061 </r>
       <r>     7.3704     4.3156    44.6590 </r>
       <r>     7.4754     4.9492    45.1783 </r>
       <r>     7.5803     3.9720    45.5952 </r>
       <r>     7.6852     3.6748    45.9808 </r>
       <r>     7.7902     4.5048    46.4535 </r>
       <r>     7.8951     5.2952    47.0092 </r>
       <r>     8.0001     4.1658    47.4464 </r>
       <r>     8.1050     2.5226    47.7111 </r>
       <r>     8.2099     1.3558    47.8534 </r>
       <r>     8.3149     0.5818    47.9144 </r>
       <r>     8.4198     0.2850    47.9444 </r>
       <r>     8.5248     0.2958    47.9754 </r>
       <r>     8.6297     0.1948    47.9958 </r>
       <r>     8.7347     0.0381    47.9998 </r>
       <r>     8.8396     0.0015    48.0000 </r>
       <r>     8.9445     0.0000    48.0000 </r>
       <r>     9.0495     0.0000    48.0000 </r>
       <r>     9.1544     0.0000    48.0000 </r>
       <r>     9.2594     0.0000    48.0000 </r>
       <r>     9.3643     0.0000    48.0000 </r>
       <r>     9.4692     0.0000    48.0000 </r>
       <r>     9.5742     0.0000    48.0000 </r>
       <r>     9.6791     0.0000    48.0000 </r>
       <r>     9.7841     0.0000    48.0000 </r>
       <r>     9.8890     0.0000    48.0000 </r>
       <r>     9.9940     0.0000    48.0000 </r>
      </set>
      <set comment="spin 2">
       <r>   -21.4885     0.0000     0.0000 </r>
       <r>   -21.3836     0.0000     0.0000 </r>
       <r>   -21.2786     0.0000     0.0000 </r>
       <r>   -21.1737     0.0000     0.0000 </r>
       <r>   -21.0687     0.0000     0.0000 </r>
       <r>   -20.9638     0.0000     0.0000 </r>
       <r>   -20.8589     0.0000     0.0000 </r>
       <r>   -20.7539     0.0000     0.0000 </r>
       <r>   -20.6490     0.0000     0.0000 </r>
       <r>   -20.5440     0.0000     0.0000 </r>
       <r>   -20.4391     0.0000     0.0000 </r>
       <r>   -20.3342     0.0000     0.0000 </r>
       <r>   -20.2292     0.0010     0.0001 </r>
       <r>   -20.1243     0.0380     0.0041 </r>
       <r>   -20.0193     0.2656     0.0320 </r>
       <r>   -19.9144     0.5535     0.0901 </r>
       <r>   -19.8094     0.6117     0.1543 </r>
       <r>   -19.7045     0.6511     0.2226 </r>
       <r>   -19.5996     0.5737     0.2828 </r>
       <r>   -19.4946     0.7168     0.3580 </r>
       <r>   -19.3897     0.5372     0.4144 </r>
       <r>   -19.2847     0.6389     0.4814 </r>
       <r>   -19.1798     0.7614     0.5613 </r>
       <r>   -19.0749     0.4591     0.6095 </r>
       <r>   -18.9699     0.6347     0.6761 </r>
       <r>   -18.8650     0.8093     0.7610 </r>
       <r>   -18.7600     0.5903     0.8230 </r>
       <r>   -18.6551     0.3925     0.8642 </r>
       <r>   -18.5501     0.8048     0.9486 </r>
       <r>   -18.4452     0.8018     1.0328 </r>
       <r>   -18.3403     0.5404     1.0895 </r>
       <r>   -18.2353     0.4299     1.1346 </r>
       <r>   -18.1304     0.7068     1.2088 </r>
       <r>   -18.0254     1.3613     1.3516 </r>
       <r>   -17.9205     1.3948     1.4980 </r>
       <r>   -17.8156     1.3211     1.6366 </r>
       <r>   -17.7106     1.5366     1.7979 </r>
       <r>   -17.6057     1.8671     1.9938 </r>
       <r>   -17.5007     2.3434     2.2397 </r>
       <r>   -17.3958     2.5738     2.5098 </r>
       <r>   -17.2909     1.8955     2.7088 </r>
       <r>   -17.1859     0.8106     2.7938 </r>
       <r>   -17.0810     0.8762     2.8858 </r>
       <r>   -16.9760     0.8885     2.9790 </r>
       <r>   -16.8711     0.7385     3.0565 </r>
       <r>   -16.7661     0.6014     3.1196 </r>
       <r>   -16.6612     0.4377     3.1655 </r>
       <r>   -16.5563     0.3335     3.2005 </r>
       <r>   -16.4513     1.0415     3.3098 </r>
       <r>   -16.3464     0.9819     3.4129 </r>
       <r>   -16.2414     0.6131     3.4772 </r>
       <r>   -16.1365     0.5470     3.5346 </r>
       <r>   -16.0316     0.5482     3.5921 </r>
       <r>   -15.9266     0.4420     3.6385 </r>
       <r>   -15.8217     0.7521     3.7175 </r>
       <r>   -15.7167     1.4482     3.8694 </r>
       <r>   -15.6118     1.6175     4.0392 </r>
       <r>   -15.5068     1.8268     4.2309 </r>
       <r>   -15.4019     1.9734     4.4380 </r>
       <r>   -15.2970     1.6160     4.6076 </r>
       <r>   -15.1920     1.5423     4.7694 </r>
       <r>   -15.0871     1.9640     4.9755 </r>
       <r>   -14.9821     2.1744     5.2037 </r>
       <r>   -14.8772     1.7217     5.3844 </r>
       <r>   -14.7723     1.5914     5.5514 </r>
       <r>   -14.6673     1.1554     5.6726 </r>
       <r>   -14.5624     1.3526     5.8146 </r>
       <r>   -14.4574     2.1903     6.0444 </r>
       <r>   -14.3525     2.3653     6.2926 </r>
       <r>   -14.2475     1.6295     6.4636 </r>
       <r>   -14.1426     1.1331     6.5826 </r>
       <r>   -14.0377     0.9734     6.6847 </r>
       <r>   -13.9327     0.9783     6.7874 </r>
       <r>   -13.8278     1.1877     6.9120 </r>
       <r>   -13.7228     0.9700     7.0138 </r>
       <r>   -13.6179     0.7068     7.0880 </r>
       <r>   -13.5130     0.5331     7.1439 </r>
       <r>   -13.4080     0.6885     7.2162 </r>
       <r>   -13.3031     0.6558     7.2850 </r>
       <r>   -13.1981     0.7709     7.3659 </r>
       <r>   -13.0932     0.9639     7.4670 </r>
       <r>   -12.9882     0.7888     7.5498 </r>
       <r>   -12.8833     1.0168     7.6565 </r>
       <r>   -12.7784     0.9925     7.7607 </r>
       <r>   -12.6734     0.6723     7.8312 </r>
       <r>   -12.5685     0.8473     7.9202 </r>
       <r>   -12.4635     0.4052     7.9627 </r>
       <r>   -12.3586     0.8371     8.0505 </r>
       <r>   -12.2537     1.1454     8.1707 </r>
       <r>   -12.1487     0.7304     8.2474 </r>
       <r>   -12.0438     1.0878     8.3615 </r>
       <r>   -11.9388     1.7377     8.5439 </r>
       <r>   -11.8339     2.1616     8.7707 </r>
       <r>   -11.7289     1.9257     8.9728 </r>
       <r>   -11.6240     1.7034     9.1516 </r>
       <r>   -11.5191     1.9227     9.3533 </r>
       <r>   -11.4141     1.7715     9.5393 </r>
       <r>   -11.3092     1.0344     9.6478 </r>
       <r>   -11.2042     1.1711     9.7707 </r>
       <r>   -11.0993     1.5899     9.9376 </r>
       <r>   -10.9944     1.3663    10.0809 </r>
       <r>   -10.8894     0.8649    10.1717 </r>
       <r>   -10.7845     1.2488    10.3028 </r>
       <r>   -10.6795     1.8524    10.4972 </r>
       <r>   -10.5746     1.9796    10.7049 </r>
       <r>   -10.4697     0.9639    10.8060 </r>
       <r>   -10.3647     0.7270    10.8823 </r>
       <r>   -10.2598     1.9929    11.0915 </r>
       <r>   -10.1548     2.4235    11.3458 </r>
       <r>   -10.0499     1.6838    11.5225 </r>
       <r>    -9.9449     1.0419    11.6318 </r>
       <r>    -9.8400     0.7253    11.7079 </r>
       <r>    -9.7351     1.2273    11.8367 </r>
       <r>    -9.6301     1.8687    12.0328 </r>
       <r>    -9.5252     1.6761    12.2087 </r>
       <r>    -9.4202     1.0216    12.3159 </r>
       <r>    -9.3153     0.9380    12.4144 </r>
       <r>    -9.2104     1.3946    12.5607 </r>
       <r>    -9.1054     0.6989    12.6341 </r>
       <r>    -9.0005     0.4035    12.6764 </r>
       <r>    -8.8955     1.4482    12.8284 </r>
       <r>    -8.7906     2.1205    13.0509 </r>
       <r>    -8.6856     2.2291    13.2848 </r>
       <r>    -8.5807     1.2894    13.4201 </r>
       <r>    -8.4758     1.0758    13.5330 </r>
       <r>    -8.3708     1.2224    13.6613 </r>
       <r>    -8.2659     1.8752    13.8581 </r>
       <r>    -8.1609     3.3751    14.2123 </r>
       <r>    -8.0560     3.1020    14.5378 </r>
       <r>    -7.9511     2.1786    14.7664 </r>
       <r>    -7.8461     1.6349    14.9380 </r>
       <r>    -7.7412     1.6941    15.1158 </r>
       <r>    -7.6362     2.9909    15.4297 </r>
       <r>    -7.5313     3.1091    15.7559 </r>
       <r>    -7.4263     2.6791    16.0371 </r>
       <r>    -7.3214     2.9530    16.3470 </r>
       <r>    -7.2165     2.8921    16.6505 </r>
       <r>    -7.1115     2.8627    16.9509 </r>
       <r>    -7.0066     3.4744    17.3155 </r>
       <r>    -6.9016     3.3608    17.6682 </r>
       <r>    -6.7967     1.9923    17.8773 </r>
       <r>    -6.6918     2.4725    18.1367 </r>
       <r>    -6.5868     3.7640    18.5317 </r>
       <r>    -6.4819     3.7053    18.9206 </r>
       <r>    -6.3769     2.9326    19.2283 </r>
       <r>    -6.2720     2.6509    19.5065 </r>
       <r>    -6.1670     2.9344    19.8145 </r>
       <r>    -6.0621     3.0829    20.1380 </r>
       <r>    -5.9572     2.1989    20.3688 </r>
       <r>    -5.8522     2.3539    20.6158 </r>
       <r>    -5.7473     2.6614    20.8951 </r>
       <r>    -5.6423     2.6596    21.1742 </r>
       <r>    -5.5374     2.8571    21.4740 </r>
       <r>    -5.4325     2.8229    21.7702 </r>
       <r>    -5.3275     3.2157    22.1077 </r>
       <r>    -5.2226     3.2941    22.4534 </r>
       <r>    -5.1176     2.6270    22.7291 </r>
       <r>    -5.0127     1.1968    22.8547 </r>
       <r>    -4.9077     1.5382    23.0161 </r>
       <r>    -4.8028     2.4946    23.2779 </r>
       <r>    -4.6979     2.4740    23.5375 </r>
       <r>    -4.5929     1.9047    23.7374 </r>
       <r>    -4.4880     2.0105    23.9484 </r>
       <r>    -4.3830     2.4324    24.2036 </r>
       <r>    -4.2781     2.7571    24.4930 </r>
       <r>    -4.1732     3.2837    24.8376 </r>
       <r>    -4.0682     3.9572    25.2528 </r>
       <r>    -3.9633     4.7839    25.7549 </r>
       <r>    -3.8583     4.0709    26.1821 </r>
       <r>    -3.7534     2.4703    26.4413 </r>
       <r>    -3.6484     2.1281    26.6646 </r>
       <r>    -3.5435     2.2654    26.9024 </r>
       <r>    -3.4386     2.0527    27.1178 </r>
       <r>    -3.3336     2.4760    27.3776 </r>
       <r>    -3.2287     2.0791    27.5958 </r>
       <r>    -3.1237     2.1250    27.8188 </r>
       <r>    -3.0188     1.8598    28.0140 </r>
       <r>    -2.9139     2.1098    28.2354 </r>
       <r>    -2.8089     3.1345    28.5643 </r>
       <r>    -2.7040     2.1907    28.7942 </r>
       <r>    -2.5990     1.5745    28.9595 </r>
       <r>    -2.4941     2.4081    29.2122 </r>
       <r>    -2.3892     2.7393    29.4996 </r>
       <r>    -2.2842     2.7828    29.7917 </r>
       <r>    -2.1793     2.3022    30.0333 </r>
       <r>    -2.0743     2.0785    30.2514 </r>
       <r>    -1.9694     1.6417    30.4237 </r>
       <r>    -1.8644     0.5150    30.4777 </r>
       <r>    -1.7595     0.4718    30.5272 </r>
       <r>    -1.6546     0.8771    30.6193 </r>
       <r>    -1.5496     0.7845    30.7016 </r>
       <r>    -1.4447     0.7986    30.7854 </r>
       <r>    -1.3397     0.7899    30.8683 </r>
       <r>    -1.2348     0.5551    30.9265 </r>
       <r>    -1.1299     0.4050    30.9690 </r>
       <r>    -1.0249     0.1460    30.9844 </r>
       <r>    -0.9200     0.0498    30.9896 </r>
       <r>    -0.8150     0.2873    31.0197 </r>
       <r>    -0.7101     0.5267    31.0750 </r>
       <r>    -0.6051     0.5546    31.1332 </r>
       <r>    -0.5002     1.1835    31.2574 </r>
       <r>    -0.3953     1.3426    31.3983 </r>
       <r>    -0.2903     1.0723    31.5108 </r>
       <r>    -0.1854     1.4002    31.6578 </r>
       <r>    -0.0804     1.5423    31.8196 </r>
       <r>     0.0245     1.0799    31.9329 </r>
       <r>     0.1294     0.4729    31.9826 </r>
       <r>     0.2344     0.1398    31.9972 </r>
       <r>     0.3393     0.0514    32.0026 </r>
       <r>     0.4443     0.3294    32.0372 </r>
       <r>     0.5492     1.0626    32.1487 </r>
       <r>     0.6542     1.2974    32.2849 </r>
       <r>     0.7591     0.6633    32.3545 </r>
       <r>     0.8640     0.4701    32.4038 </r>
       <r>     0.9690     1.1893    32.5286 </r>
       <r>     1.0739     1.5233    32.6885 </r>
       <r>     1.1789     1.6203    32.8585 </r>
       <r>     1.2838     1.1799    32.9823 </r>
       <r>     1.3887     0.5014    33.0349 </r>
       <r>     1.4937     0.6718    33.1054 </r>
       <r>     1.5986     0.6245    33.1710 </r>
       <r>     1.7036     0.6129    33.2353 </r>
       <r>     1.8085     0.9023    33.3300 </r>
       <r>     1.9135     1.3843    33.4753 </r>
       <r>     2.0184     1.0982    33.5905 </r>
       <r>     2.1233     0.3764    33.6300 </r>
       <r>     2.2283     0.3551    33.6673 </r>
       <r>     2.3332     1.3187    33.8057 </r>
       <r>     2.4382     2.2485    34.0416 </r>
       <r>     2.5431     1.5958    34.2091 </r>
       <r>     2.6480     1.3559    34.3514 </r>
       <r>     2.7530     1.3896    34.4972 </r>
       <r>     2.8579     1.4981    34.6544 </r>
       <r>     2.9629     1.6374    34.8262 </r>
       <r>     3.0678     1.2691    34.9594 </r>
       <r>     3.1728     1.1979    35.0851 </r>
       <r>     3.2777     1.6932    35.2628 </r>
       <r>     3.3826     1.5920    35.4299 </r>
       <r>     3.4876     1.5328    35.5907 </r>
       <r>     3.5925     1.5802    35.7566 </r>
       <r>     3.6975     1.4922    35.9132 </r>
       <r>     3.8024     1.2468    36.0440 </r>
       <r>     3.9073     1.3354    36.1841 </r>
       <r>     4.0123     1.8994    36.3835 </r>
       <r>     4.1172     2.0457    36.5982 </r>
       <r>     4.2222     1.6472    36.7710 </r>
       <r>     4.3271     1.3767    36.9155 </r>
       <r>     4.4320     1.6363    37.0872 </r>
       <r>     4.5370     2.9240    37.3940 </r>
       <r>     4.6419     2.4213    37.6481 </r>
       <r>     4.7469     0.8172    37.7339 </r>
       <r>     4.8518     1.4703    37.8882 </r>
       <r>     4.9568     2.8701    38.1894 </r>
       <r>     5.0617     2.8453    38.4880 </r>
       <r>     5.1666     1.9323    38.6908 </r>
       <r>     5.2716     1.5784    38.8564 </r>
       <r>     5.3765     2.1145    39.0783 </r>
       <r>     5.4815     2.1630    39.3053 </r>
       <r>     5.5864     2.7050    39.5892 </r>
       <r>     5.6913     2.7176    39.8743 </r>
       <r>     5.7963     1.7374    40.0567 </r>
       <r>     5.9012     1.2103    40.1837 </r>
       <r>     6.0062     1.8742    40.3804 </r>
       <r>     6.1111     2.0696    40.5975 </r>
       <r>     6.2161     2.3399    40.8431 </r>
       <r>     6.3210     3.1880    41.1777 </r>
       <r>     6.4259     3.1338    41.5065 </r>
       <r>     6.5309     2.9610    41.8173 </r>
       <r>     6.6358     2.6212    42.0923 </r>
       <r>     6.7408     2.6347    42.3688 </r>
       <r>     6.8457     2.7985    42.6625 </r>
       <r>     6.9506     2.8469    42.9613 </r>
       <r>     7.0556     3.7407    43.3538 </r>
       <r>     7.1605     4.0998    43.7841 </r>
       <r>     7.2655     4.0214    44.2061 </r>
       <r>     7.3704     4.3156    44.6590 </r>
       <r>     7.4754     4.9492    45.1783 </r>
       <r>     7.5803     3.9720    45.5952 </r>
       <r>     7.6852     3.6748    45.9808 </r>
       <r>     7.7902     4.5048    46.4535 </r>
       <r>     7.8951     5.2952    47.0092 </r>
       <r>     8.0001     4.1658    47.4464 </r>
       <r>     8.1050     2.5226    47.7111 </r>
       <r>     8.2099     1.3558    47.8534 </r>
       <r>     8.3149     0.5818    47.9144 </r>
       <r>     8.4198     0.2850    47.9444 </r>
       <r>     8.5248     0.2958    47.9754 </r>
       <r>     8.6297     0.1948    47.9958 </r>
       <r>     8.7347     0.0381    47.9998 </r>
       <r>     8.8396     0.0015    48.0000 </r>
       <r>     8.9445     0.0000    48.0000 </r>
       <r>     9.0495     0.0000    48.0000 </r>
       <r>     9.1544     0.0000    48.0000 </r>
       <r>     9.2594     0.0000    48.0000 </r>
       <r>     9.3643     0.0000    48.0000 </r>
       <r>     9.4692     0.0000    48.0000 </r>
       <r>     9.5742     0.0000    48.0000 </r>
       <r>     9.6791     0.0000    48.0000 </r>
       <r>     9.7841     0.0000    48.0000 </r>
       <r>     9.8890     0.0000    48.0000 </r>
       <r>     9.9940     0.0000    48.0000 </r>
      </set>
     </set>
    </array>
   </total>
  </dos>
 </calculation>
 <structure name="finalpos" >
  <crystal>
   <varray name="basis" >
    <v>       4.31280564       2.48999950       0.00000000 </v>
    <v>      -4.31280564       2.48999950       0.00000000 </v>
    <v>       0.00000000       0.00000000      15.00000000 </v>
   </varray>
   <i name="volume">    322.16651698 </i>
   <varray name="rec_basis" >
    <v>       0.11593381       0.20080325       0.00000000 </v>
    <v>      -0.11593381       0.20080325       0.00000000 </v>
    <v>       0.00000000       0.00000000       0.06666667 </v>
   </varray>
  </crystal>
  <varray name="positions" >
   <v>       0.33815745       0.66908350       0.10076660 </v>
   <v>       0.67150063       0.33574710       0.10044441 </v>
   <v>       0.16484835       0.32245748       0.10053423 </v>
   <v>       0.32480312       0.16239294       0.10061602 </v>
   <v>       0.16485338       0.84239059       0.10054163 </v>
   <v>       0.84484427       0.16240163       0.10037814 </v>
   <v>       0.68478471       0.84239454       0.10030946 </v>
   <v>       0.84484988       0.68243946       0.10038555 </v>
   <v>       0.33351864       0.16676079       0.32509312 </v>
   <v>       0.50020848       0.00016607       0.32506049 </v>
   <v>       0.33349802       0.66675064       0.32477702 </v>
   <v>       0.50020854       0.50004421       0.32506052 </v>
   <v>       0.83349181       0.16676216       0.32508588 </v>
   <v>       0.00017331       0.00008746       0.32506805 </v>
   <v>       0.83349187       0.66673272       0.32508597 </v>
   <v>       0.00009288       0.50004737       0.32505956 </v>
  </varray>
 </structure>
</modeling>
