  15  15   0   4
  0.1913050E+02  0.4700000E-09  0.4700000E-09  0.1500000E-08  0.5000000E-15
  1.000000000000000E-004
  CAR 
 Lattice                                 
     10.83269514    -21.22732660  301      0.15690079      1.00000000
    -21.227  0.0000E+00  0.0000E+00  0.0000E+00  0.0000E+00
    -21.120  0.0000E+00  0.0000E+00  0.0000E+00  0.0000E+00
    -21.014  0.0000E+00  0.0000E+00  0.0000E+00  0.0000E+00
    -20.907  0.0000E+00  0.0000E+00  0.0000E+00  0.0000E+00
    -20.800  0.0000E+00  0.0000E+00  0.0000E+00  0.0000E+00
    -20.693  0.0000E+00  0.0000E+00  0.0000E+00  0.0000E+00
    -20.586  0.0000E+00  0.0000E+00  0.0000E+00  0.0000E+00
    -20.479  0.0000E+00  0.0000E+00  0.0000E+00  0.0000E+00
    -20.372  0.0000E+00  0.0000E+00  0.0000E+00  0.0000E+00
    -20.266  0.6607E-15  0.6607E-15  0.7061E-16  0.7061E-16
    -20.159  0.1154E-10  0.1154E-10  0.1234E-11  0.1234E-11
    -20.052  0.2412E-07  0.2412E-07  0.2579E-08  0.2579E-08
    -19.945  0.6640E-05  0.6640E-05  0.7122E-06  0.7122E-06
    -19.838  0.2691E-03  0.2691E-03  0.2947E-04  0.2947E-04
    -19.731  0.1969E-02  0.1969E-02  0.2399E-03  0.2399E-03
    -19.624  0.4145E-02  0.4145E-02  0.6828E-03  0.6828E-03
    -19.517  0.4512E-02  0.4512E-02  0.1165E-02  0.1165E-02
    -19.411  0.4930E-02  0.4930E-02  0.1692E-02  0.1692E-02
    -19.304  0.4146E-02  0.4146E-02  0.2135E-02  0.2135E-02
    -19.197  0.5376E-02  0.5376E-02  0.2709E-02  0.2709E-02
    -19.090  0.4210E-02  0.4210E-02  0.3159E-02  0.3159E-02
    -18.983  0.4242E-02  0.4242E-02  0.3613E-02  0.3613E-02
    -18.876  0.6003E-02  0.6003E-02  0.4254E-02  0.4254E-02
    -18.769  0.3809E-02  0.3809E-02  0.4661E-02  0.4661E-02
    -18.663  0.3867E-02  0.3867E-02  0.5074E-02  0.5074E-02
    -18.556  0.6106E-02  0.6106E-02  0.5727E-02  0.5727E-02
    -18.449  0.5204E-02  0.5204E-02  0.6283E-02  0.6283E-02
    -18.342  0.2957E-02  0.2957E-02  0.6599E-02  0.6599E-02
    -18.235  0.4353E-02  0.4353E-02  0.7064E-02  0.7064E-02
    -18.128  0.6909E-02  0.6909E-02  0.7803E-02  0.7803E-02
    -18.021  0.4561E-02  0.4561E-02  0.8290E-02  0.8290E-02
    -17.914  0.3791E-02  0.3791E-02  0.8695E-02  0.8695E-02
    -17.808  0.2964E-02  0.2964E-02  0.9012E-02  0.9012E-02
    -17.701  0.6608E-02  0.6608E-02  0.9718E-02  0.9718E-02
    -17.594  0.6607E-02  0.6607E-02  0.1042E-01  0.1042E-01
    -17.487  0.3536E-02  0.3536E-02  0.1080E-01  0.1080E-01
    -17.380  0.3276E-02  0.3276E-02  0.1115E-01  0.1115E-01
    -17.273  0.4092E-02  0.4092E-02  0.1159E-01  0.1159E-01
    -17.166  0.6194E-02  0.6194E-02  0.1225E-01  0.1225E-01
    -17.060  0.6750E-02  0.6750E-02  0.1297E-01  0.1297E-01
    -16.953  0.5322E-02  0.5322E-02  0.1354E-01  0.1354E-01
    -16.846  0.5954E-02  0.5954E-02  0.1418E-01  0.1418E-01
    -16.739  0.9896E-02  0.9896E-02  0.1524E-01  0.1524E-01
    -16.632  0.1442E-01  0.1442E-01  0.1678E-01  0.1678E-01
    -16.525  0.1534E-01  0.1534E-01  0.1842E-01  0.1842E-01
    -16.418  0.1637E-01  0.1637E-01  0.2017E-01  0.2017E-01
    -16.311  0.2012E-01  0.2012E-01  0.2232E-01  0.2232E-01
    -16.205  0.1781E-01  0.1781E-01  0.2422E-01  0.2422E-01
    -16.098  0.6274E-02  0.6274E-02  0.2489E-01  0.2489E-01
    -15.991  0.7341E-02  0.7341E-02  0.2568E-01  0.2568E-01
    -15.884  0.8175E-02  0.8175E-02  0.2655E-01  0.2655E-01
    -15.777  0.4564E-02  0.4564E-02  0.2704E-01  0.2704E-01
    -15.670  0.4145E-02  0.4145E-02  0.2748E-01  0.2748E-01
    -15.563  0.3858E-02  0.3858E-02  0.2789E-01  0.2789E-01
    -15.457  0.3815E-02  0.3815E-02  0.2830E-01  0.2830E-01
    -15.350  0.3630E-02  0.3630E-02  0.2869E-01  0.2869E-01
    -15.243  0.8017E-02  0.8017E-02  0.2954E-01  0.2954E-01
    -15.136  0.8099E-02  0.8099E-02  0.3041E-01  0.3041E-01
    -15.029  0.3939E-02  0.3939E-02  0.3083E-01  0.3083E-01
    -14.922  0.3858E-02  0.3858E-02  0.3124E-01  0.3124E-01
    -14.815  0.3351E-02  0.3351E-02  0.3160E-01  0.3160E-01
    -14.708  0.4599E-02  0.4599E-02  0.3209E-01  0.3209E-01
    -14.602  0.6097E-02  0.6097E-02  0.3274E-01  0.3274E-01
    -14.495  0.1020E-01  0.1020E-01  0.3383E-01  0.3383E-01
    -14.388  0.1632E-01  0.1632E-01  0.3558E-01  0.3558E-01
    -14.281  0.1799E-01  0.1799E-01  0.3750E-01  0.3750E-01
    -14.174  0.1765E-01  0.1765E-01  0.3939E-01  0.3939E-01
    -14.067  0.1148E-01  0.1148E-01  0.4061E-01  0.4061E-01
    -13.960  0.7560E-02  0.7560E-02  0.4142E-01  0.4142E-01
    -13.854  0.1460E-01  0.1460E-01  0.4298E-01  0.4298E-01
    -13.747  0.1562E-01  0.1562E-01  0.4465E-01  0.4465E-01
    -13.640  0.1073E-01  0.1073E-01  0.4580E-01  0.4580E-01
    -13.533  0.1080E-01  0.1080E-01  0.4695E-01  0.4695E-01
    -13.426  0.1184E-01  0.1184E-01  0.4822E-01  0.4822E-01
    -13.319  0.1929E-01  0.1929E-01  0.5028E-01  0.5028E-01
    -13.212  0.2039E-01  0.2039E-01  0.5246E-01  0.5246E-01
    -13.105  0.1840E-01  0.1840E-01  0.5442E-01  0.5442E-01
    -12.999  0.1188E-01  0.1188E-01  0.5569E-01  0.5569E-01
    -12.892  0.7251E-02  0.7251E-02  0.5647E-01  0.5647E-01
    -12.785  0.3295E-02  0.3295E-02  0.5682E-01  0.5682E-01
    -12.678  0.4057E-02  0.4057E-02  0.5725E-01  0.5725E-01
    -12.571  0.6816E-02  0.6816E-02  0.5798E-01  0.5798E-01
    -12.464  0.6894E-02  0.6894E-02  0.5872E-01  0.5872E-01
    -12.357  0.4819E-02  0.4819E-02  0.5923E-01  0.5923E-01
    -12.251  0.6690E-02  0.6690E-02  0.5995E-01  0.5995E-01
    -12.144  0.7027E-02  0.7027E-02  0.6070E-01  0.6070E-01
    -12.037  0.5609E-02  0.5609E-02  0.6130E-01  0.6130E-01
    -11.930  0.5358E-02  0.5358E-02  0.6187E-01  0.6187E-01
    -11.823  0.3358E-02  0.3358E-02  0.6223E-01  0.6223E-01
    -11.716  0.6333E-02  0.6333E-02  0.6291E-01  0.6291E-01
    -11.609  0.7990E-02  0.7990E-02  0.6376E-01  0.6376E-01
    -11.502  0.3393E-02  0.3393E-02  0.6412E-01  0.6412E-01
    -11.396  0.3365E-02  0.3365E-02  0.6448E-01  0.6448E-01
    -11.289  0.3379E-02  0.3379E-02  0.6484E-01  0.6484E-01
    -11.182  0.5915E-02  0.5915E-02  0.6548E-01  0.6548E-01
    -11.075  0.6768E-02  0.6768E-02  0.6620E-01  0.6620E-01
    -10.968  0.3844E-02  0.3844E-02  0.6661E-01  0.6661E-01
    -10.861  0.1854E-02  0.1854E-02  0.6681E-01  0.6681E-01
    -10.754  0.4734E-02  0.4734E-02  0.6731E-01  0.6731E-01
    -10.648  0.5813E-02  0.5813E-02  0.6794E-01  0.6794E-01
    -10.541  0.5201E-02  0.5201E-02  0.6849E-01  0.6849E-01
    -10.434  0.7795E-02  0.7795E-02  0.6932E-01  0.6932E-01
    -10.327  0.5963E-02  0.5963E-02  0.6996E-01  0.6996E-01
    -10.220  0.2447E-02  0.2447E-02  0.7022E-01  0.7022E-01
    -10.113  0.7897E-02  0.7897E-02  0.7107E-01  0.7107E-01
    -10.006  0.1244E-01  0.1244E-01  0.7240E-01  0.7240E-01
     -9.899  0.1537E-01  0.1537E-01  0.7404E-01  0.7404E-01
     -9.793  0.1503E-01  0.1503E-01  0.7564E-01  0.7564E-01
     -9.686  0.1436E-01  0.1436E-01  0.7718E-01  0.7718E-01
     -9.579  0.1788E-01  0.1788E-01  0.7909E-01  0.7909E-01
     -9.472  0.1883E-01  0.1883E-01  0.8110E-01  0.8110E-01
     -9.365  0.9753E-02  0.9753E-02  0.8214E-01  0.8214E-01
     -9.258  0.6574E-02  0.6574E-02  0.8285E-01  0.8285E-01
     -9.151  0.1403E-01  0.1403E-01  0.8435E-01  0.8435E-01
     -9.045  0.1587E-01  0.1587E-01  0.8604E-01  0.8604E-01
     -8.938  0.1636E-01  0.1636E-01  0.8779E-01  0.8779E-01
     -8.831  0.1518E-01  0.1518E-01  0.8941E-01  0.8941E-01
     -8.724  0.1416E-01  0.1416E-01  0.9093E-01  0.9093E-01
     -8.617  0.1064E-01  0.1064E-01  0.9206E-01  0.9206E-01
     -8.510  0.7551E-02  0.7551E-02  0.9287E-01  0.9287E-01
     -8.403  0.1526E-01  0.1526E-01  0.9450E-01  0.9450E-01
     -8.296  0.2066E-01  0.2066E-01  0.9671E-01  0.9671E-01
     -8.190  0.1566E-01  0.1566E-01  0.9838E-01  0.9838E-01
     -8.083  0.7602E-02  0.7602E-02  0.9919E-01  0.9919E-01
     -7.976  0.1056E-01  0.1056E-01  0.1003E+00  0.1003E+00
     -7.869  0.2105E-01  0.2105E-01  0.1026E+00  0.1026E+00
     -7.762  0.1916E-01  0.1916E-01  0.1046E+00  0.1046E+00
     -7.655  0.1147E-01  0.1147E-01  0.1058E+00  0.1058E+00
     -7.548  0.1634E-01  0.1634E-01  0.1076E+00  0.1076E+00
     -7.442  0.2500E-01  0.2500E-01  0.1103E+00  0.1103E+00
     -7.335  0.2444E-01  0.2444E-01  0.1129E+00  0.1129E+00
     -7.228  0.2043E-01  0.2043E-01  0.1151E+00  0.1151E+00
     -7.121  0.9793E-02  0.9793E-02  0.1161E+00  0.1161E+00
     -7.014  0.8601E-02  0.8601E-02  0.1170E+00  0.1170E+00
     -6.907  0.1911E-01  0.1911E-01  0.1191E+00  0.1191E+00
     -6.800  0.1755E-01  0.1755E-01  0.1209E+00  0.1209E+00
     -6.693  0.1146E-01  0.1146E-01  0.1222E+00  0.1222E+00
     -6.587  0.1153E-01  0.1153E-01  0.1234E+00  0.1234E+00
     -6.480  0.1720E-01  0.1720E-01  0.1252E+00  0.1252E+00
     -6.373  0.1782E-01  0.1782E-01  0.1271E+00  0.1271E+00
     -6.266  0.1949E-01  0.1949E-01  0.1292E+00  0.1292E+00
     -6.159  0.2070E-01  0.2070E-01  0.1314E+00  0.1314E+00
     -6.052  0.1878E-01  0.1878E-01  0.1334E+00  0.1334E+00
     -5.945  0.1993E-01  0.1993E-01  0.1356E+00  0.1356E+00
     -5.839  0.1687E-01  0.1687E-01  0.1374E+00  0.1374E+00
     -5.732  0.1819E-01  0.1819E-01  0.1393E+00  0.1393E+00
     -5.625  0.2580E-01  0.2580E-01  0.1421E+00  0.1421E+00
     -5.518  0.2298E-01  0.2298E-01  0.1445E+00  0.1445E+00
     -5.411  0.3130E-01  0.3130E-01  0.1479E+00  0.1479E+00
     -5.304  0.2880E-01  0.2880E-01  0.1510E+00  0.1510E+00
     -5.197  0.1566E-01  0.1566E-01  0.1526E+00  0.1526E+00
     -5.090  0.1787E-01  0.1787E-01  0.1545E+00  0.1545E+00
     -4.984  0.3295E-01  0.3295E-01  0.1581E+00  0.1581E+00
     -4.877  0.3650E-01  0.3650E-01  0.1620E+00  0.1620E+00
     -4.770  0.2373E-01  0.2373E-01  0.1645E+00  0.1645E+00
     -4.663  0.1686E-01  0.1686E-01  0.1663E+00  0.1663E+00
     -4.556  0.1069E-01  0.1069E-01  0.1674E+00  0.1674E+00
     -4.449  0.1012E-01  0.1012E-01  0.1685E+00  0.1685E+00
     -4.342  0.1448E-01  0.1448E-01  0.1701E+00  0.1701E+00
     -4.236  0.1133E-01  0.1133E-01  0.1713E+00  0.1713E+00
     -4.129  0.8267E-02  0.8267E-02  0.1722E+00  0.1722E+00
     -4.022  0.8998E-02  0.8998E-02  0.1731E+00  0.1731E+00
     -3.915  0.1561E-01  0.1561E-01  0.1748E+00  0.1748E+00
     -3.808  0.2177E-01  0.2177E-01  0.1771E+00  0.1771E+00
     -3.701  0.1780E-01  0.1780E-01  0.1790E+00  0.1790E+00
     -3.594  0.1956E-01  0.1956E-01  0.1811E+00  0.1811E+00
     -3.487  0.2274E-01  0.2274E-01  0.1835E+00  0.1835E+00
     -3.381  0.2404E-01  0.2404E-01  0.1861E+00  0.1861E+00
     -3.274  0.1836E-01  0.1836E-01  0.1881E+00  0.1881E+00
     -3.167  0.1769E-01  0.1769E-01  0.1900E+00  0.1900E+00
     -3.060  0.2031E-01  0.2031E-01  0.1921E+00  0.1921E+00
     -2.953  0.1573E-01  0.1573E-01  0.1938E+00  0.1938E+00
     -2.846  0.1430E-01  0.1430E-01  0.1953E+00  0.1953E+00
     -2.739  0.1340E-01  0.1340E-01  0.1968E+00  0.1968E+00
     -2.633  0.1701E-01  0.1701E-01  0.1986E+00  0.1986E+00
     -2.526  0.1826E-01  0.1826E-01  0.2005E+00  0.2005E+00
     -2.419  0.1190E-01  0.1190E-01  0.2018E+00  0.2018E+00
     -2.312  0.1168E-01  0.1168E-01  0.2031E+00  0.2031E+00
     -2.205  0.7366E-02  0.7366E-02  0.2039E+00  0.2039E+00
     -2.098  0.1050E-01  0.1050E-01  0.2050E+00  0.2050E+00
     -1.991  0.2015E-01  0.2015E-01  0.2071E+00  0.2071E+00
     -1.884  0.1341E-01  0.1341E-01  0.2086E+00  0.2086E+00
     -1.778  0.3860E-02  0.3860E-02  0.2090E+00  0.2090E+00
     -1.671  0.4472E-02  0.4472E-02  0.2094E+00  0.2094E+00
     -1.564  0.1004E-01  0.1004E-01  0.2105E+00  0.2105E+00
     -1.457  0.1057E-01  0.1057E-01  0.2117E+00  0.2117E+00
     -1.350  0.1124E-01  0.1124E-01  0.2129E+00  0.2129E+00
     -1.243  0.1174E-01  0.1174E-01  0.2141E+00  0.2141E+00
     -1.136  0.9320E-02  0.9320E-02  0.2151E+00  0.2151E+00
     -1.030  0.7008E-02  0.7008E-02  0.2159E+00  0.2159E+00
     -0.923  0.4781E-02  0.4781E-02  0.2164E+00  0.2164E+00
     -0.816  0.3830E-02  0.3830E-02  0.2168E+00  0.2168E+00
     -0.709  0.4000E-02  0.4000E-02  0.2172E+00  0.2172E+00
     -0.602  0.4144E-02  0.4144E-02  0.2176E+00  0.2176E+00
     -0.495  0.5897E-02  0.5897E-02  0.2183E+00  0.2183E+00
     -0.388  0.2760E-02  0.2760E-02  0.2186E+00  0.2186E+00
     -0.281  0.6122E-03  0.6122E-03  0.2186E+00  0.2186E+00
     -0.175  0.7182E-04  0.7182E-04  0.2186E+00  0.2186E+00
     -0.068  0.3069E-05  0.3069E-05  0.2186E+00  0.2186E+00
      0.039  0.9791E-04  0.9791E-04  0.2187E+00  0.2187E+00
      0.146  0.7925E-03  0.7925E-03  0.2187E+00  0.2187E+00
      0.253  0.9586E-03  0.9586E-03  0.2188E+00  0.2188E+00
      0.360  0.1757E-03  0.1757E-03  0.2189E+00  0.2189E+00
      0.467  0.4417E-05  0.4417E-05  0.2189E+00  0.2189E+00
      0.573  0.4281E-06  0.4281E-06  0.2189E+00  0.2189E+00
      0.680  0.6418E-04  0.6418E-04  0.2189E+00  0.2189E+00
      0.787  0.1237E-02  0.1237E-02  0.2190E+00  0.2190E+00
      0.894  0.3350E-02  0.3350E-02  0.2194E+00  0.2194E+00
      1.001  0.1473E-02  0.1473E-02  0.2195E+00  0.2195E+00
      1.108  0.1284E-02  0.1284E-02  0.2197E+00  0.2197E+00
      1.215  0.3305E-02  0.3305E-02  0.2200E+00  0.2200E+00
      1.322  0.5242E-02  0.5242E-02  0.2206E+00  0.2206E+00
      1.428  0.1038E-01  0.1038E-01  0.2217E+00  0.2217E+00
      1.535  0.2625E-01  0.2625E-01  0.2245E+00  0.2245E+00
      1.642  0.1962E-01  0.1962E-01  0.2266E+00  0.2266E+00
      1.749  0.4607E-02  0.4607E-02  0.2271E+00  0.2271E+00
      1.856  0.4257E-02  0.4257E-02  0.2275E+00  0.2275E+00
      1.963  0.8567E-02  0.8567E-02  0.2284E+00  0.2284E+00
      2.070  0.1225E-01  0.1225E-01  0.2297E+00  0.2297E+00
      2.176  0.1918E-01  0.1918E-01  0.2318E+00  0.2318E+00
      2.283  0.1560E-01  0.1560E-01  0.2335E+00  0.2335E+00
      2.390  0.6485E-02  0.6485E-02  0.2342E+00  0.2342E+00
      2.497  0.6476E-02  0.6476E-02  0.2348E+00  0.2348E+00
      2.604  0.9917E-02  0.9917E-02  0.2359E+00  0.2359E+00
      2.711  0.7490E-02  0.7490E-02  0.2367E+00  0.2367E+00
      2.818  0.8183E-02  0.8183E-02  0.2376E+00  0.2376E+00
      2.925  0.7430E-02  0.7430E-02  0.2384E+00  0.2384E+00
      3.031  0.1061E-01  0.1061E-01  0.2395E+00  0.2395E+00
      3.138  0.1088E-01  0.1088E-01  0.2407E+00  0.2407E+00
      3.245  0.6792E-02  0.6792E-02  0.2414E+00  0.2414E+00
      3.352  0.5309E-02  0.5309E-02  0.2420E+00  0.2420E+00
      3.459  0.1034E-01  0.1034E-01  0.2431E+00  0.2431E+00
      3.566  0.1176E-01  0.1176E-01  0.2443E+00  0.2443E+00
      3.673  0.9589E-02  0.9589E-02  0.2454E+00  0.2454E+00
      3.779  0.1050E-01  0.1050E-01  0.2465E+00  0.2465E+00
      3.886  0.8937E-02  0.8938E-02  0.2474E+00  0.2474E+00
      3.993  0.1208E-01  0.1208E-01  0.2487E+00  0.2487E+00
      4.100  0.1524E-01  0.1524E-01  0.2504E+00  0.2504E+00
      4.207  0.1762E-01  0.1762E-01  0.2522E+00  0.2522E+00
      4.314  0.2084E-01  0.2084E-01  0.2545E+00  0.2545E+00
      4.421  0.2125E-01  0.2125E-01  0.2567E+00  0.2567E+00
      4.528  0.2595E-01  0.2595E-01  0.2595E+00  0.2595E+00
      4.634  0.2411E-01  0.2411E-01  0.2621E+00  0.2621E+00
      4.741  0.2426E-01  0.2426E-01  0.2647E+00  0.2647E+00
      4.848  0.2358E-01  0.2358E-01  0.2672E+00  0.2672E+00
      4.955  0.2502E-01  0.2502E-01  0.2699E+00  0.2699E+00
      5.062  0.2437E-01  0.2437E-01  0.2725E+00  0.2725E+00
      5.169  0.1758E-01  0.1758E-01  0.2744E+00  0.2744E+00
      5.276  0.1930E-01  0.1930E-01  0.2764E+00  0.2764E+00
      5.382  0.2389E-01  0.2389E-01  0.2790E+00  0.2790E+00
      5.489  0.2408E-01  0.2408E-01  0.2815E+00  0.2815E+00
      5.596  0.2393E-01  0.2393E-01  0.2841E+00  0.2841E+00
      5.703  0.2425E-01  0.2426E-01  0.2867E+00  0.2867E+00
      5.810  0.2868E-01  0.2868E-01  0.2898E+00  0.2898E+00
      5.917  0.2586E-01  0.2586E-01  0.2925E+00  0.2925E+00
      6.024  0.1577E-01  0.1577E-01  0.2942E+00  0.2942E+00
      6.131  0.2323E-01  0.2322E-01  0.2967E+00  0.2967E+00
      6.237  0.2657E-01  0.2657E-01  0.2995E+00  0.2995E+00
      6.344  0.1962E-01  0.1962E-01  0.3016E+00  0.3016E+00
      6.451  0.2294E-01  0.2294E-01  0.3041E+00  0.3041E+00
      6.558  0.2274E-01  0.2274E-01  0.3065E+00  0.3065E+00
      6.665  0.1636E-01  0.1636E-01  0.3083E+00  0.3083E+00
      6.772  0.1848E-01  0.1848E-01  0.3102E+00  0.3102E+00
      6.879  0.2101E-01  0.2101E-01  0.3125E+00  0.3125E+00
      6.985  0.1785E-01  0.1785E-01  0.3144E+00  0.3144E+00
      7.092  0.1885E-01  0.1885E-01  0.3164E+00  0.3164E+00
      7.199  0.3034E-01  0.3034E-01  0.3196E+00  0.3196E+00
      7.306  0.2956E-01  0.2956E-01  0.3228E+00  0.3228E+00
      7.413  0.2548E-01  0.2548E-01  0.3255E+00  0.3255E+00
      7.520  0.1626E-01  0.1626E-01  0.3273E+00  0.3273E+00
      7.627  0.1795E-01  0.1795E-01  0.3292E+00  0.3292E+00
      7.734  0.2056E-01  0.2056E-01  0.3314E+00  0.3314E+00
      7.840  0.2733E-01  0.2733E-01  0.3343E+00  0.3343E+00
      7.947  0.2571E-01  0.2571E-01  0.3370E+00  0.3370E+00
      8.054  0.2239E-01  0.2239E-01  0.3394E+00  0.3394E+00
      8.161  0.2799E-01  0.2799E-01  0.3424E+00  0.3424E+00
      8.268  0.2781E-01  0.2781E-01  0.3454E+00  0.3454E+00
      8.375  0.2813E-01  0.2813E-01  0.3484E+00  0.3484E+00
      8.482  0.2051E-01  0.2051E-01  0.3506E+00  0.3506E+00
      8.588  0.1862E-01  0.1862E-01  0.3526E+00  0.3526E+00
      8.695  0.2578E-01  0.2578E-01  0.3553E+00  0.3553E+00
      8.802  0.3441E-01  0.3441E-01  0.3590E+00  0.3590E+00
      8.909  0.3956E-01  0.3957E-01  0.3632E+00  0.3632E+00
      9.016  0.3544E-01  0.3544E-01  0.3670E+00  0.3670E+00
      9.123  0.3512E-01  0.3512E-01  0.3708E+00  0.3708E+00
      9.230  0.2252E-01  0.2252E-01  0.3732E+00  0.3732E+00
      9.337  0.1153E-01  0.1153E-01  0.3744E+00  0.3744E+00
      9.443  0.4661E-02  0.4661E-02  0.3749E+00  0.3749E+00
      9.550  0.6952E-03  0.6952E-03  0.3750E+00  0.3750E+00
      9.657  0.2231E-04  0.2231E-04  0.3750E+00  0.3750E+00
      9.764  0.1049E-06  0.1049E-06  0.3750E+00  0.3750E+00
      9.871  0.5903E-10  0.5903E-10  0.3750E+00  0.3750E+00
      9.978  0.3664E-14  0.3663E-14  0.3750E+00  0.3750E+00
     10.085  0.0000E+00  0.0000E+00  0.3750E+00  0.3750E+00
     10.191  0.0000E+00  0.0000E+00  0.3750E+00  0.3750E+00
     10.298  0.0000E+00  0.0000E+00  0.3750E+00  0.3750E+00
     10.405  0.0000E+00  0.0000E+00  0.3750E+00  0.3750E+00
     10.512  0.0000E+00  0.0000E+00  0.3750E+00  0.3750E+00
     10.619  0.0000E+00  0.0000E+00  0.3750E+00  0.3750E+00
     10.726  0.0000E+00  0.0000E+00  0.3750E+00  0.3750E+00
     10.833  0.0000E+00  0.0000E+00  0.3750E+00  0.3750E+00
