<?xml version="1.0" encoding="ISO-8859-1"?>
<modeling>
 <generator>
  <i name="program" type="string">vasp </i>
  <i name="version" type="string">6.3.2  </i>
  <i name="subversion" type="string">27Jun22 (build Dec 22 2022 13:13:19) complex                          parallel </i>
  <i name="platform" type="string">LinuxIFC </i>
  <i name="date" type="string">2023 10 26 </i>
  <i name="time" type="string">05:15:10 </i>
 </generator>
 <incar>
  <i type="string" name="SYSTEM">Lattice</i>
  <i type="int" name="ISTART">     0</i>
  <i type="string" name="PREC">Accurate</i>
  <i type="string" name="ALGO">Normal</i>
  <i type="int" name="ISPIN">     2</i>
  <i type="int" name="ICHARG">     2</i>
  <i type="int" name="NELM">    64</i>
  <i type="int" name="IBRION">     2</i>
  <i name="EDIFF">      0.00000100</i>
  <i name="EDIFFG">     -0.00100000</i>
  <i type="int" name="NSW">   128</i>
  <i type="int" name="ISIF">     3</i>
  <i name="ENCUT">    450.00000000</i>
  <i name="POTIM">      0.50000000</i>
  <i type="int" name="ISMEAR">     0</i>
  <i name="SIGMA">      0.10000000</i>
  <i type="logical" name="LWAVE"> F  </i>
  <i type="logical" name="LCHARG"> F  </i>
  <i type="string" name="GGA">PE</i>
  <i type="logical" name="LDIPOL"> T  </i>
  <i type="int" name="IDIPOL">     3</i>
  <i type="int" name="IVDW">    12</i>
 </incar>
 <primitive_cell>
  <structure name="primitive_cell" >
   <crystal>
    <varray name="basis" >
     <v>       4.07031940       2.35000000       0.00000000 </v>
     <v>      -4.07031940       2.35000000       0.00000000 </v>
     <v>       0.00000000       0.00000000      15.00000000 </v>
    </varray>
    <i name="volume">    286.95751754 </i>
    <varray name="rec_basis" >
     <v>       0.12284048       0.21276596       0.00000000 </v>
     <v>      -0.12284048       0.21276596       0.00000000 </v>
     <v>       0.00000000       0.00000000       0.06666667 </v>
    </varray>
   </crystal>
   <varray name="positions" >
    <v>       0.00415361       0.00267210       0.12034134 </v>
    <v>       0.35695335       0.00285503       0.09748893 </v>
    <v>       0.00423858       0.35550699       0.09749256 </v>
    <v>       0.65142295       0.65006557       0.09747688 </v>
    <v>       0.32808646       0.32671938       0.10030508 </v>
    <v>       0.68027775       0.00278085       0.10027562 </v>
    <v>       0.00416530       0.67883808       0.10026559 </v>
    <v>       0.99999933       0.49999967       0.32666667 </v>
    <v>       0.16666633       0.33333267       0.32666667 </v>
    <v>       0.99999933       0.99999967       0.32666667 </v>
    <v>       0.16666633       0.83333267       0.32666667 </v>
    <v>       0.49999933       0.49999967       0.32666667 </v>
    <v>       0.66666633       0.33333267       0.32666667 </v>
    <v>       0.49999933       0.99999967       0.32666667 </v>
    <v>       0.66666633       0.83333267       0.32666667 </v>
   </varray>
  </structure>
  <varray name="primitive_index" >
   <v type="int" >        1 </v>
   <v type="int" >        2 </v>
   <v type="int" >        3 </v>
   <v type="int" >        4 </v>
   <v type="int" >        5 </v>
   <v type="int" >        6 </v>
   <v type="int" >        7 </v>
   <v type="int" >        8 </v>
   <v type="int" >        9 </v>
   <v type="int" >       10 </v>
   <v type="int" >       11 </v>
   <v type="int" >       12 </v>
   <v type="int" >       13 </v>
   <v type="int" >       14 </v>
   <v type="int" >       15 </v>
  </varray>
 </primitive_cell>
 <kpoints>
  <generation param="Gamma">
   <v type="int" name="divisions">      12       12        1 </v>
   <v name="usershift">      0.00000000       0.00000000       0.00000000 </v>
   <v name="genvec1">      0.08333333       0.00000000       0.00000000 </v>
   <v name="genvec2">      0.00000000       0.08333333       0.00000000 </v>
   <v name="genvec3">      0.00000000       0.00000000       1.00000000 </v>
   <v name="shift">      0.00000000       0.00000000       0.00000000 </v>
  </generation>
  <varray name="kpointlist" >
   <v>       0.00000000       0.00000000       0.00000000 </v>
   <v>       0.08333333       0.00000000       0.00000000 </v>
   <v>      -0.00000000       0.08333333       0.00000000 </v>
   <v>      -0.08333333       0.08333333       0.00000000 </v>
   <v>       0.16666667       0.00000000       0.00000000 </v>
   <v>       0.00000000       0.16666667       0.00000000 </v>
   <v>      -0.16666667       0.16666667       0.00000000 </v>
   <v>       0.25000000       0.00000000       0.00000000 </v>
   <v>       0.00000000       0.25000000       0.00000000 </v>
   <v>      -0.25000000       0.25000000       0.00000000 </v>
   <v>       0.33333333       0.00000000       0.00000000 </v>
   <v>       0.00000000       0.33333333       0.00000000 </v>
   <v>      -0.33333333       0.33333333       0.00000000 </v>
   <v>       0.41666667      -0.00000000       0.00000000 </v>
   <v>      -0.00000000       0.41666667       0.00000000 </v>
   <v>      -0.41666667       0.41666667       0.00000000 </v>
   <v>       0.50000000       0.00000000       0.00000000 </v>
   <v>       0.00000000       0.50000000       0.00000000 </v>
   <v>       0.50000000       0.50000000       0.00000000 </v>
   <v>       0.08333333       0.08333333       0.00000000 </v>
   <v>      -0.08333333       0.16666667       0.00000000 </v>
   <v>      -0.16666667       0.08333333       0.00000000 </v>
   <v>       0.16666667       0.08333333       0.00000000 </v>
   <v>      -0.08333333       0.25000000       0.00000000 </v>
   <v>      -0.25000000       0.16666667       0.00000000 </v>
   <v>      -0.16666667       0.25000000       0.00000000 </v>
   <v>       0.08333333       0.16666667       0.00000000 </v>
   <v>       0.25000000      -0.08333333       0.00000000 </v>
   <v>       0.25000000       0.08333333       0.00000000 </v>
   <v>      -0.08333333       0.33333333       0.00000000 </v>
   <v>      -0.33333333       0.25000000       0.00000000 </v>
   <v>      -0.25000000       0.33333333       0.00000000 </v>
   <v>       0.08333333       0.25000000       0.00000000 </v>
   <v>       0.33333333      -0.08333333       0.00000000 </v>
   <v>       0.33333333       0.08333333       0.00000000 </v>
   <v>      -0.08333333       0.41666667       0.00000000 </v>
   <v>      -0.41666667       0.33333333       0.00000000 </v>
   <v>      -0.33333333       0.41666667       0.00000000 </v>
   <v>       0.08333333       0.33333333       0.00000000 </v>
   <v>       0.41666667      -0.08333333       0.00000000 </v>
   <v>       0.41666667       0.08333333       0.00000000 </v>
   <v>      -0.08333333       0.50000000       0.00000000 </v>
   <v>       0.50000000       0.41666667       0.00000000 </v>
   <v>      -0.41666667       0.50000000       0.00000000 </v>
   <v>       0.08333333       0.41666667       0.00000000 </v>
   <v>       0.50000000      -0.08333333       0.00000000 </v>
   <v>       0.16666667       0.16666667       0.00000000 </v>
   <v>      -0.16666667       0.33333333       0.00000000 </v>
   <v>      -0.33333333       0.16666667       0.00000000 </v>
   <v>       0.25000000       0.16666667       0.00000000 </v>
   <v>      -0.16666667       0.41666667       0.00000000 </v>
   <v>      -0.41666667       0.25000000       0.00000000 </v>
   <v>      -0.25000000       0.41666667       0.00000000 </v>
   <v>       0.16666667       0.25000000       0.00000000 </v>
   <v>       0.41666667      -0.16666667       0.00000000 </v>
   <v>       0.33333333       0.16666667       0.00000000 </v>
   <v>      -0.16666667       0.50000000       0.00000000 </v>
   <v>       0.50000000       0.33333333       0.00000000 </v>
   <v>      -0.33333333       0.50000000       0.00000000 </v>
   <v>       0.16666667       0.33333333       0.00000000 </v>
   <v>       0.50000000      -0.16666667       0.00000000 </v>
   <v>       0.41666667       0.16666667       0.00000000 </v>
   <v>      -0.16666667      -0.41666667       0.00000000 </v>
   <v>       0.41666667       0.41666667       0.00000000 </v>
   <v>       0.25000000       0.25000000       0.00000000 </v>
   <v>      -0.25000000       0.50000000       0.00000000 </v>
   <v>       0.50000000       0.25000000       0.00000000 </v>
   <v>       0.33333333       0.25000000       0.00000000 </v>
   <v>      -0.25000000      -0.41666667       0.00000000 </v>
   <v>       0.41666667       0.33333333       0.00000000 </v>
   <v>      -0.33333333      -0.41666667       0.00000000 </v>
   <v>       0.25000000       0.33333333       0.00000000 </v>
   <v>      -0.41666667      -0.25000000       0.00000000 </v>
   <v>       0.33333333       0.33333333       0.00000000 </v>
  </varray>
  <varray name="weights" >
   <v>       0.00694444 </v>
   <v>       0.01388889 </v>
   <v>       0.01388889 </v>
   <v>       0.01388889 </v>
   <v>       0.01388889 </v>
   <v>       0.01388889 </v>
   <v>       0.01388889 </v>
   <v>       0.01388889 </v>
   <v>       0.01388889 </v>
   <v>       0.01388889 </v>
   <v>       0.01388889 </v>
   <v>       0.01388889 </v>
   <v>       0.01388889 </v>
   <v>       0.01388889 </v>
   <v>       0.01388889 </v>
   <v>       0.01388889 </v>
   <v>       0.00694444 </v>
   <v>       0.00694444 </v>
   <v>       0.00694444 </v>
   <v>       0.01388889 </v>
   <v>       0.01388889 </v>
   <v>       0.01388889 </v>
   <v>       0.01388889 </v>
   <v>       0.01388889 </v>
   <v>       0.01388889 </v>
   <v>       0.01388889 </v>
   <v>       0.01388889 </v>
   <v>       0.01388889 </v>
   <v>       0.01388889 </v>
   <v>       0.01388889 </v>
   <v>       0.01388889 </v>
   <v>       0.01388889 </v>
   <v>       0.01388889 </v>
   <v>       0.01388889 </v>
   <v>       0.01388889 </v>
   <v>       0.01388889 </v>
   <v>       0.01388889 </v>
   <v>       0.01388889 </v>
   <v>       0.01388889 </v>
   <v>       0.01388889 </v>
   <v>       0.01388889 </v>
   <v>       0.01388889 </v>
   <v>       0.01388889 </v>
   <v>       0.01388889 </v>
   <v>       0.01388889 </v>
   <v>       0.01388889 </v>
   <v>       0.01388889 </v>
   <v>       0.01388889 </v>
   <v>       0.01388889 </v>
   <v>       0.01388889 </v>
   <v>       0.01388889 </v>
   <v>       0.01388889 </v>
   <v>       0.01388889 </v>
   <v>       0.01388889 </v>
   <v>       0.01388889 </v>
   <v>       0.01388889 </v>
   <v>       0.01388889 </v>
   <v>       0.01388889 </v>
   <v>       0.01388889 </v>
   <v>       0.01388889 </v>
   <v>       0.01388889 </v>
   <v>       0.01388889 </v>
   <v>       0.01388889 </v>
   <v>       0.01388889 </v>
   <v>       0.01388889 </v>
   <v>       0.01388889 </v>
   <v>       0.01388889 </v>
   <v>       0.01388889 </v>
   <v>       0.01388889 </v>
   <v>       0.01388889 </v>
   <v>       0.01388889 </v>
   <v>       0.01388889 </v>
   <v>       0.01388889 </v>
   <v>       0.01388889 </v>
  </varray>
 </kpoints>
 <parameters>
  <separator name="general" >
   <i type="string" name="SYSTEM">Lattice</i>
   <i type="logical" name="LCOMPAT"> F  </i>
  </separator>
  <separator name="electronic" >
   <i type="string" name="PREC">accura</i>
   <i name="ENMAX">    450.00000000</i>
   <i name="ENAUG">    644.87300000</i>
   <i name="EDIFF">      0.00000100</i>
   <i type="int" name="IALGO">    38</i>
   <i type="int" name="IWAVPR">    11</i>
   <i type="int" name="NBANDS">    48</i>
   <i type="int" name="NBANDSLOW">    -1</i>
   <i type="int" name="NBANDSHIGH">    -1</i>
   <i name="NELECT">     56.00000000</i>
   <i type="int" name="TURBO">     0</i>
   <i type="int" name="IRESTART">     0</i>
   <i type="int" name="NREBOOT">     0</i>
   <i type="int" name="NMIN">     0</i>
   <i name="EREF">      0.00000000</i>
   <separator name="electronic smearing" >
    <i type="int" name="ISMEAR">     0</i>
    <i name="SIGMA">      0.10000000</i>
    <i name="KSPACING">      0.50000000</i>
    <i type="logical" name="KGAMMA"> T  </i>
    <i type="logical" name="KBLOWUP"> T  </i>
   </separator>
   <separator name="electronic projectors" >
    <i type="logical" name="LREAL"> F  </i>
    <v name="ROPT">      0.00000000      0.00000000</v>
    <i type="int" name="LMAXPAW">  -100</i>
    <i type="int" name="LMAXMIX">     2</i>
    <i type="logical" name="NLSPLINE"> F  </i>
   </separator>
   <separator name="electronic startup" >
    <i type="int" name="ISTART">     0</i>
    <i type="int" name="ICHARG">     2</i>
    <i type="int" name="INIWAV">     1</i>
   </separator>
   <separator name="electronic spin" >
    <i type="int" name="ISPIN">     2</i>
    <i type="logical" name="LNONCOLLINEAR"> F  </i>
    <v name="MAGMOM">      1.00000000      1.00000000      1.00000000      1.00000000      1.00000000      1.00000000      1.00000000      1.00000000      1.00000000      1.00000000      1.00000000      1.00000000      1.00000000      1.00000000      1.00000000</v>
    <i name="NUPDOWN">     -1.00000000</i>
    <i type="logical" name="LSORBIT"> F  </i>
    <v name="SAXIS">      0.00000000      0.00000000      1.00000000</v>
    <i type="logical" name="LSPIRAL"> F  </i>
    <v name="QSPIRAL">      0.00000000      0.00000000      0.00000000</v>
    <i type="logical" name="LZEROZ"> F  </i>
   </separator>
   <separator name="electronic exchange-correlation" >
    <i type="logical" name="LASPH"> F  </i>
    <i type="logical" name="LMETAGGA"> F  </i>
   </separator>
   <separator name="electronic convergence" >
    <i type="int" name="NELM">    64</i>
    <i type="int" name="NELMDL">    -5</i>
    <i type="int" name="NELMIN">     2</i>
    <i name="ENINI">    450.00000000</i>
    <separator name="electronic convergence detail" >
     <i type="logical" name="LDIAG"> T  </i>
     <i type="logical" name="LSUBROT"> F  </i>
     <i name="WEIMIN">      0.00100000</i>
     <i name="EBREAK">      0.00000001</i>
     <i name="DEPER">      0.30000000</i>
     <i type="int" name="NRMM">     4</i>
     <i name="TIME">      0.40000000</i>
    </separator>
   </separator>
   <separator name="electronic mixer" >
    <i name="AMIX">      0.40000000</i>
    <i name="BMIX">      1.00000000</i>
    <i name="AMIN">      0.10000000</i>
    <i name="AMIX_MAG">      1.60000000</i>
    <i name="BMIX_MAG">      1.00000000</i>
    <separator name="electronic mixer details" >
     <i type="int" name="IMIX">     4</i>
     <i type="logical" name="MIXFIRST"> F  </i>
     <i type="int" name="MAXMIX">   -45</i>
     <i name="WC">    100.00000000</i>
     <i type="int" name="INIMIX">     1</i>
     <i type="int" name="MIXPRE">     1</i>
     <i type="int" name="MREMOVE">     5</i>
    </separator>
   </separator>
   <separator name="electronic dipolcorrection" >
    <i type="logical" name="LDIPOL"> T  </i>
    <i type="logical" name="LMONO"> F  </i>
    <i type="int" name="IDIPOL">     3</i>
    <i name="EPSILON">      1.00000000</i>
    <v name="DIPOL">   -100.00000000   -100.00000000   -100.00000000</v>
    <i name="EFIELD">      0.00000000</i>
   </separator>
  </separator>
  <separator name="grids" >
   <i type="int" name="NGX">    36</i>
   <i type="int" name="NGY">    36</i>
   <i type="int" name="NGZ">   108</i>
   <i type="int" name="NGXF">    72</i>
   <i type="int" name="NGYF">    72</i>
   <i type="int" name="NGZF">   216</i>
   <i type="logical" name="ADDGRID"> F  </i>
  </separator>
  <separator name="ionic" >
   <i type="int" name="NSW">   128</i>
   <i type="int" name="IBRION">     2</i>
   <i type="int" name="MDALGO">     0</i>
   <i type="int" name="ISIF">     3</i>
   <i name="PSTRESS">      0.00000000</i>
   <i name="EDIFFG">     -0.00100000</i>
   <i type="int" name="NFREE">     1</i>
   <i name="POTIM">      0.50000000</i>
   <i name="SMASS">     -3.00000000</i>
   <i name="SCALEE">      1.00000000</i>
  </separator>
  <separator name="ionic md" >
   <i name="TEBEG">      0.00010000</i>
   <i name="TEEND">      0.00010000</i>
   <i type="int" name="NBLOCK">     1</i>
   <i type="int" name="KBLOCK">   128</i>
   <i type="int" name="NPACO">   256</i>
   <i name="APACO">     10.00000000</i>
  </separator>
  <separator name="symmetry" >
   <i type="int" name="ISYM">     2</i>
   <i name="SYMPREC">      0.00001000</i>
  </separator>
  <separator name="dos" >
   <i type="int" name="LORBIT">     0</i>
   <v name="RWIGS">     -1.00000000     -1.00000000</v>
   <i type="int" name="NEDOS">   301</i>
   <i name="EMIN">     10.00000000</i>
   <i name="EMAX">    -10.00000000</i>
   <i name="EFERMI">      0.00000000</i>
  </separator>
  <separator name="writing" >
   <i type="int" name="NWRITE">     2</i>
   <i type="logical" name="LWAVE"> F  </i>
   <i type="logical" name="LDOWNSAMPLE"> F  </i>
   <i type="logical" name="LCHARG"> F  </i>
   <i type="logical" name="LPARD"> F  </i>
   <i type="logical" name="LVTOT"> F  </i>
   <i type="logical" name="LVHAR"> F  </i>
   <i type="logical" name="LELF"> F  </i>
   <i type="logical" name="LOPTICS"> F  </i>
   <v name="STM">      0.00000000      0.00000000      0.00000000      0.00000000      0.00000000      0.00000000      0.00000000</v>
  </separator>
  <separator name="performance" >
   <i type="int" name="NPAR">    48</i>
   <i type="int" name="NSIM">     4</i>
   <i type="int" name="NBLK">    -1</i>
   <i type="logical" name="LPLANE"> T  </i>
   <i type="logical" name="LSCALAPACK"> T  </i>
   <i type="logical" name="LSCAAWARE"> F  </i>
   <i type="logical" name="LSCALU"> F  </i>
   <i type="logical" name="LASYNC"> F  </i>
   <i type="logical" name="LORBITALREAL"> F  </i>
  </separator>
  <separator name="miscellaneous" >
   <i type="int" name="IDIOT">     3</i>
   <i type="int" name="PHON_NSTRUCT">    -1</i>
   <i type="logical" name="LMUSIC"> F  </i>
   <v name="POMASS">     10.81100000     12.01100000</v>
   <v name="DARWINR">      0.00000000      0.00000000</v>
   <v name="DARWINV">      1.00000000      1.00000000</v>
   <i type="logical" name="LCORR"> T  </i>
  </separator>
  <i type="logical" name="GGA_COMPAT"> T  </i>
  <i type="logical" name="LBERRY"> F  </i>
  <i type="int" name="ICORELEVEL">     0</i>
  <i type="logical" name="LDAU"> F  </i>
  <i type="int" name="I_CONSTRAINED_M">     0</i>
  <separator name="electronic exchange-correlation" >
   <i type="string" name="GGA">PE</i>
   <i type="int" name="VOSKOWN">     0</i>
   <i type="logical" name="LHFCALC"> F  </i>
   <i type="string" name="PRECFOCK"></i>
   <i type="logical" name="LSYMGRAD"> F  </i>
   <i type="logical" name="LHFONE"> F  </i>
   <i type="logical" name="LRHFCALC"> F  </i>
   <i type="logical" name="LTHOMAS"> F  </i>
   <i type="logical" name="LMODELHF"> F  </i>
   <i type="logical" name="LFOCKACE"> F  </i>
   <i name="ENCUT4O">     -1.00000000</i>
   <i type="int" name="EXXOEP">     0</i>
   <i type="int" name="FOURORBIT">     0</i>
   <i name="AEXX">      0.00000000</i>
   <i name="HFALPHA">      0.00000000</i>
   <i name="MCALPHA">      0.00000000</i>
   <i name="ALDAX">      1.00000000</i>
   <i name="AGGAX">      1.00000000</i>
   <i name="ALDAC">      1.00000000</i>
   <i name="AGGAC">      1.00000000</i>
   <i type="int" name="NKREDX">     1</i>
   <i type="int" name="NKREDY">     1</i>
   <i type="int" name="NKREDZ">     1</i>
   <i type="logical" name="SHIFTRED"> F  </i>
   <i type="logical" name="ODDONLY"> F  </i>
   <i type="logical" name="EVENONLY"> F  </i>
   <i type="int" name="LMAXFOCK">     0</i>
   <i type="int" name="NMAXFOCKAE">     0</i>
   <i type="logical" name="LFOCKAEDFT"> F  </i>
   <i name="HFSCREEN">      0.00000000</i>
   <i name="HFSCREENC">      0.00000000</i>
   <i type="int" name="NBANDSGWLOW">     0</i>
  </separator>
  <separator name="vdW DFT" >
   <i type="logical" name="LUSE_VDW"> F  </i>
   <i name="Zab_VDW">     -0.84910000</i>
   <i name="PARAM1">      0.12340000</i>
   <i name="PARAM2">      1.00000000</i>
   <i name="PARAM3">      0.00000000</i>
  </separator>
  <separator name="model GW" >
   <i type="int" name="MODEL_GW">     0</i>
   <i name="MODEL_EPS0">     11.47830070</i>
   <i name="MODEL_ALPHA">      1.00000000</i>
  </separator>
  <separator name="linear response parameters" >
   <i type="logical" name="LEPSILON"> F  </i>
   <i type="logical" name="LRPA"> F  </i>
   <i type="logical" name="LNABLA"> F  </i>
   <i type="logical" name="LVEL"> F  </i>
   <i name="CSHIFT">      0.10000000</i>
   <i name="OMEGAMAX">     -1.00000000</i>
   <i name="DEG_THRESHOLD">      0.00200000</i>
   <i name="RTIME">     -0.10000000</i>
   <i name="WPLASMAI">      0.00000000</i>
   <v name="DFIELD">      0.00000000      0.00000000      0.00000000</v>
   <v name="WPLASMA">      0.00000000      0.00000000      0.00000000      0.00000000      0.00000000      0.00000000      0.00000000      0.00000000      0.00000000</v>
  </separator>
  <separator name="orbital magnetization" >
   <i type="logical" name="NUCIND"> F  </i>
   <v name="MAGPOS">      0.00000000      0.00000000      0.00000000</v>
   <i type="logical" name="LNICSALL"> T  </i>
   <i type="logical" name="ORBITALMAG"> F  </i>
   <i type="logical" name="LMAGBLOCH"> F  </i>
   <i type="logical" name="LCHIMAG"> F  </i>
   <i type="logical" name="LGAUGE"> T  </i>
   <i type="int" name="MAGATOM">     0</i>
   <v name="MAGDIPOL">      0.00000000      0.00000000      0.00000000</v>
   <v name="AVECCONST">      0.00000000      0.00000000      0.00000000</v>
  </separator>
  <separator name="response functions" >
   <i type="logical" name="LFINITE_TEMPERATURE"> F  </i>
   <i type="logical" name="LADDER"> F  </i>
   <i type="logical" name="LRPAFORCE"> F  </i>
   <i type="logical" name="LFXC"> F  </i>
   <i type="logical" name="LHARTREE"> T  </i>
   <i type="int" name="IBSE">     0</i>
   <v type="int" name="KPOINT">    -1     0     0     0</v>
   <i type="logical" name="LTCTC"> F  </i>
   <i type="logical" name="LTCTE"> F  </i>
   <i type="logical" name="LTETE"> F  </i>
   <i type="logical" name="LTRIPLET"> F  </i>
   <i type="logical" name="LFXCEPS"> F  </i>
   <i type="logical" name="LFXHEG"> F  </i>
   <i type="int" name="NATURALO">     2</i>
   <i type="logical" name="LHOLEGF"> F  </i>
   <i type="logical" name="L2ORDER"> F  </i>
   <i type="logical" name="LDMP1"> F  </i>
   <i type="logical" name="LMP2LT"> F  </i>
   <i type="logical" name="LSMP2LT"> F  </i>
   <i type="logical" name="LGWLF"> F  </i>
   <i name="ENCUTGW">     -2.00000000</i>
   <i name="ENCUTGWSOFT">     -2.00000000</i>
   <i name="ENCUTLF">     -1.00000000</i>
   <i type="logical" name="LESF_SPLINES"> F  </i>
   <i type="int" name="LMAXMP2">    -1</i>
   <i name="SCISSOR">      0.00000000</i>
   <i type="int" name="NOMEGA">     0</i>
   <i type="int" name="NOMEGAR">     0</i>
   <i type="int" name="NBANDSGW">    -1</i>
   <i type="int" name="NBANDSO">    -1</i>
   <i type="int" name="NBANDSV">    -1</i>
   <i type="int" name="NELMGW">     1</i>
   <i type="int" name="NELMHF">     1</i>
   <i type="int" name="DIM">     3</i>
   <i type="int" name="IESPILON">     4</i>
   <i type="int" name="ANTIRES">     0</i>
   <i name="OMEGAMAX">    -30.00000000</i>
   <i name="OMEGAMIN">    -30.00000000</i>
   <i name="OMEGATL">   -200.00000000</i>
   <i type="int" name="OMEGAGRID">     0</i>
   <i name="CSHIFT">     -0.10000000</i>
   <i type="logical" name="LSELFENERGY"> F  </i>
   <i type="logical" name="LSPECTRAL"> F  </i>
   <i type="logical" name="LSPECTRALGW"> F  </i>
   <i type="logical" name="LSINGLES"> F  </i>
   <i type="logical" name="LFERMIGW"> F  </i>
   <i type="logical" name="ODDONLYGW"> F  </i>
   <i type="logical" name="EVENONLYGW"> F  </i>
   <i type="int" name="NKREDLFX">     1</i>
   <i type="int" name="NKREDLFY">     1</i>
   <i type="int" name="NKREDLFZ">     1</i>
   <i type="int" name="MAXMEM">  2800</i>
   <i type="int" name="TELESCOPE">     0</i>
   <i type="int" name="NTAUPAR">    -1</i>
   <i type="int" name="NOMEGAPAR">    -1</i>
   <i name="DAMP_NEWTON">      0.80000001</i>
   <i name="LAMBDA">      1.00000000</i>
  </separator>
  <separator name="External order field" >
   <i name="OFIELD_KAPPA">      0.00000000</i>
   <v name="OFIELD_K">      0.00000000      0.00000000      0.00000000</v>
   <i name="OFIELD_Q6_NEAR">      0.00000000</i>
   <i name="OFIELD_Q6_FAR">      0.00000000</i>
   <i name="OFIELD_A">      0.00000000</i>
  </separator>
  <separator name="optional k-points parameters" >
   <i type="int" name="KPOINTS_OPT_MODE">     1</i>
   <i type="logical" name="LKPOINTS_OPT"> F  </i>
  </separator>
  <separator name="solvation model" >
   <i type="logical" name="LSOL"> F  </i>
  </separator>
 </parameters>
 <atominfo>
  <atoms>      15 </atoms>
  <types>       2 </types>
  <array name="atoms" >
   <dimension dim="1">ion</dimension>
   <field type="string">element</field>
   <field type="int">atomtype</field>
   <set>
    <rc><c>B </c><c>   1</c></rc>
    <rc><c>B </c><c>   1</c></rc>
    <rc><c>B </c><c>   1</c></rc>
    <rc><c>B </c><c>   1</c></rc>
    <rc><c>C </c><c>   2</c></rc>
    <rc><c>C </c><c>   2</c></rc>
    <rc><c>C </c><c>   2</c></rc>
    <rc><c>C </c><c>   2</c></rc>
    <rc><c>C </c><c>   2</c></rc>
    <rc><c>C </c><c>   2</c></rc>
    <rc><c>C </c><c>   2</c></rc>
    <rc><c>C </c><c>   2</c></rc>
    <rc><c>C </c><c>   2</c></rc>
    <rc><c>C </c><c>   2</c></rc>
    <rc><c>C </c><c>   2</c></rc>
   </set>
  </array>
  <array name="atomtypes" >
   <dimension dim="1">type</dimension>
   <field type="int">atomspertype</field>
   <field type="string">element</field>
   <field>mass</field>
   <field>valence</field>
   <field type="string">pseudopotential</field>
   <set>
    <rc><c>   4</c><c>B </c><c>     10.81100000</c><c>      3.00000000</c><c>  PAW_PBE B 06Sep2000                   </c></rc>
    <rc><c>  11</c><c>C </c><c>     12.01100000</c><c>      4.00000000</c><c>  PAW_PBE C 08Apr2002                   </c></rc>
   </set>
  </array>
 </atominfo>
 <structure name="initialpos" >
  <crystal>
   <varray name="basis" >
    <v>       4.07031940       2.35000000       0.00000000 </v>
    <v>      -4.07031940       2.35000000       0.00000000 </v>
    <v>       0.00000000       0.00000000      15.00000000 </v>
   </varray>
   <i name="volume">    286.95751754 </i>
   <varray name="rec_basis" >
    <v>       0.12284048       0.21276596       0.00000000 </v>
    <v>      -0.12284048       0.21276596       0.00000000 </v>
    <v>       0.00000000       0.00000000       0.06666667 </v>
   </varray>
  </crystal>
  <varray name="positions" >
   <v>       0.00415361       0.00267210       0.12034134 </v>
   <v>       0.35695335       0.00285503       0.09748893 </v>
   <v>       0.00423858       0.35550699       0.09749256 </v>
   <v>       0.65142295       0.65006557       0.09747688 </v>
   <v>       0.32808646       0.32671938       0.10030508 </v>
   <v>       0.68027775       0.00278085       0.10027562 </v>
   <v>       0.00416530       0.67883808       0.10026559 </v>
   <v>       0.99999933       0.49999967       0.32666667 </v>
   <v>       0.16666633       0.33333267       0.32666667 </v>
   <v>       0.99999933       0.99999967       0.32666667 </v>
   <v>       0.16666633       0.83333267       0.32666667 </v>
   <v>       0.49999933       0.49999967       0.32666667 </v>
   <v>       0.66666633       0.33333267       0.32666667 </v>
   <v>       0.49999933       0.99999967       0.32666667 </v>
   <v>       0.66666633       0.83333267       0.32666667 </v>
  </varray>
 </structure>
 <calculation>
  <scstep>
   <time name="dav">    5.47    5.52</time>
   <time name="total">    5.51    5.57</time>
   <dipole>
    <v name="dipole">      0.00000000       0.00000000       0.00009587 </v>
    <i name="Tr[quadrupol]">   -197.15615546 </i>
    <i name="Echarged">      0.00000000 </i>
    <i name="Edipol_quadrupol">      0.00000000 </i>
    <i name="Eion">      0.00000000 </i>
   </dipole>
   <energy>
    <i name="alphaZ">     61.98493344 </i>
    <i name="ewald">   5405.23973367 </i>
    <i name="hartreedc">  -6936.20807231 </i>
    <i name="XCdc">    178.16429641 </i>
    <i name="pawpsdc">   1365.87943566 </i>
    <i name="pawaedc">  -1368.52100941 </i>
    <i name="eentropy">     -0.01715348 </i>
    <i name="bandstr">   -399.01845119 </i>
    <i name="atom">   1903.26342058 </i>
    <i name="e_fr_energy">    210.76713337 </i>
    <i name="e_wo_entrp">    210.78428685 </i>
    <i name="e_0_energy">    210.77571011 </i>
   </energy>
  </scstep>
  <scstep>
   <time name="dav">    7.78    7.85</time>
   <time name="total">    7.78    7.86</time>
   <dipole>
    <v name="dipole">      0.00000000       0.00000000       0.00009587 </v>
    <i name="Tr[quadrupol]">   -197.15615546 </i>
    <i name="Echarged">      0.00000000 </i>
    <i name="Edipol_quadrupol">      0.00000000 </i>
    <i name="Eion">      0.00000000 </i>
   </dipole>
   <energy>
    <i name="e_fr_energy">   -118.00477290 </i>
    <i name="e_wo_entrp">   -118.00318595 </i>
    <i name="e_0_energy">   -118.00397943 </i>
   </energy>
  </scstep>
  <scstep>
   <time name="dav">   11.13   11.20</time>
   <time name="total">   11.13   11.20</time>
   <dipole>
    <v name="dipole">      0.00000000       0.00000000       0.00009587 </v>
    <i name="Tr[quadrupol]">   -197.15615546 </i>
    <i name="Echarged">      0.00000000 </i>
    <i name="Edipol_quadrupol">      0.00000000 </i>
    <i name="Eion">      0.00000000 </i>
   </dipole>
   <energy>
    <i name="e_fr_energy">   -131.03375854 </i>
    <i name="e_wo_entrp">   -131.03024604 </i>
    <i name="e_0_energy">   -131.03200229 </i>
   </energy>
  </scstep>
  <scstep>
   <time name="dav">    8.36    8.42</time>
   <time name="total">    8.36    8.42</time>
   <dipole>
    <v name="dipole">      0.00000000       0.00000000       0.00009587 </v>
    <i name="Tr[quadrupol]">   -197.15615546 </i>
    <i name="Echarged">      0.00000000 </i>
    <i name="Edipol_quadrupol">      0.00000000 </i>
    <i name="Eion">      0.00000000 </i>
   </dipole>
   <energy>
    <i name="e_fr_energy">   -131.05730549 </i>
    <i name="e_wo_entrp">   -131.05382081 </i>
    <i name="e_0_energy">   -131.05556315 </i>
   </energy>
  </scstep>
  <scstep>
   <time name="dav">   10.58   10.66</time>
   <time name="total">   10.84   10.93</time>
   <dipole>
    <v name="dipole">      0.00000000       0.00000000       0.00009587 </v>
    <i name="Tr[quadrupol]">   -197.15615546 </i>
    <i name="Echarged">      0.00000000 </i>
    <i name="Edipol_quadrupol">      0.00000000 </i>
    <i name="Eion">      0.00000000 </i>
   </dipole>
   <energy>
    <i name="e_fr_energy">   -131.05735484 </i>
    <i name="e_wo_entrp">   -131.05387017 </i>
    <i name="e_0_energy">   -131.05561251 </i>
   </energy>
  </scstep>
  <scstep>
   <time name="dav">   10.29   10.36</time>
   <time name="total">   10.59   10.67</time>
   <dipole>
    <v name="dipole">      0.00000000       0.00000000      -0.00530233 </v>
    <i name="Tr[quadrupol]">   -197.65520774 </i>
    <i name="Echarged">      0.00000000 </i>
    <i name="Edipol_quadrupol">      0.00000000 </i>
    <i name="Eion">      0.00000000 </i>
   </dipole>
   <energy>
    <i name="e_fr_energy">    -92.61991379 </i>
    <i name="e_wo_entrp">    -92.61432982 </i>
    <i name="e_0_energy">    -92.61712180 </i>
   </energy>
  </scstep>
  <scstep>
   <time name="dav">    9.83    9.90</time>
   <time name="total">   10.13   10.21</time>
   <dipole>
    <v name="dipole">      0.00000000       0.00000000       0.02361301 </v>
    <i name="Tr[quadrupol]">   -198.37767484 </i>
    <i name="Echarged">      0.00000000 </i>
    <i name="Edipol_quadrupol">      0.00000000 </i>
    <i name="Eion">      0.00000000 </i>
   </dipole>
   <energy>
    <i name="e_fr_energy">   -101.41940245 </i>
    <i name="e_wo_entrp">   -101.41484516 </i>
    <i name="e_0_energy">   -101.41712381 </i>
   </energy>
  </scstep>
  <scstep>
   <time name="dav">   10.60   10.67</time>
   <time name="total">   10.89   10.97</time>
   <dipole>
    <v name="dipole">      0.00000000       0.00000000      -0.01800585 </v>
    <i name="Tr[quadrupol]">   -199.10968959 </i>
    <i name="Echarged">      0.00000000 </i>
    <i name="Edipol_quadrupol">      0.00000000 </i>
    <i name="Eion">      0.00000000 </i>
   </dipole>
   <energy>
    <i name="e_fr_energy">   -109.76083154 </i>
    <i name="e_wo_entrp">   -109.76082834 </i>
    <i name="e_0_energy">   -109.76082994 </i>
   </energy>
  </scstep>
  <scstep>
   <time name="dav">    7.17    7.23</time>
   <time name="total">    7.46    7.53</time>
   <dipole>
    <v name="dipole">      0.00000000       0.00000000      -0.02022489 </v>
    <i name="Tr[quadrupol]">   -199.58416075 </i>
    <i name="Echarged">      0.00000000 </i>
    <i name="Edipol_quadrupol">      0.00000000 </i>
    <i name="Eion">      0.00000000 </i>
   </dipole>
   <energy>
    <i name="e_fr_energy">   -117.05644926 </i>
    <i name="e_wo_entrp">   -117.05644290 </i>
    <i name="e_0_energy">   -117.05644608 </i>
   </energy>
  </scstep>
  <scstep>
   <time name="dav">   10.01   10.09</time>
   <time name="total">   10.31   10.39</time>
   <dipole>
    <v name="dipole">      0.00000000       0.00000000      -0.02265839 </v>
    <i name="Tr[quadrupol]">   -200.08364125 </i>
    <i name="Echarged">      0.00000000 </i>
    <i name="Edipol_quadrupol">      0.00000000 </i>
    <i name="Eion">      0.00000000 </i>
   </dipole>
   <energy>
    <i name="e_fr_energy">   -122.91397308 </i>
    <i name="e_wo_entrp">   -122.91328673 </i>
    <i name="e_0_energy">   -122.91362990 </i>
   </energy>
  </scstep>
  <scstep>
   <time name="dav">    9.52    9.57</time>
   <time name="total">    9.81    9.88</time>
   <dipole>
    <v name="dipole">      0.00000000       0.00000000      -0.03260827 </v>
    <i name="Tr[quadrupol]">   -200.49108239 </i>
    <i name="Echarged">      0.00000000 </i>
    <i name="Edipol_quadrupol">      0.00000000 </i>
    <i name="Eion">      0.00000000 </i>
   </dipole>
   <energy>
    <i name="e_fr_energy">   -124.33329756 </i>
    <i name="e_wo_entrp">   -124.33221595 </i>
    <i name="e_0_energy">   -124.33275675 </i>
   </energy>
  </scstep>
  <scstep>
   <time name="dav">    6.87    6.91</time>
   <time name="total">    7.16    7.21</time>
   <dipole>
    <v name="dipole">      0.00000000       0.00000000       0.04651969 </v>
    <i name="Tr[quadrupol]">   -200.84257439 </i>
    <i name="Echarged">      0.00000000 </i>
    <i name="Edipol_quadrupol">      0.00000000 </i>
    <i name="Eion">      0.00000000 </i>
   </dipole>
   <energy>
    <i name="e_fr_energy">   -124.49771813 </i>
    <i name="e_wo_entrp">   -124.49624967 </i>
    <i name="e_0_energy">   -124.49698390 </i>
   </energy>
  </scstep>
  <scstep>
   <time name="dav">    7.96    8.01</time>
   <time name="total">    8.25    8.33</time>
   <dipole>
    <v name="dipole">      0.00000000       0.00000000       0.05868497 </v>
    <i name="Tr[quadrupol]">   -201.02587503 </i>
    <i name="Echarged">      0.00000000 </i>
    <i name="Edipol_quadrupol">      0.00000000 </i>
    <i name="Eion">      0.00000000 </i>
   </dipole>
   <energy>
    <i name="e_fr_energy">   -124.56434022 </i>
    <i name="e_wo_entrp">   -124.56282759 </i>
    <i name="e_0_energy">   -124.56358391 </i>
   </energy>
  </scstep>
  <scstep>
   <time name="dav">    8.04    8.10</time>
   <time name="total">    8.34    8.40</time>
   <dipole>
    <v name="dipole">      0.00000000       0.00000000       0.03452058 </v>
    <i name="Tr[quadrupol]">   -201.12769652 </i>
    <i name="Echarged">      0.00000000 </i>
    <i name="Edipol_quadrupol">      0.00000000 </i>
    <i name="Eion">      0.00000000 </i>
   </dipole>
   <energy>
    <i name="e_fr_energy">   -124.58845520 </i>
    <i name="e_wo_entrp">   -124.58693274 </i>
    <i name="e_0_energy">   -124.58769397 </i>
   </energy>
  </scstep>
  <scstep>
   <time name="dav">    7.63    7.68</time>
   <time name="total">    7.92    7.98</time>
   <dipole>
    <v name="dipole">      0.00000000       0.00000000       0.01418065 </v>
    <i name="Tr[quadrupol]">   -201.17036673 </i>
    <i name="Echarged">      0.00000000 </i>
    <i name="Edipol_quadrupol">      0.00000000 </i>
    <i name="Eion">      0.00000000 </i>
   </dipole>
   <energy>
    <i name="e_fr_energy">   -124.59135769 </i>
    <i name="e_wo_entrp">   -124.58983365 </i>
    <i name="e_0_energy">   -124.59059567 </i>
   </energy>
  </scstep>
  <scstep>
   <time name="dav">    6.79    6.83</time>
   <time name="total">    7.08    7.13</time>
   <dipole>
    <v name="dipole">      0.00000000       0.00000000      -0.00973992 </v>
    <i name="Tr[quadrupol]">   -201.23001650 </i>
    <i name="Echarged">      0.00000000 </i>
    <i name="Edipol_quadrupol">      0.00000000 </i>
    <i name="Eion">      0.00000000 </i>
   </dipole>
   <energy>
    <i name="e_fr_energy">   -124.59264476 </i>
    <i name="e_wo_entrp">   -124.59111962 </i>
    <i name="e_0_energy">   -124.59188219 </i>
   </energy>
  </scstep>
  <scstep>
   <time name="dav">    9.03    9.09</time>
   <time name="total">    9.32    9.38</time>
   <dipole>
    <v name="dipole">      0.00000000       0.00000000      -0.08074432 </v>
    <i name="Tr[quadrupol]">   -201.46847252 </i>
    <i name="Echarged">      0.00000000 </i>
    <i name="Edipol_quadrupol">      0.00000000 </i>
    <i name="Eion">      0.00000000 </i>
   </dipole>
   <energy>
    <i name="e_fr_energy">   -124.59377184 </i>
    <i name="e_wo_entrp">   -124.59224236 </i>
    <i name="e_0_energy">   -124.59300710 </i>
   </energy>
  </scstep>
  <scstep>
   <time name="dav">    7.97    8.01</time>
   <time name="total">    8.26    8.32</time>
   <dipole>
    <v name="dipole">      0.00000000       0.00000000      -0.05736692 </v>
    <i name="Tr[quadrupol]">   -201.37930724 </i>
    <i name="Echarged">      0.00000000 </i>
    <i name="Edipol_quadrupol">      0.00000000 </i>
    <i name="Eion">      0.00000000 </i>
   </dipole>
   <energy>
    <i name="e_fr_energy">   -124.59318782 </i>
    <i name="e_wo_entrp">   -124.59165977 </i>
    <i name="e_0_energy">   -124.59242379 </i>
   </energy>
  </scstep>
  <scstep>
   <time name="dav">    5.94    5.99</time>
   <time name="total">    6.23    6.29</time>
   <dipole>
    <v name="dipole">      0.00000000       0.00000000      -0.09309385 </v>
    <i name="Tr[quadrupol]">   -201.57969364 </i>
    <i name="Echarged">      0.00000000 </i>
    <i name="Edipol_quadrupol">      0.00000000 </i>
    <i name="Eion">      0.00000000 </i>
   </dipole>
   <energy>
    <i name="e_fr_energy">   -124.59506417 </i>
    <i name="e_wo_entrp">   -124.59353381 </i>
    <i name="e_0_energy">   -124.59429899 </i>
   </energy>
  </scstep>
  <scstep>
   <time name="dav">    9.01    9.07</time>
   <time name="total">    9.31    9.37</time>
   <dipole>
    <v name="dipole">      0.00000000       0.00000000      -0.09890580 </v>
    <i name="Tr[quadrupol]">   -201.74206854 </i>
    <i name="Echarged">      0.00000000 </i>
    <i name="Edipol_quadrupol">      0.00000000 </i>
    <i name="Eion">      0.00000000 </i>
   </dipole>
   <energy>
    <i name="e_fr_energy">   -124.59649243 </i>
    <i name="e_wo_entrp">   -124.59496160 </i>
    <i name="e_0_energy">   -124.59572702 </i>
   </energy>
  </scstep>
  <scstep>
   <time name="dav">    9.36    9.42</time>
   <time name="total">    9.65    9.72</time>
   <dipole>
    <v name="dipole">      0.00000000       0.00000000      -0.10106680 </v>
    <i name="Tr[quadrupol]">   -201.78884782 </i>
    <i name="Echarged">      0.00000000 </i>
    <i name="Edipol_quadrupol">      0.00000000 </i>
    <i name="Eion">      0.00000000 </i>
   </dipole>
   <energy>
    <i name="e_fr_energy">   -124.59743873 </i>
    <i name="e_wo_entrp">   -124.59590741 </i>
    <i name="e_0_energy">   -124.59667307 </i>
   </energy>
  </scstep>
  <scstep>
   <time name="dav">    8.99    9.04</time>
   <time name="total">    9.28    9.35</time>
   <dipole>
    <v name="dipole">      0.00000000       0.00000000      -0.10437921 </v>
    <i name="Tr[quadrupol]">   -201.81516304 </i>
    <i name="Echarged">      0.00000000 </i>
    <i name="Edipol_quadrupol">      0.00000000 </i>
    <i name="Eion">      0.00000000 </i>
   </dipole>
   <energy>
    <i name="e_fr_energy">   -124.59833459 </i>
    <i name="e_wo_entrp">   -124.59680254 </i>
    <i name="e_0_energy">   -124.59756856 </i>
   </energy>
  </scstep>
  <scstep>
   <time name="dav">    7.52    7.57</time>
   <time name="total">    7.82    7.88</time>
   <dipole>
    <v name="dipole">      0.00000000       0.00000000      -0.10114852 </v>
    <i name="Tr[quadrupol]">   -201.65911759 </i>
    <i name="Echarged">      0.00000000 </i>
    <i name="Edipol_quadrupol">      0.00000000 </i>
    <i name="Eion">      0.00000000 </i>
   </dipole>
   <energy>
    <i name="e_fr_energy">   -124.59817497 </i>
    <i name="e_wo_entrp">   -124.59664305 </i>
    <i name="e_0_energy">   -124.59740901 </i>
   </energy>
  </scstep>
  <scstep>
   <time name="dav">    6.71    6.75</time>
   <time name="total">    7.00    7.05</time>
   <dipole>
    <v name="dipole">      0.00000000       0.00000000      -0.10283254 </v>
    <i name="Tr[quadrupol]">   -201.74427392 </i>
    <i name="Echarged">      0.00000000 </i>
    <i name="Edipol_quadrupol">      0.00000000 </i>
    <i name="Eion">      0.00000000 </i>
   </dipole>
   <energy>
    <i name="e_fr_energy">   -124.59824609 </i>
    <i name="e_wo_entrp">   -124.59671411 </i>
    <i name="e_0_energy">   -124.59748010 </i>
   </energy>
  </scstep>
  <scstep>
   <time name="dav">    7.81    7.85</time>
   <time name="total">    8.09    8.16</time>
   <dipole>
    <v name="dipole">      0.00000000       0.00000000      -0.11924731 </v>
    <i name="Tr[quadrupol]">   -201.64005282 </i>
    <i name="Echarged">      0.00000000 </i>
    <i name="Edipol_quadrupol">      0.00000000 </i>
    <i name="Eion">      0.00000000 </i>
   </dipole>
   <energy>
    <i name="e_fr_energy">   -124.60299412 </i>
    <i name="e_wo_entrp">   -124.60145016 </i>
    <i name="e_0_energy">   -124.60222214 </i>
   </energy>
  </scstep>
  <scstep>
   <time name="dav">    7.50    7.55</time>
   <time name="total">    7.79    7.85</time>
   <dipole>
    <v name="dipole">      0.00000000       0.00000000      -0.10659022 </v>
    <i name="Tr[quadrupol]">   -201.57394810 </i>
    <i name="Echarged">      0.00000000 </i>
    <i name="Edipol_quadrupol">      0.00000000 </i>
    <i name="Eion">      0.00000000 </i>
   </dipole>
   <energy>
    <i name="e_fr_energy">   -124.59964150 </i>
    <i name="e_wo_entrp">   -124.59810827 </i>
    <i name="e_0_energy">   -124.59887489 </i>
   </energy>
  </scstep>
  <scstep>
   <time name="dav">    8.57    8.62</time>
   <time name="total">    8.86    8.92</time>
   <dipole>
    <v name="dipole">      0.00000000       0.00000000      -0.09258721 </v>
    <i name="Tr[quadrupol]">   -201.63850276 </i>
    <i name="Echarged">      0.00000000 </i>
    <i name="Edipol_quadrupol">      0.00000000 </i>
    <i name="Eion">      0.00000000 </i>
   </dipole>
   <energy>
    <i name="e_fr_energy">   -124.59657037 </i>
    <i name="e_wo_entrp">   -124.59504003 </i>
    <i name="e_0_energy">   -124.59580520 </i>
   </energy>
  </scstep>
  <scstep>
   <time name="dav">    9.00    9.05</time>
   <time name="total">    9.29    9.35</time>
   <dipole>
    <v name="dipole">      0.00000000       0.00000000      -0.08170541 </v>
    <i name="Tr[quadrupol]">   -201.73744425 </i>
    <i name="Echarged">      0.00000000 </i>
    <i name="Edipol_quadrupol">      0.00000000 </i>
    <i name="Eion">      0.00000000 </i>
   </dipole>
   <energy>
    <i name="e_fr_energy">   -124.59533919 </i>
    <i name="e_wo_entrp">   -124.59381054 </i>
    <i name="e_0_energy">   -124.59457486 </i>
   </energy>
  </scstep>
  <scstep>
   <time name="dav">    9.93    9.98</time>
   <time name="total">   10.22   10.29</time>
   <dipole>
    <v name="dipole">      0.00000000       0.00000000      -0.07570557 </v>
    <i name="Tr[quadrupol]">   -201.69631153 </i>
    <i name="Echarged">      0.00000000 </i>
    <i name="Edipol_quadrupol">      0.00000000 </i>
    <i name="Eion">      0.00000000 </i>
   </dipole>
   <energy>
    <i name="e_fr_energy">   -124.59489931 </i>
    <i name="e_wo_entrp">   -124.59337166 </i>
    <i name="e_0_energy">   -124.59413548 </i>
   </energy>
  </scstep>
  <scstep>
   <time name="dav">   10.39   10.44</time>
   <time name="total">   10.68   10.75</time>
   <dipole>
    <v name="dipole">      0.00000000       0.00000000      -0.06993722 </v>
    <i name="Tr[quadrupol]">   -201.68076771 </i>
    <i name="Echarged">      0.00000000 </i>
    <i name="Edipol_quadrupol">      0.00000000 </i>
    <i name="Eion">      0.00000000 </i>
   </dipole>
   <energy>
    <i name="e_fr_energy">   -124.59467818 </i>
    <i name="e_wo_entrp">   -124.59315147 </i>
    <i name="e_0_energy">   -124.59391483 </i>
   </energy>
  </scstep>
  <scstep>
   <time name="dav">   10.39   10.44</time>
   <time name="total">   10.67   10.74</time>
   <dipole>
    <v name="dipole">      0.00000000       0.00000000      -0.06090050 </v>
    <i name="Tr[quadrupol]">   -201.69069453 </i>
    <i name="Echarged">      0.00000000 </i>
    <i name="Edipol_quadrupol">      0.00000000 </i>
    <i name="Eion">      0.00000000 </i>
   </dipole>
   <energy>
    <i name="e_fr_energy">   -124.59465958 </i>
    <i name="e_wo_entrp">   -124.59313427 </i>
    <i name="e_0_energy">   -124.59389693 </i>
   </energy>
  </scstep>
  <scstep>
   <time name="dav">    7.32    7.36</time>
   <time name="total">    7.61    7.67</time>
   <dipole>
    <v name="dipole">      0.00000000       0.00000000      -0.06078706 </v>
    <i name="Tr[quadrupol]">   -201.69150257 </i>
    <i name="Echarged">      0.00000000 </i>
    <i name="Edipol_quadrupol">      0.00000000 </i>
    <i name="Eion">      0.00000000 </i>
   </dipole>
   <energy>
    <i name="e_fr_energy">   -124.59466262 </i>
    <i name="e_wo_entrp">   -124.59313726 </i>
    <i name="e_0_energy">   -124.59389994 </i>
   </energy>
  </scstep>
  <scstep>
   <time name="dav">   10.86   10.92</time>
   <time name="total">   11.15   11.22</time>
   <dipole>
    <v name="dipole">      0.00000000       0.00000000      -0.06133517 </v>
    <i name="Tr[quadrupol]">   -201.69099632 </i>
    <i name="Echarged">      0.00000000 </i>
    <i name="Edipol_quadrupol">      0.00000000 </i>
    <i name="Eion">      0.00000000 </i>
   </dipole>
   <energy>
    <i name="e_fr_energy">   -124.59465393 </i>
    <i name="e_wo_entrp">   -124.59312847 </i>
    <i name="e_0_energy">   -124.59389120 </i>
   </energy>
  </scstep>
  <scstep>
   <time name="dav">    8.12    8.17</time>
   <time name="total">    8.41    8.47</time>
   <dipole>
    <v name="dipole">      0.00000000       0.00000000      -0.06246393 </v>
    <i name="Tr[quadrupol]">   -201.69008102 </i>
    <i name="Echarged">      0.00000000 </i>
    <i name="Edipol_quadrupol">      0.00000000 </i>
    <i name="Eion">      0.00000000 </i>
   </dipole>
   <energy>
    <i name="e_fr_energy">   -124.59464234 </i>
    <i name="e_wo_entrp">   -124.59311667 </i>
    <i name="e_0_energy">   -124.59387950 </i>
   </energy>
  </scstep>
  <scstep>
   <time name="dav">    8.58    8.63</time>
   <time name="total">    8.87    8.93</time>
   <dipole>
    <v name="dipole">      0.00000000       0.00000000      -0.06303083 </v>
    <i name="Tr[quadrupol]">   -201.68961579 </i>
    <i name="Echarged">      0.00000000 </i>
    <i name="Edipol_quadrupol">      0.00000000 </i>
    <i name="Eion">      0.00000000 </i>
   </dipole>
   <energy>
    <i name="e_fr_energy">   -124.59463951 </i>
    <i name="e_wo_entrp">   -124.59311373 </i>
    <i name="e_0_energy">   -124.59387662 </i>
   </energy>
  </scstep>
  <scstep>
   <time name="dav">    9.72    9.78</time>
   <time name="total">    9.76    9.82</time>
   <dipole>
    <v name="dipole">      0.00000000       0.00000000      -0.06320938 </v>
    <i name="Tr[quadrupol]">   -201.68945061 </i>
    <i name="Echarged">      0.00000000 </i>
    <i name="Edipol_quadrupol">      0.00000000 </i>
    <i name="Eion">      0.00000000 </i>
   </dipole>
   <energy>
    <i name="alphaZ">     61.78898024 </i>
    <i name="ewald">   5405.23973367 </i>
    <i name="hartreedc">  -7170.63797849 </i>
    <i name="XCdc">    184.35996213 </i>
    <i name="pawpsdc">   6646.54085552 </i>
    <i name="pawaedc">  -6651.30756176 </i>
    <i name="eentropy">     -0.00152581 </i>
    <i name="bandstr">   -503.84052513 </i>
    <i name="atom">   1903.26342058 </i>
    <i name="e_fr_energy">   -124.59463906 </i>
    <i name="e_wo_entrp">   -124.59311325 </i>
    <i name="e_0_energy">   -124.59387615 </i>
   </energy>
  </scstep>
  <structure>
   <crystal>
    <varray name="basis" >
     <v>       4.07031940       2.35000000       0.00000000 </v>
     <v>      -4.07031940       2.35000000       0.00000000 </v>
     <v>       0.00000000       0.00000000      15.00000000 </v>
    </varray>
    <i name="volume">    286.95751754 </i>
    <varray name="rec_basis" >
     <v>       0.12284048       0.21276596       0.00000000 </v>
     <v>      -0.12284048       0.21276596       0.00000000 </v>
     <v>       0.00000000       0.00000000       0.06666667 </v>
    </varray>
   </crystal>
   <varray name="positions" >
    <v>       0.00415361       0.00267210       0.12034134 </v>
    <v>       0.35695335       0.00285503       0.09748893 </v>
    <v>       0.00423858       0.35550699       0.09749256 </v>
    <v>       0.65142295       0.65006557       0.09747688 </v>
    <v>       0.32808646       0.32671938       0.10030508 </v>
    <v>       0.68027775       0.00278085       0.10027562 </v>
    <v>       0.00416530       0.67883808       0.10026559 </v>
    <v>       0.99999933       0.49999967       0.32666667 </v>
    <v>       0.16666633       0.33333267       0.32666667 </v>
    <v>       0.99999933       0.99999967       0.32666667 </v>
    <v>       0.16666633       0.83333267       0.32666667 </v>
    <v>       0.49999933       0.49999967       0.32666667 </v>
    <v>       0.66666633       0.33333267       0.32666667 </v>
    <v>       0.49999933       0.99999967       0.32666667 </v>
    <v>       0.66666633       0.83333267       0.32666667 </v>
   </varray>
  </structure>
  <varray name="forces" >
   <v>      -0.00648326       0.00731823      -0.00226452 </v>
   <v>      -0.01617899       0.01264171      -0.01707423 </v>
   <v>      -0.00944800      -0.02977926      -0.01737254 </v>
   <v>       0.02831856       0.00734072      -0.01639756 </v>
   <v>       0.03754706      -0.02632663      -0.02770205 </v>
   <v>       0.00196117       0.04205521      -0.02611592 </v>
   <v>      -0.03607478      -0.01433819      -0.02597180 </v>
   <v>       0.01648032       0.00729061       0.01521634 </v>
   <v>      -0.04338434       0.05092587       0.03924150 </v>
   <v>       0.00060868      -0.00036029      -0.02420667 </v>
   <v>       0.06514022       0.01153770       0.04031211 </v>
   <v>      -0.01414934       0.01242008       0.01631424 </v>
   <v>      -0.00054784       0.00032323      -0.00806409 </v>
   <v>      -0.00155057      -0.01775498       0.01503546 </v>
   <v>      -0.02223888      -0.06329400       0.03904972 </v>
  </varray>
  <varray name="stress" >
   <v>     164.96328270       0.01596298      -0.00430990 </v>
   <v>       0.01596299     164.96194885       0.03469978 </v>
   <v>      -0.00430995       0.03469979       0.38310256 </v>
  </varray>
  <energy>
   <i name="e_fr_energy">   -126.22771635 </i>
   <i name="e_wo_entrp">   -126.22619054 </i>
   <i name="e_0_energy">   -126.22695344 </i>
  </energy>
  <time name="totalsc">  324.45  326.88</time>
 </calculation>
 <calculation>
  <scstep>
   <time name="dav">   11.34   11.40</time>
   <time name="total">   11.63   11.71</time>
   <dipole>
    <v name="dipole">      0.00000016      -0.00000127      -0.06340256 </v>
    <i name="Tr[quadrupol]">   -243.02054219 </i>
    <i name="Echarged">      0.00000000 </i>
    <i name="Edipol_quadrupol">      0.00000000 </i>
    <i name="Eion">      0.00000000 </i>
   </dipole>
   <energy>
    <i name="alphaZ">     51.68424955 </i>
    <i name="ewald">   4220.80065658 </i>
    <i name="hartreedc">  -5991.41961657 </i>
    <i name="XCdc">    173.81114246 </i>
    <i name="pawpsdc">   6646.54451643 </i>
    <i name="pawaedc">  -6651.31122236 </i>
    <i name="eentropy">     -0.00143908 </i>
    <i name="bandstr">   -476.87290516 </i>
    <i name="atom">   1903.26342058 </i>
    <i name="e_fr_energy">   -123.50119758 </i>
    <i name="e_wo_entrp">   -123.49975849 </i>
    <i name="e_0_energy">   -123.50047804 </i>
   </energy>
  </scstep>
  <scstep>
   <time name="dav">    7.85    7.90</time>
   <time name="total">    8.14    8.20</time>
   <dipole>
    <v name="dipole">      0.00000018      -0.00000146      -0.07300340 </v>
    <i name="Tr[quadrupol]">   -242.92530633 </i>
    <i name="Echarged">      0.00000000 </i>
    <i name="Edipol_quadrupol">      0.00000000 </i>
    <i name="Eion">      0.00000000 </i>
   </dipole>
   <energy>
    <i name="e_fr_energy">   -122.57214639 </i>
    <i name="e_wo_entrp">   -122.57063766 </i>
    <i name="e_0_energy">   -122.57139203 </i>
   </energy>
  </scstep>
  <scstep>
   <time name="dav">   11.70   11.76</time>
   <time name="total">   11.99   12.06</time>
   <dipole>
    <v name="dipole">      0.00000021      -0.00000166      -0.08301442 </v>
    <i name="Tr[quadrupol]">   -242.71087949 </i>
    <i name="Echarged">      0.00000000 </i>
    <i name="Edipol_quadrupol">      0.00000000 </i>
    <i name="Eion">      0.00000000 </i>
   </dipole>
   <energy>
    <i name="e_fr_energy">   -122.19753301 </i>
    <i name="e_wo_entrp">   -122.19598493 </i>
    <i name="e_0_energy">   -122.19675897 </i>
   </energy>
  </scstep>
  <scstep>
   <time name="dav">    8.64    8.69</time>
   <time name="total">    8.93    9.00</time>
   <dipole>
    <v name="dipole">      0.00000022      -0.00000180      -0.09018262 </v>
    <i name="Tr[quadrupol]">   -242.56293433 </i>
    <i name="Echarged">      0.00000000 </i>
    <i name="Edipol_quadrupol">      0.00000000 </i>
    <i name="Eion">      0.00000000 </i>
   </dipole>
   <energy>
    <i name="e_fr_energy">   -122.16684239 </i>
    <i name="e_wo_entrp">   -122.16530212 </i>
    <i name="e_0_energy">   -122.16607226 </i>
   </energy>
  </scstep>
  <scstep>
   <time name="dav">   11.45   11.52</time>
   <time name="total">   11.74   11.82</time>
   <dipole>
    <v name="dipole">      0.00000024      -0.00000193      -0.09651689 </v>
    <i name="Tr[quadrupol]">   -242.41432312 </i>
    <i name="Echarged">      0.00000000 </i>
    <i name="Edipol_quadrupol">      0.00000000 </i>
    <i name="Eion">      0.00000000 </i>
   </dipole>
   <energy>
    <i name="e_fr_energy">   -122.16587394 </i>
    <i name="e_wo_entrp">   -122.16425132 </i>
    <i name="e_0_energy">   -122.16506263 </i>
   </energy>
  </scstep>
  <scstep>
   <time name="dav">    8.38    8.43</time>
   <time name="total">    8.67    8.73</time>
   <dipole>
    <v name="dipole">      0.00000021      -0.00000166      -0.08309162 </v>
    <i name="Tr[quadrupol]">   -242.37465019 </i>
    <i name="Echarged">      0.00000000 </i>
    <i name="Edipol_quadrupol">      0.00000000 </i>
    <i name="Eion">      0.00000000 </i>
   </dipole>
   <energy>
    <i name="e_fr_energy">   -122.16724804 </i>
    <i name="e_wo_entrp">   -122.16556765 </i>
    <i name="e_0_energy">   -122.16640784 </i>
   </energy>
  </scstep>
  <scstep>
   <time name="dav">    9.54    9.60</time>
   <time name="total">    9.83    9.90</time>
   <dipole>
    <v name="dipole">      0.00000019      -0.00000155      -0.07739722 </v>
    <i name="Tr[quadrupol]">   -242.33262132 </i>
    <i name="Echarged">      0.00000000 </i>
    <i name="Edipol_quadrupol">      0.00000000 </i>
    <i name="Eion">      0.00000000 </i>
   </dipole>
   <energy>
    <i name="e_fr_energy">   -122.16785751 </i>
    <i name="e_wo_entrp">   -122.16617918 </i>
    <i name="e_0_energy">   -122.16701834 </i>
   </energy>
  </scstep>
  <scstep>
   <time name="dav">    7.36    7.40</time>
   <time name="total">    7.64    7.70</time>
   <dipole>
    <v name="dipole">      0.00000020      -0.00000164      -0.08205185 </v>
    <i name="Tr[quadrupol]">   -242.18440778 </i>
    <i name="Echarged">      0.00000000 </i>
    <i name="Edipol_quadrupol">      0.00000000 </i>
    <i name="Eion">      0.00000000 </i>
   </dipole>
   <energy>
    <i name="e_fr_energy">   -122.16797642 </i>
    <i name="e_wo_entrp">   -122.16627915 </i>
    <i name="e_0_energy">   -122.16712778 </i>
   </energy>
  </scstep>
  <scstep>
   <time name="dav">    9.34    9.39</time>
   <time name="total">    9.63    9.70</time>
   <dipole>
    <v name="dipole">      0.00000021      -0.00000172      -0.08617292 </v>
    <i name="Tr[quadrupol]">   -242.13619719 </i>
    <i name="Echarged">      0.00000000 </i>
    <i name="Edipol_quadrupol">      0.00000000 </i>
    <i name="Eion">      0.00000000 </i>
   </dipole>
   <energy>
    <i name="e_fr_energy">   -122.16779208 </i>
    <i name="e_wo_entrp">   -122.16609478 </i>
    <i name="e_0_energy">   -122.16694343 </i>
   </energy>
  </scstep>
  <scstep>
   <time name="dav">    7.51    7.56</time>
   <time name="total">    7.80    7.86</time>
   <dipole>
    <v name="dipole">      0.00000024      -0.00000194      -0.09692671 </v>
    <i name="Tr[quadrupol]">   -242.05690047 </i>
    <i name="Echarged">      0.00000000 </i>
    <i name="Edipol_quadrupol">      0.00000000 </i>
    <i name="Eion">      0.00000000 </i>
   </dipole>
   <energy>
    <i name="e_fr_energy">   -122.16728384 </i>
    <i name="e_wo_entrp">   -122.16560114 </i>
    <i name="e_0_energy">   -122.16644249 </i>
   </energy>
  </scstep>
  <scstep>
   <time name="dav">    9.65    9.70</time>
   <time name="total">    9.94   10.00</time>
   <dipole>
    <v name="dipole">      0.00000025      -0.00000202      -0.10093774 </v>
    <i name="Tr[quadrupol]">   -242.02131597 </i>
    <i name="Echarged">      0.00000000 </i>
    <i name="Edipol_quadrupol">      0.00000000 </i>
    <i name="Eion">      0.00000000 </i>
   </dipole>
   <energy>
    <i name="e_fr_energy">   -122.16707750 </i>
    <i name="e_wo_entrp">   -122.16539269 </i>
    <i name="e_0_energy">   -122.16623509 </i>
   </energy>
  </scstep>
  <scstep>
   <time name="dav">    8.19    8.24</time>
   <time name="total">    8.48    8.54</time>
   <dipole>
    <v name="dipole">      0.00000026      -0.00000209      -0.10450836 </v>
    <i name="Tr[quadrupol]">   -241.99569907 </i>
    <i name="Echarged">      0.00000000 </i>
    <i name="Edipol_quadrupol">      0.00000000 </i>
    <i name="Eion">      0.00000000 </i>
   </dipole>
   <energy>
    <i name="e_fr_energy">   -122.16690552 </i>
    <i name="e_wo_entrp">   -122.16522157 </i>
    <i name="e_0_energy">   -122.16606355 </i>
   </energy>
  </scstep>
  <scstep>
   <time name="dav">   10.91   10.97</time>
   <time name="total">   11.20   11.28</time>
   <dipole>
    <v name="dipole">      0.00000026      -0.00000211      -0.10575259 </v>
    <i name="Tr[quadrupol]">   -241.86184440 </i>
    <i name="Echarged">      0.00000000 </i>
    <i name="Edipol_quadrupol">      0.00000000 </i>
    <i name="Eion">      0.00000000 </i>
   </dipole>
   <energy>
    <i name="e_fr_energy">   -122.16684025 </i>
    <i name="e_wo_entrp">   -122.16515617 </i>
    <i name="e_0_energy">   -122.16599821 </i>
   </energy>
  </scstep>
  <scstep>
   <time name="dav">    7.15    7.22</time>
   <time name="total">    7.44    7.53</time>
   <dipole>
    <v name="dipole">      0.00000026      -0.00000211      -0.10575601 </v>
    <i name="Tr[quadrupol]">   -241.80248769 </i>
    <i name="Echarged">      0.00000000 </i>
    <i name="Edipol_quadrupol">      0.00000000 </i>
    <i name="Eion">      0.00000000 </i>
   </dipole>
   <energy>
    <i name="e_fr_energy">   -122.16684232 </i>
    <i name="e_wo_entrp">   -122.16515792 </i>
    <i name="e_0_energy">   -122.16600012 </i>
   </energy>
  </scstep>
  <scstep>
   <time name="dav">    8.32    8.42</time>
   <time name="total">    8.61    8.72</time>
   <dipole>
    <v name="dipole">      0.00000026      -0.00000211      -0.10557194 </v>
    <i name="Tr[quadrupol]">   -241.78776221 </i>
    <i name="Echarged">      0.00000000 </i>
    <i name="Edipol_quadrupol">      0.00000000 </i>
    <i name="Eion">      0.00000000 </i>
   </dipole>
   <energy>
    <i name="e_fr_energy">   -122.16685351 </i>
    <i name="e_wo_entrp">   -122.16516899 </i>
    <i name="e_0_energy">   -122.16601125 </i>
   </energy>
  </scstep>
  <scstep>
   <time name="dav">    8.28    8.33</time>
   <time name="total">    8.56    8.63</time>
   <dipole>
    <v name="dipole">      0.00000026      -0.00000211      -0.10547814 </v>
    <i name="Tr[quadrupol]">   -241.84633822 </i>
    <i name="Echarged">      0.00000000 </i>
    <i name="Edipol_quadrupol">      0.00000000 </i>
    <i name="Eion">      0.00000000 </i>
   </dipole>
   <energy>
    <i name="e_fr_energy">   -122.16685924 </i>
    <i name="e_wo_entrp">   -122.16517467 </i>
    <i name="e_0_energy">   -122.16601695 </i>
   </energy>
  </scstep>
  <scstep>
   <time name="dav">    8.68    8.73</time>
   <time name="total">    8.97    9.03</time>
   <dipole>
    <v name="dipole">      0.00000026      -0.00000211      -0.10539681 </v>
    <i name="Tr[quadrupol]">   -241.86097115 </i>
    <i name="Echarged">      0.00000000 </i>
    <i name="Edipol_quadrupol">      0.00000000 </i>
    <i name="Eion">      0.00000000 </i>
   </dipole>
   <energy>
    <i name="e_fr_energy">   -122.16686438 </i>
    <i name="e_wo_entrp">   -122.16517975 </i>
    <i name="e_0_energy">   -122.16602206 </i>
   </energy>
  </scstep>
  <scstep>
   <time name="dav">    9.96   10.02</time>
   <time name="total">   10.25   10.32</time>
   <dipole>
    <v name="dipole">      0.00000026      -0.00000211      -0.10535629 </v>
    <i name="Tr[quadrupol]">   -241.87561651 </i>
    <i name="Echarged">      0.00000000 </i>
    <i name="Edipol_quadrupol">      0.00000000 </i>
    <i name="Eion">      0.00000000 </i>
   </dipole>
   <energy>
    <i name="e_fr_energy">   -122.16686669 </i>
    <i name="e_wo_entrp">   -122.16518207 </i>
    <i name="e_0_energy">   -122.16602438 </i>
   </energy>
  </scstep>
  <scstep>
   <time name="dav">    8.62    8.67</time>
   <time name="total">    8.91    8.97</time>
   <dipole>
    <v name="dipole">      0.00000026      -0.00000210      -0.10530652 </v>
    <i name="Tr[quadrupol]">   -241.87561939 </i>
    <i name="Echarged">      0.00000000 </i>
    <i name="Edipol_quadrupol">      0.00000000 </i>
    <i name="Eion">      0.00000000 </i>
   </dipole>
   <energy>
    <i name="e_fr_energy">   -122.16686949 </i>
    <i name="e_wo_entrp">   -122.16518490 </i>
    <i name="e_0_energy">   -122.16602720 </i>
   </energy>
  </scstep>
  <scstep>
   <time name="dav">    8.72    8.77</time>
   <time name="total">    9.01    9.07</time>
   <dipole>
    <v name="dipole">      0.00000026      -0.00000210      -0.10527920 </v>
    <i name="Tr[quadrupol]">   -241.87560946 </i>
    <i name="Echarged">      0.00000000 </i>
    <i name="Edipol_quadrupol">      0.00000000 </i>
    <i name="Eion">      0.00000000 </i>
   </dipole>
   <energy>
    <i name="e_fr_energy">   -122.16687102 </i>
    <i name="e_wo_entrp">   -122.16518643 </i>
    <i name="e_0_energy">   -122.16602873 </i>
   </energy>
  </scstep>
  <scstep>
   <time name="dav">    8.68    8.73</time>
   <time name="total">    8.72    8.77</time>
   <dipole>
    <v name="dipole">      0.00000026      -0.00000210      -0.10526529 </v>
    <i name="Tr[quadrupol]">   -241.86098066 </i>
    <i name="Echarged">      0.00000000 </i>
    <i name="Edipol_quadrupol">      0.00000000 </i>
    <i name="Eion">      0.00000000 </i>
   </dipole>
   <energy>
    <i name="alphaZ">     51.68610592 </i>
    <i name="ewald">   4220.80065658 </i>
    <i name="hartreedc">  -5959.53613978 </i>
    <i name="XCdc">    173.46492666 </i>
    <i name="pawpsdc">   4384.95959017 </i>
    <i name="pawaedc">  -4388.70459364 </i>
    <i name="eentropy">     -0.00168457 </i>
    <i name="bandstr">   -508.09915370 </i>
    <i name="atom">   1903.26342058 </i>
    <i name="e_fr_energy">   -122.16687179 </i>
    <i name="e_wo_entrp">   -122.16518722 </i>
    <i name="e_0_energy">   -122.16602950 </i>
   </energy>
  </scstep>
  <structure>
   <crystal>
    <varray name="basis" >
     <v>       4.45711987       2.57334251       0.00003687 </v>
     <v>      -4.45707666       2.57326765       0.00005708 </v>
     <v>      -0.00003724       0.00029982      15.00331019 </v>
    </varray>
    <i name="volume">    344.16014018 </i>
    <varray name="rec_basis" >
     <v>       0.11217898       0.19430171      -0.00000360 </v>
     <v>      -0.11218224       0.19430359      -0.00000416 </v>
     <v>       0.00000015      -0.00000122       0.06665196 </v>
    </varray>
   </crystal>
   <varray name="positions" >
    <v>       0.00419030       0.00278564       0.12033405 </v>
    <v>       0.35698723       0.00308067       0.09743402 </v>
    <v>       0.00387692       0.35525732       0.09743669 </v>
    <v>       0.65166612       0.64997310       0.09742414 </v>
    <v>       0.32803875       0.32622664       0.10021598 </v>
    <v>       0.68072104       0.00320090       0.10019163 </v>
    <v>       0.00380434       0.67890469       0.10018206 </v>
    <v>       0.00017183       0.49997684       0.32671561 </v>
    <v>       0.16693195       0.33411249       0.32679287 </v>
    <v>       0.99999924       0.99999236       0.32658881 </v>
    <v>       0.16717079       0.83306506       0.32679632 </v>
    <v>       0.50004297       0.50021100       0.32671914 </v>
    <v>       0.66666640       0.33333923       0.32664073 </v>
    <v>       0.49980790       0.99982661       0.32671502 </v>
    <v>       0.66588487       0.83281478       0.32679226 </v>
   </varray>
  </structure>
  <varray name="forces" >
   <v>       0.00012444      -0.00120156      -0.69010943 </v>
   <v>      -0.23793248      -0.09390485       0.17996008 </v>
   <v>       0.19779776      -0.15946990       0.17932326 </v>
   <v>       0.03905913       0.25534757       0.18050057 </v>
   <v>       0.03867124      -0.77721011      -0.03181332 </v>
   <v>       0.65649602       0.42067338      -0.02939693 </v>
   <v>      -0.69474524       0.35429493      -0.02912820 </v>
   <v>      -0.01872057      -0.00951985       0.03075086 </v>
   <v>       0.08185016      -0.11738561       0.03264515 </v>
   <v>      -0.00110238       0.00156547       0.03407793 </v>
   <v>      -0.14110765      -0.00960402       0.03277220 </v>
   <v>       0.01616667      -0.01447808       0.03076587 </v>
   <v>       0.00178280       0.00037344       0.01685580 </v>
   <v>       0.00010396       0.02024966       0.03045872 </v>
   <v>       0.06155616       0.13026951       0.03233744 </v>
  </varray>
  <varray name="stress" >
   <v>    -240.81793635      -0.00952020       0.00963423 </v>
   <v>      -0.00952018    -240.82190632       0.01374247 </v>
   <v>       0.00963423       0.01374244      -2.04525959 </v>
  </varray>
  <energy>
   <i name="e_fr_energy">   -123.69905439 </i>
   <i name="e_wo_entrp">   -123.69736982 </i>
   <i name="e_0_energy">   -123.69821210 </i>
  </energy>
  <time name="totalsc">  200.67  202.14</time>
 </calculation>
 <calculation>
  <scstep>
   <time name="dav">   11.06   11.12</time>
   <time name="total">   11.35   11.42</time>
   <dipole>
    <v name="dipole">      0.00000009      -0.00000069      -0.10524246 </v>
    <i name="Tr[quadrupol]">   -213.63918564 </i>
    <i name="Echarged">      0.00000000 </i>
    <i name="Edipol_quadrupol">      0.00000000 </i>
    <i name="Eion">      0.00000000 </i>
   </dipole>
   <energy>
    <i name="alphaZ">     58.29973482 </i>
    <i name="ewald">   4977.90225835 </i>
    <i name="hartreedc">  -6710.41939890 </i>
    <i name="XCdc">    180.35456597 </i>
    <i name="pawpsdc">   4384.95948269 </i>
    <i name="pawaedc">  -4388.70448630 </i>
    <i name="eentropy">     -0.00156403 </i>
    <i name="bandstr">   -531.67439502 </i>
    <i name="atom">   1903.26342058 </i>
    <i name="e_fr_energy">   -126.02038184 </i>
    <i name="e_wo_entrp">   -126.01881781 </i>
    <i name="e_0_energy">   -126.01959983 </i>
   </energy>
  </scstep>
  <scstep>
   <time name="dav">   10.93   10.99</time>
   <time name="total">   11.22   11.29</time>
   <dipole>
    <v name="dipole">      0.00000008      -0.00000067      -0.10264882 </v>
    <i name="Tr[quadrupol]">   -213.72099343 </i>
    <i name="Echarged">      0.00000000 </i>
    <i name="Edipol_quadrupol">      0.00000000 </i>
    <i name="Eion">      0.00000000 </i>
   </dipole>
   <energy>
    <i name="e_fr_energy">   -125.62031568 </i>
    <i name="e_wo_entrp">   -125.61879773 </i>
    <i name="e_0_energy">   -125.61955671 </i>
   </energy>
  </scstep>
  <scstep>
   <time name="dav">   10.96   11.02</time>
   <time name="total">   11.25   11.33</time>
   <dipole>
    <v name="dipole">      0.00000008      -0.00000065      -0.09995358 </v>
    <i name="Tr[quadrupol]">   -213.85119179 </i>
    <i name="Echarged">      0.00000000 </i>
    <i name="Edipol_quadrupol">      0.00000000 </i>
    <i name="Eion">      0.00000000 </i>
   </dipole>
   <energy>
    <i name="e_fr_energy">   -125.44122122 </i>
    <i name="e_wo_entrp">   -125.43970737 </i>
    <i name="e_0_energy">   -125.44046429 </i>
   </energy>
  </scstep>
  <scstep>
   <time name="dav">    9.63    9.68</time>
   <time name="total">    9.92    9.98</time>
   <dipole>
    <v name="dipole">      0.00000008      -0.00000064      -0.09748589 </v>
    <i name="Tr[quadrupol]">   -213.92727088 </i>
    <i name="Echarged">      0.00000000 </i>
    <i name="Edipol_quadrupol">      0.00000000 </i>
    <i name="Eion">      0.00000000 </i>
   </dipole>
   <energy>
    <i name="e_fr_energy">   -125.43164679 </i>
    <i name="e_wo_entrp">   -125.43013286 </i>
    <i name="e_0_energy">   -125.43088982 </i>
   </energy>
  </scstep>
  <scstep>
   <time name="dav">   10.53   10.59</time>
   <time name="total">   10.82   10.90</time>
   <dipole>
    <v name="dipole">      0.00000008      -0.00000062      -0.09445751 </v>
    <i name="Tr[quadrupol]">   -214.04855494 </i>
    <i name="Echarged">      0.00000000 </i>
    <i name="Edipol_quadrupol">      0.00000000 </i>
    <i name="Eion">      0.00000000 </i>
   </dipole>
   <energy>
    <i name="e_fr_energy">   -125.43029119 </i>
    <i name="e_wo_entrp">   -125.42877766 </i>
    <i name="e_0_energy">   -125.42953443 </i>
   </energy>
  </scstep>
  <scstep>
   <time name="dav">    8.77    8.83</time>
   <time name="total">    9.06    9.13</time>
   <dipole>
    <v name="dipole">      0.00000008      -0.00000061      -0.09281917 </v>
    <i name="Tr[quadrupol]">   -214.14233195 </i>
    <i name="Echarged">      0.00000000 </i>
    <i name="Edipol_quadrupol">      0.00000000 </i>
    <i name="Eion">      0.00000000 </i>
   </dipole>
   <energy>
    <i name="e_fr_energy">   -125.42985379 </i>
    <i name="e_wo_entrp">   -125.42834029 </i>
    <i name="e_0_energy">   -125.42909704 </i>
   </energy>
  </scstep>
  <scstep>
   <time name="dav">    8.08    8.13</time>
   <time name="total">    8.37    8.43</time>
   <dipole>
    <v name="dipole">      0.00000008      -0.00000066      -0.10147848 </v>
    <i name="Tr[quadrupol]">   -214.34234435 </i>
    <i name="Echarged">      0.00000000 </i>
    <i name="Edipol_quadrupol">      0.00000000 </i>
    <i name="Eion">      0.00000000 </i>
   </dipole>
   <energy>
    <i name="e_fr_energy">   -125.42940900 </i>
    <i name="e_wo_entrp">   -125.42789567 </i>
    <i name="e_0_energy">   -125.42865233 </i>
   </energy>
  </scstep>
  <scstep>
   <time name="dav">    7.63    7.68</time>
   <time name="total">    7.92    7.98</time>
   <dipole>
    <v name="dipole">      0.00000009      -0.00000069      -0.10472543 </v>
    <i name="Tr[quadrupol]">   -214.48509147 </i>
    <i name="Echarged">      0.00000000 </i>
    <i name="Edipol_quadrupol">      0.00000000 </i>
    <i name="Eion">      0.00000000 </i>
   </dipole>
   <energy>
    <i name="e_fr_energy">   -125.42945089 </i>
    <i name="e_wo_entrp">   -125.42793758 </i>
    <i name="e_0_energy">   -125.42869424 </i>
   </energy>
  </scstep>
  <scstep>
   <time name="dav">    8.30    8.35</time>
   <time name="total">    8.59    8.65</time>
   <dipole>
    <v name="dipole">      0.00000008      -0.00000068      -0.10454690 </v>
    <i name="Tr[quadrupol]">   -214.53969016 </i>
    <i name="Echarged">      0.00000000 </i>
    <i name="Edipol_quadrupol">      0.00000000 </i>
    <i name="Eion">      0.00000000 </i>
   </dipole>
   <energy>
    <i name="e_fr_energy">   -125.42962966 </i>
    <i name="e_wo_entrp">   -125.42811630 </i>
    <i name="e_0_energy">   -125.42887298 </i>
   </energy>
  </scstep>
  <scstep>
   <time name="dav">    9.45    9.51</time>
   <time name="total">    9.74    9.81</time>
   <dipole>
    <v name="dipole">      0.00000008      -0.00000066      -0.10134458 </v>
    <i name="Tr[quadrupol]">   -214.58031390 </i>
    <i name="Echarged">      0.00000000 </i>
    <i name="Edipol_quadrupol">      0.00000000 </i>
    <i name="Eion">      0.00000000 </i>
   </dipole>
   <energy>
    <i name="e_fr_energy">   -125.43005294 </i>
    <i name="e_wo_entrp">   -125.42853952 </i>
    <i name="e_0_energy">   -125.42929623 </i>
   </energy>
  </scstep>
  <scstep>
   <time name="dav">    9.22    9.27</time>
   <time name="total">    9.51    9.57</time>
   <dipole>
    <v name="dipole">      0.00000008      -0.00000065      -0.09881657 </v>
    <i name="Tr[quadrupol]">   -214.58988346 </i>
    <i name="Echarged">      0.00000000 </i>
    <i name="Edipol_quadrupol">      0.00000000 </i>
    <i name="Eion">      0.00000000 </i>
   </dipole>
   <energy>
    <i name="e_fr_energy">   -125.43031944 </i>
    <i name="e_wo_entrp">   -125.42880602 </i>
    <i name="e_0_energy">   -125.42956273 </i>
   </energy>
  </scstep>
  <scstep>
   <time name="dav">    9.58    9.64</time>
   <time name="total">    9.87    9.94</time>
   <dipole>
    <v name="dipole">      0.00000008      -0.00000063      -0.09692514 </v>
    <i name="Tr[quadrupol]">   -214.58194107 </i>
    <i name="Echarged">      0.00000000 </i>
    <i name="Edipol_quadrupol">      0.00000000 </i>
    <i name="Eion">      0.00000000 </i>
   </dipole>
   <energy>
    <i name="e_fr_energy">   -125.43048370 </i>
    <i name="e_wo_entrp">   -125.42897028 </i>
    <i name="e_0_energy">   -125.42972699 </i>
   </energy>
  </scstep>
  <scstep>
   <time name="dav">    9.02    9.07</time>
   <time name="total">    9.31    9.38</time>
   <dipole>
    <v name="dipole">      0.00000008      -0.00000063      -0.09660680 </v>
    <i name="Tr[quadrupol]">   -214.55551976 </i>
    <i name="Echarged">      0.00000000 </i>
    <i name="Edipol_quadrupol">      0.00000000 </i>
    <i name="Eion">      0.00000000 </i>
   </dipole>
   <energy>
    <i name="e_fr_energy">   -125.43050805 </i>
    <i name="e_wo_entrp">   -125.42899462 </i>
    <i name="e_0_energy">   -125.42975134 </i>
   </energy>
  </scstep>
  <scstep>
   <time name="dav">    9.39    9.44</time>
   <time name="total">    9.68    9.74</time>
   <dipole>
    <v name="dipole">      0.00000008      -0.00000063      -0.09637905 </v>
    <i name="Tr[quadrupol]">   -214.52892853 </i>
    <i name="Echarged">      0.00000000 </i>
    <i name="Edipol_quadrupol">      0.00000000 </i>
    <i name="Eion">      0.00000000 </i>
   </dipole>
   <energy>
    <i name="e_fr_energy">   -125.43052557 </i>
    <i name="e_wo_entrp">   -125.42901215 </i>
    <i name="e_0_energy">   -125.42976886 </i>
   </energy>
  </scstep>
  <scstep>
   <time name="dav">   10.09   10.15</time>
   <time name="total">   10.38   10.45</time>
   <dipole>
    <v name="dipole">      0.00000008      -0.00000063      -0.09630960 </v>
    <i name="Tr[quadrupol]">   -214.44869989 </i>
    <i name="Echarged">      0.00000000 </i>
    <i name="Edipol_quadrupol">      0.00000000 </i>
    <i name="Eion">      0.00000000 </i>
   </dipole>
   <energy>
    <i name="e_fr_energy">   -125.43053010 </i>
    <i name="e_wo_entrp">   -125.42901667 </i>
    <i name="e_0_energy">   -125.42977338 </i>
   </energy>
  </scstep>
  <scstep>
   <time name="dav">    9.77    9.82</time>
   <time name="total">    9.80    9.86</time>
   <dipole>
    <v name="dipole">      0.00000008      -0.00000063      -0.09632108 </v>
    <i name="Tr[quadrupol]">   -214.43533436 </i>
    <i name="Echarged">      0.00000000 </i>
    <i name="Edipol_quadrupol">      0.00000000 </i>
    <i name="Eion">      0.00000000 </i>
   </dipole>
   <energy>
    <i name="alphaZ">     58.29920159 </i>
    <i name="ewald">   4977.90225835 </i>
    <i name="hartreedc">  -6734.69412975 </i>
    <i name="XCdc">    180.54469166 </i>
    <i name="pawpsdc">   5756.24062367 </i>
    <i name="pawaedc">  -5760.63429297 </i>
    <i name="eentropy">     -0.00151343 </i>
    <i name="bandstr">   -506.35078930 </i>
    <i name="atom">   1903.26342058 </i>
    <i name="e_fr_energy">   -125.43052958 </i>
    <i name="e_wo_entrp">   -125.42901615 </i>
    <i name="e_0_energy">   -125.42977287 </i>
   </energy>
  </scstep>
  <structure>
   <crystal>
    <varray name="basis" >
     <v>       4.19699715       2.42314501       0.00001207 </v>
     <v>      -4.19698299       2.42312050       0.00001869 </v>
     <v>      -0.00001220       0.00009819      15.00108409 </v>
    </varray>
    <i name="volume">    305.11797369 </i>
    <varray name="rec_basis" >
     <v>       0.11913239       0.20634410      -0.00000125 </v>
     <v>      -0.11913360       0.20634480      -0.00000145 </v>
     <v>       0.00000005      -0.00000042       0.06666185 </v>
    </varray>
   </crystal>
   <varray name="positions" >
    <v>       0.00416777       0.00271591       0.12033895 </v>
    <v>       0.35696642       0.00294209       0.09747094 </v>
    <v>       0.00409902       0.35541065       0.09747426 </v>
    <v>       0.65151678       0.65002989       0.09745960 </v>
    <v>       0.32806805       0.32652925       0.10027588 </v>
    <v>       0.68044880       0.00294293       0.10024810 </v>
    <v>       0.00402602       0.67886378       0.10023822 </v>
    <v>       0.00006590       0.49999086       0.32668270 </v>
    <v>       0.16676883       0.33363357       0.32670802 </v>
    <v>       0.99999930       0.99999684       0.32664116 </v>
    <v>       0.16686099       0.83322942       0.32670915 </v>
    <v>       0.50001617       0.50008121       0.32668386 </v>
    <v>       0.66666636       0.33333520       0.32665817 </v>
    <v>       0.49992547       0.99993289       0.32668251 </v>
    <v>       0.66636480       0.83313284       0.32670781 </v>
   </varray>
  </structure>
  <varray name="forces" >
   <v>      -0.00261402       0.00208671      -0.35273528 </v>
   <v>      -0.10614970      -0.04259911       0.08520299 </v>
   <v>       0.08581048      -0.07503270       0.08467677 </v>
   <v>       0.02146882       0.11441612       0.08604049 </v>
   <v>       0.02515916      -0.33048516      -0.02374072 </v>
   <v>       0.27441601       0.18474953      -0.02143884 </v>
   <v>      -0.29853166       0.14570704      -0.02090492 </v>
   <v>      -0.01437265      -0.00859088       0.02015206 </v>
   <v>       0.03139704      -0.03811846       0.03739889 </v>
   <v>      -0.00049673       0.00046118      -0.00760162 </v>
   <v>      -0.04819420      -0.00670645       0.03824840 </v>
   <v>       0.01409835      -0.00931314       0.02098358 </v>
   <v>       0.00066965       0.00016348      -0.00336720 </v>
   <v>      -0.00062239       0.01647467       0.01993003 </v>
[...]
       <r>     3.2452     0.8694    30.8994 </r>
       <r>     3.3520     0.6796    30.9720 </r>
       <r>     3.4589     1.3238    31.1135 </r>
       <r>     3.5658     1.5055    31.2743 </r>
       <r>     3.6726     1.2274    31.4055 </r>
       <r>     3.7795     1.3445    31.5492 </r>
       <r>     3.8864     1.1440    31.6714 </r>
       <r>     3.9932     1.5463    31.8367 </r>
       <r>     4.1001     1.9505    32.0451 </r>
       <r>     4.2070     2.2560    32.2862 </r>
       <r>     4.3138     2.6678    32.5713 </r>
       <r>     4.4207     2.7206    32.8621 </r>
       <r>     4.5276     3.3220    33.2171 </r>
       <r>     4.6344     3.0863    33.5469 </r>
       <r>     4.7413     3.1050    33.8787 </r>
       <r>     4.8482     3.0183    34.2013 </r>
       <r>     4.9550     3.2023    34.5435 </r>
       <r>     5.0619     3.1197    34.8769 </r>
       <r>     5.1688     2.2508    35.1174 </r>
       <r>     5.2756     2.4701    35.3814 </r>
       <r>     5.3825     3.0574    35.7082 </r>
       <r>     5.4894     3.0826    36.0376 </r>
       <r>     5.5962     3.0625    36.3649 </r>
       <r>     5.7031     3.1046    36.6966 </r>
       <r>     5.8100     3.6712    37.0890 </r>
       <r>     5.9168     3.3096    37.4427 </r>
       <r>     6.0237     2.0180    37.6583 </r>
       <r>     6.1306     2.9728    37.9760 </r>
       <r>     6.2374     3.4006    38.3394 </r>
       <r>     6.3443     2.5118    38.6079 </r>
       <r>     6.4512     2.9363    38.9216 </r>
       <r>     6.5580     2.9110    39.2327 </r>
       <r>     6.6649     2.0940    39.4565 </r>
       <r>     6.7718     2.3655    39.7093 </r>
       <r>     6.8786     2.6894    39.9967 </r>
       <r>     6.9855     2.2852    40.2409 </r>
       <r>     7.0924     2.4130    40.4988 </r>
       <r>     7.1992     3.8833    40.9138 </r>
       <r>     7.3061     3.7842    41.3182 </r>
       <r>     7.4130     3.2609    41.6667 </r>
       <r>     7.5198     2.0808    41.8890 </r>
       <r>     7.6267     2.2978    42.1346 </r>
       <r>     7.7336     2.6312    42.4158 </r>
       <r>     7.8404     3.4982    42.7896 </r>
       <r>     7.9473     3.2905    43.1413 </r>
       <r>     8.0542     2.8654    43.4475 </r>
       <r>     8.1610     3.5833    43.8304 </r>
       <r>     8.2679     3.5602    44.2109 </r>
       <r>     8.3748     3.6011    44.5957 </r>
       <r>     8.4816     2.6257    44.8763 </r>
       <r>     8.5885     2.3836    45.1310 </r>
       <r>     8.6954     3.3001    45.4837 </r>
       <r>     8.8022     4.4043    45.9544 </r>
       <r>     8.9091     5.0643    46.4956 </r>
       <r>     9.0160     4.5358    46.9803 </r>
       <r>     9.1228     4.4950    47.4607 </r>
       <r>     9.2297     2.8824    47.7687 </r>
       <r>     9.3366     1.4759    47.9264 </r>
       <r>     9.4434     0.5966    47.9902 </r>
       <r>     9.5503     0.0890    47.9997 </r>
       <r>     9.6572     0.0029    48.0000 </r>
       <r>     9.7640     0.0000    48.0000 </r>
       <r>     9.8709     0.0000    48.0000 </r>
       <r>     9.9778     0.0000    48.0000 </r>
       <r>    10.0846     0.0000    48.0000 </r>
       <r>    10.1915     0.0000    48.0000 </r>
       <r>    10.2984     0.0000    48.0000 </r>
       <r>    10.4052     0.0000    48.0000 </r>
       <r>    10.5121     0.0000    48.0000 </r>
       <r>    10.6190     0.0000    48.0000 </r>
       <r>    10.7258     0.0000    48.0000 </r>
       <r>    10.8327     0.0000    48.0000 </r>
      </set>
      <set comment="spin 2">
       <r>   -21.2273     0.0000     0.0000 </r>
       <r>   -21.1205     0.0000     0.0000 </r>
       <r>   -21.0136     0.0000     0.0000 </r>
       <r>   -20.9067     0.0000     0.0000 </r>
       <r>   -20.7999     0.0000     0.0000 </r>
       <r>   -20.6930     0.0000     0.0000 </r>
       <r>   -20.5861     0.0000     0.0000 </r>
       <r>   -20.4793     0.0000     0.0000 </r>
       <r>   -20.3724     0.0000     0.0000 </r>
       <r>   -20.2655     0.0000     0.0000 </r>
       <r>   -20.1587     0.0000     0.0000 </r>
       <r>   -20.0518     0.0000     0.0000 </r>
       <r>   -19.9449     0.0008     0.0001 </r>
       <r>   -19.8381     0.0344     0.0038 </r>
       <r>   -19.7312     0.2520     0.0307 </r>
       <r>   -19.6243     0.5305     0.0874 </r>
       <r>   -19.5175     0.5775     0.1491 </r>
       <r>   -19.4106     0.6311     0.2166 </r>
       <r>   -19.3037     0.5307     0.2733 </r>
       <r>   -19.1969     0.6881     0.3468 </r>
       <r>   -19.0900     0.5389     0.4044 </r>
       <r>   -18.9831     0.5430     0.4624 </r>
       <r>   -18.8763     0.7683     0.5445 </r>
       <r>   -18.7694     0.4875     0.5966 </r>
       <r>   -18.6625     0.4949     0.6495 </r>
       <r>   -18.5557     0.7816     0.7330 </r>
       <r>   -18.4488     0.6661     0.8042 </r>
       <r>   -18.3419     0.3784     0.8447 </r>
       <r>   -18.2351     0.5572     0.9042 </r>
       <r>   -18.1282     0.8843     0.9987 </r>
       <r>   -18.0213     0.5839     1.0611 </r>
       <r>   -17.9145     0.4853     1.1130 </r>
       <r>   -17.8076     0.3795     1.1535 </r>
       <r>   -17.7007     0.8458     1.2439 </r>
       <r>   -17.5939     0.8457     1.3343 </r>
       <r>   -17.4870     0.4526     1.3827 </r>
       <r>   -17.3801     0.4193     1.4275 </r>
       <r>   -17.2733     0.5237     1.4835 </r>
       <r>   -17.1664     0.7928     1.5682 </r>
       <r>   -17.0595     0.8640     1.6605 </r>
       <r>   -16.9527     0.6813     1.7333 </r>
       <r>   -16.8458     0.7622     1.8148 </r>
       <r>   -16.7389     1.2667     1.9501 </r>
       <r>   -16.6321     1.8463     2.1474 </r>
       <r>   -16.5252     1.9640     2.3573 </r>
       <r>   -16.4183     2.0952     2.5812 </r>
       <r>   -16.3115     2.5757     2.8565 </r>
       <r>   -16.2046     2.2802     3.1002 </r>
       <r>   -16.0977     0.8031     3.1860 </r>
       <r>   -15.9909     0.9397     3.2864 </r>
       <r>   -15.8840     1.0464     3.3982 </r>
       <r>   -15.7771     0.5842     3.4607 </r>
       <r>   -15.6703     0.5306     3.5174 </r>
       <r>   -15.5634     0.4938     3.5701 </r>
       <r>   -15.4565     0.4883     3.6223 </r>
       <r>   -15.3497     0.4646     3.6720 </r>
       <r>   -15.2428     1.0262     3.7816 </r>
       <r>   -15.1359     1.0366     3.8924 </r>
       <r>   -15.0291     0.5042     3.9463 </r>
       <r>   -14.9222     0.4938     3.9991 </r>
       <r>   -14.8153     0.4289     4.0449 </r>
       <r>   -14.7085     0.5887     4.1078 </r>
       <r>   -14.6016     0.7804     4.1912 </r>
       <r>   -14.4947     1.3057     4.3307 </r>
       <r>   -14.3879     2.0894     4.5540 </r>
       <r>   -14.2810     2.3022     4.8001 </r>
       <r>   -14.1741     2.2589     5.0415 </r>
       <r>   -14.0673     1.4691     5.1985 </r>
       <r>   -13.9604     0.9677     5.3019 </r>
       <r>   -13.8535     1.8684     5.5015 </r>
       <r>   -13.7467     1.9989     5.7151 </r>
       <r>   -13.6398     1.3736     5.8619 </r>
       <r>   -13.5329     1.3828     6.0097 </r>
       <r>   -13.4261     1.5150     6.1716 </r>
       <r>   -13.3192     2.4689     6.4354 </r>
       <r>   -13.2123     2.6100     6.7144 </r>
       <r>   -13.1055     2.3550     6.9660 </r>
       <r>   -12.9986     1.5211     7.1286 </r>
       <r>   -12.8917     0.9281     7.2278 </r>
       <r>   -12.7849     0.4217     7.2728 </r>
       <r>   -12.6780     0.5193     7.3283 </r>
       <r>   -12.5711     0.8724     7.4216 </r>
       <r>   -12.4643     0.8824     7.5159 </r>
       <r>   -12.3574     0.6169     7.5818 </r>
       <r>   -12.2505     0.8564     7.6733 </r>
       <r>   -12.1437     0.8994     7.7694 </r>
       <r>   -12.0368     0.7180     7.8461 </r>
       <r>   -11.9299     0.6858     7.9194 </r>
       <r>   -11.8231     0.4299     7.9654 </r>
       <r>   -11.7162     0.8107     8.0520 </r>
       <r>   -11.6093     1.0228     8.1613 </r>
       <r>   -11.5025     0.4343     8.2077 </r>
       <r>   -11.3956     0.4308     8.2538 </r>
       <r>   -11.2887     0.4325     8.3000 </r>
       <r>   -11.1819     0.7571     8.3809 </r>
       <r>   -11.0750     0.8663     8.4735 </r>
       <r>   -10.9681     0.4920     8.5261 </r>
       <r>   -10.8613     0.2374     8.5514 </r>
       <r>   -10.7544     0.6059     8.6162 </r>
       <r>   -10.6475     0.7441     8.6957 </r>
       <r>   -10.5407     0.6658     8.7668 </r>
       <r>   -10.4338     0.9977     8.8735 </r>
       <r>   -10.3269     0.7633     8.9550 </r>
       <r>   -10.2201     0.3132     8.9885 </r>
       <r>   -10.1132     1.0108     9.0965 </r>
       <r>   -10.0063     1.5918     9.2666 </r>
       <r>    -9.8995     1.9672     9.4769 </r>
       <r>    -9.7926     1.9240     9.6825 </r>
       <r>    -9.6857     1.8383     9.8789 </r>
       <r>    -9.5789     2.2884    10.1235 </r>
       <r>    -9.4720     2.4097    10.3810 </r>
       <r>    -9.3651     1.2484    10.5144 </r>
       <r>    -9.2583     0.8415    10.6044 </r>
       <r>    -9.1514     1.7960    10.7963 </r>
       <r>    -9.0445     2.0312    11.0134 </r>
       <r>    -8.9377     2.0941    11.2372 </r>
       <r>    -8.8308     1.9425    11.4447 </r>
       <r>    -8.7239     1.8122    11.6384 </r>
       <r>    -8.6171     1.3622    11.7840 </r>
       <r>    -8.5102     0.9665    11.8873 </r>
       <r>    -8.4033     1.9536    12.0960 </r>
       <r>    -8.2965     2.6447    12.3787 </r>
       <r>    -8.1896     2.0042    12.5928 </r>
       <r>    -8.0827     0.9730    12.6968 </r>
       <r>    -7.9759     1.3512    12.8412 </r>
       <r>    -7.8690     2.6945    13.1292 </r>
       <r>    -7.7621     2.4528    13.3913 </r>
       <r>    -7.6553     1.4678    13.5482 </r>
       <r>    -7.5484     2.0910    13.7716 </r>
       <r>    -7.4415     3.2000    14.1136 </r>
       <r>    -7.3347     3.1278    14.4478 </r>
       <r>    -7.2278     2.6149    14.7273 </r>
       <r>    -7.1209     1.2535    14.8612 </r>
       <r>    -7.0141     1.1009    14.9789 </r>
       <r>    -6.9072     2.4458    15.2403 </r>
       <r>    -6.8003     2.2462    15.4803 </r>
       <r>    -6.6935     1.4669    15.6371 </r>
       <r>    -6.5866     1.4762    15.7948 </r>
       <r>    -6.4797     2.2010    16.0301 </r>
       <r>    -6.3728     2.2813    16.2739 </r>
       <r>    -6.2660     2.4953    16.5405 </r>
       <r>    -6.1591     2.6493    16.8236 </r>
       <r>    -6.0522     2.4032    17.0805 </r>
       <r>    -5.9454     2.5516    17.3531 </r>
       <r>    -5.8385     2.1591    17.5839 </r>
       <r>    -5.7316     2.3278    17.8327 </r>
       <r>    -5.6248     3.3022    18.1855 </r>
       <r>    -5.5179     2.9421    18.5000 </r>
       <r>    -5.4110     4.0064    18.9281 </r>
       <r>    -5.3042     3.6864    19.3221 </r>
       <r>    -5.1973     2.0050    19.5363 </r>
       <r>    -5.0904     2.2875    19.7808 </r>
       <r>    -4.9836     4.2182    20.2316 </r>
       <r>    -4.8767     4.6718    20.7308 </r>
       <r>    -4.7698     3.0379    21.0555 </r>
       <r>    -4.6630     2.1584    21.2861 </r>
       <r>    -4.5561     1.3682    21.4324 </r>
       <r>    -4.4492     1.2955    21.5708 </r>
       <r>    -4.3424     1.8528    21.7688 </r>
       <r>    -4.2355     1.4499    21.9238 </r>
       <r>    -4.1286     1.0582    22.0368 </r>
       <r>    -4.0218     1.1517    22.1599 </r>
       <r>    -3.9149     1.9977    22.3734 </r>
       <r>    -3.8080     2.7871    22.6713 </r>
       <r>    -3.7012     2.2788    22.9148 </r>
       <r>    -3.5943     2.5034    23.1823 </r>
       <r>    -3.4874     2.9103    23.4933 </r>
       <r>    -3.3806     3.0777    23.8222 </r>
       <r>    -3.2737     2.3500    24.0734 </r>
       <r>    -3.1668     2.2640    24.3153 </r>
       <r>    -3.0600     2.5998    24.5932 </r>
       <r>    -2.9531     2.0136    24.8083 </r>
       <r>    -2.8462     1.8310    25.0040 </r>
       <r>    -2.7394     1.7146    25.1872 </r>
       <r>    -2.6325     2.1767    25.4199 </r>
       <r>    -2.5256     2.3373    25.6696 </r>
       <r>    -2.4188     1.5234    25.8324 </r>
       <r>    -2.3119     1.4947    25.9922 </r>
       <r>    -2.2050     0.9429    26.0929 </r>
       <r>    -2.0982     1.3437    26.2365 </r>
       <r>    -1.9913     2.5788    26.5121 </r>
       <r>    -1.8844     1.7162    26.6955 </r>
       <r>    -1.7776     0.4941    26.7483 </r>
       <r>    -1.6707     0.5725    26.8095 </r>
       <r>    -1.5638     1.2848    26.9468 </r>
       <r>    -1.4570     1.3531    27.0914 </r>
       <r>    -1.3501     1.4387    27.2452 </r>
       <r>    -1.2432     1.5029    27.4058 </r>
       <r>    -1.1364     1.1929    27.5332 </r>
       <r>    -1.0295     0.8971    27.6291 </r>
       <r>    -0.9226     0.6120    27.6945 </r>
       <r>    -0.8158     0.4902    27.7469 </r>
       <r>    -0.7089     0.5120    27.8016 </r>
       <r>    -0.6020     0.5304    27.8583 </r>
       <r>    -0.4952     0.7549    27.9390 </r>
       <r>    -0.3883     0.3533    27.9767 </r>
       <r>    -0.2814     0.0784    27.9851 </r>
       <r>    -0.1746     0.0092    27.9861 </r>
       <r>    -0.0677     0.0004    27.9861 </r>
       <r>     0.0392     0.0125    27.9875 </r>
       <r>     0.1460     0.1014    27.9983 </r>
       <r>     0.2529     0.1227    28.0114 </r>
       <r>     0.3598     0.0225    28.0138 </r>
       <r>     0.4666     0.0006    28.0139 </r>
       <r>     0.5735     0.0001    28.0139 </r>
       <r>     0.6804     0.0082    28.0148 </r>
       <r>     0.7872     0.1584    28.0317 </r>
       <r>     0.8941     0.4288    28.0775 </r>
       <r>     1.0010     0.1886    28.0977 </r>
       <r>     1.1078     0.1643    28.1152 </r>
       <r>     1.2147     0.4230    28.1604 </r>
       <r>     1.3216     0.6710    28.2321 </r>
       <r>     1.4284     1.3285    28.3741 </r>
       <r>     1.5353     3.3605    28.7332 </r>
       <r>     1.6422     2.5118    29.0017 </r>
       <r>     1.7490     0.5897    29.0647 </r>
       <r>     1.8559     0.5449    29.1229 </r>
       <r>     1.9628     1.0965    29.2401 </r>
       <r>     2.0696     1.5685    29.4077 </r>
       <r>     2.1765     2.4554    29.6701 </r>
       <r>     2.2834     1.9966    29.8835 </r>
       <r>     2.3902     0.8300    29.9722 </r>
       <r>     2.4971     0.8290    30.0608 </r>
       <r>     2.6040     1.2694    30.1964 </r>
       <r>     2.7108     0.9587    30.2989 </r>
       <r>     2.8177     1.0474    30.4108 </r>
       <r>     2.9246     0.9511    30.5125 </r>
       <r>     3.0314     1.3579    30.6576 </r>
       <r>     3.1383     1.3931    30.8065 </r>
       <r>     3.2452     0.8694    30.8994 </r>
       <r>     3.3520     0.6796    30.9720 </r>
       <r>     3.4589     1.3238    31.1135 </r>
       <r>     3.5658     1.5055    31.2743 </r>
       <r>     3.6726     1.2273    31.4055 </r>
       <r>     3.7795     1.3445    31.5492 </r>
       <r>     3.8864     1.1440    31.6714 </r>
       <r>     3.9932     1.5463    31.8367 </r>
       <r>     4.1001     1.9506    32.0451 </r>
       <r>     4.2070     2.2560    32.2862 </r>
       <r>     4.3138     2.6678    32.5713 </r>
       <r>     4.4207     2.7206    32.8621 </r>
       <r>     4.5276     3.3220    33.2171 </r>
       <r>     4.6344     3.0863    33.5469 </r>
       <r>     4.7413     3.1050    33.8787 </r>
       <r>     4.8482     3.0183    34.2013 </r>
       <r>     4.9550     3.2023    34.5435 </r>
       <r>     5.0619     3.1197    34.8769 </r>
       <r>     5.1688     2.2509    35.1174 </r>
       <r>     5.2756     2.4700    35.3814 </r>
       <r>     5.3825     3.0574    35.7081 </r>
       <r>     5.4894     3.0825    36.0376 </r>
       <r>     5.5962     3.0625    36.3648 </r>
       <r>     5.7031     3.1047    36.6966 </r>
       <r>     5.8100     3.6711    37.0890 </r>
       <r>     5.9168     3.3096    37.4426 </r>
       <r>     6.0237     2.0180    37.6583 </r>
       <r>     6.1306     2.9727    37.9760 </r>
       <r>     6.2374     3.4006    38.3394 </r>
       <r>     6.3443     2.5118    38.6078 </r>
       <r>     6.4512     2.9363    38.9216 </r>
       <r>     6.5580     2.9110    39.2327 </r>
       <r>     6.6649     2.0940    39.4565 </r>
       <r>     6.7718     2.3655    39.7093 </r>
       <r>     6.8786     2.6893    39.9967 </r>
       <r>     6.9855     2.2852    40.2409 </r>
       <r>     7.0924     2.4130    40.4988 </r>
       <r>     7.1992     3.8833    40.9138 </r>
       <r>     7.3061     3.7842    41.3182 </r>
       <r>     7.4130     3.2609    41.6667 </r>
       <r>     7.5198     2.0808    41.8890 </r>
       <r>     7.6267     2.2977    42.1346 </r>
       <r>     7.7336     2.6313    42.4158 </r>
       <r>     7.8404     3.4981    42.7896 </r>
       <r>     7.9473     3.2905    43.1412 </r>
       <r>     8.0542     2.8654    43.4475 </r>
       <r>     8.1610     3.5832    43.8304 </r>
       <r>     8.2679     3.5602    44.2109 </r>
       <r>     8.3748     3.6011    44.5957 </r>
       <r>     8.4816     2.6257    44.8763 </r>
       <r>     8.5885     2.3836    45.1310 </r>
       <r>     8.6954     3.3000    45.4837 </r>
       <r>     8.8022     4.4042    45.9544 </r>
       <r>     8.9091     5.0644    46.4956 </r>
       <r>     9.0160     4.5358    46.9803 </r>
       <r>     9.1228     4.4950    47.4607 </r>
       <r>     9.2297     2.8824    47.7687 </r>
       <r>     9.3366     1.4760    47.9264 </r>
       <r>     9.4434     0.5967    47.9902 </r>
       <r>     9.5503     0.0890    47.9997 </r>
       <r>     9.6572     0.0029    48.0000 </r>
       <r>     9.7640     0.0000    48.0000 </r>
       <r>     9.8709     0.0000    48.0000 </r>
       <r>     9.9778     0.0000    48.0000 </r>
       <r>    10.0846     0.0000    48.0000 </r>
       <r>    10.1915     0.0000    48.0000 </r>
       <r>    10.2984     0.0000    48.0000 </r>
       <r>    10.4052     0.0000    48.0000 </r>
       <r>    10.5121     0.0000    48.0000 </r>
       <r>    10.6190     0.0000    48.0000 </r>
       <r>    10.7258     0.0000    48.0000 </r>
       <r>    10.8327     0.0000    48.0000 </r>
      </set>
     </set>
    </array>
   </total>
  </dos>
 </calculation>
 <structure name="finalpos" >
  <crystal>
   <varray name="basis" >
    <v>       4.19516702       2.42140471       0.00154494 </v>
    <v>      -4.19537095       2.42175781       0.00031149 </v>
    <v>       0.00240576       0.00628510      13.34826148 </v>
   </varray>
   <i name="volume">    271.21485230 </i>
   <varray name="rec_basis" >
    <v>       0.11919058       0.20648172      -0.00011870 </v>
    <v>      -0.11917317       0.20647167      -0.00007574 </v>
    <v>      -0.00001101      -0.00002872       0.07491614 </v>
   </varray>
  </crystal>
  <varray name="positions" >
   <v>       0.00387569       0.00264668       0.08379120 </v>
   <v>       0.35895326       0.00260755       0.08211688 </v>
   <v>       0.00370201       0.35762740       0.08211515 </v>
   <v>       0.64884184       0.64738601       0.08210669 </v>
   <v>       0.32781481       0.32634807       0.08218223 </v>
   <v>       0.68006891       0.00267364       0.08206775 </v>
   <v>       0.00367305       0.67867506       0.08205278 </v>
   <v>       0.00026193       0.50012650       0.34377265 </v>
   <v>       0.16701398       0.33364603       0.34387054 </v>
   <v>       0.00028684       0.00017379       0.34385248 </v>
   <v>       0.16712686       0.83354097       0.34386464 </v>
   <v>       0.50032583       0.50019617       0.34377494 </v>
   <v>       0.66695514       0.33351304       0.34377550 </v>
   <v>       0.50020077       0.00019075       0.34376873 </v>
   <v>       0.66685974       0.83341569       0.34386716 </v>
  </varray>
 </structure>
</modeling>
