   8   8   0   4
  0.3882841E+02  0.4890000E-09  0.4890000E-09  0.1500000E-08  0.5000000E-15
  1.000000000000000E-004
  CAR 
 Graphene                                
     13.79031565    -23.57508738  301     -2.15642564      1.00000000
    -23.575  0.0000E+00  0.0000E+00
    -23.451  0.0000E+00  0.0000E+00
    -23.326  0.0000E+00  0.0000E+00
    -23.201  0.0000E+00  0.0000E+00
    -23.077  0.0000E+00  0.0000E+00
    -22.952  0.0000E+00  0.0000E+00
    -22.828  0.0000E+00  0.0000E+00
    -22.703  0.0000E+00  0.0000E+00
    -22.579  0.0000E+00  0.0000E+00
    -22.454  0.1857E-18  0.2313E-19
    -22.330  0.9266E-13  0.1154E-13
    -22.205  0.2466E-08  0.3072E-09
    -22.080  0.3942E-05  0.4913E-06
    -21.956  0.4489E-03  0.5640E-04
    -21.831  0.5015E-02  0.6811E-03
    -21.707  0.1108E-01  0.2061E-02
    -21.582  0.1214E-01  0.3574E-02
    -21.458  0.1176E-01  0.5039E-02
    -21.333  0.1289E-01  0.6645E-02
    -21.209  0.1155E-01  0.8083E-02
    -21.084  0.1166E-01  0.9535E-02
    -20.960  0.1464E-01  0.1136E-01
    -20.835  0.8602E-02  0.1243E-01
    -20.710  0.1432E-01  0.1421E-01
    -20.586  0.1425E-01  0.1599E-01
    -20.461  0.7926E-02  0.1698E-01
    -20.337  0.1341E-01  0.1865E-01
    -20.212  0.1607E-01  0.2065E-01
    -20.088  0.1035E-01  0.2194E-01
    -19.963  0.7929E-02  0.2292E-01
    -19.839  0.1632E-01  0.2496E-01
    -19.714  0.1613E-01  0.2697E-01
    -19.589  0.8035E-02  0.2797E-01
    -19.465  0.9939E-02  0.2920E-01
    -19.340  0.1389E-01  0.3093E-01
    -19.216  0.1781E-01  0.3315E-01
    -19.091  0.1203E-01  0.3465E-01
    -18.967  0.5798E-02  0.3537E-01
    -18.842  0.1268E-01  0.3695E-01
    -18.718  0.1782E-01  0.3917E-01
    -18.593  0.1460E-01  0.4099E-01
    -18.468  0.1161E-01  0.4244E-01
    -18.344  0.7783E-02  0.4341E-01
    -18.219  0.8855E-02  0.4451E-01
    -18.095  0.2283E-01  0.4735E-01
    -17.970  0.1356E-01  0.4904E-01
    -17.846  0.1089E-01  0.5040E-01
    -17.721  0.1034E-01  0.5169E-01
    -17.597  0.8799E-02  0.5278E-01
    -17.472  0.1522E-01  0.5468E-01
    -17.348  0.2283E-01  0.5752E-01
    -17.223  0.1141E-01  0.5894E-01
    -17.098  0.1003E-01  0.6019E-01
    -16.974  0.9732E-02  0.6140E-01
    -16.849  0.1320E-01  0.6305E-01
    -16.725  0.1987E-01  0.6552E-01
    -16.600  0.2253E-01  0.6833E-01
    -16.476  0.1605E-01  0.7033E-01
    -16.351  0.1284E-01  0.7193E-01
    -16.227  0.2891E-02  0.7229E-01
    -16.102  0.1142E-01  0.7371E-01
    -15.977  0.2274E-01  0.7654E-01
    -15.853  0.5329E-02  0.7721E-01
    -15.728  0.2026E-03  0.7723E-01
    -15.604  0.2574E-02  0.7755E-01
    -15.479  0.9898E-02  0.7879E-01
    -15.355  0.1785E-01  0.8101E-01
    -15.230  0.1317E-01  0.8265E-01
    -15.106  0.1214E-01  0.8416E-01
    -14.981  0.1019E-01  0.8543E-01
    -14.856  0.1232E-01  0.8697E-01
    -14.732  0.1921E-01  0.8936E-01
    -14.607  0.1393E-01  0.9109E-01
    -14.483  0.1742E-01  0.9326E-01
    -14.358  0.1864E-01  0.9559E-01
    -14.234  0.1415E-01  0.9735E-01
    -14.109  0.1223E-01  0.9887E-01
    -13.985  0.1067E-01  0.1002E+00
    -13.860  0.2249E-01  0.1030E+00
    -13.736  0.9451E-02  0.1042E+00
    -13.611  0.8515E-02  0.1052E+00
    -13.486  0.1047E-01  0.1065E+00
    -13.362  0.1833E-01  0.1088E+00
    -13.237  0.1204E-01  0.1103E+00
    -13.113  0.5622E-02  0.1110E+00
    -12.988  0.1095E-01  0.1124E+00
    -12.864  0.1445E-01  0.1142E+00
    -12.739  0.1347E-01  0.1159E+00
    -12.615  0.1785E-01  0.1181E+00
    -12.490  0.1013E-01  0.1194E+00
    -12.365  0.1038E-01  0.1206E+00
    -12.241  0.1911E-01  0.1230E+00
    -12.116  0.1520E-01  0.1249E+00
    -11.992  0.9966E-02  0.1262E+00
    -11.867  0.1542E-01  0.1281E+00
    -11.743  0.2080E-01  0.1307E+00
    -11.618  0.1927E-01  0.1331E+00
    -11.494  0.4142E-02  0.1336E+00
    -11.369  0.6665E-02  0.1344E+00
    -11.245  0.2391E-01  0.1374E+00
    -11.120  0.2774E-01  0.1408E+00
    -10.995  0.8751E-02  0.1419E+00
    -10.871  0.9719E-02  0.1431E+00
    -10.746  0.1842E-01  0.1454E+00
    -10.622  0.1728E-01  0.1476E+00
    -10.497  0.1441E-01  0.1494E+00
    -10.373  0.1769E-01  0.1516E+00
    -10.248  0.1651E-01  0.1536E+00
    -10.124  0.2233E-01  0.1564E+00
     -9.999  0.1789E-01  0.1587E+00
     -9.874  0.1709E-01  0.1608E+00
     -9.750  0.2331E-01  0.1637E+00
     -9.625  0.4192E-01  0.1689E+00
     -9.501  0.3128E-01  0.1728E+00
     -9.376  0.1725E-01  0.1750E+00
     -9.252  0.3042E-01  0.1787E+00
     -9.127  0.4265E-01  0.1841E+00
     -9.003  0.3534E-01  0.1885E+00
     -8.878  0.3142E-01  0.1924E+00
     -8.753  0.3080E-01  0.1962E+00
     -8.629  0.4106E-01  0.2013E+00
     -8.504  0.5504E-01  0.2082E+00
     -8.380  0.4420E-01  0.2137E+00
     -8.255  0.2293E-01  0.2165E+00
     -8.131  0.2803E-01  0.2200E+00
     -8.006  0.3580E-01  0.2245E+00
     -7.882  0.3466E-01  0.2288E+00
     -7.757  0.1973E-01  0.2313E+00
     -7.633  0.2929E-01  0.2349E+00
     -7.508  0.3690E-01  0.2395E+00
     -7.383  0.2090E-01  0.2421E+00
     -7.259  0.1881E-01  0.2445E+00
     -7.134  0.2956E-01  0.2481E+00
     -7.010  0.2539E-01  0.2513E+00
     -6.885  0.2469E-01  0.2544E+00
     -6.761  0.2595E-01  0.2576E+00
     -6.636  0.2720E-01  0.2610E+00
     -6.512  0.1506E-01  0.2629E+00
     -6.387  0.1620E-01  0.2649E+00
     -6.262  0.3118E-01  0.2688E+00
     -6.138  0.3490E-01  0.2731E+00
     -6.013  0.1458E-01  0.2749E+00
     -5.889  0.1207E-01  0.2764E+00
     -5.764  0.2242E-01  0.2792E+00
     -5.640  0.2887E-01  0.2828E+00
     -5.515  0.2422E-01  0.2858E+00
     -5.391  0.2369E-01  0.2888E+00
     -5.266  0.1969E-01  0.2912E+00
     -5.141  0.1200E-01  0.2927E+00
     -5.017  0.1278E-01  0.2943E+00
     -4.892  0.2222E-01  0.2971E+00
     -4.768  0.2433E-01  0.3001E+00
     -4.643  0.1956E-01  0.3026E+00
     -4.519  0.1507E-01  0.3044E+00
     -4.394  0.7795E-02  0.3054E+00
     -4.270  0.2083E-01  0.3080E+00
     -4.145  0.2875E-01  0.3116E+00
     -4.021  0.6274E-02  0.3124E+00
     -3.896  0.4265E-02  0.3129E+00
     -3.771  0.3268E-02  0.3133E+00
     -3.647  0.9277E-02  0.3145E+00
     -3.522  0.1233E-01  0.3160E+00
     -3.398  0.8938E-02  0.3171E+00
     -3.273  0.1926E-02  0.3174E+00
     -3.149  0.4137E-02  0.3179E+00
     -3.024  0.1569E-02  0.3181E+00
     -2.900  0.3032E-02  0.3184E+00
     -2.775  0.8254E-02  0.3195E+00
     -2.650  0.2018E-02  0.3197E+00
     -2.526  0.3600E-04  0.3197E+00
     -2.401  0.1224E-05  0.3197E+00
     -2.277  0.1966E-03  0.3197E+00
     -2.152  0.2137E-02  0.3200E+00
     -2.028  0.1972E-02  0.3203E+00
     -1.903  0.1525E-03  0.3203E+00
     -1.779  0.9539E-06  0.3203E+00
     -1.654  0.1034E-03  0.3203E+00
     -1.529  0.3306E-02  0.3207E+00
     -1.405  0.8170E-02  0.3217E+00
     -1.280  0.2464E-02  0.3220E+00
     -1.156  0.3959E-02  0.3225E+00
     -1.031  0.2050E-02  0.3228E+00
     -0.907  0.3894E-02  0.3233E+00
     -0.782  0.1983E-01  0.3257E+00
     -0.658  0.1385E-01  0.3275E+00
     -0.533  0.8782E-02  0.3285E+00
     -0.409  0.2231E-01  0.3313E+00
     -0.284  0.2155E-01  0.3340E+00
     -0.159  0.2341E-01  0.3369E+00
     -0.035  0.2060E-01  0.3395E+00
      0.090  0.8490E-02  0.3406E+00
      0.214  0.1391E-01  0.3423E+00
      0.339  0.8896E-02  0.3434E+00
      0.463  0.9018E-02  0.3445E+00
      0.588  0.1163E-01  0.3460E+00
      0.712  0.2281E-01  0.3488E+00
      0.837  0.8107E-02  0.3498E+00
      0.962  0.3532E-02  0.3503E+00
      1.086  0.1518E-01  0.3521E+00
      1.211  0.1958E-01  0.3546E+00
      1.335  0.1550E-01  0.3565E+00
      1.460  0.1872E-01  0.3588E+00
      1.584  0.2004E-01  0.3613E+00
      1.709  0.2402E-01  0.3643E+00
      1.833  0.1716E-01  0.3665E+00
      1.958  0.1033E-01  0.3678E+00
      2.082  0.2255E-01  0.3706E+00
      2.207  0.3068E-01  0.3744E+00
      2.332  0.2861E-01  0.3779E+00
      2.456  0.2771E-01  0.3814E+00
      2.581  0.2868E-01  0.3850E+00
      2.705  0.3675E-01  0.3895E+00
      2.830  0.3528E-01  0.3939E+00
      2.954  0.2596E-01  0.3972E+00
      3.079  0.2896E-01  0.4008E+00
      3.203  0.4285E-01  0.4061E+00
      3.328  0.3219E-01  0.4101E+00
      3.453  0.3782E-01  0.4148E+00
      3.577  0.3403E-01  0.4191E+00
      3.702  0.2767E-01  0.4225E+00
      3.826  0.3076E-01  0.4264E+00
      3.951  0.3171E-01  0.4303E+00
      4.075  0.3942E-01  0.4352E+00
      4.200  0.3471E-01  0.4395E+00
      4.324  0.3873E-01  0.4444E+00
      4.449  0.2601E-01  0.4476E+00
      4.574  0.3303E-01  0.4517E+00
      4.698  0.4981E-01  0.4579E+00
      4.823  0.5123E-01  0.4643E+00
      4.947  0.3100E-01  0.4682E+00
      5.072  0.3188E-01  0.4721E+00
      5.196  0.4237E-01  0.4774E+00
      5.321  0.6396E-01  0.4854E+00
      5.445  0.6492E-01  0.4935E+00
      5.570  0.6888E-01  0.5020E+00
      5.694  0.5549E-01  0.5090E+00
      5.819  0.7899E-01  0.5188E+00
      5.944  0.5316E-01  0.5254E+00
      6.068  0.5092E-01  0.5318E+00
      6.193  0.1043E+00  0.5447E+00
      6.317  0.1096E+00  0.5584E+00
      6.442  0.8649E-01  0.5692E+00
      6.566  0.8843E-01  0.5802E+00
      6.691  0.7849E-01  0.5900E+00
      6.815  0.6457E-01  0.5980E+00
      6.940  0.6754E-01  0.6064E+00
      7.065  0.8222E-01  0.6167E+00
      7.189  0.9787E-01  0.6288E+00
      7.314  0.7275E-01  0.6379E+00
      7.438  0.7011E-01  0.6466E+00
      7.563  0.4944E-01  0.6528E+00
      7.687  0.4876E-01  0.6589E+00
      7.812  0.6465E-01  0.6669E+00
      7.936  0.7029E-01  0.6757E+00
      8.061  0.6788E-01  0.6841E+00
      8.186  0.7924E-01  0.6940E+00
      8.310  0.7427E-01  0.7033E+00
      8.435  0.7356E-01  0.7124E+00
      8.559  0.8300E-01  0.7227E+00
      8.684  0.7853E-01  0.7325E+00
      8.808  0.8934E-01  0.7437E+00
      8.933  0.7250E-01  0.7527E+00
      9.057  0.7035E-01  0.7614E+00
      9.182  0.6667E-01  0.7698E+00
      9.306  0.8202E-01  0.7800E+00
      9.431  0.1000E+00  0.7924E+00
      9.556  0.9336E-01  0.8041E+00
      9.680  0.7375E-01  0.8132E+00
      9.805  0.6932E-01  0.8219E+00
      9.929  0.6800E-01  0.8303E+00
     10.054  0.5454E-01  0.8371E+00
     10.178  0.6817E-01  0.8456E+00
     10.303  0.1025E+00  0.8584E+00
     10.427  0.9487E-01  0.8702E+00
     10.552  0.8863E-01  0.8812E+00
     10.677  0.9282E-01  0.8928E+00
     10.801  0.6354E-01  0.9007E+00
     10.926  0.9279E-01  0.9123E+00
     11.050  0.1087E+00  0.9258E+00
     11.175  0.6083E-01  0.9334E+00
     11.299  0.5200E-01  0.9399E+00
     11.424  0.5085E-01  0.9462E+00
     11.548  0.4620E-01  0.9520E+00
     11.673  0.1743E-01  0.9541E+00
     11.797  0.1881E-01  0.9565E+00
     11.922  0.1264E-01  0.9580E+00
     12.047  0.5773E-02  0.9588E+00
     12.171  0.8182E-02  0.9598E+00
     12.296  0.1729E-02  0.9600E+00
     12.420  0.2639E-04  0.9600E+00
     12.545  0.2289E-07  0.9600E+00
     12.669  0.1005E-11  0.9600E+00
     12.794  0.2971E-17  0.9600E+00
     12.918  0.0000E+00  0.9600E+00
     13.043  0.0000E+00  0.9600E+00
     13.168  0.0000E+00  0.9600E+00
     13.292  0.0000E+00  0.9600E+00
     13.417  0.0000E+00  0.9600E+00
     13.541  0.0000E+00  0.9600E+00
     13.666  0.0000E+00  0.9600E+00
     13.790  0.0000E+00  0.9600E+00
