 ----------------------------------------------------
    OOO  PPPP  EEEEE N   N M   M PPPP
   O   O P   P E     NN  N MM MM P   P
   O   O PPPP  EEEEE N N N M M M PPPP   -- VERSION
   O   O P     E     N  NN M   M P
    OOO  P     EEEEE N   N M   M P
 ----------------------------------------------------
 running   48 mpi-ranks, with    1 threads/rank
 distrk:  each k-point on   48 cores,    1 groups
 distr:  one band on    1 cores,   48 groups
 vasp.6.3.2 27Jun22 (build Dec 22 2022 13:13:19) complex                        
  
 POSCAR found type information on POSCAR B C 
 POSCAR found :  2 types and      16 ions
 Reading from existing POTCAR
 -----------------------------------------------------------------------------
|                                                                             |
|           W    W    AA    RRRRR   N    N  II  N    N   GGGG   !!!           |
|           W    W   A  A   R    R  NN   N  II  NN   N  G    G  !!!           |
|           W    W  A    A  R    R  N N  N  II  N N  N  G       !!!           |
|           W WW W  AAAAAA  RRRRR   N  N N  II  N  N N  G  GGG   !            |
|           WW  WW  A    A  R   R   N   NN  II  N   NN  G    G                |
|           W    W  A    A  R    R  N    N  II  N    N   GGGG   !!!           |
|                                                                             |
|     You use a magnetic or noncollinear calculation, but did not specify     |
|     the initial magnetic moment with the MAGMOM tag. Note that a            |
|     default of 1 will be used for all atoms. This ferromagnetic setup       |
|     may break the symmetry of the crystal, in particular it may rule        |
|     out finding an antiferromagnetic solution. Thence, we recommend         |
|     setting the initial magnetic moment manually or verifying carefully     |
|     that this magnetic setup is desired.                                    |
|                                                                             |
 -----------------------------------------------------------------------------

 scaLAPACK will be used
 Reading from existing POTCAR
 LDA part: xc-table for Pade appr. of Perdew
 POSCAR found type information on POSCAR B C 
 POSCAR found :  2 types and      16 ions
 POSCAR, INCAR and KPOINTS ok, starting setup
 FFT: planning ... GRIDC
 FFT: planning ... GRID_SOFT
 FFT: planning ... GRID
 WAVECAR not read
 entering main loop
       N       E                     dE             d eps       ncg     rms          rms(c)
DAV:   1     0.187823983269E+03    0.18782E+03   -0.25298E+04  3648   0.862E+02
DAV:   2    -0.117497647135E+03   -0.30532E+03   -0.30455E+03  5808   0.156E+02
DAV:   3    -0.127188820672E+03   -0.96912E+01   -0.96667E+01  6336   0.370E+01
DAV:   4    -0.127210116145E+03   -0.21295E-01   -0.21291E-01  5328   0.158E+00
DAV:   5    -0.127210162319E+03   -0.46174E-04   -0.46173E-04  5904   0.819E-02    0.223E+01
DAV:   6    -0.942395418797E+02    0.32971E+02   -0.58417E+01  4848   0.216E+01    0.121E+01
DAV:   7    -0.105449557248E+03   -0.11210E+02   -0.13539E+01  5328   0.109E+01    0.663E+00
DAV:   8    -0.111364264637E+03   -0.59147E+01   -0.50746E+00  5232   0.642E+00    0.370E+00
DAV:   9    -0.116666435896E+03   -0.53022E+01   -0.27974E+00  4560   0.468E+00    0.252E+00
DAV:  10    -0.120816240112E+03   -0.41498E+01   -0.32071E+00  5472   0.473E+00    0.135E+00
DAV:  11    -0.122736188456E+03   -0.19199E+01   -0.15145E+00  5136   0.286E+00    0.813E-01
DAV:  12    -0.123721305217E+03   -0.98512E+00   -0.78318E-01  5952   0.192E+00    0.409E-01
DAV:  13    -0.124034380248E+03   -0.31308E+00   -0.19819E-01  5136   0.973E-01    0.196E-01
DAV:  14    -0.124088700103E+03   -0.54320E-01   -0.30439E-02  4656   0.409E-01    0.108E-01
DAV:  15    -0.124110870706E+03   -0.22171E-01   -0.13825E-02  4320   0.292E-01    0.582E-02
DAV:  16    -0.124112755509E+03   -0.18848E-02   -0.25192E-03  4272   0.179E-01    0.361E-02
DAV:  17    -0.124113606095E+03   -0.85059E-03   -0.71748E-04  4176   0.888E-02    0.158E-02
DAV:  18    -0.124113625329E+03   -0.19234E-04   -0.16668E-04  3936   0.469E-02    0.826E-03
DAV:  19    -0.124113674352E+03   -0.49023E-04   -0.33441E-05  4080   0.260E-02    0.488E-03
DAV:  20    -0.124113701544E+03   -0.27192E-04   -0.16037E-05  3840   0.166E-02    0.359E-03
DAV:  21    -0.124113743187E+03   -0.41643E-04   -0.15741E-05  3840   0.152E-02    0.222E-03
DAV:  22    -0.124113766859E+03   -0.23672E-04   -0.55863E-06  4224   0.927E-03    0.130E-03
DAV:  23    -0.124113771067E+03   -0.42082E-05   -0.21508E-06  5424   0.577E-03    0.648E-04
DAV:  24    -0.124113774641E+03   -0.35745E-05   -0.53819E-07  4752   0.278E-03    0.337E-04
DAV:  25    -0.124113776028E+03   -0.13870E-05   -0.23941E-07  4608   0.185E-03    0.176E-04
DAV:  26    -0.124113776415E+03   -0.38663E-06   -0.11924E-07  5760   0.137E-03
   1 F= -.12558695E+03 E0= -.12558392E+03  d E =-.125587E+03  mag=     0.0000
 curvature:   0.00 expect dE= 0.000E+00 dE for cont linesearch  0.000E+00
 trial: gam= 0.00000 g(F)=  0.153E-02 g(S)=  0.000E+00 ort = 0.000E+00 (trialstep = 0.100E+01)
 search vector abs. value=  0.153E-02
 bond charge predicted
       N       E                     dE             d eps       ncg     rms          rms(c)
DAV:   1    -0.124114435563E+03   -0.65953E-03   -0.11326E-01  3696   0.927E-01    0.109E-01
DAV:   2    -0.124113924090E+03    0.51147E-03   -0.26339E-03  5760   0.135E-01    0.492E-02
DAV:   3    -0.124113837607E+03    0.86483E-04   -0.42253E-04  5760   0.464E-02    0.134E-02
DAV:   4    -0.124113834756E+03    0.28510E-05   -0.30860E-05  5088   0.141E-02    0.497E-03
DAV:   5    -0.124113834640E+03    0.11644E-06   -0.17223E-06  5568   0.352E-03
   2 F= -.12558714E+03 E0= -.12558412E+03  d E =-.189962E-03  mag=     0.0000
 trial-energy change:   -0.000190  1 .order   -0.000187   -0.001530    0.001156
 step:   0.5696(harm=  0.5696)  dis= 0.00196  next Energy=  -125.587384 (dE=-0.436E-03)
 bond charge predicted
       N       E                     dE             d eps       ncg     rms          rms(c)
DAV:   1    -0.124114248145E+03   -0.41339E-03   -0.20852E-02  3792   0.397E-01    0.472E-02
DAV:   2    -0.124114153124E+03    0.95020E-04   -0.49112E-04  5616   0.579E-02    0.212E-02
DAV:   3    -0.124114137652E+03    0.15473E-04   -0.79457E-05  5040   0.201E-02    0.572E-03
DAV:   4    -0.124114137335E+03    0.31681E-06   -0.62969E-06  5376   0.641E-03
   3 F= -.12558738E+03 E0= -.12558437E+03  d E =-.436199E-03  mag=     0.0000
 curvature:  -0.28 expect dE=-0.168E-04 dE for cont linesearch -0.922E-11
 trial: gam= 0.03876 g(F)=  0.591E-04 g(S)=  0.000E+00 ort =-0.223E-06 (trialstep = 0.914E+00)
 search vector abs. value=  0.614E-04
 bond charge predicted
       N       E                     dE             d eps       ncg     rms          rms(c)
DAV:   1    -0.124114144438E+03   -0.67866E-05   -0.49981E-03  3744   0.261E-01    0.121E-02
DAV:   2    -0.124114143547E+03    0.89155E-06   -0.57578E-05  3648   0.298E-02    0.755E-03
DAV:   3    -0.124114143021E+03    0.52517E-06   -0.71738E-06  4032   0.933E-03
   4 F= -.12558744E+03 E0= -.12558442E+03  d E =-.539247E-04  mag=     0.0000
 ZBRENT: can't locate minimum, use default step
 trial-energy change:   -0.000054  1 .order   -0.000053   -0.000054   -0.000052
 step:   3.6557(harm= 23.1697)  dis= 0.00200  next Energy=  -125.588069 (dE=-0.684E-03)
 bond charge predicted
       N       E                     dE             d eps       ncg     rms          rms(c)
DAV:   1    -0.124114170304E+03   -0.26758E-04   -0.45129E-02  3648   0.784E-01    0.370E-02
DAV:   2    -0.124114164849E+03    0.54557E-05   -0.51560E-04  3936   0.895E-02    0.230E-02
DAV:   3    -0.124114158476E+03    0.63724E-05   -0.64969E-05  4656   0.278E-02    0.569E-03
DAV:   4    -0.124114159076E+03   -0.60030E-06   -0.82907E-06  3984   0.104E-02
   5 F= -.12558760E+03 E0= -.12558458E+03  d E =-.214940E-03  mag=     0.0000
 curvature:  -2.78 expect dE=-0.175E-03 dE for cont linesearch -0.155E-03
 ZBRENT: increasing intervall
 opt :   9.1392  next Energy=  -125.587930 (dE=-0.546E-03)
 bond charge predicted
       N       E                     dE             d eps       ncg     rms          rms(c)
DAV:   1    -0.124114233578E+03   -0.75102E-04   -0.18007E-01  3648   0.157E+00    0.731E-02
DAV:   2    -0.124114215887E+03    0.17692E-04   -0.20745E-03  3984   0.179E-01    0.455E-02
DAV:   3    -0.124114186682E+03    0.29205E-04   -0.25560E-04  4800   0.549E-02    0.113E-02
DAV:   4    -0.124114188512E+03   -0.18303E-05   -0.31920E-05  4176   0.213E-02    0.502E-03
DAV:   5    -0.124114189572E+03   -0.10601E-05   -0.45192E-06  3648   0.940E-03    0.214E-03
DAV:   6    -0.124114188583E+03    0.98940E-06   -0.17922E-06  3744   0.569E-03
   6 F= -.12558792E+03 E0= -.12558490E+03  d E =-.535402E-03  mag=     0.0000
 curvature:  -5.92 expect dE=-0.527E-03 dE for cont linesearch -0.321E-03
 ZBRENT: increasing intervall
 opt :  20.1061  next Energy=  -125.588543 (dE=-0.116E-02)
 bond charge predicted
       N       E                     dE             d eps       ncg     rms          rms(c)
DAV:   1    -0.124114416378E+03   -0.22681E-03   -0.72006E-01  3648   0.313E+00    0.146E-01
DAV:   2    -0.124114352919E+03    0.63459E-04   -0.83056E-03  3840   0.357E-01    0.906E-02
DAV:   3    -0.124114228501E+03    0.12442E-03   -0.10277E-03  4992   0.110E-01    0.226E-02
DAV:   4    -0.124114232643E+03   -0.41419E-05   -0.11601E-04  4848   0.379E-02    0.956E-03
DAV:   5    -0.124114233043E+03   -0.39982E-06   -0.80950E-06  3936   0.110E-02
   7 F= -.12558855E+03 E0= -.12558553E+03  d E =-.116558E-02  mag=    -0.0000
 curvature: -11.50 expect dE=-0.242E-02 dE for cont linesearch -0.568E-03
 ZBRENT: increasing intervall
 opt :  42.0401  next Energy=  -125.589699 (dE=-0.231E-02)
 bond charge predicted
       N       E                     dE             d eps       ncg     rms          rms(c)
DAV:   1    -0.124114977317E+03   -0.74467E-03   -0.28802E+00  3648   0.626E+00    0.291E-01
DAV:   2    -0.124114734976E+03    0.24234E-03   -0.33246E-02  4032   0.715E-01    0.181E-01
DAV:   3    -0.124114253902E+03    0.48107E-03   -0.40787E-03  4224   0.219E-01    0.450E-02
DAV:   4    -0.124114267792E+03   -0.13890E-04   -0.50098E-04  5328   0.787E-02    0.193E-02
DAV:   5    -0.124114265785E+03    0.20072E-05   -0.31043E-05  4512   0.220E-02    0.615E-03
DAV:   6    -0.124114260967E+03    0.48177E-05   -0.10101E-05  4176   0.130E-02    0.264E-03
DAV:   7    -0.124114262838E+03   -0.18707E-05   -0.31706E-06  3888   0.610E-03    0.130E-03
DAV:   8    -0.124114269766E+03   -0.69279E-05   -0.32166E-06  4320   0.716E-03    0.983E-04
DAV:   9    -0.124114273567E+03   -0.38015E-05   -0.44666E-06  4368   0.898E-03    0.673E-04
DAV:  10    -0.124114277223E+03   -0.36552E-05   -0.31522E-06  4416   0.749E-03    0.300E-04
DAV:  11    -0.124114282272E+03   -0.50493E-05   -0.16988E-06  4416   0.470E-03    0.300E-04
DAV:  12    -0.124114283043E+03   -0.77149E-06   -0.20658E-07  5376   0.175E-03
   8 F= -.12558979E+03 E0= -.12558677E+03  d E =-.240392E-02  mag=    -0.0000
 curvature: -23.28 expect dE=-0.175E-01 dE for cont linesearch -0.116E-02
 ZBRENT: increasing intervall
 opt :  85.9081  next Energy=  -125.592220 (dE=-0.484E-02)
 bond charge predicted
       N       E                     dE             d eps       ncg     rms          rms(c)
DAV:   1    -0.124117008720E+03   -0.27264E-02   -0.11510E+01  3648   0.125E+01    0.582E-01
DAV:   2    -0.124116097547E+03    0.91117E-03   -0.13315E-01  3744   0.143E+00    0.363E-01
DAV:   3    -0.124114153370E+03    0.19442E-02   -0.16739E-02  5856   0.440E-01    0.888E-02
DAV:   4    -0.124114193840E+03   -0.40470E-04   -0.16306E-03  5760   0.142E-01    0.395E-02
DAV:   5    -0.124114164279E+03    0.29561E-04   -0.77177E-05  4512   0.275E-02    0.766E-03
DAV:   6    -0.124114160428E+03    0.38501E-05   -0.15980E-05  5568   0.107E-02    0.420E-03
DAV:   7    -0.124114163548E+03   -0.31193E-05   -0.19940E-06  4416   0.411E-03    0.234E-03
DAV:   8    -0.124114172711E+03   -0.91630E-05   -0.18618E-06  4368   0.339E-03    0.177E-03
DAV:   9    -0.124114180762E+03   -0.80514E-05   -0.58099E-07  4848   0.161E-03    0.926E-04
DAV:  10    -0.124114191548E+03   -0.10786E-04   -0.12209E-06  4128   0.244E-03    0.576E-04
DAV:  11    -0.124114195712E+03   -0.41641E-05   -0.44852E-07  4944   0.212E-03    0.508E-04
DAV:  12    -0.124114199752E+03   -0.40399E-05   -0.65592E-07  3984   0.202E-03    0.138E-04
DAV:  13    -0.124114199912E+03   -0.16017E-06   -0.14142E-07  6048   0.157E-03
   9 F= -.12559215E+03 E0= -.12558914E+03  d E =-.476357E-02  mag=     0.0000
 curvature: -48.91 expect dE=-0.145E+00 dE for cont linesearch -0.219E-02
 ZBRENT: increasing intervall
 opt : 173.6440  next Energy=  -125.596509 (dE=-0.912E-02)
 bond charge predicted
       N       E                     dE             d eps       ncg     rms          rms(c)
DAV:   1    -0.124123786042E+03   -0.95863E-02   -0.45961E+01  3648   0.250E+01    0.116E+00
DAV:   2    -0.124121212849E+03    0.25732E-02   -0.53897E-01  3648   0.289E+00    0.726E-01
DAV:   3    -0.124113252124E+03    0.79607E-02   -0.66520E-02  5952   0.878E-01    0.181E-01
DAV:   4    -0.124113382922E+03   -0.13080E-03   -0.61570E-03  5568   0.279E-01    0.802E-02
DAV:   5    -0.124113286649E+03    0.96273E-04   -0.32240E-04  4704   0.545E-02    0.155E-02
DAV:   6    -0.124113272803E+03    0.13846E-04   -0.75931E-05  5712   0.233E-02    0.718E-03
DAV:   7    -0.124113295366E+03   -0.22562E-04   -0.12972E-05  3840   0.107E-02    0.392E-03
DAV:   8    -0.124113315935E+03   -0.20570E-04   -0.46915E-06  4800   0.736E-03    0.347E-03
DAV:   9    -0.124113333810E+03   -0.17875E-04   -0.26079E-06  4416   0.538E-03    0.174E-03
DAV:  10    -0.124113356765E+03   -0.22956E-04   -0.36320E-06  4512   0.506E-03    0.114E-03
DAV:  11    -0.124113367380E+03   -0.10614E-04   -0.32238E-06  4416   0.685E-03    0.649E-04
DAV:  12    -0.124113372355E+03   -0.49756E-05   -0.38457E-06  4464   0.805E-03    0.292E-04
DAV:  13    -0.124113373478E+03   -0.11230E-05   -0.10253E-06  4464   0.407E-03    0.992E-05
DAV:  14    -0.124113373588E+03   -0.10922E-06   -0.27767E-08  5808   0.641E-04
  10 F= -.12559649E+03 E0= -.12559348E+03  d E =-.910110E-02  mag=     0.0000
 curvature: -97.19 expect dE=-0.116E+01 dE for cont linesearch -0.332E-02
 ZBRENT: increasing intervall
 opt : 349.1158  next Energy=  -125.603353 (dE=-0.160E-01)
 bond charge predicted
       N       E                     dE             d eps       ncg     rms          rms(c)
DAV:   1    -0.124140762475E+03   -0.27389E-01   -0.18263E+02  3648   0.498E+01    0.231E+00
DAV:   2    -0.124139732405E+03    0.10301E-02   -0.22333E+00  3744   0.595E+00    0.146E+00
DAV:   3    -0.124108542249E+03    0.31190E-01   -0.25586E-01  6048   0.172E+00    0.388E-01
DAV:   4    -0.124109128066E+03   -0.58582E-03   -0.22379E-02  5616   0.530E-01    0.166E-01
DAV:   5    -0.124108630858E+03    0.49721E-03   -0.14803E-03  5376   0.106E-01    0.323E-02
DAV:   6    -0.124108576840E+03    0.54018E-04   -0.25052E-04  5856   0.426E-02    0.149E-02
DAV:   7    -0.124108637469E+03   -0.60629E-04   -0.58081E-05  4704   0.212E-02    0.806E-03
DAV:   8    -0.124108696104E+03   -0.58635E-04   -0.12007E-05  4320   0.800E-03    0.632E-03
DAV:   9    -0.124108744778E+03   -0.48674E-04   -0.59536E-06  5088   0.554E-03    0.285E-03
DAV:  10    -0.124108781329E+03   -0.36551E-04   -0.44366E-06  4704   0.434E-03    0.207E-03
DAV:  11    -0.124108804866E+03   -0.23537E-04   -0.32934E-06  4944   0.352E-03    0.117E-03
DAV:  12    -0.124108814846E+03   -0.99803E-05   -0.13427E-06  4128   0.246E-03    0.322E-04
DAV:  13    -0.124108817373E+03   -0.25265E-05   -0.28809E-07  5184   0.175E-03    0.161E-04
DAV:  14    -0.124108818250E+03   -0.87717E-06   -0.10094E-07  4176   0.113E-03
  11 F= -.12560347E+03 E0= -.12560046E+03  d E =-.160863E-01  mag=     0.0000
 curvature: ****** expect dE=-0.971E+01 dE for cont linesearch -0.366E-02
 ZBRENT: increasing intervall
 opt : 700.0595  next Energy=  -125.610880 (dE=-0.235E-01)
 bond charge predicted
       N       E                     dE             d eps       ncg     rms          rms(c)
DAV:   1    -0.124094543985E+03    0.14273E-01   -0.71145E+02  3648   0.978E+01    0.452E+00
DAV:   2    -0.124216848934E+03   -0.12230E+00   -0.99594E+00  4032   0.129E+01    0.293E+00
DAV:   3    -0.124087076678E+03    0.12977E+00   -0.86179E-01  5952   0.319E+00    0.976E-01
DAV:   4    -0.124089285922E+03   -0.22092E-02   -0.77388E-02  5952   0.102E+00    0.335E-01
DAV:   5    -0.124087520049E+03    0.17659E-02   -0.80124E-03  5760   0.227E-01    0.573E-02
DAV:   6    -0.124087333260E+03    0.18679E-03   -0.64989E-04  6144   0.722E-02    0.286E-02
DAV:   7    -0.124087508028E+03   -0.17477E-03   -0.24215E-04  4320   0.449E-02    0.153E-02
DAV:   8    -0.124087639422E+03   -0.13139E-03   -0.49753E-05  4224   0.167E-02    0.131E-02
DAV:   9    -0.124087730837E+03   -0.91415E-04   -0.16529E-05  5328   0.107E-02    0.651E-03
DAV:  10    -0.124087810289E+03   -0.79452E-04   -0.14567E-05  4608   0.926E-03    0.446E-03
DAV:  11    -0.124087860683E+03   -0.50395E-04   -0.11120E-05  5184   0.711E-03    0.229E-03
DAV:  12    -0.124087875933E+03   -0.15250E-04   -0.23843E-06  5136   0.444E-03    0.842E-04
DAV:  13    -0.124087881012E+03   -0.50782E-05   -0.89201E-07  4752   0.382E-03    0.430E-04
DAV:  14    -0.124087883464E+03   -0.24528E-05   -0.39874E-07  4896   0.264E-03    0.221E-04
DAV:  15    -0.124087885647E+03   -0.21830E-05   -0.25907E-07  4272   0.157E-03    0.898E-05
DAV:  16    -0.124087885941E+03   -0.29343E-06   -0.35919E-08  5616   0.736E-04
  12 F= -.12561143E+03 E0= -.12560838E+03  d E =-.240407E-01  mag=    -0.0000
 curvature: ****** expect dE=-0.792E+02 dE for cont linesearch -0.929E-03
 ZBRENT: increasing intervall
 opt : ********  next Energy=  -125.604571 (dE=-0.172E-01)
 bond charge predicted
       N       E                     dE             d eps       ncg     rms          rms(c)
DAV:   1    -0.122778832625E+03    0.13091E+01   -0.25582E+03  3648   0.180E+02    0.878E+00
DAV:   2    -0.124540583896E+03   -0.17618E+01   -0.49175E+01  3648   0.295E+01    0.580E+00
DAV:   3    -0.124076993613E+03    0.46359E+00   -0.24302E+00  6624   0.562E+00    0.296E+00
DAV:   4    -0.123997434053E+03    0.79560E-01   -0.50291E-01  5952   0.246E+00    0.638E-01
DAV:   5    -0.123993836597E+03    0.35975E-02   -0.32924E-02  5568   0.593E-01    0.174E-01
DAV:   6    -0.123992031931E+03    0.18047E-02   -0.57283E-03  6816   0.202E-01    0.690E-02
DAV:   7    -0.123991990786E+03    0.41144E-04   -0.11793E-03  4704   0.102E-01    0.309E-02
DAV:   8    -0.123992340683E+03   -0.34990E-03   -0.31218E-04  4128   0.456E-02    0.237E-02
DAV:   9    -0.123992583126E+03   -0.24244E-03   -0.14506E-04  4320   0.306E-02    0.145E-02
DAV:  10    -0.123992653726E+03   -0.70600E-04   -0.18097E-05  5760   0.102E-02    0.119E-02
DAV:  11    -0.123992716843E+03   -0.63117E-04   -0.24840E-05  4512   0.118E-02    0.400E-03
DAV:  12    -0.123992744983E+03   -0.28140E-04   -0.51740E-06  5568   0.556E-03    0.268E-03
DAV:  13    -0.123992756945E+03   -0.11962E-04   -0.16677E-06  5520   0.334E-03    0.149E-03
DAV:  14    -0.123992760445E+03   -0.35007E-05   -0.17156E-07  5616   0.114E-03    0.657E-04
DAV:  15    -0.123992763355E+03   -0.29094E-05   -0.18194E-07  4416   0.937E-04    0.157E-04
DAV:  16    -0.123992764107E+03   -0.75185E-06   -0.28097E-08  5280   0.328E-04
  13 F= -.12560707E+03 E0= -.12560367E+03  d E =-.196864E-01  mag=     0.0000
 curvature: ****** expect dE= 0.238E+04 dE for cont linesearch  0.307E-01
 ZBRENT: bracketing found
 ZBRENT: interpolating
 opt : 925.3565  next Energy=  -125.612760 (dE=-0.254E-01)
 bond charge predicted
       N       E                     dE             d eps       ncg     rms          rms(c)
DAV:   1    -0.123894151091E+03    0.98612E-01   -0.12725E+03  3648   0.130E+02    0.611E+00
DAV:   2    -0.124306480901E+03   -0.41233E+00   -0.20081E+01  3648   0.187E+01    0.400E+00
DAV:   3    -0.124075518493E+03    0.23096E+00   -0.13086E+00  6432   0.404E+00    0.165E+00
DAV:   4    -0.124067608315E+03    0.79102E-02   -0.16011E-01  5664   0.148E+00    0.440E-01
DAV:   5    -0.124065592488E+03    0.20158E-02   -0.21445E-02  5472   0.413E-01    0.803E-02
DAV:   6    -0.124065313035E+03    0.27945E-03   -0.79046E-04  6432   0.894E-02    0.452E-02
DAV:   7    -0.124065164960E+03    0.14808E-03   -0.51834E-04  3936   0.630E-02    0.199E-02
DAV:   8    -0.124065225685E+03   -0.60725E-04   -0.50484E-05  3648   0.189E-02    0.109E-02
DAV:   9    -0.124065407315E+03   -0.18163E-03   -0.61342E-05  3744   0.213E-02    0.996E-03
DAV:  10    -0.124065486469E+03   -0.79155E-04   -0.45004E-06  3792   0.768E-03    0.727E-03
DAV:  11    -0.124065581889E+03   -0.95420E-04   -0.58398E-06  5040   0.818E-03    0.222E-03
DAV:  12    -0.124065614754E+03   -0.32865E-04   -0.16419E-06  4608   0.406E-03    0.120E-03
DAV:  13    -0.124065626361E+03   -0.11608E-04   -0.33814E-07  5232   0.207E-03    0.989E-04
DAV:  14    -0.124065630291E+03   -0.39291E-05   -0.14999E-07  5520   0.124E-03    0.311E-04
DAV:  15    -0.124065631357E+03   -0.10667E-05   -0.41411E-08  5184   0.642E-04    0.168E-04
DAV:  16    -0.124065631659E+03   -0.30180E-06   -0.97142E-09  4704   0.305E-04
  14 F= -.12561276E+03 E0= -.12560965E+03  d E =-.253784E-01  mag=    -0.0000
 curvature: ****** expect dE=-0.446E+02 dE for cont linesearch -0.672E-07
 trial: gam=******** g(F)=  0.342E+00 g(S)=  0.000E+00 ort = 0.178E-06 (trialstep = 0.554E-05)
 search vector abs. value=  0.206E+04
 bond charge predicted
       N       E                     dE             d eps       ncg     rms          rms(c)
DAV:   1    -0.124065629983E+03    0.13740E-05   -0.61529E-06  5328   0.916E-03    0.421E-04
DAV:   2    -0.124065629987E+03   -0.39199E-08   -0.65171E-08  5712   0.100E-03
  15 F= -.12561276E+03 E0= -.12560966E+03  d E =-.202625E-05  mag=    -0.0000
 ZBRENT: can't locate minimum, use default step
 trial-energy change:   -0.000002  1 .order   -0.000002   -0.000002   -0.000002
 step:   0.0000(harm=  0.0000)  dis= 0.00007  next Energy=  -125.612771 (dE=-0.763E-05)
 bond charge predicted
       N       E                     dE             d eps       ncg     rms          rms(c)
DAV:   1    -0.124065624619E+03    0.53645E-05   -0.54612E-05  4752   0.274E-02    0.132E-03
DAV:   2    -0.124065624605E+03    0.13568E-07   -0.57613E-07  5328   0.294E-03
  16 F= -.12561277E+03 E0= -.12560966E+03  d E =-.773934E-05  mag=    -0.0000
 curvature:  -0.10 expect dE=-0.341E-01 dE for cont linesearch -0.578E-05
 ZBRENT: increasing intervall
 opt :   0.0001  next Energy=  -125.612782 (dE=-0.193E-04)
 bond charge predicted
       N       E                     dE             d eps       ncg     rms          rms(c)
DAV:   1    -0.124065613865E+03    0.10753E-04   -0.21665E-04  3648   0.546E-02    0.267E-03
DAV:   2    -0.124065613825E+03    0.40305E-07   -0.24288E-06  4512   0.617E-03
  17 F= -.12561278E+03 E0= -.12560967E+03  d E =-.191521E-04  mag=    -0.0000
 curvature:  -0.20 expect dE=-0.681E-01 dE for cont linesearch -0.116E-04
 ZBRENT: increasing intervall
 opt :   0.0001  next Energy=  -125.612805 (dE=-0.422E-04)
 bond charge predicted
       N       E                     dE             d eps       ncg     rms          rms(c)
DAV:   1    -0.124065592437E+03    0.21428E-04   -0.86774E-04  3648   0.109E-01    0.537E-03
DAV:   2    -0.124065592243E+03    0.19417E-06   -0.96799E-06  4224   0.124E-02
  18 F= -.12561280E+03 E0= -.12560970E+03  d E =-.419665E-04  mag=    -0.0000
 curvature:  -0.40 expect dE=-0.136E+00 dE for cont linesearch -0.235E-04
 ZBRENT: increasing intervall
 opt :   0.0003  next Energy=  -125.612852 (dE=-0.888E-04)
 bond charge predicted
       N       E                     dE             d eps       ncg     rms          rms(c)
DAV:   1    -0.124065549844E+03    0.42594E-04   -0.34717E-03  3648   0.219E-01    0.107E-02
DAV:   2    -0.124065549151E+03    0.69214E-06   -0.38502E-05  4320   0.247E-02    0.671E-03
DAV:   3    -0.124065548850E+03    0.30174E-06   -0.48684E-06  4224   0.759E-03
  19 F= -.12561285E+03 E0= -.12560974E+03  d E =-.874156E-04  mag=     0.0000
 curvature:  -0.79 expect dE=-0.271E+00 dE for cont linesearch -0.427E-04
 ZBRENT: increasing intervall
 opt :   0.0005  next Energy=  -125.612935 (dE=-0.172E-03)
 bond charge predicted
       N       E                     dE             d eps       ncg     rms          rms(c)
DAV:   1    -0.124065465983E+03    0.83169E-04   -0.14268E-02  3648   0.441E-01    0.210E-02
DAV:   2    -0.124065463482E+03    0.25005E-05   -0.16128E-04  4128   0.502E-02    0.131E-02
DAV:   3    -0.124065461802E+03    0.16798E-05   -0.20488E-05  5040   0.154E-02    0.319E-03
DAV:   4    -0.124065462054E+03   -0.25208E-06   -0.24314E-06  4080   0.540E-03
  20 F= -.12561294E+03 E0= -.12560983E+03  d E =-.178478E-03  mag=     0.0000
 curvature:  -1.56 expect dE=-0.537E+00 dE for cont linesearch -0.898E-04
 ZBRENT: increasing intervall
 opt :   0.0011  next Energy=  -125.613130 (dE=-0.367E-03)
 bond charge predicted
       N       E                     dE             d eps       ncg     rms          rms(c)
DAV:   1    -0.124065302924E+03    0.15888E-03   -0.56791E-02  3648   0.880E-01    0.409E-02
DAV:   2    -0.124065295174E+03    0.77499E-05   -0.65110E-04  4224   0.101E-01    0.254E-02
DAV:   3    -0.124065287052E+03    0.81219E-05   -0.79957E-05  5040   0.304E-02    0.629E-03
DAV:   4    -0.124065287913E+03   -0.86135E-06   -0.95078E-06  3840   0.108E-02
  21 F= -.12561312E+03 E0= -.12561001E+03  d E =-.360737E-03  mag=     0.0000
 curvature:  -3.28 expect dE=-0.113E+01 dE for cont linesearch -0.189E-03
 ZBRENT: increasing intervall
 opt :   0.0021  next Energy=  -125.613490 (dE=-0.728E-03)
 bond charge predicted
       N       E                     dE             d eps       ncg     rms          rms(c)
DAV:   1    -0.124064994806E+03    0.29225E-03   -0.22713E-01  3648   0.176E+00    0.818E-02
DAV:   2    -0.124064970636E+03    0.24170E-04   -0.26001E-03  3648   0.201E-01    0.511E-02
DAV:   3    -0.124064935541E+03    0.35095E-04   -0.33302E-04  4848   0.629E-02    0.127E-02
DAV:   4    -0.124064937687E+03   -0.21451E-05   -0.39447E-05  4368   0.220E-02    0.546E-03
DAV:   5    -0.124064938685E+03   -0.99794E-06   -0.28672E-06  3744   0.718E-03
  22 F= -.12561349E+03 E0= -.12561038E+03  d E =-.726874E-03  mag=     0.0000
 curvature:  -6.37 expect dE=-0.221E+01 dE for cont linesearch -0.358E-03
 ZBRENT: increasing intervall
 opt :   0.0042  next Energy=  -125.614205 (dE=-0.144E-02)
 bond charge predicted
       N       E                     dE             d eps       ncg     rms          rms(c)
DAV:   1    -0.124064461083E+03    0.47660E-03   -0.90822E-01  3648   0.352E+00    0.163E-01
DAV:   2    -0.124064375858E+03    0.85225E-04   -0.10398E-02  3744   0.401E-01    0.102E-01
DAV:   3    -0.124064225047E+03    0.15081E-03   -0.13146E-03  4320   0.125E-01    0.255E-02
DAV:   4    -0.124064231135E+03   -0.60876E-05   -0.16970E-04  6144   0.439E-02    0.109E-02
DAV:   5    -0.124064230900E+03    0.23517E-06   -0.50869E-06  4272   0.751E-03
  23 F= -.12561422E+03 E0= -.12561111E+03  d E =-.146126E-02  mag=     0.0000
 curvature: -12.72 expect dE=-0.446E+01 dE for cont linesearch -0.706E-03
 ZBRENT: increasing intervall
 opt :   0.0085  next Energy=  -125.615653 (dE=-0.289E-02)
 bond charge predicted
       N       E                     dE             d eps       ncg     rms          rms(c)
DAV:   1    -0.124063707761E+03    0.52337E-03   -0.36325E+00  3648   0.704E+00    0.327E-01
DAV:   2    -0.124063386132E+03    0.32163E-03   -0.41880E-02  4704   0.802E-01    0.202E-01
DAV:   3    -0.124062787330E+03    0.59880E-03   -0.49233E-03  4608   0.237E-01    0.501E-02
DAV:   4    -0.124062795526E+03   -0.81965E-05   -0.58645E-04  6048   0.838E-02    0.213E-02
DAV:   5    -0.124062788076E+03    0.74505E-05   -0.25344E-05  5472   0.154E-02    0.410E-03
DAV:   6    -0.124062788929E+03   -0.85338E-06   -0.53669E-06  5184   0.628E-03
  24 F= -.12561571E+03 E0= -.12561258E+03  d E =-.294901E-02  mag=     0.0000
 curvature: -25.74 expect dE=-0.926E+01 dE for cont linesearch -0.158E-02
 ZBRENT: increasing intervall
 opt :   0.0170  next Energy=  -125.618892 (dE=-0.613E-02)
 bond charge predicted
       N       E                     dE             d eps       ncg     rms          rms(c)
DAV:   1    -0.124063594333E+03   -0.80626E-03   -0.14517E+01  3648   0.141E+01    0.655E-01
DAV:   2    -0.124062319760E+03    0.12746E-02   -0.16756E-01  4896   0.161E+00    0.405E-01
DAV:   3    -0.124059789049E+03    0.25307E-02   -0.20124E-02  5568   0.475E-01    0.994E-02
DAV:   4    -0.124059818579E+03   -0.29530E-04   -0.20395E-03  6048   0.159E-01    0.439E-02
DAV:   5    -0.124059786255E+03    0.32324E-04   -0.10214E-04  5760   0.315E-02    0.846E-03
DAV:   6    -0.124059786447E+03   -0.19191E-06   -0.21132E-05  5088   0.130E-02    0.426E-03
DAV:   7    -0.124059795535E+03   -0.90875E-05   -0.31920E-06  4464   0.668E-03    0.254E-03
DAV:   8    -0.124059807907E+03   -0.12373E-04   -0.23124E-06  4608   0.492E-03    0.206E-03
DAV:   9    -0.124059819261E+03   -0.11354E-04   -0.12602E-06  5376   0.267E-03    0.819E-04
DAV:  10    -0.124059828993E+03   -0.97317E-05   -0.14096E-06  5328   0.347E-03    0.687E-04
DAV:  11    -0.124059831845E+03   -0.28520E-05   -0.58461E-07  5664   0.314E-03    0.502E-04
DAV:  12    -0.124059834881E+03   -0.30359E-05   -0.30593E-07  4800   0.153E-03    0.151E-04
DAV:  13    -0.124059835690E+03   -0.80904E-06   -0.37260E-08  5136   0.435E-04
  25 F= -.12561880E+03 E0= -.12561565E+03  d E =-.603998E-02  mag=    -0.0000
 curvature: -51.69 expect dE=-0.195E+02 dE for cont linesearch -0.338E-02
 ZBRENT: increasing intervall
 opt :   0.0340  next Energy=  -125.625236 (dE=-0.125E-01)
 bond charge predicted
       N       E                     dE             d eps       ncg     rms          rms(c)
DAV:   1    -0.124066546739E+03   -0.67119E-02   -0.57921E+01  3648   0.281E+01    0.130E+00
DAV:   2    -0.124063078815E+03    0.34679E-02   -0.68246E-01  4224   0.325E+00    0.816E-01
DAV:   3    -0.124053367049E+03    0.97118E-02   -0.82624E-02  5856   0.971E-01    0.206E-01
DAV:   4    -0.124053485338E+03   -0.11829E-03   -0.77531E-03  5952   0.307E-01    0.904E-02
DAV:   5    -0.124053379184E+03    0.10615E-03   -0.41702E-04  5760   0.606E-02    0.182E-02
DAV:   6    -0.124053368128E+03    0.11056E-04   -0.88099E-05  6048   0.253E-02    0.772E-03
DAV:   7    -0.124053398393E+03   -0.30266E-04   -0.12809E-05  4416   0.109E-02    0.443E-03
DAV:   8    -0.124053423261E+03   -0.24868E-04   -0.31211E-06  4992   0.416E-03    0.302E-03
DAV:   9    -0.124053443227E+03   -0.19965E-04   -0.20760E-06  4944   0.290E-03    0.147E-03
DAV:  10    -0.124053457323E+03   -0.14096E-04   -0.15322E-06  5376   0.222E-03    0.114E-03
DAV:  11    -0.124053465974E+03   -0.86513E-05   -0.92772E-07  5376   0.178E-03    0.611E-04
DAV:  12    -0.124053470495E+03   -0.45209E-05   -0.40419E-07  4752   0.122E-03    0.189E-04
DAV:  13    -0.124053471413E+03   -0.91838E-06   -0.34684E-08  5616   0.436E-04
  26 F= -.12562530E+03 E0= -.12562209E+03  d E =-.125359E-01  mag=    -0.0000
 curvature: -98.35 expect dE=-0.408E+02 dE for cont linesearch -0.747E-02
 ZBRENT: increasing intervall
 opt :   0.0681  next Energy=  -125.639723 (dE=-0.270E-01)
 bond charge predicted
       N       E                     dE             d eps       ncg     rms          rms(c)
DAV:   1    -0.124076714896E+03   -0.23244E-01   -0.22969E+02  3648   0.559E+01    0.259E+00
DAV:   2    -0.124077819547E+03   -0.11047E-02   -0.28613E+00  4320   0.673E+00    0.164E+00
DAV:   3    -0.124038025296E+03    0.39794E-01   -0.30330E-01  6048   0.186E+00    0.459E-01
DAV:   4    -0.124039019626E+03   -0.99433E-03   -0.27739E-02  6240   0.582E-01    0.186E-01
DAV:   5    -0.124038460231E+03    0.55939E-03   -0.19754E-03  6048   0.116E-01    0.367E-02
DAV:   6    -0.124038418279E+03    0.41952E-04   -0.27543E-04  6144   0.464E-02    0.159E-02
DAV:   7    -0.124038497579E+03   -0.79299E-04   -0.70860E-05  4032   0.252E-02    0.946E-03
DAV:   8    -0.124038562344E+03   -0.64766E-04   -0.11948E-05  4992   0.878E-03    0.681E-03
DAV:   9    -0.124038611389E+03   -0.49045E-04   -0.75687E-06  4512   0.620E-03    0.312E-03
DAV:  10    -0.124038641734E+03   -0.30345E-04   -0.43107E-06  5184   0.416E-03    0.226E-03
DAV:  11    -0.124038660669E+03   -0.18935E-04   -0.30551E-06  5568   0.338E-03    0.144E-03
DAV:  12    -0.124038667853E+03   -0.71845E-05   -0.76964E-07  5616   0.198E-03    0.435E-04
DAV:  13    -0.124038669878E+03   -0.20245E-05   -0.94121E-08  5472   0.857E-04    0.242E-04
DAV:  14    -0.124038671210E+03   -0.13321E-05   -0.61425E-08  4608   0.599E-04    0.117E-04
DAV:  15    -0.124038672005E+03   -0.79533E-06   -0.46445E-08  4944   0.422E-04
  27 F= -.12563958E+03 E0= -.12563624E+03  d E =-.268213E-01  mag=     0.0000
 curvature: ****** expect dE=-0.939E+02 dE for cont linesearch -0.181E-01
 ZBRENT: increasing intervall
 opt :   0.1362  next Energy=  -125.672898 (dE=-0.601E-01)
 bond charge predicted
       N       E                     dE             d eps       ncg     rms          rms(c)
DAV:   1    -0.123974595008E+03    0.64076E-01   -0.88813E+02  3648   0.109E+02    0.506E+00
DAV:   2    -0.124157566343E+03   -0.18297E+00   -0.12963E+01  4224   0.147E+01    0.330E+00
DAV:   3    -0.123998301432E+03    0.15926E+00   -0.10004E+00  6528   0.345E+00    0.118E+00
DAV:   4    -0.123998208876E+03    0.92556E-04   -0.95407E-02  6144   0.114E+00    0.373E-01
DAV:   5    -0.123996196180E+03    0.20127E-02   -0.11149E-02  6048   0.274E-01    0.638E-02
DAV:   6    -0.123996008383E+03    0.18780E-03   -0.72080E-04  6336   0.799E-02    0.297E-02
DAV:   7    -0.123996182286E+03   -0.17390E-03   -0.28189E-04  4512   0.484E-02    0.172E-02
DAV:   8    -0.123996324609E+03   -0.14232E-03   -0.52505E-05  4224   0.174E-02    0.131E-02
DAV:   9    -0.123996427601E+03   -0.10299E-03   -0.26712E-05  4992   0.133E-02    0.653E-03
DAV:  10    -0.123996492989E+03   -0.65388E-04   -0.14459E-05  5088   0.860E-03    0.562E-03
DAV:  11    -0.123996528890E+03   -0.35900E-04   -0.10761E-05  5136   0.701E-03    0.234E-03
DAV:  12    -0.123996542079E+03   -0.13189E-04   -0.20130E-06  5952   0.362E-03    0.116E-03
DAV:  13    -0.123996546993E+03   -0.49138E-05   -0.44084E-07  6096   0.202E-03    0.632E-04
DAV:  14    -0.123996548929E+03   -0.19359E-05   -0.12527E-07  5952   0.129E-03    0.336E-04
DAV:  15    -0.123996550164E+03   -0.12352E-05   -0.77131E-08  5328   0.832E-04    0.104E-04
DAV:  16    -0.123996550579E+03   -0.41498E-06   -0.17128E-08  5520   0.428E-04
  28 F= -.12567123E+03 E0= -.12566767E+03  d E =-.584684E-01  mag=     0.0000
 curvature: ****** expect dE=-0.238E+03 dE for cont linesearch -0.351E-01
 ZBRENT: increasing intervall
 opt :   0.2724  next Energy=  -125.734702 (dE=-0.122E+00)
 bond charge predicted
       N       E                     dE             d eps       ncg     rms          rms(c)
DAV:   1    -0.121912473022E+03    0.20841E+01   -0.31070E+03  3648   0.196E+02    0.997E+00
DAV:   2    -0.124434960300E+03   -0.25225E+01   -0.64811E+01  3840   0.342E+01    0.651E+00
DAV:   3    -0.123898661637E+03    0.53630E+00   -0.26743E+00  6720   0.600E+00    0.365E+00
DAV:   4    -0.123752497337E+03    0.14616E+00   -0.78413E-01  5568   0.299E+00    0.672E-01
DAV:   5    -0.123751404938E+03    0.10924E-02   -0.42584E-02  5760   0.719E-01    0.265E-01
DAV:   6    -0.123748423158E+03    0.29818E-02   -0.10661E-02  6048   0.285E-01    0.744E-02
DAV:   7    -0.123748138717E+03    0.28444E-03   -0.14592E-03  5472   0.118E-01    0.361E-02
DAV:   8    -0.123748484950E+03   -0.34623E-03   -0.60594E-04  4992   0.625E-02    0.264E-02
DAV:   9    -0.123748675258E+03   -0.19031E-03   -0.17082E-04  4416   0.352E-02    0.136E-02
DAV:  10    -0.123748757566E+03   -0.82308E-04   -0.33603E-05  5568   0.138E-02    0.124E-02
DAV:  11    -0.123748796476E+03   -0.38910E-04   -0.17378E-05  4560   0.100E-02    0.510E-03
DAV:  12    -0.123748812370E+03   -0.15894E-04   -0.79238E-06  5856   0.676E-03    0.428E-03
DAV:  13    -0.123748821471E+03   -0.91012E-05   -0.25427E-06  5280   0.422E-03    0.133E-03
DAV:  14    -0.123748825128E+03   -0.36563E-05   -0.51295E-07  5568   0.234E-03    0.533E-04
DAV:  15    -0.123748827033E+03   -0.19054E-05   -0.31546E-07  5712   0.231E-03    0.379E-04
DAV:  16    -0.123748827963E+03   -0.92989E-06   -0.13899E-07  5424   0.153E-03
  29 F= -.12564223E+03 E0= -.12564090E+03  d E =-.294667E-01  mag=     0.0000
 curvature: ****** expect dE=-0.739E+03 dE for cont linesearch -0.114E+01
 ZBRENT: bracketing found
 ZBRENT: interpolating
 opt :   0.1621  next Energy=  -125.677127 (dE=-0.644E-01)
 bond charge predicted
       N       E                     dE             d eps       ncg     rms          rms(c)
DAV:   1    -0.123163025171E+03    0.58580E+00   -0.21626E+03  3648   0.168E+02    0.810E+00
DAV:   2    -0.124413107107E+03   -0.12501E+01   -0.39549E+01  3744   0.269E+01    0.535E+00
DAV:   3    -0.124025365777E+03    0.38774E+00   -0.20521E+00  6816   0.508E+00    0.263E+00
DAV:   4    -0.123976617560E+03    0.48748E-01   -0.36867E-01  5856   0.216E+00    0.599E-01
DAV:   5    -0.123973730403E+03    0.28872E-02   -0.35293E-02  5568   0.602E-01    0.135E-01
DAV:   6    -0.123972853936E+03    0.87647E-03   -0.31928E-03  5952   0.167E-01    0.715E-02
DAV:   7    -0.123972624885E+03    0.22905E-03   -0.97378E-04  4416   0.107E-01    0.329E-02
DAV:   8    -0.123972666852E+03   -0.41966E-04   -0.11075E-04  4992   0.310E-02    0.204E-02
DAV:   9    -0.123972778910E+03   -0.11206E-03   -0.61721E-05  4320   0.218E-02    0.114E-02
DAV:  10    -0.123972913079E+03   -0.13417E-03   -0.17571E-05  5184   0.115E-02    0.107E-02
DAV:  11    -0.123973089524E+03   -0.17645E-03   -0.15868E-05  5424   0.111E-02    0.397E-03
DAV:  12    -0.123973179655E+03   -0.90131E-04   -0.53571E-06  4320   0.730E-03    0.198E-03
DAV:  13    -0.123973211505E+03   -0.31849E-04   -0.18345E-06  4080   0.551E-03    0.136E-03
DAV:  14    -0.123973221440E+03   -0.99358E-05   -0.98560E-07  3744   0.435E-03    0.775E-04
DAV:  15    -0.123973227326E+03   -0.58857E-05   -0.35504E-07  5424   0.228E-03    0.282E-04
DAV:  16    -0.123973229122E+03   -0.17961E-05   -0.83833E-08  5520   0.101E-03    0.208E-04
DAV:  17    -0.123973229486E+03   -0.36335E-06   -0.37113E-08  5616   0.609E-04
  30 F= -.12568220E+03 E0= -.12567871E+03  d E =-.694372E-01  mag=     0.0000
 curvature:  -3.26 expect dE=-0.248E+01 dE for cont linesearch -0.228E-03
 ZBRENT: bisectioning
 opt :   0.2173  next Energy=  -125.698678 (dE=-0.859E-01)
 bond charge predicted
       N       E                     dE             d eps       ncg     rms          rms(c)
DAV:   1    -0.123939158816E+03    0.34070E-01   -0.59006E+02  3648   0.895E+01    0.415E+00
DAV:   2    -0.124002288958E+03   -0.63130E-01   -0.81158E+00  4896   0.115E+01    0.266E+00
DAV:   3    -0.123897617947E+03    0.10467E+00   -0.65794E-01  6144   0.277E+00    0.877E-01
DAV:   4    -0.123898773487E+03   -0.11555E-02   -0.65173E-02  6144   0.923E-01    0.300E-01
DAV:   5    -0.123897534843E+03    0.12386E-02   -0.58329E-03  6336   0.203E-01    0.562E-02
DAV:   6    -0.123897375873E+03    0.15897E-03   -0.53162E-04  6048   0.691E-02    0.260E-02
DAV:   7    -0.123897473385E+03   -0.97512E-04   -0.17942E-04  5664   0.402E-02    0.146E-02
DAV:   8    -0.123897560882E+03   -0.87497E-04   -0.47393E-05  4368   0.186E-02    0.143E-02
DAV:   9    -0.123897646143E+03   -0.85261E-04   -0.19699E-05  5232   0.114E-02    0.705E-03
DAV:  10    -0.123897711417E+03   -0.65274E-04   -0.14982E-05  5376   0.939E-03    0.435E-03
DAV:  11    -0.123897740773E+03   -0.29356E-04   -0.50775E-06  5424   0.447E-03    0.329E-03
DAV:  12    -0.123897758823E+03   -0.18049E-04   -0.42196E-06  5568   0.426E-03    0.135E-03
DAV:  13    -0.123897764479E+03   -0.56564E-05   -0.64933E-07  6240   0.197E-03    0.775E-04
DAV:  14    -0.123897767866E+03   -0.33865E-05   -0.35319E-07  5760   0.132E-03    0.400E-04
DAV:  15    -0.123897768845E+03   -0.97952E-06   -0.55358E-08  6048   0.557E-04
  31 F= -.12569145E+03 E0= -.12568885E+03  d E =-.786884E-01  mag=     0.0000
 curvature: ****** expect dE=-0.224E+03 dE for cont linesearch -0.308E-02
 trial: gam= 1.12192 g(F)=  0.949E+00 g(S)=  0.000E+00 ort =-0.164E+00 (trialstep = 0.345E-01)
 search vector abs. value=  0.259E+04
 bond charge predicted
       N       E                     dE             d eps       ncg     rms          rms(c)
DAV:   1    -0.123887120587E+03    0.10647E-01   -0.29552E+02  3648   0.637E+01    0.296E+00
DAV:   2    -0.123887005907E+03    0.11468E-03   -0.37662E+00  4512   0.780E+00    0.186E+00
DAV:   3    -0.123838471679E+03    0.48534E-01   -0.35974E-01  6528   0.204E+00    0.557E-01
DAV:   4    -0.123838921972E+03   -0.45029E-03   -0.33795E-02  6336   0.653E-01    0.208E-01
DAV:   5    -0.123838192390E+03    0.72958E-03   -0.24829E-03  6336   0.139E-01    0.414E-02
DAV:   6    -0.123838102762E+03    0.89628E-04   -0.36698E-04  5856   0.563E-02    0.188E-02
DAV:   7    -0.123838175699E+03   -0.72937E-04   -0.13173E-04  4800   0.334E-02    0.102E-02
DAV:   8    -0.123838244143E+03   -0.68444E-04   -0.22225E-05  4704   0.121E-02    0.771E-03
DAV:   9    -0.123838308443E+03   -0.64300E-04   -0.15498E-05  5040   0.949E-03    0.350E-03
DAV:  10    -0.123838333745E+03   -0.25302E-04   -0.39226E-06  5472   0.426E-03    0.278E-03
DAV:  11    -0.123838352477E+03   -0.18732E-04   -0.43100E-06  5232   0.430E-03    0.124E-03
DAV:  12    -0.123838358331E+03   -0.58531E-05   -0.92108E-07  5952   0.203E-03    0.736E-04
DAV:  13    -0.123838360634E+03   -0.23035E-05   -0.22315E-07  5472   0.127E-03    0.364E-04
DAV:  14    -0.123838361598E+03   -0.96439E-06   -0.83908E-08  5760   0.827E-04
  32 F= -.12570092E+03 E0= -.12569936E+03  d E =-.946960E-02  mag=     0.0000
 trial-energy change:   -0.009470  1 .order   -0.006926   -0.026412    0.012560
 step:   0.0259(harm=  0.0234)  dis= 0.09149  next Energy=  -125.702446 (dE=-0.110E-01)
 bond charge predicted
       N       E                     dE             d eps       ncg     rms          rms(c)
DAV:   1    -0.123863048967E+03   -0.24688E-01   -0.18584E+01  3648   0.160E+01    0.749E-01
DAV:   2    -0.123860484142E+03    0.25648E-02   -0.21377E-01  5568   0.183E+00    0.456E-01
DAV:   3    -0.123857616492E+03    0.28676E-02   -0.23585E-02  5568   0.512E-01    0.119E-01
DAV:   4    -0.123857629103E+03   -0.12611E-04   -0.26328E-03  5088   0.181E-01    0.493E-02
DAV:   5    -0.123857627075E+03    0.20281E-05   -0.13291E-04  4656   0.393E-02    0.994E-03
DAV:   6    -0.123857623142E+03    0.39327E-05   -0.26288E-05  4032   0.155E-02    0.447E-03
DAV:   7    -0.123857626474E+03   -0.33317E-05   -0.52401E-06  3840   0.790E-03    0.244E-03
DAV:   8    -0.123857630810E+03   -0.43358E-05   -0.13747E-06  3648   0.391E-03    0.217E-03
DAV:   9    -0.123857637297E+03   -0.64874E-05   -0.55048E-07  3936   0.230E-03    0.106E-03
DAV:  10    -0.123857645487E+03   -0.81897E-05   -0.56139E-07  5088   0.194E-03    0.531E-04
DAV:  11    -0.123857651001E+03   -0.55137E-05   -0.28929E-07  4992   0.138E-03    0.404E-04
DAV:  12    -0.123857653789E+03   -0.27888E-05   -0.13088E-07  6144   0.134E-03    0.235E-04
DAV:  13    -0.123857655009E+03   -0.12200E-05   -0.42559E-08  5568   0.872E-04    0.958E-05
DAV:  14    -0.123857655625E+03   -0.61597E-06   -0.15925E-08  6240   0.440E-04
  33 F= -.12570242E+03 E0= -.12570062E+03  d E =-.109663E-01  mag=    -0.0000
 curvature: -37.55 expect dE=-0.336E+02 dE for cont linesearch -0.226E-06
 trial: gam=-0.02787 g(F)=  0.894E+00 g(S)=  0.000E+00 ort = 0.394E-02 (trialstep = 0.328E-01)
 search vector abs. value=  0.291E+01
 bond charge predicted
       N       E                     dE             d eps       ncg     rms          rms(c)
DAV:   1    -0.123887279558E+03   -0.29625E-01   -0.34559E-01  3696   0.223E+00    0.116E-01
DAV:   2    -0.123887193645E+03    0.85913E-04   -0.50649E-03  6384   0.283E-01    0.719E-02
DAV:   3    -0.123887133829E+03    0.59816E-04   -0.62867E-04  6432   0.875E-02    0.288E-02
DAV:   4    -0.123887133057E+03    0.77263E-06   -0.14584E-04  4608   0.386E-02    0.171E-02
DAV:   5    -0.123887133062E+03   -0.57134E-08   -0.11686E-05  4800   0.133E-02    0.414E-03
DAV:   6    -0.123887133116E+03   -0.53990E-07   -0.28049E-06  5616   0.582E-03
  34 F= -.12573016E+03 E0= -.12572836E+03  d E =-.277393E-01  mag=     0.0000
 ZBRENT: can't locate minimum, use default step
 trial-energy change:   -0.027739  1 .order   -0.027741   -0.029323   -0.026159
 step:   0.1312(harm=  0.3040)  dis= 0.01060  next Energy=  -125.838305 (dE=-0.136E+00)
 bond charge predicted
       N       E                     dE             d eps       ncg     rms          rms(c)
DAV:   1    -0.123958052086E+03   -0.70919E-01   -0.31112E+00  3648   0.669E+00    0.347E-01
DAV:   2    -0.123957336695E+03    0.71539E-03   -0.45815E-02  6624   0.853E-01    0.215E-01
DAV:   3    -0.123956771982E+03    0.56471E-03   -0.54383E-03  6048   0.258E-01    0.847E-02
DAV:   4    -0.123956764577E+03    0.74053E-05   -0.13138E-03  4896   0.116E-01    0.502E-02
DAV:   5    -0.123956753644E+03    0.10933E-04   -0.10012E-04  5280   0.389E-02    0.132E-02
DAV:   6    -0.123956753814E+03   -0.17026E-06   -0.23961E-05  6336   0.170E-02    0.692E-03
DAV:   7    -0.123956754304E+03   -0.49031E-06   -0.12156E-06  5712   0.404E-03
  35 F= -.12579448E+03 E0= -.12579268E+03  d E =-.920637E-01  mag=    -0.0000
 curvature:  -0.29 expect dE=-0.859E-01 dE for cont linesearch -0.263E-01
 ZBRENT: increasing intervall
 opt :   0.3280  next Energy=  -125.838193 (dE=-0.136E+00)
 bond charge predicted
       N       E                     dE             d eps       ncg     rms          rms(c)
DAV:   1    -0.124017018292E+03   -0.60264E-01   -0.12451E+01  3648   0.134E+01    0.697E-01
DAV:   2    -0.124014269285E+03    0.27490E-02   -0.18559E-01  6432   0.172E+00    0.430E-01
DAV:   3    -0.124011982753E+03    0.22865E-02   -0.22098E-02  5952   0.520E-01    0.170E-01
DAV:   4    -0.124011912183E+03    0.70570E-04   -0.53082E-03  4992   0.232E-01    0.100E-01
DAV:   5    -0.124011870179E+03    0.42003E-04   -0.43048E-04  4896   0.797E-02    0.252E-02
DAV:   6    -0.124011871169E+03   -0.98971E-06   -0.96980E-05  6336   0.343E-02    0.137E-02
DAV:   7    -0.124011872713E+03   -0.15440E-05   -0.44720E-06  4512   0.765E-03    0.695E-03
DAV:   8    -0.124011876257E+03   -0.35438E-05   -0.44351E-06  5760   0.657E-03    0.125E-03
DAV:   9    -0.124011880281E+03   -0.40245E-05   -0.58152E-07  5376   0.265E-03    0.198E-03
DAV:  10    -0.124011885608E+03   -0.53267E-05   -0.33907E-07  6048   0.140E-03    0.154E-03
DAV:  11    -0.124011892205E+03   -0.65974E-05   -0.44779E-07  5664   0.148E-03    0.455E-04
DAV:  12    -0.124011894206E+03   -0.20007E-05   -0.28308E-08  5952   0.463E-04    0.243E-04
DAV:  13    -0.124011896657E+03   -0.24507E-05   -0.61345E-08  5472   0.442E-04    0.127E-04
DAV:  14    -0.124011897265E+03   -0.60793E-06   -0.10769E-08  6288   0.207E-04
  36 F= -.12583868E+03 E0= -.12583689E+03  d E =-.136266E+00  mag=     0.0000
 curvature:  -0.49 expect dE=-0.796E-02 dE for cont linesearch -0.613E-03
 ZBRENT: bracketing found
 ZBRENT: interpolating
 opt :   0.3071  next Energy=  -125.839313 (dE=-0.137E+00)
 bond charge predicted
       N       E                     dE             d eps       ncg     rms          rms(c)
DAV:   1    -0.124011394462E+03    0.50219E-03   -0.13970E-01  3648   0.142E+00    0.731E-02
DAV:   2    -0.124011372117E+03    0.22345E-04   -0.21755E-03  6624   0.185E-01    0.460E-02
DAV:   3    -0.124011347774E+03    0.24343E-04   -0.24676E-04  5760   0.552E-02    0.181E-02
DAV:   4    -0.124011347402E+03    0.37201E-06   -0.61806E-05  5088   0.250E-02    0.107E-02
DAV:   5    -0.124011347173E+03    0.22910E-06   -0.50002E-06  5568   0.857E-03
  37 F= -.12583931E+03 E0= -.12583752E+03  d E =-.136895E+00  mag=    -0.0000
 curvature:  -0.50 expect dE=-0.536E-02 dE for cont linesearch -0.497E-08
 trial: gam= 0.01244 g(F)=  0.107E-01 g(S)=  0.000E+00 ort =-0.170E-03 (trialstep = 0.877E-01)
 search vector abs. value=  0.111E-01
 bond charge predicted
       N       E                     dE             d eps       ncg     rms          rms(c)
DAV:   1    -0.124012320785E+03   -0.97338E-03   -0.44760E-03  3936   0.214E-01    0.191E-02
DAV:   2    -0.124012309519E+03    0.11266E-04   -0.93769E-05  7152   0.284E-02    0.899E-03
DAV:   3    -0.124012307737E+03    0.17826E-05   -0.84593E-06  4560   0.768E-03    0.308E-03
DAV:   4    -0.124012307834E+03   -0.97422E-07   -0.91089E-07  6288   0.272E-03
  38 F= -.12584022E+03 E0= -.12583844E+03  d E =-.902000E-03  mag=    -0.0000
 ZBRENT: can't locate minimum, use default step
 trial-energy change:   -0.000902  1 .order   -0.000901   -0.000938   -0.000865
 step:   0.3507(harm=  1.1342)  dis= 0.00177  next Energy=  -125.845379 (dE=-0.607E-02)
 bond charge predicted
       N       E                     dE             d eps       ncg     rms          rms(c)
DAV:   1    -0.124014875325E+03   -0.25676E-02   -0.40376E-02  3648   0.642E-01    0.572E-02
DAV:   2    -0.124014774457E+03    0.10087E-03   -0.84804E-04  6528   0.867E-02    0.269E-02
DAV:   3    -0.124014757159E+03    0.17298E-04   -0.81120E-05  6096   0.243E-02    0.913E-03
DAV:   4    -0.124014756771E+03    0.38858E-06   -0.75395E-06  5616   0.808E-03
  39 F= -.12584249E+03 E0= -.12584078E+03  d E =-.317473E-02  mag=     0.0000
 curvature:  -0.26 expect dE=-0.161E-02 dE for cont linesearch -0.128E-02
 ZBRENT: increasing intervall
 opt :   0.8766  next Energy=  -125.845086 (dE=-0.577E-02)
 bond charge predicted
       N       E                     dE             d eps       ncg     rms          rms(c)
DAV:   1    -0.124018178296E+03   -0.34211E-02   -0.16137E-01  3648   0.128E+00    0.114E-01
DAV:   2    -0.124017779274E+03    0.39902E-03   -0.33766E-03  7200   0.173E-01    0.539E-02
DAV:   3    -0.124017707391E+03    0.71883E-04   -0.31023E-04  6384   0.470E-02    0.182E-02
DAV:   4    -0.124017705105E+03    0.22865E-05   -0.28284E-05  6048   0.158E-02    0.536E-03
DAV:   5    -0.124017705231E+03   -0.12589E-06   -0.12387E-06  6000   0.361E-03
  40 F= -.12584508E+03 E0= -.12584347E+03  d E =-.576991E-02  mag=    -0.0000
 curvature:  -0.53 expect dE=-0.383E-02 dE for cont linesearch -0.284E-03
 ZBRENT: extrapolating
 opt :   1.1364  next Energy=  -125.845401 (dE=-0.609E-02)
 bond charge predicted
       N       E                     dE             d eps       ncg     rms          rms(c)
DAV:   1    -0.124018318505E+03   -0.61340E-03   -0.39477E-02  3648   0.636E-01    0.565E-02
DAV:   2    -0.124018220844E+03    0.97661E-04   -0.82231E-04  7008   0.857E-02    0.266E-02
DAV:   3    -0.124018203442E+03    0.17402E-04   -0.76924E-05  6336   0.234E-02    0.894E-03
DAV:   4    -0.124018203151E+03    0.29057E-06   -0.69270E-06  5472   0.786E-03
  41 F= -.12584541E+03 E0= -.12584383E+03  d E =-.609281E-02  mag=    -0.0000
 curvature:  -0.59 expect dE=-0.667E-02 dE for cont linesearch -0.192E-07
 trial: gam= 1.05264 g(F)=  0.113E-01 g(S)=  0.000E+00 ort = 0.190E-04 (trialstep = 0.140E+00)
 search vector abs. value=  0.237E-01
 bond charge predicted
       N       E                     dE             d eps       ncg     rms          rms(c)
DAV:   1    -0.124019810138E+03   -0.16067E-02   -0.17276E-02  3648   0.412E-01    0.274E-02
DAV:   2    -0.124019803220E+03    0.69180E-05   -0.10618E-04  7008   0.324E-02    0.153E-02
DAV:   3    -0.124019800682E+03    0.25379E-05   -0.15387E-05  5088   0.969E-03    0.342E-03
DAV:   4    -0.124019800896E+03   -0.21388E-06   -0.11611E-06  6288   0.347E-03
  42 F= -.12584695E+03 E0= -.12584536E+03  d E =-.154159E-02  mag=    -0.0000
 ZBRENT: can't locate minimum, use default step
 trial-energy change:   -0.001542  1 .order   -0.001541   -0.001582   -0.001500
 step:   0.5601(harm=  2.7059)  dis= 0.00341  next Energy=  -125.860694 (dE=-0.153E-01)
 bond charge predicted
       N       E                     dE             d eps       ncg     rms          rms(c)
DAV:   1    -0.124024196677E+03   -0.43960E-02   -0.15572E-01  3648   0.124E+00    0.818E-02
DAV:   2    -0.124024133266E+03    0.63411E-04   -0.93168E-04  7200   0.962E-02    0.455E-02
DAV:   3    -0.124024107566E+03    0.25700E-04   -0.13393E-04  5280   0.284E-02    0.997E-03
DAV:   4    -0.124024108057E+03   -0.49095E-06   -0.97192E-06  6000   0.996E-03
  43 F= -.12585109E+03 E0= -.12584946E+03  d E =-.568018E-02  mag=    -0.0000
 curvature:  -0.85 expect dE=-0.632E-02 dE for cont linesearch -0.292E-02
 ZBRENT: increasing intervall
 opt :   1.4003  next Energy=  -125.857209 (dE=-0.118E-01)
 bond charge predicted
       N       E                     dE             d eps       ncg     rms          rms(c)
DAV:   1    -0.124030938638E+03   -0.68311E-02   -0.62358E-01  3648   0.247E+00    0.163E-01
DAV:   2    -0.124030693573E+03    0.24506E-03   -0.37475E-03  7200   0.193E-01    0.910E-02
DAV:   3    -0.124030588923E+03    0.10465E-03   -0.53895E-04  5328   0.567E-02    0.197E-02
DAV:   4    -0.124030590521E+03   -0.15982E-05   -0.37539E-05  5760   0.197E-02    0.697E-03
DAV:   5    -0.124030590230E+03    0.29071E-06   -0.25583E-06  5904   0.597E-03
  44 F= -.12585723E+03 E0= -.12585553E+03  d E =-.118248E-01  mag=     0.0000
 curvature:  -1.79 expect dE=-0.944E-02 dE for cont linesearch -0.242E-02
 ZBRENT: increasing intervall
 opt :   3.0808  next Energy=  -125.861125 (dE=-0.157E-01)
 bond charge predicted
       N       E                     dE             d eps       ncg     rms          rms(c)
DAV:   1    -0.124036678105E+03   -0.60876E-02   -0.24990E+00  3648   0.493E+00    0.326E-01
DAV:   2    -0.124035714811E+03    0.96329E-03   -0.15275E-02  6912   0.389E-01    0.181E-01
DAV:   3    -0.124035282439E+03    0.43237E-03   -0.21687E-03  5376   0.113E-01    0.389E-02
DAV:   4    -0.124035289375E+03   -0.69361E-05   -0.15035E-04  6240   0.390E-02    0.138E-02
DAV:   5    -0.124035289108E+03    0.26723E-06   -0.89242E-06  5280   0.114E-02
  45 F= -.12586125E+03 E0= -.12585939E+03  d E =-.158479E-01  mag=    -0.0000
 curvature:  -2.88 expect dE=-0.419E-01 dE for cont linesearch -0.866E-04
 trial: gam= 1.52447 g(F)=  0.146E-01 g(S)=  0.000E+00 ort =-0.844E-03 (trialstep = 0.257E+00)
 search vector abs. value=  0.670E-01
 bond charge predicted
       N       E                     dE             d eps       ncg     rms          rms(c)
DAV:   1    -0.124038143088E+03   -0.28537E-02   -0.18529E-01  3648   0.141E+00    0.108E-01
DAV:   2    -0.124037902532E+03    0.24056E-03   -0.30787E-03  6624   0.171E-01    0.527E-02
DAV:   3    -0.124037864819E+03    0.37712E-04   -0.19780E-04  5088   0.432E-02    0.207E-02
DAV:   4    -0.124037864984E+03   -0.16480E-06   -0.33825E-05  5424   0.181E-02    0.529E-03
DAV:   5    -0.124037866057E+03   -0.10725E-05   -0.31542E-06  4512   0.804E-03    0.271E-03
DAV:   6    -0.124037866514E+03   -0.45687E-06   -0.11810E-06  5136   0.496E-03
  46 F= -.12586375E+03 E0= -.12586179E+03  d E =-.249281E-02  mag=     0.0000
 trial-energy change:   -0.002493  1 .order   -0.002489   -0.003418   -0.001559
 step:   0.4730(harm=  0.4730)  dis= 0.00489  next Energy=  -125.864396 (dE=-0.314E-02)
 bond charge predicted
       N       E                     dE             d eps       ncg     rms          rms(c)
DAV:   1    -0.124038794561E+03   -0.92850E-03   -0.13046E-01  3648   0.118E+00    0.902E-02
DAV:   2    -0.124038624672E+03    0.16989E-03   -0.21591E-03  6672   0.143E-01    0.442E-02
DAV:   3    -0.124038597523E+03    0.27149E-04   -0.13539E-04  4848   0.354E-02    0.172E-02
DAV:   4    -0.124038596908E+03    0.61518E-06   -0.22996E-05  5712   0.136E-02    0.405E-03
DAV:   5    -0.124038597396E+03   -0.48758E-06   -0.83099E-07  5904   0.341E-03
  47 F= -.12586441E+03 E0= -.12586236E+03  d E =-.315210E-02  mag=     0.0000
 curvature:  -1.19 expect dE=-0.518E-03 dE for cont linesearch -0.940E-13
 trial: gam=-0.07249 g(F)=  0.435E-03 g(S)=  0.000E+00 ort =-0.727E-07 (trialstep = 0.300E+00)
 search vector abs. value=  0.787E-03
 bond charge predicted
       N       E                     dE             d eps       ncg     rms          rms(c)
DAV:   1    -0.124038639903E+03   -0.42995E-04   -0.43169E-03  3840   0.261E-01    0.174E-02
DAV:   2    -0.124038633012E+03    0.68914E-05   -0.87280E-05  6864   0.352E-02    0.847E-03
DAV:   3    -0.124038632119E+03    0.89254E-06   -0.69774E-06  4704   0.971E-03
  48 F= -.12586450E+03 E0= -.12586248E+03  d E =-.948220E-04  mag=    -0.0000
 trial-energy change:   -0.000095  1 .order   -0.000094   -0.000131   -0.000057
 step:   0.5294(harm=  0.5294)  dis= 0.00192  next Energy=  -125.864521 (dE=-0.115E-03)
 bond charge predicted
       N       E                     dE             d eps       ncg     rms          rms(c)
DAV:   1    -0.124038613419E+03    0.19593E-04   -0.25176E-03  3648   0.200E-01    0.141E-02
DAV:   2    -0.124038609404E+03    0.40154E-05   -0.52132E-05  7008   0.275E-02    0.704E-03
DAV:   3    -0.124038608900E+03    0.50339E-06   -0.45514E-06  4800   0.796E-03
  49 F= -.12586452E+03 E0= -.12586251E+03  d E =-.117325E-03  mag=    -0.0000
 curvature:  -0.48 expect dE=-0.760E-04 dE for cont linesearch -0.141E-09
 trial: gam= 0.38064 g(F)=  0.159E-03 g(S)=  0.000E+00 ort = 0.481E-06 (trialstep = 0.346E+00)
 search vector abs. value=  0.273E-03
 bond charge predicted
       N       E                     dE             d eps       ncg     rms          rms(c)
DAV:   1    -0.124038557029E+03    0.52375E-04   -0.23193E-03  3840   0.194E-01    0.112E-02
DAV:   2    -0.124038554887E+03    0.21421E-05   -0.40466E-05  5952   0.251E-02    0.592E-03
DAV:   3    -0.124038554645E+03    0.24180E-06   -0.33781E-06  5472   0.728E-03
  50 F= -.12586456E+03 E0= -.12586256E+03  d E =-.396448E-04  mag=     0.0000
 trial-energy change:   -0.000040  1 .order   -0.000039   -0.000055   -0.000024
 step:   0.6105(harm=  0.6105)  dis= 0.00148  next Energy=  -125.864572 (dE=-0.485E-04)
 bond charge predicted
       N       E                     dE             d eps       ncg     rms          rms(c)
DAV:   1    -0.124038494218E+03    0.60669E-04   -0.13649E-03  3936   0.149E-01    0.904E-03
DAV:   2    -0.124038492796E+03    0.14218E-05   -0.23915E-05  5952   0.196E-02    0.488E-03
DAV:   3    -0.124038492661E+03    0.13507E-06   -0.22635E-06  5184   0.622E-03
  51 F= -.12586457E+03 E0= -.12586257E+03  d E =-.493240E-04  mag=    -0.0000
 curvature:  -0.52 expect dE=-0.568E-04 dE for cont linesearch -0.538E-08
 trial: gam= 0.67395 g(F)=  0.108E-03 g(S)=  0.000E+00 ort = 0.167E-05 (trialstep = 0.399E+00)
 search vector abs. value=  0.234E-03
 bond charge predicted
       N       E                     dE             d eps       ncg     rms          rms(c)
DAV:   1    -0.124038384013E+03    0.10878E-03   -0.25932E-03  3648   0.194E-01    0.103E-02
DAV:   2    -0.124038382431E+03    0.15812E-05   -0.32658E-05  5472   0.226E-02    0.581E-03
DAV:   3    -0.124038382174E+03    0.25784E-06   -0.32411E-06  5520   0.690E-03
  52 F= -.12586461E+03 E0= -.12586261E+03  d E =-.375500E-04  mag=     0.0000
 trial-energy change:   -0.000038  1 .order   -0.000038   -0.000044   -0.000031
 step:   1.4281(harm=  1.4281)  dis= 0.00378  next Energy=  -125.864651 (dE=-0.781E-04)
 bond charge predicted
       N       E                     dE             d eps       ncg     rms          rms(c)
DAV:   1    -0.124038054020E+03    0.32841E-03   -0.17264E-02  3648   0.501E-01    0.264E-02
DAV:   2    -0.124038044170E+03    0.98500E-05   -0.20896E-04  4704   0.568E-02    0.147E-02
DAV:   3    -0.124038041926E+03    0.22444E-05   -0.21562E-05  6240   0.166E-02    0.469E-03
DAV:   4    -0.124038042213E+03   -0.28733E-06   -0.30209E-06  4032   0.776E-03
  53 F= -.12586465E+03 E0= -.12586266E+03  d E =-.794844E-04  mag=     0.0000
 curvature:  -1.53 expect dE=-0.244E-03 dE for cont linesearch -0.356E-07
 trial: gam= 1.48842 g(F)=  0.159E-03 g(S)=  0.000E+00 ort = 0.234E-05 (trialstep = 0.207E+00)
 search vector abs. value=  0.686E-03
 bond charge predicted
       N       E                     dE             d eps       ncg     rms          rms(c)
DAV:   1    -0.124037924346E+03    0.11758E-03   -0.21751E-03  3648   0.180E-01    0.803E-03
DAV:   2    -0.124037924275E+03    0.70260E-07   -0.24363E-05  3936   0.217E-02    0.514E-03
DAV:   3    -0.124037924507E+03   -0.23182E-06   -0.42482E-06  4992   0.968E-03
  54 F= -.12586468E+03 E0= -.12586270E+03  d E =-.303568E-04  mag=    -0.0000
 ZBRENT: can't locate minimum, use default step
 trial-energy change:   -0.000030  1 .order   -0.000030   -0.000034   -0.000026
 step:   0.8271(harm=  0.8803)  dis= 0.00374  next Energy=  -125.864724 (dE=-0.717E-04)
 bond charge predicted
       N       E                     dE             d eps       ncg     rms          rms(c)
DAV:   1    -0.124037527657E+03    0.39662E-03   -0.19543E-02  3648   0.538E-01    0.245E-02
DAV:   2    -0.124037527795E+03   -0.13800E-06   -0.20304E-04  4368   0.599E-02    0.155E-02
DAV:   3    -0.124037526417E+03    0.13774E-05   -0.28047E-05  4656   0.209E-02    0.481E-03
DAV:   4    -0.124037526647E+03   -0.23017E-06   -0.80281E-06  3792   0.133E-02
  55 F= -.12586473E+03 E0= -.12586278E+03  d E =-.766837E-04  mag=    -0.0000
 curvature:  -1.84 expect dE=-0.365E-03 dE for cont linesearch -0.125E-05
 trial: gam= 1.14330 g(F)=  0.198E-03 g(S)=  0.000E+00 ort = 0.216E-04 (trialstep = 0.198E+00)
 search vector abs. value=  0.114E-02
 bond charge predicted
       N       E                     dE             d eps       ncg     rms          rms(c)
DAV:   1    -0.124037372566E+03    0.15385E-03   -0.33571E-03  3648   0.220E-01    0.108E-02
DAV:   2    -0.124037371773E+03    0.79380E-06   -0.41224E-05  4368   0.268E-02    0.653E-03
DAV:   3    -0.124037371612E+03    0.16083E-06   -0.49299E-06  4416   0.970E-03
  56 F= -.12586477E+03 E0= -.12586284E+03  d E =-.399383E-04  mag=    -0.0000
 ZBRENT: can't locate minimum, use default step
 trial-energy change:   -0.000040  1 .order   -0.000040   -0.000044   -0.000036
 step:   0.7932(harm=  1.0818)  dis= 0.00440  next Energy=  -125.864849 (dE=-0.121E-03)
 bond charge predicted
       N       E                     dE             d eps       ncg     rms          rms(c)
DAV:   1    -0.124036873904E+03    0.49787E-03   -0.30209E-02  3648   0.659E-01    0.321E-02
DAV:   2    -0.124036866392E+03    0.75123E-05   -0.35034E-04  4752   0.758E-02    0.192E-02
DAV:   3    -0.124036862825E+03    0.35670E-05   -0.35307E-05  5136   0.227E-02    0.583E-03
DAV:   4    -0.124036863595E+03   -0.76959E-06   -0.78566E-06  4176   0.131E-02
  57 F= -.12586485E+03 E0= -.12586297E+03  d E =-.117118E-03  mag=    -0.0000
 curvature:  -2.48 expect dE=-0.200E-03 dE for cont linesearch -0.111E-04
 ZBRENT: increasing intervall
 opt :   1.9831  next Energy=  -125.864800 (dE=-0.708E-04)
 bond charge predicted
       N       E                     dE             d eps       ncg     rms          rms(c)
DAV:   1    -0.124035684380E+03    0.11784E-02   -0.12066E-01  3648   0.132E+00    0.636E-02
DAV:   2    -0.124035656666E+03    0.27714E-04   -0.13926E-03  5232   0.150E-01    0.378E-02
DAV:   3    -0.124035639645E+03    0.17021E-04   -0.13355E-04  5760   0.421E-02    0.114E-02
DAV:   4    -0.124035640686E+03   -0.10410E-05   -0.20440E-05  4944   0.191E-02    0.423E-03
DAV:   5    -0.124035641029E+03   -0.34211E-06   -0.57185E-06  4704   0.115E-02
  58 F= -.12586479E+03 E0= -.12586302E+03  d E =-.661824E-04  mag=    -0.0000
 curvature:  10.33 expect dE= 0.783E-02 dE for cont linesearch  0.227E-03
 ZBRENT: bracketing found
 ZBRENT: interpolating
 opt :   1.1633  next Energy=  -125.864859 (dE=-0.130E-03)
 bond charge predicted
       N       E                     dE             d eps       ncg     rms          rms(c)
DAV:   1    -0.124036531786E+03   -0.89110E-03   -0.57156E-02  3648   0.907E-01    0.435E-02
DAV:   2    -0.124036519424E+03    0.12362E-04   -0.67895E-04  4992   0.104E-01    0.261E-02
DAV:   3    -0.124036511436E+03    0.79877E-05   -0.64730E-05  6240   0.287E-02    0.780E-03
DAV:   4    -0.124036512212E+03   -0.77611E-06   -0.82054E-06  4464   0.118E-02
  59 F= -.12586486E+03 E0= -.12586302E+03  d E =-.129975E-03  mag=    -0.0000
 curvature:  -0.60 expect dE=-0.112E-03 dE for cont linesearch -0.136E-09
 trial: gam= 1.21419 g(F)=  0.186E-03 g(S)=  0.000E+00 ort =-0.508E-06 (trialstep = 0.239E+00)
 search vector abs. value=  0.187E-02
 bond charge predicted
       N       E                     dE             d eps       ncg     rms          rms(c)
DAV:   1    -0.124036226479E+03    0.28496E-03   -0.84451E-03  3648   0.347E-01    0.156E-02
DAV:   2    -0.124036225062E+03    0.14163E-05   -0.94286E-05  3936   0.397E-02    0.970E-03
DAV:   3    -0.124036224622E+03    0.44089E-06   -0.12973E-05  4752   0.143E-02    0.264E-03
DAV:   4    -0.124036225018E+03   -0.39643E-06   -0.39785E-06  3792   0.990E-03
  60 F= -.12586490E+03 E0= -.12586307E+03  d E =-.408331E-04  mag=     0.0000
 ZBRENT: can't locate minimum, use default step
 trial-energy change:   -0.000041  1 .order   -0.000040   -0.000044   -0.000036
 step:   0.9570(harm=  1.2637)  dis= 0.00667  next Energy=  -125.864976 (dE=-0.117E-03)
 bond charge predicted
       N       E                     dE             d eps       ncg     rms          rms(c)
DAV:   1    -0.124035328061E+03    0.89656E-03   -0.76310E-02  3648   0.104E+00    0.482E-02
DAV:   2    -0.124035317459E+03    0.10602E-04   -0.77833E-04  3936   0.113E-01    0.294E-02
DAV:   3    -0.124035308762E+03    0.86969E-05   -0.10031E-04  5040   0.354E-02    0.751E-03
DAV:   4    -0.124035309368E+03   -0.60541E-06   -0.14590E-05  4560   0.147E-02    0.333E-03
DAV:   5    -0.124035309662E+03   -0.29394E-06   -0.21063E-06  4656   0.711E-03
  61 F= -.12586497E+03 E0= -.12586319E+03  d E =-.110390E-03  mag=    -0.0000
 curvature:  -5.81 expect dE=-0.997E-03 dE for cont linesearch -0.610E-05
 ZBRENT: extrapolating
 opt :   1.2574  next Energy=  -125.864976 (dE=-0.117E-03)
 bond charge predicted
       N       E                     dE             d eps       ncg     rms          rms(c)
DAV:   1    -0.124034906092E+03    0.40328E-03   -0.13386E-02  3648   0.436E-01    0.199E-02
DAV:   2    -0.124034904575E+03    0.15170E-05   -0.13966E-04  4368   0.481E-02    0.122E-02
DAV:   3    -0.124034903166E+03    0.14083E-05   -0.16875E-05  4416   0.148E-02    0.319E-03
DAV:   4    -0.124034903350E+03   -0.18380E-06   -0.30087E-06  4656   0.708E-03
  62 F= -.12586498E+03 E0= -.12586322E+03  d E =-.116762E-03  mag=     0.0000
 curvature:  -6.34 expect dE=-0.158E-02 dE for cont linesearch -0.680E-08
 trial: gam= 1.09091 g(F)=  0.250E-03 g(S)=  0.000E+00 ort = 0.142E-05 (trialstep = 0.334E+00)
 search vector abs. value=  0.248E-02
 bond charge predicted
       N       E                     dE             d eps       ncg     rms          rms(c)
DAV:   1    -0.124034418559E+03    0.48461E-03   -0.23394E-02  3648   0.579E-01    0.271E-02
DAV:   2    -0.124034414891E+03    0.36680E-05   -0.26573E-04  4464   0.662E-02    0.167E-02
DAV:   3    -0.124034412066E+03    0.28248E-05   -0.33576E-05  4416   0.211E-02    0.486E-03
DAV:   4    -0.124034412258E+03   -0.19205E-06   -0.64473E-06  4272   0.105E-02
  63 F= -.12586504E+03 E0= -.12586329E+03  d E =-.602555E-04  mag=     0.0000
 trial-energy change:   -0.000060  1 .order   -0.000061   -0.000084   -0.000037
 step:   0.6027(harm=  0.6027)  dis= 0.00435  next Energy=  -125.865051 (dE=-0.757E-04)
 bond charge predicted
       N       E                     dE             d eps       ncg     rms          rms(c)
DAV:   1    -0.124033987201E+03    0.42486E-03   -0.15090E-02  3648   0.466E-01    0.221E-02
DAV:   2    -0.124033985026E+03    0.21753E-05   -0.17417E-04  4368   0.537E-02    0.137E-02
DAV:   3    -0.124033983389E+03    0.16372E-05   -0.22309E-05  4560   0.175E-02    0.407E-03
DAV:   4    -0.124033983523E+03   -0.13433E-06   -0.46632E-06  4080   0.946E-03
  64 F= -.12586505E+03 E0= -.12586332E+03  d E =-.746534E-04  mag=    -0.0000
 curvature:  -2.97 expect dE=-0.410E-03 dE for cont linesearch -0.270E-08
 trial: gam= 0.55811 g(F)=  0.138E-03 g(S)=  0.000E+00 ort =-0.150E-05 (trialstep = 0.388E+00)
 search vector abs. value=  0.909E-03
 bond charge predicted
       N       E                     dE             d eps       ncg     rms          rms(c)
DAV:   1    -0.124033625169E+03    0.35822E-03   -0.12008E-02  3648   0.413E-01    0.202E-02
DAV:   2    -0.124033621707E+03    0.34622E-05   -0.14331E-04  4800   0.480E-02    0.120E-02
DAV:   3    -0.124033620422E+03    0.12845E-05   -0.15362E-05  4464   0.144E-02    0.352E-03
DAV:   4    -0.124033620633E+03   -0.21071E-06   -0.30493E-06  4128   0.769E-03
  65 F= -.12586509E+03 E0= -.12586337E+03  d E =-.446967E-04  mag=     0.0000
 trial-energy change:   -0.000045  1 .order   -0.000045   -0.000053   -0.000036
 step:   1.2366(harm=  1.2366)  dis= 0.00411  next Energy=  -125.865135 (dE=-0.847E-04)
 bond charge predicted
       N       E                     dE             d eps       ncg     rms          rms(c)
DAV:   1    -0.124032791896E+03    0.82853E-03   -0.57471E-02  3648   0.903E-01    0.440E-02
DAV:   2    -0.124032773940E+03    0.17956E-04   -0.67024E-04  4464   0.103E-01    0.259E-02
DAV:   3    -0.124032766533E+03    0.74077E-05   -0.72650E-05  4608   0.302E-02    0.749E-03
DAV:   4    -0.124032767285E+03   -0.75201E-06   -0.11422E-05  5280   0.128E-02    0.277E-03
DAV:   5    -0.124032767370E+03   -0.85285E-07   -0.16115E-06  4896   0.611E-03
  66 F= -.12586513E+03 E0= -.12586343E+03  d E =-.840410E-04  mag=     0.0000
 curvature:  -4.10 expect dE=-0.700E-03 dE for cont linesearch -0.136E-07
 trial: gam= 1.21744 g(F)=  0.171E-03 g(S)=  0.000E+00 ort =-0.173E-05 (trialstep = 0.335E+00)
 search vector abs. value=  0.151E-02
 bond charge predicted
       N       E                     dE             d eps       ncg     rms          rms(c)
DAV:   1    -0.124032359002E+03    0.40828E-03   -0.15296E-02  3648   0.464E-01    0.221E-02
DAV:   2    -0.124032355504E+03    0.34974E-05   -0.17561E-04  5184   0.530E-02    0.133E-02
DAV:   3    -0.124032353543E+03    0.19616E-05   -0.21660E-05  4608   0.159E-02    0.347E-03
DAV:   4    -0.124032353753E+03   -0.21023E-06   -0.31257E-06  4368   0.672E-03
  67 F= -.12586518E+03 E0= -.12586350E+03  d E =-.487652E-04  mag=    -0.0000
 trial-energy change:   -0.000049  1 .order   -0.000049   -0.000056   -0.000041
 step:   1.2187(harm=  1.2187)  dis= 0.00400  next Energy=  -125.865237 (dE=-0.103E-03)
 bond charge predicted
       N       E                     dE             d eps       ncg     rms          rms(c)
DAV:   1    -0.124031224506E+03    0.11290E-02   -0.10644E-01  3648   0.122E+00    0.588E-02
DAV:   2    -0.124031196127E+03    0.28379E-04   -0.12003E-03  4800   0.138E-01    0.353E-02
DAV:   3    -0.124031181209E+03    0.14918E-04   -0.15310E-04  4800   0.422E-02    0.912E-03
DAV:   4    -0.124031182278E+03   -0.10692E-05   -0.21335E-05  4896   0.168E-02    0.391E-03
DAV:   5    -0.124031182522E+03   -0.24338E-06   -0.15649E-06  4896   0.611E-03
  68 F= -.12586523E+03 E0= -.12586360E+03  d E =-.994379E-04  mag=    -0.0000
 curvature:  -5.47 expect dE=-0.108E-02 dE for cont linesearch -0.323E-06
 trial: gam= 1.19600 g(F)=  0.198E-03 g(S)=  0.000E+00 ort =-0.946E-05 (trialstep = 0.331E+00)
 search vector abs. value=  0.234E-02
 bond charge predicted
       N       E                     dE             d eps       ncg     rms          rms(c)
DAV:   1    -0.124030661390E+03    0.52089E-03   -0.23262E-02  3648   0.572E-01    0.274E-02
DAV:   2    -0.124030655862E+03    0.55273E-05   -0.27777E-04  5184   0.666E-02    0.167E-02
DAV:   3    -0.124030652759E+03    0.31035E-05   -0.34879E-05  4560   0.204E-02    0.469E-03
DAV:   4    -0.124030653009E+03   -0.25042E-06   -0.54534E-06  4560   0.917E-03
  69 F= -.12586528E+03 E0= -.12586366E+03  d E =-.493229E-04  mag=     0.0000
 trial-energy change:   -0.000049  1 .order   -0.000049   -0.000062   -0.000037
 step:   0.8080(harm=  0.8080)  dis= 0.00244  next Energy=  -125.865309 (dE=-0.756E-04)
 bond charge predicted
       N       E                     dE             d eps       ncg     rms          rms(c)
DAV:   1    -0.124029860371E+03    0.79239E-03   -0.48352E-02  3648   0.825E-01    0.402E-02
DAV:   2    -0.124029848042E+03    0.12329E-04   -0.57350E-04  4608   0.953E-02    0.245E-02
DAV:   3    -0.124029841161E+03    0.68808E-05   -0.73940E-05  4320   0.297E-02    0.683E-03
DAV:   4    -0.124029841653E+03   -0.49192E-06   -0.11867E-05  5376   0.124E-02    0.338E-03
DAV:   5    -0.124029841683E+03   -0.30411E-07   -0.58004E-07  4320   0.379E-03
  70 F= -.12586531E+03 E0= -.12586370E+03  d E =-.736978E-04  mag=     0.0000
 curvature:  -5.05 expect dE=-0.109E-02 dE for cont linesearch -0.126E-06
 trial: gam= 1.03162 g(F)=  0.215E-03 g(S)=  0.000E+00 ort =-0.764E-05 (trialstep = 0.371E+00)
 search vector abs. value=  0.269E-02
 bond charge predicted
       N       E                     dE             d eps       ncg     rms          rms(c)
DAV:   1    -0.124029216041E+03    0.62561E-03   -0.33165E-02  3648   0.681E-01    0.330E-02
DAV:   2    -0.124029205750E+03    0.10291E-04   -0.38121E-04  4608   0.771E-02    0.197E-02
DAV:   3    -0.124029201510E+03    0.42406E-05   -0.45876E-05  4368   0.230E-02    0.536E-03
DAV:   4    -0.124029201940E+03   -0.43004E-06   -0.65796E-06  4272   0.890E-03
  71 F= -.12586537E+03 E0= -.12586378E+03  d E =-.666231E-04  mag=    -0.0000
 trial-energy change:   -0.000067  1 .order   -0.000067   -0.000077   -0.000057
 step:   1.4243(harm=  1.4243)  dis= 0.00473  next Energy=  -125.865455 (dE=-0.147E-03)
 bond charge predicted
       N       E                     dE             d eps       ncg     rms          rms(c)
DAV:   1    -0.124027384672E+03    0.18168E-02   -0.26745E-01  3648   0.193E+00    0.941E-02
DAV:   2    -0.124027307074E+03    0.77598E-04   -0.30915E-03  4992   0.218E-01    0.560E-02
DAV:   3    -0.124027266127E+03    0.40947E-04   -0.36555E-04  5184   0.640E-02    0.150E-02
DAV:   4    -0.124027267791E+03   -0.16646E-05   -0.46508E-05  5424   0.235E-02    0.590E-03
DAV:   5    -0.124027268099E+03   -0.30743E-06   -0.19940E-06  5328   0.596E-03
  72 F= -.12586545E+03 E0= -.12586388E+03  d E =-.142997E-03  mag=    -0.0000
 curvature:  -9.26 expect dE=-0.104E-02 dE for cont linesearch -0.428E-06
 trial: gam= 0.52591 g(F)=  0.112E-03 g(S)=  0.000E+00 ort =-0.112E-04 (trialstep = 0.582E+00)
 search vector abs. value=  0.844E-03
 bond charge predicted
       N       E                     dE             d eps       ncg     rms          rms(c)
DAV:   1    -0.124026698244E+03    0.56955E-03   -0.26618E-02  3648   0.615E-01    0.307E-02
DAV:   2    -0.124026688579E+03    0.96655E-05   -0.34051E-04  4896   0.731E-02    0.183E-02
DAV:   3    -0.124026684481E+03    0.40980E-05   -0.43456E-05  4080   0.228E-02    0.548E-03
DAV:   4    -0.124026684803E+03   -0.32211E-06   -0.70155E-06  5952   0.934E-03
  73 F= -.12586548E+03 E0= -.12586391E+03  d E =-.259693E-04  mag=    -0.0000
 trial-energy change:   -0.000026  1 .order   -0.000026   -0.000062    0.000011
 step:   0.4960(harm=  0.4960)  dis= 0.00091  next Energy=  -125.865477 (dE=-0.263E-04)
 bond charge predicted
       N       E                     dE             d eps       ncg     rms          rms(c)
DAV:   1    -0.124026775869E+03   -0.91388E-04   -0.57475E-04  3840   0.906E-02    0.419E-03
DAV:   2    -0.124026775862E+03    0.70495E-08   -0.82312E-06  5952   0.113E-02
  74 F= -.12586548E+03 E0= -.12586391E+03  d E =-.273734E-04  mag=    -0.0000
 curvature:  -1.97 expect dE=-0.882E-04 dE for cont linesearch -0.100E-06
 trial: gam= 0.39385 g(F)=  0.448E-04 g(S)=  0.000E+00 ort =-0.655E-05 (trialstep = 0.564E+00)
 search vector abs. value=  0.171E-03
 bond charge predicted
       N       E                     dE             d eps       ncg     rms          rms(c)
DAV:   1    -0.124026548838E+03    0.22703E-03   -0.48168E-03  3648   0.261E-01    0.129E-02
DAV:   2    -0.124026546843E+03    0.19949E-05   -0.62221E-05  5616   0.309E-02    0.752E-03
DAV:   3    -0.124026546048E+03    0.79521E-06   -0.74106E-06  3744   0.924E-03
  75 F= -.12586550E+03 E0= -.12586393E+03  d E =-.196280E-04  mag=    -0.0000
 trial-energy change:   -0.000020  1 .order   -0.000018   -0.000024   -0.000012
 step:   1.1466(harm=  1.1466)  dis= 0.00091  next Energy=  -125.865502 (dE=-0.242E-04)
 bond charge predicted
       N       E                     dE             d eps       ncg     rms          rms(c)
DAV:   1    -0.124026300082E+03    0.24676E-03   -0.50908E-03  3648   0.269E-01    0.143E-02
DAV:   2    -0.124026297869E+03    0.22129E-05   -0.63879E-05  5232   0.315E-02    0.843E-03
DAV:   3    -0.124026297101E+03    0.76798E-06   -0.84350E-06  4224   0.101E-02
  76 F= -.12586551E+03 E0= -.12586393E+03  d E =-.280396E-04  mag=    -0.0000
 curvature:  -2.32 expect dE=-0.161E-03 dE for cont linesearch -0.450E-13
 trial: gam= 1.50478 g(F)=  0.695E-04 g(S)=  0.000E+00 ort = 0.182E-08 (trialstep = 0.255E+00)
 search vector abs. value=  0.456E-03
 bond charge predicted
       N       E                     dE             d eps       ncg     rms          rms(c)
DAV:   1    -0.124026138745E+03    0.15912E-03   -0.24026E-03  3648   0.185E-01    0.958E-03
DAV:   2    -0.124026138106E+03    0.63902E-06   -0.28136E-05  4800   0.212E-02    0.576E-03
DAV:   3    -0.124026137936E+03    0.16973E-06   -0.32583E-06  3936   0.670E-03
  77 F= -.12586552E+03 E0= -.12586395E+03  d E =-.175464E-04  mag=     0.0000
 ZBRENT: can't locate minimum, use default step
 trial-energy change:   -0.000018  1 .order   -0.000016   -0.000018   -0.000015
 step:   1.0193(harm=  1.6714)  dis= 0.00159  next Energy=  -125.865564 (dE=-0.581E-04)
 bond charge predicted
       N       E                     dE             d eps       ncg     rms          rms(c)
DAV:   1    -0.124025653559E+03    0.48455E-03   -0.21412E-02  3648   0.553E-01    0.275E-02
DAV:   2    -0.124025645727E+03    0.78320E-05   -0.24522E-04  4128   0.621E-02    0.162E-02
DAV:   3    -0.124025643356E+03    0.23713E-05   -0.29259E-05  4176   0.190E-02    0.472E-03
DAV:   4    -0.124025643697E+03   -0.34074E-06   -0.46812E-06  4608   0.852E-03
  78 F= -.12586556E+03 E0= -.12586398E+03  d E =-.537135E-04  mag=    -0.0000
 curvature:  -4.32 expect dE=-0.126E-03 dE for cont linesearch -0.693E-05
 ZBRENT: increasing intervall
 opt :   2.5483  next Energy=  -125.865552 (dE=-0.463E-04)
 bond charge predicted
       N       E                     dE             d eps       ncg     rms          rms(c)
DAV:   1    -0.124024609355E+03    0.10340E-02   -0.85440E-02  3648   0.111E+00    0.544E-02
DAV:   2    -0.124024578407E+03    0.30949E-04   -0.98341E-04  4224   0.124E-01    0.320E-02
DAV:   3    -0.124024568600E+03    0.98071E-05   -0.11523E-04  4656   0.371E-02    0.925E-03
DAV:   4    -0.124024569683E+03   -0.10830E-05   -0.15924E-05  5328   0.147E-02    0.352E-03
DAV:   5    -0.124024569804E+03   -0.12136E-06   -0.16434E-06  4848   0.615E-03
  79 F= -.12586555E+03 E0= -.12586394E+03  d E =-.418846E-04  mag=    -0.0000
 curvature:   4.59 expect dE= 0.103E-02 dE for cont linesearch  0.189E-04
 ZBRENT: bracketing found
 ZBRENT: interpolating
 opt :   1.6071  next Energy=  -125.865567 (dE=-0.617E-04)
 bond charge predicted
       N       E                     dE             d eps       ncg     rms          rms(c)
DAV:   1    -0.124025258579E+03   -0.68890E-03   -0.32305E-02  3648   0.680E-01    0.333E-02
DAV:   2    -0.124025247487E+03    0.11092E-04   -0.38732E-04  5376   0.768E-02    0.196E-02
DAV:   3    -0.124025243430E+03    0.40567E-05   -0.41794E-05  5952   0.215E-02    0.560E-03
DAV:   4    -0.124025243972E+03   -0.54233E-06   -0.45945E-06  4128   0.783E-03
  80 F= -.12586557E+03 E0= -.12586398E+03  d E =-.621036E-04  mag=     0.0000
 curvature:  -1.93 expect dE=-0.135E-03 dE for cont linesearch -0.904E-11
 trial: gam= 1.25235 g(F)=  0.698E-04 g(S)=  0.000E+00 ort =-0.462E-07 (trialstep = 0.305E+00)
 search vector abs. value=  0.784E-03
 bond charge predicted
       N       E                     dE             d eps       ncg     rms          rms(c)
DAV:   1    -0.124024990483E+03    0.25295E-03   -0.56484E-03  3696   0.285E-01    0.134E-02
DAV:   2    -0.124024988969E+03    0.15142E-05   -0.65703E-05  3648   0.323E-02    0.832E-03
DAV:   3    -0.124024988289E+03    0.67983E-06   -0.94605E-06  5136   0.108E-02
  81 F= -.12586559E+03 E0= -.12586399E+03  d E =-.177798E-04  mag=     0.0000
 trial-energy change:   -0.000018  1 .order   -0.000017   -0.000021   -0.000012
 step:   0.7361(harm=  0.7361)  dis= 0.00193  next Energy=  -125.865593 (dE=-0.257E-04)
 bond charge predicted
       N       E                     dE             d eps       ncg     rms          rms(c)
DAV:   1    -0.124024619238E+03    0.36973E-03   -0.11370E-02  3648   0.404E-01    0.197E-02
DAV:   2    -0.124024616466E+03    0.27724E-05   -0.12444E-04  3648   0.450E-02    0.121E-02
DAV:   3    -0.124024615212E+03    0.12532E-05   -0.18304E-05  5184   0.151E-02    0.313E-03
DAV:   4    -0.124024615445E+03   -0.23241E-06   -0.29387E-06  3648   0.746E-03
  82 F= -.12586560E+03 E0= -.12586399E+03  d E =-.312759E-04  mag=     0.0000
 curvature:  -4.14 expect dE=-0.173E-03 dE for cont linesearch -0.116E-05
 ZBRENT: increasing intervall
 opt :   1.5981  next Energy=  -125.865589 (dE=-0.216E-04)
 bond charge predicted
       N       E                     dE             d eps       ncg     rms          rms(c)
DAV:   1    -0.124023843832E+03    0.77138E-03   -0.45197E-02  3648   0.805E-01    0.384E-02
DAV:   2    -0.124023833139E+03    0.10693E-04   -0.49181E-04  3648   0.894E-02    0.234E-02
DAV:   3    -0.124023827373E+03    0.57668E-05   -0.70951E-05  5520   0.292E-02    0.598E-03
DAV:   4    -0.124023827685E+03   -0.31257E-06   -0.95861E-06  4656   0.127E-02
  83 F= -.12586558E+03 E0= -.12586394E+03  d E =-.167581E-04  mag=    -0.0000
 curvature:  34.57 expect dE= 0.697E-02 dE for cont linesearch  0.102E-03
 ZBRENT: bracketing found
 ZBRENT: interpolating
 opt :   0.9393  next Energy=  -125.865601 (dE=-0.328E-04)
 bond charge predicted
       N       E                     dE             d eps       ncg     rms          rms(c)
DAV:   1    -0.124024444516E+03   -0.61714E-03   -0.26354E-02  3648   0.615E-01    0.287E-02
DAV:   2    -0.124024438107E+03    0.64098E-05   -0.29832E-04  5184   0.692E-02    0.175E-02
DAV:   3    -0.124024435346E+03    0.27609E-05   -0.38691E-05  5184   0.219E-02    0.467E-03
DAV:   4    -0.124024435927E+03   -0.58111E-06   -0.70454E-06  4176   0.128E-02
  84 F= -.12586560E+03 E0= -.12586398E+03  d E =-.339588E-04  mag=     0.0000
 curvature:  -0.51 expect dE=-0.312E-04 dE for cont linesearch -0.193E-09
 trial: gam= 0.82120 g(F)=  0.610E-04 g(S)=  0.000E+00 ort = 0.544E-06 (trialstep = 0.432E+00)
 search vector abs. value=  0.591E-03
 bond charge predicted
       N       E                     dE             d eps       ncg     rms          rms(c)
DAV:   1    -0.124024134795E+03    0.30055E-03   -0.84647E-03  3648   0.351E-01    0.159E-02
DAV:   2    -0.124024132938E+03    0.18573E-05   -0.97813E-05  4704   0.401E-02    0.973E-03
DAV:   3    -0.124024131917E+03    0.10208E-05   -0.12517E-05  5328   0.129E-02    0.282E-03
DAV:   4    -0.124024132253E+03   -0.33587E-06   -0.25124E-06  3936   0.766E-03
  85 F= -.12586562E+03 E0= -.12586399E+03  d E =-.171619E-04  mag=     0.0000
 trial-energy change:   -0.000017  1 .order   -0.000018   -0.000027   -0.000009
 step:   0.6625(harm=  0.6625)  dis= 0.00180  next Energy=  -125.865622 (dE=-0.203E-04)
 bond charge predicted
       N       E                     dE             d eps       ncg     rms          rms(c)
DAV:   1    -0.124023964019E+03    0.16790E-03   -0.24188E-03  3648   0.187E-01    0.910E-03
DAV:   2    -0.124023963424E+03    0.59494E-06   -0.27730E-05  3648   0.217E-02    0.563E-03
DAV:   3    -0.124023963322E+03    0.10231E-06   -0.40371E-06  3792   0.793E-03
  86 F= -.12586562E+03 E0= -.12586398E+03  d E =-.194493E-04  mag=    -0.0000
 curvature:  -3.19 expect dE=-0.102E-03 dE for cont linesearch -0.902E-07
 trial: gam= 0.54098 g(F)=  0.319E-04 g(S)=  0.000E+00 ort =-0.409E-05 (trialstep = 0.478E+00)
 search vector abs. value=  0.200E-03
 bond charge predicted
       N       E                     dE             d eps       ncg     rms          rms(c)
DAV:   1    -0.124023789084E+03    0.17434E-03   -0.34614E-03  3648   0.224E-01    0.111E-02
DAV:   2    -0.124023787852E+03    0.12321E-05   -0.37121E-05  3648   0.250E-02    0.658E-03
DAV:   3    -0.124023787795E+03    0.57081E-07   -0.50223E-06  4560   0.899E-03
  87 F= -.12586563E+03 E0= -.12586399E+03  d E =-.115338E-04  mag=     0.0000
 trial-energy change:   -0.000012  1 .order   -0.000010   -0.000014   -0.000007
 step:   0.9154(harm=  0.9154)  dis= 0.00176  next Energy=  -125.865635 (dE=-0.136E-04)
 bond charge predicted
       N       E                     dE             d eps       ncg     rms          rms(c)
DAV:   1    -0.124023621866E+03    0.16599E-03   -0.28954E-03  3648   0.205E-01    0.103E-02
DAV:   2    -0.124023620800E+03    0.10659E-05   -0.31831E-05  3648   0.235E-02    0.609E-03
DAV:   3    -0.124023620919E+03   -0.11905E-06   -0.47296E-06  4608   0.928E-03
  88 F= -.12586564E+03 E0= -.12586399E+03  d E =-.157821E-04  mag=    -0.0000
 curvature:  -3.09 expect dE=-0.294E-04 dE for cont linesearch -0.164E-08
 trial: gam= 0.24392 g(F)=  0.953E-05 g(S)=  0.000E+00 ort = 0.327E-06 (trialstep = 0.566E+00)
 search vector abs. value=  0.216E-04
 bond charge predicted
       N       E                     dE             d eps       ncg     rms          rms(c)
DAV:   1    -0.124023576398E+03    0.44403E-04   -0.44001E-04  3648   0.826E-02    0.409E-03
DAV:   2    -0.124023576096E+03    0.30127E-06   -0.59298E-06  3840   0.118E-02
  89 F= -.12586564E+03 E0= -.12586399E+03  d E =-.409659E-05  mag=    -0.0000
 trial-energy change:   -0.000004  1 .order   -0.000004   -0.000005   -0.000003
 step:   1.2468(harm=  1.2468)  dis= 0.00108  next Energy=  -125.865643 (dE=-0.599E-05)
 bond charge predicted
       N       E                     dE             d eps       ncg     rms          rms(c)
DAV:   1    -0.124023518863E+03    0.57534E-04   -0.61894E-04  3648   0.982E-02    0.519E-03
DAV:   2    -0.124023518464E+03    0.39927E-06   -0.78420E-06  3648   0.133E-02
  90 F= -.12586564E+03 E0= -.12586399E+03  d E =-.539738E-05  mag=     0.0000
 curvature:  -1.40 expect dE=-0.308E-04 dE for cont linesearch -0.294E-07
 trial: gam= 2.46808 g(F)=  0.219E-04 g(S)=  0.000E+00 ort =-0.673E-06 (trialstep = 0.101E+00)
 search vector abs. value=  0.150E-03
 bond charge predicted
       N       E                     dE             d eps       ncg     rms          rms(c)
DAV:   1    -0.124023499427E+03    0.19436E-04   -0.81710E-05  3648   0.356E-02    0.250E-03
DAV:   2    -0.124023498981E+03    0.44598E-06   -0.25536E-06  3648   0.829E-03
  91 F= -.12586564E+03 E0= -.12586399E+03  d E =-.192815E-05  mag=    -0.0000
 ZBRENT: can't locate minimum, use default step
 trial-energy change:   -0.000002  1 .order   -0.000002   -0.000002   -0.000002
 step:   0.4037(harm=  0.7072)  dis= 0.00099  next Energy=  -125.865650 (dE=-0.717E-05)
 bond charge predicted
       N       E                     dE             d eps       ncg     rms          rms(c)
DAV:   1    -0.124023439332E+03    0.60095E-04   -0.76338E-04  3648   0.105E-01    0.520E-03
DAV:   2    -0.124023438878E+03    0.45408E-06   -0.71662E-06  3648   0.129E-02
  92 F= -.12586565E+03 E0= -.12586399E+03  d E =-.604741E-05  mag=     0.0000
 curvature:  -1.96 expect dE=-0.275E-04 dE for cont linesearch -0.166E-05
 ZBRENT: increasing intervall
 opt :   1.0094  next Energy=  -125.865652 (dE=-0.916E-05)
 bond charge predicted
       N       E                     dE             d eps       ncg     rms          rms(c)
DAV:   1    -0.124023313765E+03    0.12557E-03   -0.30270E-03  3648   0.208E-01    0.995E-03
DAV:   2    -0.124023312849E+03    0.91672E-06   -0.24380E-05  3648   0.229E-02    0.616E-03
DAV:   3    -0.124023315108E+03   -0.22593E-05   -0.76724E-06  4752   0.136E-02    0.168E-03
DAV:   4    -0.124023313248E+03    0.18599E-05   -0.61285E-06  3696   0.123E-02    0.915E-04
DAV:   5    -0.124023312380E+03    0.86796E-06   -0.12500E-06  5136   0.542E-03
  93 F= -.12586565E+03 E0= -.12586398E+03  d E =-.800932E-05  mag=     0.0000
 curvature:  -3.69 expect dE=-0.639E-04 dE for cont linesearch -0.226E-06
 trial: gam= 0.47886 g(F)=  0.173E-04 g(S)=  0.000E+00 ort =-0.303E-05 (trialstep = 0.283E+00)
 search vector abs. value=  0.489E-04
 bond charge predicted
       N       E                     dE             d eps       ncg     rms          rms(c)
DAV:   1    -0.124023290494E+03    0.22754E-04   -0.21073E-04  4608   0.514E-02    0.386E-03
DAV:   2    -0.124023290075E+03    0.41868E-06   -0.42020E-06  6144   0.677E-03
  94 F= -.12586565E+03 E0= -.12586398E+03  d E =-.334414E-05  mag=     0.0000
 trial-energy change:   -0.000003  1 .order   -0.000003   -0.000004   -0.000002
 step:   0.5908(harm=  0.5908)  dis= 0.00074  next Energy=  -125.865655 (dE=-0.469E-05)
 bond charge predicted
       N       E                     dE             d eps       ncg     rms          rms(c)
DAV:   1    -0.124023263425E+03    0.27069E-04   -0.24224E-04  3840   0.556E-02    0.471E-03
DAV:   2    -0.124023262896E+03    0.52898E-06   -0.47709E-06  5328   0.726E-03
  95 F= -.12586565E+03 E0= -.12586398E+03  d E =-.412284E-05  mag=     0.0000
 curvature:  -0.91 expect dE=-0.507E-05 dE for cont linesearch -0.202E-07
 trial: gam= 0.29684 g(F)=  0.558E-05 g(S)=  0.000E+00 ort =-0.104E-05 (trialstep = 0.344E+00)
 search vector abs. value=  0.927E-05
 bond charge predicted
       N       E                     dE             d eps       ncg     rms          rms(c)
DAV:   1    -0.124023258078E+03    0.53470E-05   -0.77881E-05  3888   0.361E-02    0.205E-03
DAV:   2    -0.124023258090E+03   -0.12445E-07   -0.73563E-07  5472   0.362E-03
  96 F= -.12586566E+03 E0= -.12586398E+03  d E =-.135574E-05  mag=     0.0000
 trial-energy change:   -0.000001  1 .order   -0.000001   -0.000002   -0.000001
 step:   0.7843(harm=  0.7843)  dis= 0.00036  next Energy=  -125.865657 (dE=-0.207E-05)
 bond charge predicted
       N       E                     dE             d eps       ncg     rms          rms(c)
DAV:   1    -0.124023250835E+03    0.72425E-05   -0.12599E-04  3648   0.458E-02    0.216E-03
DAV:   2    -0.124023250857E+03   -0.21307E-07   -0.10410E-06  5184   0.436E-03
  97 F= -.12586566E+03 E0= -.12586398E+03  d E =-.199536E-05  mag=     0.0000
 curvature:  -0.69 expect dE=-0.390E-05 dE for cont linesearch -0.227E-10
 trial: gam= 0.88934 g(F)=  0.566E-05 g(S)=  0.000E+00 ort = 0.175E-07 (trialstep = 0.308E+00)
 search vector abs. value=  0.130E-04
 bond charge predicted
       N       E                     dE             d eps       ncg     rms          rms(c)
DAV:   1    -0.124023249879E+03    0.95663E-06   -0.96595E-05  3648   0.392E-02    0.216E-03
DAV:   2    -0.124023249815E+03    0.63616E-07   -0.12855E-06  5280   0.448E-03
  98 F= -.12586566E+03 E0= -.12586398E+03  d E =-.134306E-05  mag=     0.0000
 trial-energy change:   -0.000001  1 .order   -0.000001   -0.000002   -0.000001
 step:   0.6740(harm=  0.6740)  dis= 0.00030  next Energy=  -125.865658 (dE=-0.191E-05)
 bond charge predicted
       N       E                     dE             d eps       ncg     rms          rms(c)
DAV:   1    -0.124023247546E+03    0.23325E-05   -0.13643E-04  3648   0.466E-02    0.269E-03
DAV:   2    -0.124023247447E+03    0.98912E-07   -0.16557E-06  5520   0.508E-03
  99 F= -.12586566E+03 E0= -.12586398E+03  d E =-.181323E-05  mag=    -0.0000
 curvature:  -0.77 expect dE=-0.843E-06 dE for cont linesearch -0.865E-09
 trial: gam= 0.19794 g(F)=  0.109E-05 g(S)=  0.000E+00 ort =-0.121E-06 (trialstep = 0.381E+00)
 search vector abs. value=  0.155E-05
 bond charge predicted
       N       E                     dE             d eps       ncg     rms          rms(c)
DAV:   1    -0.124023250404E+03   -0.28574E-05   -0.16895E-05  4656   0.161E-02    0.128E-03
DAV:   2    -0.124023250374E+03    0.29753E-07   -0.34036E-07  5424   0.214E-03
 100 F= -.12586566E+03 E0= -.12586398E+03  d E =-.351240E-06  mag=     0.0000
 trial-energy change:   -0.000000  1 .order   -0.000000   -0.000000   -0.000000
 step:   0.7753(harm=  0.7753)  dis= 0.00007  next Energy=  -125.865659 (dE=-0.413E-06)
 bond charge predicted
       N       E                     dE             d eps       ncg     rms          rms(c)
DAV:   1    -0.124023253160E+03   -0.27563E-05   -0.17435E-05  4992   0.165E-02    0.123E-03
DAV:   2    -0.124023253119E+03    0.40698E-07   -0.27595E-07  5088   0.201E-03
 101 F= -.12586566E+03 E0= -.12586398E+03  d E =-.425192E-06  mag=     0.0000
 curvature:  -0.56 expect dE=-0.291E-06 dE for cont linesearch -0.438E-08
 ZBRENT: interpolating
 opt :   0.7089  next Energy=  -125.865659 (dE=-0.429E-06)
 bond charge predicted
       N       E                     dE             d eps       ncg     rms          rms(c)
DAV:   1    -0.124023252686E+03    0.47380E-06   -0.72249E-07  4896   0.321E-03    0.202E-04
DAV:   2    -0.124023252693E+03   -0.67494E-08   -0.30849E-08  4800   0.811E-04
 102 F= -.12586566E+03 E0= -.12586398E+03  d E =-.448660E-06  mag=     0.0000
 curvature:  -0.47 expect dE=-0.216E-06 dE for cont linesearch -0.301E-08
 ZBRENT: bisectioning
 opt :   0.5450  next Energy=  -125.865659 (dE=-0.463E-06)
 bond charge predicted
       N       E                     dE             d eps       ncg     rms          rms(c)
DAV:   1    -0.124023251587E+03    0.10994E-05   -0.31287E-06  5088   0.697E-03    0.453E-04
DAV:   2    -0.124023251585E+03    0.14397E-08   -0.54231E-08  5136   0.914E-04
 103 F= -.12586566E+03 E0= -.12586398E+03  d E =-.451837E-06  mag=    -0.0000
 curvature:  -2.24 expect dE=-0.744E-06 dE for cont linesearch -0.305E-07
 trial: gam= 0.09306 g(F)=  0.333E-06 g(S)=  0.000E+00 ort = 0.145E-06 (trialstep = 0.414E+00)
 search vector abs. value=  0.373E-06
 reached required accuracy - stopping structural energy minimisation
