    8    8  128    1
  0.4338553E+02  0.5169000E-09  0.5169000E-09  0.1500000E-08  0.5000000E-15
  1.000000000000000E-004
  CAR 
 Lattice                                 
     30   1301     24
 
  0.0000000E+00  0.0000000E+00  0.0000000E+00  0.3844675E-03
      1        -19.884770   1.000000
      2        -15.983180   1.000000
      3        -15.983004   1.000000
      4        -13.641827   1.000000
      5        -13.641771   1.000000
      6        -12.573306   1.000000
      7        -11.250069   1.000000
      8         -8.688689   1.000000
      9         -8.456643   1.000000
     10         -6.304363   1.000000
     11         -6.304182   1.000000
     12         -4.480750   1.000000
     13         -4.480661   1.000000
     14         -3.791963   0.999996
     15         -3.791787   0.999996
     16         -1.963916   0.000000
     17         -0.227785   0.000000
     18         -0.227753   0.000000
     19          0.431761   0.000000
     20          0.841343   0.000000
     21          1.844288   0.000000
     22          2.268490   0.000000
     23          4.234182   0.000000
     24          4.857216   0.000000
 
  0.1960784E-01 -0.1416702E-18  0.0000000E+00  0.7689350E-03
      1        -19.883255   1.000000
      2        -15.990860   1.000000
      3        -15.985609   1.000000
      4        -13.643815   1.000000
      5        -13.636178   1.000000
      6        -12.565817   1.000000
      7        -11.240870   1.000000
      8         -8.686395   1.000000
      9         -8.459743   1.000000
     10         -6.311160   1.000000
     11         -6.305696   1.000000
     12         -4.487707   1.000000
     13         -4.481830   1.000000
     14         -3.799770   0.999998
     15         -3.795801   0.999997
     16         -1.977780   0.000000
     17         -0.224342   0.000000
     18         -0.207264   0.000000
     19          0.438019   0.000000
     20          0.844215   0.000000
     21          1.847396   0.000000
     22          2.271377   0.000000
     23          4.237018   0.000000
     24          4.860338   0.000000
 
 -0.1416702E-18  0.1960784E-01  0.0000000E+00  0.7689350E-03
      1        -19.883255   1.000000
      2        -15.990823   1.000000
      3        -15.985645   1.000000
      4        -13.643842   1.000000
      5        -13.636151   1.000000
      6        -12.565817   1.000000
      7        -11.240870   1.000000
      8         -8.686395   1.000000
      9         -8.459743   1.000000
     10         -6.311137   1.000000
     11         -6.305719   1.000000
     12         -4.487678   1.000000
     13         -4.481859   1.000000
     14         -3.799800   0.999998
     15         -3.795771   0.999997
     16         -1.977781   0.000000
     17         -0.224316   0.000000
     18         -0.207290   0.000000
     19          0.438019   0.000000
     20          0.844215   0.000000
     21          1.847396   0.000000
     22          2.271377   0.000000
     23          4.237018   0.000000
     24          4.860338   0.000000
 
 -0.1960784E-01  0.1960784E-01  0.0000000E+00  0.7689350E-03
      1        -19.883254   1.000000
      2        -15.990969   1.000000
      3        -15.985499   1.000000
      4        -13.643794   1.000000
      5        -13.636198   1.000000
      6        -12.565819   1.000000
      7        -11.240869   1.000000
      8         -8.686395   1.000000
      9         -8.459743   1.000000
     10         -6.311282   1.000000
     11         -6.305574   1.000000
     12         -4.487753   1.000000
     13         -4.481783   1.000000
     14         -3.799913   0.999998
     15         -3.795658   0.999997
     16         -1.977781   0.000000
     17         -0.224337   0.000000
     18         -0.207267   0.000000
     19          0.438018   0.000000
     20          0.844215   0.000000
     21          1.847396   0.000000
     22          2.271377   0.000000
     23          4.237018   0.000000
     24          4.860338   0.000000
 
  0.3921569E-01 -0.2974133E-18  0.0000000E+00  0.7689350E-03
      1        -19.878717   1.000000
      2        -16.013923   1.000000
      3        -15.993006   1.000000
      4        -13.650010   1.000000
      5        -13.619419   1.000000
      6        -12.543330   1.000000
      7        -11.213523   1.000000
      8         -8.679534   1.000000
      9         -8.469203   1.000000
     10         -6.331986   1.000000
     11         -6.309815   1.000000
     12         -4.508828   1.000000
     13         -4.485451   1.000000
     14         -3.823846   1.000000
     15         -3.807467   0.999999
     16         -2.017258   0.000000
     17         -0.214456   0.000000
     18         -0.148612   0.000000
     19          0.457051   0.000000
     20          0.852829   0.000000
     21          1.856727   0.000000
     22          2.280036   0.000000
     23          4.245519   0.000000
     24          4.869582   0.000000
 
 -0.2974133E-18  0.3921569E-01  0.0000000E+00  0.7689350E-03
      1        -19.878717   1.000000
      2        -16.013888   1.000000
      3        -15.993042   1.000000
      4        -13.650037   1.000000
      5        -13.619392   1.000000
      6        -12.543329   1.000000
      7        -11.213523   1.000000
      8         -8.679534   1.000000
      9         -8.469203   1.000000
     10         -6.331963   1.000000
     11         -6.309837   1.000000
     12         -4.508799   1.000000
     13         -4.485480   1.000000
     14         -3.823875   1.000000
     15         -3.807438   0.999999
     16         -2.017258   0.000000
     17         -0.214430   0.000000
     18         -0.148637   0.000000
     19          0.457051   0.000000
     20          0.852829   0.000000
     21          1.856727   0.000000
     22          2.280036   0.000000
     23          4.245519   0.000000
     24          4.869582   0.000000
 
 -0.3921569E-01  0.3921569E-01  0.0000000E+00  0.7689350E-03
      1        -19.878716   1.000000
      2        -16.014033   1.000000
      3        -15.992897   1.000000
      4        -13.649987   1.000000
      5        -13.619438   1.000000
      6        -12.543334   1.000000
      7        -11.213521   1.000000
      8         -8.679534   1.000000
      9         -8.469203   1.000000
     10         -6.332109   1.000000
     11         -6.309691   1.000000
     12         -4.508874   1.000000
     13         -4.485404   1.000000
     14         -3.823988   1.000000
     15         -3.807324   0.999999
     16         -2.017261   0.000000
     17         -0.214451   0.000000
     18         -0.148607   0.000000
     19          0.457045   0.000000
     20          0.852829   0.000000
     21          1.856727   0.000000
     22          2.280036   0.000000
     23          4.245519   0.000000
     24          4.869581   0.000000
 
  0.5882353E-01  0.8441176E-17  0.0000000E+00  0.7689350E-03
      1        -19.871170   1.000000
      2        -16.051347   1.000000
      3        -16.005031   1.000000
      4        -13.660666   1.000000
      5        -13.591807   1.000000
      6        -12.505811   1.000000
      7        -11.168679   1.000000
      8         -8.668092   1.000000
      9         -8.485076   1.000000
     10         -6.366337   1.000000
     11         -6.316280   1.000000
     12         -4.543674   1.000000
     13         -4.491244   1.000000
     14         -3.863511   1.000000
     15         -3.826700   1.000000
     16         -2.076712   0.000000
     17         -0.197857   0.000000
     18         -0.058809   0.000000
     19          0.489958   0.000000
     20          0.867179   0.000000
     21          1.872314   0.000000
     22          2.294463   0.000000
     23          4.259692   0.000000
     24          4.884666   0.000000
 
  0.8441176E-17  0.5882353E-01  0.0000000E+00  0.7689350E-03
      1        -19.871170   1.000000
      2        -16.051312   1.000000
      3        -16.005066   1.000000
      4        -13.660692   1.000000
      5        -13.591780   1.000000
      6        -12.505810   1.000000
      7        -11.168680   1.000000
      8         -8.668092   1.000000
      9         -8.485076   1.000000
     10         -6.366315   1.000000
     11         -6.316302   1.000000
     12         -4.543646   1.000000
     13         -4.491273   1.000000
     14         -3.863540   1.000000
     15         -3.826671   1.000000
     16         -2.076714   0.000000
     17         -0.197831   0.000000
     18         -0.058832   0.000000
     19          0.489957   0.000000
     20          0.867179   0.000000
     21          1.872314   0.000000
     22          2.294463   0.000000
     23          4.259692   0.000000
     24          4.884667   0.000000
 
 -0.5882353E-01  0.5882353E-01  0.0000000E+00  0.7689350E-03
      1        -19.871169   1.000000
      2        -16.051456   1.000000
      3        -16.004923   1.000000
      4        -13.660641   1.000000
      5        -13.591825   1.000000
      6        -12.505820   1.000000
      7        -11.168676   1.000000
      8         -8.668092   1.000000
      9         -8.485077   1.000000
     10         -6.366461   1.000000
     11         -6.316156   1.000000
     12         -4.543719   1.000000
     13         -4.491198   1.000000
     14         -3.863653   1.000000
     15         -3.826558   1.000000
     16         -2.076720   0.000000
     17         -0.197852   0.000000
     18         -0.058793   0.000000
     19          0.489945   0.000000
     20          0.867179   0.000000
     21          1.872313   0.000000
     22          2.294463   0.000000
     23          4.259692   0.000000
     24          4.884664   0.000000
 
  0.7843137E-01 -0.5948266E-18  0.0000000E+00  0.7689350E-03
      1        -19.860651   1.000000
      2        -16.101767   1.000000
      3        -16.021269   1.000000
      4        -13.676039   1.000000
      5        -13.553813   1.000000
      6        -12.453425   1.000000
      7        -11.107322   1.000000
      8         -8.652086   1.000000
      9         -8.507568   1.000000
     10         -6.413869   1.000000
     11         -6.324548   1.000000
     12         -4.591792   1.000000
     13         -4.499169   1.000000
     14         -3.918668   1.000000
     15         -3.853274   1.000000
     16         -2.149650   0.000000
     17         -0.174938   0.000000
     18          0.052938   0.000000
     19          0.539008   0.000000
     20          0.887256   0.000000
     21          1.894214   0.000000
     22          2.314654   0.000000
     23          4.279531   0.000000
     24          4.905215   0.000000
 
 -0.5948266E-18  0.7843137E-01  0.0000000E+00  0.7689350E-03
      1        -19.860651   1.000000
      2        -16.101733   1.000000
      3        -16.021303   1.000000
      4        -13.676065   1.000000
      5        -13.553787   1.000000
      6        -12.453423   1.000000
      7        -11.107324   1.000000
      8         -8.652086   1.000000
      9         -8.507569   1.000000
     10         -6.413847   1.000000
     11         -6.324570   1.000000
     12         -4.591764   1.000000
     13         -4.499198   1.000000
     14         -3.918696   1.000000
     15         -3.853245   1.000000
     16         -2.149652   0.000000
     17         -0.174912   0.000000
     18          0.052917   0.000000
     19          0.539006   0.000000
     20          0.887256   0.000000
     21          1.894214   0.000000
     22          2.314654   0.000000
     23          4.279531   0.000000
     24          4.905215   0.000000
 
 -0.7843137E-01  0.7843137E-01  0.0000000E+00  0.7689350E-03
      1        -19.860650   1.000000
      2        -16.101875   1.000000
      3        -16.021162   1.000000
      4        -13.676011   1.000000
      5        -13.553829   1.000000
      6        -12.453440   1.000000
      7        -11.107317   1.000000
      8         -8.652086   1.000000
      9         -8.507570   1.000000
     10         -6.413992   1.000000
     11         -6.324424   1.000000
     12         -4.591836   1.000000
     13         -4.499123   1.000000
     14         -3.918807   1.000000
     15         -3.853134   1.000000
     16         -2.149663   0.000000
     17         -0.174933   0.000000
     18          0.052970   0.000000
     19          0.538983   0.000000
     20          0.887256   0.000000
     21          1.894213   0.000000
     22          2.314654   0.000000
     23          4.279531   0.000000
     24          4.905211   0.000000
 
  0.9803922E-01  0.8143763E-17  0.0000000E+00  0.7689350E-03
      1        -19.847200   1.000000
      2        -16.163521   1.000000
      3        -16.041193   1.000000
      4        -13.696136   1.000000
      5        -13.506029   1.000000
      6        -12.386672   1.000000
      7        -11.030640   1.000000
      8         -8.631548   1.000000
      9         -8.536916   1.000000
     10         -6.473988   1.000000
     11         -6.333881   1.000000
     12         -4.652466   1.000000
     13         -4.509064   1.000000
     14         -3.988792   1.000000
     15         -3.886945   1.000000
     16         -2.230224   0.000000
     17         -0.145932   0.000000
     18          0.175354   0.000000
     19          0.608408   0.000000
     20          0.913048   0.000000
     21          1.922522   0.000000
     22          2.340602   0.000000
     23          4.305031   0.000000
     24          4.930855   0.000000
 
  0.8143763E-17  0.9803922E-01  0.0000000E+00  0.7689350E-03
      1        -19.847200   1.000000
      2        -16.163487   1.000000
      3        -16.041226   1.000000
      4        -13.696161   1.000000
      5        -13.506004   1.000000
      6        -12.386669   1.000000
      7        -11.030643   1.000000
      8         -8.631548   1.000000
      9         -8.536917   1.000000
     10         -6.473966   1.000000
     11         -6.333901   1.000000
     12         -4.652439   1.000000
     13         -4.509093   1.000000
     14         -3.988820   1.000000
     15         -3.886917   1.000000
     16         -2.230226   0.000000
     17         -0.145907   0.000000
     18          0.175336   0.000000
     19          0.608405   0.000000
     20          0.913048   0.000000
     21          1.922522   0.000000
     22          2.340602   0.000000
     23          4.305031   0.000000
     24          4.930856   0.000000
 
 -0.9803922E-01  0.9803922E-01  0.0000000E+00  0.7689350E-03
      1        -19.847199   1.000000
      2        -16.163628   1.000000
      3        -16.041087   1.000000
      4        -13.696105   1.000000
      5        -13.506044   1.000000
      6        -12.386692   1.000000
      7        -11.030632   1.000000
      8         -8.631547   1.000000
      9         -8.536918   1.000000
     10         -6.474112   1.000000
     11         -6.333755   1.000000
     12         -4.652509   1.000000
     13         -4.509018   1.000000
     14         -3.988930   1.000000
     15         -3.886807   1.000000
     16         -2.230241   0.000000
     17         -0.145927   0.000000
     18          0.175406   0.000000
     19          0.608367   0.000000
     20          0.913048   0.000000
     21          1.922520   0.000000
     22          2.340602   0.000000
     23          4.305031   0.000000
     24          4.930851   0.000000
 
  0.1176471E+00  0.6046654E-17  0.0000000E+00  0.7689350E-03
      1        -19.830890   1.000000
      2        -16.234816   1.000000
      3        -16.064205   1.000000
      4        -13.720637   1.000000
      5        -13.449151   1.000000
      6        -12.306444   1.000000
      7        -10.939898   1.000000
      8         -8.606522   1.000000
      9         -8.573409   1.000000
     10         -6.546150   1.000000
     11         -6.343468   1.000000
     12         -4.724778   1.000000
     13         -4.520744   1.000000
     14         -4.073218   1.000000
     15         -3.927281   1.000000
     16         -2.313876   0.000000
     17         -0.111469   0.000000
     18          0.296557   0.000000
     19          0.704139   0.000000
     20          0.944542   0.000000
     21          1.957386   0.000000
     22          2.372298   0.000000
     23          4.336175   0.000000
     24          4.961266   0.000000
 
  0.6046654E-17  0.1176471E+00  0.0000000E+00  0.7689350E-03
      1        -19.830890   1.000000
      2        -16.234783   1.000000
      3        -16.064238   1.000000
      4        -13.720661   1.000000
      5        -13.449127   1.000000
      6        -12.306440   1.000000
      7        -10.939902   1.000000
      8         -8.606522   1.000000
      9         -8.573411   1.000000
     10         -6.546128   1.000000
     11         -6.343487   1.000000
     12         -4.724752   1.000000
     13         -4.520772   1.000000
     14         -4.073245   1.000000
     15         -3.927253   1.000000
     16         -2.313879   0.000000
     17         -0.111443   0.000000
     18          0.296543   0.000000
     19          0.704133   0.000000
     20          0.944542   0.000000
     21          1.957387   0.000000
     22          2.372299   0.000000
     23          4.336175   0.000000
     24          4.961267   0.000000
 
 -0.1176471E+00  0.1176471E+00  0.0000000E+00  0.7689350E-03
      1        -19.830888   1.000000
      2        -16.234922   1.000000
      3        -16.064101   1.000000
      4        -13.720604   1.000000
      5        -13.449164   1.000000
      6        -12.306471   1.000000
      7        -10.939888   1.000000
      8         -8.606521   1.000000
      9         -8.573412   1.000000
     10         -6.546274   1.000000
     11         -6.343341   1.000000
     12         -4.724819   1.000000
     13         -4.520698   1.000000
     14         -4.073352   1.000000
     15         -3.927145   1.000000
     16         -2.313897   0.000000
     17         -0.111463   0.000000
     18          0.296630   0.000000
     19          0.704083   0.000000
     20          0.944542   0.000000
     21          1.957383   0.000000
     22          2.372298   0.000000
     23          4.336175   0.000000
     24          4.961262   0.000000
 
  0.1372549E+00  0.9074558E-18  0.0000000E+00  0.7689350E-03
      1        -19.811789   1.000000
      2        -16.313869   1.000000
      3        -16.089673   1.000000
      4        -13.748926   1.000000
      5        -13.383916   1.000000
      6        -12.213938   1.000000
      7        -10.836354   1.000000
      8         -8.617248   1.000000
      9         -8.576996   1.000000
     10         -6.629509   1.000000
     11         -6.352394   1.000000
     12         -4.807695   1.000000
     13         -4.533942   1.000000
     14         -4.171341   1.000000
     15         -3.973692   1.000000
     16         -2.397333   0.000000
     17         -0.071867   0.000000
     18          0.407204   0.000000
     19          0.830831   0.000000
     20          0.981726   0.000000
     21          1.999046   0.000000
     22          2.409737   0.000000
     23          4.372970   0.000000
     24          4.996168   0.000000
 
  0.9074558E-18  0.1372549E+00  0.0000000E+00  0.7689350E-03
      1        -19.811789   1.000000
      2        -16.313836   1.000000
      3        -16.089705   1.000000
      4        -13.748950   1.000000
      5        -13.383892   1.000000
      6        -12.213933   1.000000
      7        -10.836359   1.000000
      8         -8.617250   1.000000
      9         -8.576996   1.000000
     10         -6.629487   1.000000
     11         -6.352413   1.000000
     12         -4.807669   1.000000
     13         -4.533970   1.000000
     14         -4.171368   1.000000
     15         -3.973664   1.000000
     16         -2.397335   0.000000
     17         -0.071842   0.000000
     18          0.407194   0.000000
     19          0.830821   0.000000
     20          0.981726   0.000000
     21          1.999047   0.000000
     22          2.409737   0.000000
     23          4.372971   0.000000
     24          4.996169   0.000000
 
 -0.1372549E+00  0.1372549E+00  0.0000000E+00  0.7689350E-03
      1        -19.811787   1.000000
      2        -16.313974   1.000000
      3        -16.089571   1.000000
      4        -13.748891   1.000000
      5        -13.383926   1.000000
      6        -12.213970   1.000000
      7        -10.836341   1.000000
      8         -8.617252   1.000000
      9         -8.576995   1.000000
     10         -6.629634   1.000000
     11         -6.352267   1.000000
     12         -4.807734   1.000000
     13         -4.533896   1.000000
     14         -4.171473   1.000000
     15         -3.973559   1.000000
     16         -2.397358   0.000000
     17         -0.071860   0.000000
     18          0.407291   0.000000
     19          0.830765   0.000000
     20          0.981725   0.000000
     21          1.999041   0.000000
     22          2.409737   0.000000
     23          4.372971   0.000000
     24          4.996164   0.000000
 
  0.1568627E+00 -0.1189653E-17  0.0000000E+00  0.7689350E-03
      1        -19.790015   1.000000
      2        -16.398980   1.000000
      3        -16.116974   1.000000
      4        -13.780210   1.000000
      5        -13.311096   1.000000
      6        -12.110517   1.000000
      7        -10.721214   1.000000
      8         -8.668606   1.000000
      9         -8.543114   1.000000
     10         -6.723269   1.000000
     11         -6.359833   1.000000
     12         -4.900074   1.000000
     13         -4.548459   1.000000
     14         -4.282436   1.000000
     15         -4.025772   1.000000
     16         -2.478535   0.000000
     17         -0.027597   0.000000
     18          0.505035   0.000000
     19          0.986456   0.000000
     20          1.024583   0.000000
     21          2.047884   0.000000
     22          2.452909   0.000000
     23          4.415367   0.000000
     24          5.035289   0.000000
 
 -0.1189653E-17  0.1568627E+00  0.0000000E+00  0.7689350E-03
      1        -19.790015   1.000000
      2        -16.398948   1.000000
      3        -16.117006   1.000000
      4        -13.780233   1.000000
      5        -13.311073   1.000000
      6        -12.110512   1.000000
      7        -10.721220   1.000000
      8         -8.668609   1.000000
      9         -8.543115   1.000000
     10         -6.723248   1.000000
     11         -6.359851   1.000000
     12         -4.900050   1.000000
     13         -4.548486   1.000000
     14         -4.282462   1.000000
     15         -4.025745   1.000000
     16         -2.478537   0.000000
     17         -0.027572   0.000000
     18          0.505028   0.000000
     19          0.986444   0.000000
     20          1.024583   0.000000
     21          2.047885   0.000000
     22          2.452909   0.000000
     23          4.415367   0.000000
     24          5.035290   0.000000
 
 -0.1568627E+00  0.1568627E+00  0.0000000E+00  0.7689350E-03
      1        -19.790012   1.000000
      2        -16.399084   1.000000
      3        -16.116874   1.000000
      4        -13.780174   1.000000
      5        -13.311103   1.000000
      6        -12.110554   1.000000
      7        -10.721199   1.000000
      8         -8.668611   1.000000
      9         -8.543113   1.000000
     10         -6.723395   1.000000
     11         -6.359705   1.000000
     12         -4.900113   1.000000
     13         -4.548413   1.000000
     14         -4.282564   1.000000
     15         -4.025643   1.000000
     16         -2.478563   0.000000
     17         -0.027590   0.000000
     18          0.505127   0.000000
     19          0.986390   0.000000
     20          1.024583   0.000000
     21          2.047877   0.000000
     22          2.452908   0.000000
     23          4.415367   0.000000
     24          5.035286   0.000000
 
  0.1764706E+00  0.1448783E-16  0.0000000E+00  0.7689350E-03
      1        -19.765680   1.000000
      2        -16.488585   1.000000
      3        -16.145503   1.000000
      4        -13.813616   1.000000
      5        -13.231473   1.000000
      6        -11.997585   1.000000
      7        -10.595611   1.000000
      8         -8.727523   1.000000
      9         -8.504893   1.000000
     10         -6.826511   1.000000
     11         -6.364949   1.000000
     12         -5.000649   1.000000
     13         -4.563986   1.000000
     14         -4.405584   1.000000
     15         -4.082866   1.000000
     16         -2.556099   0.000000
     17          0.020681   0.000000
     18          0.593741   0.000000
     19          1.073100   0.000000
     20          1.163801   0.000000
     21          2.104538   0.000000
     22          2.501806   0.000000
     23          4.463358   0.000000
     24          5.078273   0.000000
 
  0.1448783E-16  0.1764706E+00  0.0000000E+00  0.7689350E-03
      1        -19.765681   1.000000
      2        -16.488554   1.000000
      3        -16.145533   1.000000
      4        -13.813639   1.000000
      5        -13.231450   1.000000
      6        -11.997578   1.000000
      7        -10.595618   1.000000
      8         -8.727527   1.000000
      9         -8.504893   1.000000
     10         -6.826490   1.000000
     11         -6.364965   1.000000
     12         -5.000626   1.000000
     13         -4.564014   1.000000
     14         -4.405609   1.000000
     15         -4.082840   1.000000
     16         -2.556102   0.000000
     17          0.020706   0.000000
     18          0.593737   0.000000
     19          1.073100   0.000000
     20          1.163787   0.000000
     21          2.104539   0.000000
     22          2.501806   0.000000
     23          4.463358   0.000000
     24          5.078273   0.000000
 
 -0.1764706E+00  0.1764706E+00  0.0000000E+00  0.7689350E-03
      1        -19.765676   1.000000
      2        -16.488689   1.000000
      3        -16.145404   1.000000
      4        -13.813579   1.000000
      5        -13.231477   1.000000
      6        -11.997625   1.000000
      7        -10.595593   1.000000
      8         -8.727530   1.000000
      9         -8.504891   1.000000
     10         -6.826638   1.000000
     11         -6.364819   1.000000
     12         -5.000686   1.000000
     13         -4.563941   1.000000
     14         -4.405709   1.000000
     15         -4.082741   1.000000
     16         -2.556131   0.000000
     17          0.020689   0.000000
     18          0.593833   0.000000
     19          1.073100   0.000000
     20          1.163741   0.000000
     21          2.104528   0.000000
     22          2.501806   0.000000
     23          4.463358   0.000000
     24          5.078272   0.000000
 
  0.1960784E+00  0.2015618E-16  0.0000000E+00  0.7689350E-03
      1        -19.738933   1.000000
      2        -16.581267   1.000000
      3        -16.174697   1.000000
      4        -13.848301   1.000000
      5        -13.145819   1.000000
      6        -11.876480   1.000000
      7        -10.460598   1.000000
      8         -8.793914   1.000000
      9         -8.462410   1.000000
     10         -6.938265   1.000000
     11         -6.367009   1.000000
     12         -5.108105   1.000000
     13         -4.580258   1.000000
     14         -4.540077   1.000000
     15         -4.144299   1.000000
     16         -2.629240   0.000000
     17          0.072337   0.000000
     18          0.677632   0.000000
     19          1.127260   0.000000
     20          1.354774   0.000000
     21          2.170095   0.000000
     22          2.556420   0.000000
     23          4.516907   0.000000
     24          5.124592   0.000000
 
  0.3403397E-16  0.1960784E+00  0.0000000E+00  0.7689350E-03
      1        -19.738935   1.000000
      2        -16.581236   1.000000
      3        -16.174726   1.000000
      4        -13.848323   1.000000
      5        -13.145797   1.000000
      6        -11.876473   1.000000
      7        -10.460606   1.000000
      8         -8.793918   1.000000
      9         -8.462411   1.000000
     10         -6.938244   1.000000
     11         -6.367024   1.000000
     12         -5.108082   1.000000
     13         -4.580285   1.000000
     14         -4.540101   1.000000
     15         -4.144273   1.000000
     16         -2.629242   0.000000
     17          0.072362   0.000000
     18          0.677630   0.000000
     19          1.127260   0.000000
     20          1.354759   0.000000
     21          2.170095   0.000000
     22          2.556420   0.000000
     23          4.516907   0.000000
     24          5.124591   0.000000
 
 -0.1960784E+00  0.1960784E+00  0.0000000E+00  0.7689350E-03
      1        -19.738929   1.000000
      2        -16.581370   1.000000
      3        -16.174601   1.000000
      4        -13.848264   1.000000
      5        -13.145821   1.000000
      6        -11.876524   1.000000
      7        -10.460578   1.000000
      8         -8.793921   1.000000
      9         -8.462408   1.000000
     10         -6.938393   1.000000
     11         -6.366877   1.000000
     12         -5.108141   1.000000
     13         -4.580213   1.000000
     14         -4.540198   1.000000
     15         -4.144177   1.000000
     16         -2.629274   0.000000
     17          0.072346   0.000000
     18          0.677721   0.000000
     19          1.127260   0.000000
     20          1.354723   0.000000
     21          2.170080   0.000000
     22          2.556420   0.000000
     23          4.516907   0.000000
     24          5.124592   0.000000
 
  0.2156863E+00  0.2195588E-16  0.0000000E+00  0.7689350E-03
      1        -19.709963   1.000000
      2        -16.675748   1.000000
      3        -16.204047   1.000000
      4        -13.883488   1.000000
      5        -13.054914   1.000000
      6        -11.748411   1.000000
      7        -10.317171   1.000000