Automatically generated mesh
    1301
Reciprocal lattice
    0.00000000000000    0.00000000000000    0.00000000000000             1
    0.01960784313726   -0.00000000000000    0.00000000000000             2
   -0.00000000000000    0.01960784313726    0.00000000000000             2
   -0.01960784313726    0.01960784313726    0.00000000000000             2
    0.03921568627451   -0.00000000000000    0.00000000000000             2
   -0.00000000000000    0.03921568627451    0.00000000000000             2
   -0.03921568627451    0.03921568627451    0.00000000000000             2
    0.05882352941177    0.00000000000000    0.00000000000000             2
    0.00000000000000    0.05882352941177    0.00000000000000             2
   -0.05882352941177    0.05882352941177    0.00000000000000             2
    0.07843137254902   -0.00000000000000    0.00000000000000             2
   -0.00000000000000    0.07843137254902    0.00000000000000             2
   -0.07843137254902    0.07843137254902    0.00000000000000             2
    0.09803921568628    0.00000000000000    0.00000000000000             2
    0.00000000000000    0.09803921568628    0.00000000000000             2
   -0.09803921568628    0.09803921568628    0.00000000000000             2
    0.11764705882353    0.00000000000000    0.00000000000000             2
    0.00000000000000    0.11764705882353    0.00000000000000             2
   -0.11764705882353    0.11764705882353    0.00000000000000             2
    0.13725490196079    0.00000000000000    0.00000000000000             2
    0.00000000000000    0.13725490196079    0.00000000000000             2
   -0.13725490196079    0.13725490196079    0.00000000000000             2
    0.15686274509804   -0.00000000000000    0.00000000000000             2
   -0.00000000000000    0.15686274509804    0.00000000000000             2
   -0.15686274509804    0.15686274509804    0.00000000000000             2
    0.17647058823530    0.00000000000000    0.00000000000000             2
    0.00000000000000    0.17647058823530    0.00000000000000             2
   -0.17647058823530    0.17647058823530    0.00000000000000             2
    0.19607843137255    0.00000000000000    0.00000000000000             2
    0.00000000000000    0.19607843137255    0.00000000000000             2
   -0.19607843137255    0.19607843137255    0.00000000000000             2
    0.21568627450981    0.00000000000000    0.00000000000000             2
    0.00000000000000    0.21568627450981    0.00000000000000             2
   -0.21568627450981    0.21568627450981    0.00000000000000             2
    0.23529411764706    0.00000000000000    0.00000000000000             2
    0.00000000000000    0.23529411764706    0.00000000000000             2
   -0.23529411764706    0.23529411764706    0.00000000000000             2
    0.25490196078432    0.00000000000000    0.00000000000000             2
    0.00000000000000    0.25490196078432    0.00000000000000             2
   -0.25490196078432    0.25490196078432    0.00000000000000             2
    0.27450980392157    0.00000000000000    0.00000000000000             2
    0.00000000000000    0.27450980392157    0.00000000000000             2
   -0.27450980392157    0.27450980392157    0.00000000000000             2
    0.29411764705883    0.00000000000000    0.00000000000000             2
    0.00000000000000    0.29411764705883    0.00000000000000             2
   -0.29411764705883    0.29411764705883    0.00000000000000             2
    0.31372549019608   -0.00000000000000    0.00000000000000             2
   -0.00000000000000    0.31372549019608    0.00000000000000             2
   -0.31372549019608    0.31372549019608    0.00000000000000             2
    0.33333333333334   -0.00000000000000    0.00000000000000             2
   -0.00000000000000    0.33333333333334    0.00000000000000             2
   -0.33333333333334    0.33333333333334    0.00000000000000             2
    0.35294117647059    0.00000000000000    0.00000000000000             2
    0.00000000000000    0.35294117647059    0.00000000000000             2
   -0.35294117647059    0.35294117647059    0.00000000000000             2
    0.37254901960785   -0.00000000000000    0.00000000000000             2
   -0.00000000000000    0.37254901960785    0.00000000000000             2
   -0.37254901960785    0.37254901960785    0.00000000000000             2
    0.39215686274510    0.00000000000000    0.00000000000000             2
    0.00000000000000    0.39215686274510    0.00000000000000             2
   -0.39215686274510    0.39215686274510    0.00000000000000             2
    0.41176470588236    0.00000000000000    0.00000000000000             2
    0.00000000000000    0.41176470588236    0.00000000000000             2
   -0.41176470588236    0.41176470588235    0.00000000000000             2
    0.43137254901961    0.00000000000000    0.00000000000000             2
    0.00000000000000    0.43137254901961    0.00000000000000             2
   -0.43137254901961    0.43137254901961    0.00000000000000             2
    0.45098039215686    0.00000000000000    0.00000000000000             2
    0.00000000000000    0.45098039215686    0.00000000000000             2
   -0.45098039215686    0.45098039215686    0.00000000000000             2
    0.47058823529412    0.00000000000000    0.00000000000000             2
    0.00000000000000    0.47058823529412    0.00000000000000             2
   -0.47058823529412    0.47058823529412    0.00000000000000             2
    0.49019607843137   -0.00000000000000    0.00000000000000             2
   -0.00000000000000    0.49019607843137    0.00000000000000             2
   -0.49019607843137    0.49019607843137    0.00000000000000             2
    0.01960784313726    0.01960784313726    0.00000000000000             2
   -0.01960784313726    0.03921568627452    0.00000000000000             2
   -0.03921568627452    0.01960784313726    0.00000000000000             2
    0.03921568627451    0.01960784313726    0.00000000000000             2
   -0.01960784313726    0.05882352941177    0.00000000000000             2
   -0.05882352941177    0.03921568627451    0.00000000000000             2
   -0.03921568627451    0.05882352941177    0.00000000000000             2
    0.01960784313726    0.03921568627451    0.00000000000000             2
    0.05882352941177   -0.01960784313726    0.00000000000000             2
    0.05882352941177    0.01960784313726    0.00000000000000             2
   -0.01960784313726    0.07843137254903    0.00000000000000             2
   -0.07843137254903    0.05882352941177    0.00000000000000             2
   -0.05882352941177    0.07843137254903    0.00000000000000             2
    0.01960784313726    0.05882352941177    0.00000000000000             2
    0.07843137254903   -0.01960784313726    0.00000000000000             2
    0.07843137254902    0.01960784313726    0.00000000000000             2
   -0.01960784313726    0.09803921568628    0.00000000000000             2
   -0.09803921568628    0.07843137254902    0.00000000000000             2
   -0.07843137254902    0.09803921568628    0.00000000000000             2
    0.01960784313726    0.07843137254902    0.00000000000000             2
    0.09803921568628   -0.01960784313726    0.00000000000000             2
    0.09803921568628    0.01960784313726    0.00000000000000             2
   -0.01960784313726    0.11764705882354    0.00000000000000             2
   -0.11764705882354    0.09803921568628    0.00000000000000             2
   -0.09803921568628    0.11764705882354    0.00000000000000             2
    0.01960784313726    0.09803921568628    0.00000000000000             2
    0.11764705882354   -0.01960784313726    0.00000000000000             2
    0.11764705882353    0.01960784313726    0.00000000000000             2
   -0.01960784313726    0.13725490196079    0.00000000000000             2
   -0.13725490196079    0.11764705882353    0.00000000000000             2
   -0.11764705882353    0.13725490196079    0.00000000000000             2
    0.01960784313726    0.11764705882353    0.00000000000000             2
    0.13725490196079   -0.01960784313726    0.00000000000000             2
    0.13725490196079    0.01960784313726    0.00000000000000             2
   -0.01960784313726    0.15686274509805    0.00000000000000             2
   -0.15686274509805    0.13725490196079    0.00000000000000             2
   -0.13725490196079    0.15686274509805    0.00000000000000             2
    0.01960784313726    0.13725490196079    0.00000000000000             2
    0.15686274509805   -0.01960784313726    0.00000000000000             2
    0.15686274509804    0.01960784313726    0.00000000000000             2
   -0.01960784313726    0.17647058823530    0.00000000000000             2
   -0.17647058823530    0.15686274509804    0.00000000000000             2
   -0.15686274509804    0.17647058823530    0.00000000000000             2
    0.01960784313726    0.15686274509804    0.00000000000000             2
    0.17647058823530   -0.01960784313726    0.00000000000000             2
    0.17647058823530    0.01960784313726    0.00000000000000             2
   -0.01960784313726    0.19607843137256    0.00000000000000             2
   -0.19607843137256    0.17647058823530    0.00000000000000             2
   -0.17647058823530    0.19607843137256    0.00000000000000             2
    0.01960784313726    0.17647058823530    0.00000000000000             2
    0.19607843137256   -0.01960784313726    0.00000000000000             2
    0.19607843137255    0.01960784313726    0.00000000000000             2
   -0.01960784313726    0.21568627450981    0.00000000000000             2
   -0.21568627450981    0.19607843137255    0.00000000000000             2
   -0.19607843137255    0.21568627450981    0.00000000000000             2
    0.01960784313726    0.19607843137255    0.00000000000000             2
    0.21568627450981   -0.01960784313726    0.00000000000000             2
    0.21568627450981    0.01960784313726    0.00000000000000             2
   -0.01960784313726    0.23529411764707    0.00000000000000             2
   -0.23529411764707    0.21568627450981    0.00000000000000             2
   -0.21568627450981    0.23529411764707    0.00000000000000             2
    0.01960784313726    0.21568627450981    0.00000000000000             2
    0.23529411764707   -0.01960784313726    0.00000000000000             2
    0.23529411764706    0.01960784313726    0.00000000000000             2
   -0.01960784313726    0.25490196078432    0.00000000000000             2
   -0.25490196078432    0.23529411764706    0.00000000000000             2
   -0.23529411764706    0.25490196078432    0.00000000000000             2
    0.01960784313726    0.23529411764706    0.00000000000000             2
    0.25490196078432   -0.01960784313726    0.00000000000000             2
    0.25490196078432    0.01960784313726    0.00000000000000             2
   -0.01960784313726    0.27450980392157    0.00000000000000             2
   -0.27450980392157    0.25490196078432    0.00000000000000             2
   -0.25490196078432    0.27450980392157    0.00000000000000             2
    0.01960784313726    0.25490196078432    0.00000000000000             2
    0.27450980392157   -0.01960784313726    0.00000000000000             2
    0.27450980392157    0.01960784313726    0.00000000000000             2
   -0.01960784313726    0.29411764705883    0.00000000000000             2
   -0.29411764705883    0.27450980392157    0.00000000000000             2
   -0.27450980392157    0.29411764705883    0.00000000000000             2
    0.01960784313726    0.27450980392157    0.00000000000000             2
    0.29411764705883   -0.01960784313726    0.00000000000000             2
    0.29411764705883    0.01960784313726    0.00000000000000             2
   -0.01960784313726    0.31372549019608    0.00000000000000             2
   -0.31372549019608    0.29411764705883    0.00000000000000             2
   -0.29411764705883    0.31372549019608    0.00000000000000             2
    0.01960784313726    0.29411764705883    0.00000000000000             2
    0.31372549019608   -0.01960784313726    0.00000000000000             2
    0.31372549019608    0.01960784313726    0.00000000000000             2
   -0.01960784313726    0.33333333333334    0.00000000000000             2
   -0.33333333333334    0.31372549019608    0.00000000000000             2
   -0.31372549019608    0.33333333333334    0.00000000000000             2
    0.01960784313726    0.31372549019608    0.00000000000000             2
    0.33333333333334   -0.01960784313726    0.00000000000000             2
    0.33333333333334    0.01960784313726    0.00000000000000             2
   -0.01960784313726    0.35294117647059    0.00000000000000             2
   -0.35294117647059    0.33333333333334    0.00000000000000             2
   -0.33333333333334    0.35294117647059    0.00000000000000             2
    0.01960784313726    0.33333333333334    0.00000000000000             2
    0.35294117647059   -0.01960784313726    0.00000000000000             2
    0.35294117647059    0.01960784313726    0.00000000000000             2
   -0.01960784313726    0.37254901960785    0.00000000000000             2
   -0.37254901960785    0.35294117647059    0.00000000000000             2
   -0.35294117647059    0.37254901960785    0.00000000000000             2
    0.01960784313726    0.35294117647059    0.00000000000000             2
    0.37254901960785   -0.01960784313726    0.00000000000000             2
    0.37254901960785    0.01960784313726    0.00000000000000             2
   -0.01960784313726    0.39215686274510    0.00000000000000             2
   -0.39215686274510    0.37254901960785    0.00000000000000             2
   -0.37254901960785    0.39215686274510    0.00000000000000             2
    0.01960784313726    0.37254901960785    0.00000000000000             2
    0.39215686274510   -0.01960784313726    0.00000000000000             2
    0.39215686274510    0.01960784313726    0.00000000000000             2
   -0.01960784313726    0.41176470588236    0.00000000000000             2
   -0.41176470588236    0.39215686274510    0.00000000000000             2
   -0.39215686274510    0.41176470588236    0.00000000000000             2
    0.01960784313726    0.39215686274510    0.00000000000000             2
    0.41176470588236   -0.01960784313726    0.00000000000000             2
    0.41176470588236    0.01960784313726    0.00000000000000             2
   -0.01960784313726    0.43137254901961    0.00000000000000             2
   -0.43137254901961    0.41176470588236    0.00000000000000             2
   -0.41176470588236    0.43137254901961    0.00000000000000             2
    0.01960784313726    0.41176470588236    0.00000000000000             2
    0.43137254901961   -0.01960784313726    0.00000000000000             2
    0.43137254901961    0.01960784313726    0.00000000000000             2
   -0.01960784313726    0.45098039215686    0.00000000000000             2
   -0.45098039215686    0.43137254901961    0.00000000000000             2
   -0.43137254901961    0.45098039215686    0.00000000000000             2
    0.01960784313726    0.43137254901961    0.00000000000000             2
    0.45098039215686   -0.01960784313726    0.00000000000000             2
    0.45098039215686    0.01960784313726    0.00000000000000             2
   -0.01960784313726    0.47058823529412    0.00000000000000             2
   -0.47058823529412    0.45098039215686    0.00000000000000             2
   -0.45098039215686    0.47058823529412    0.00000000000000             2
    0.01960784313726    0.45098039215686    0.00000000000000             2
    0.47058823529412   -0.01960784313726    0.00000000000000             2
    0.47058823529412    0.01960784313726    0.00000000000000             2
   -0.01960784313726    0.49019607843137    0.00000000000000             2
   -0.49019607843137    0.47058823529412    0.00000000000000             2
   -0.47058823529412    0.49019607843137    0.00000000000000             2
    0.01960784313726    0.47058823529412    0.00000000000000             2
    0.49019607843137   -0.01960784313726    0.00000000000000             2
    0.49019607843137    0.01960784313726    0.00000000000000             2
   -0.01960784313726   -0.49019607843137    0.00000000000000             2
    0.49019607843137    0.49019607843137    0.00000000000000             2
    0.03921568627451    0.03921568627451    0.00000000000000             2
   -0.03921568627451    0.07843137254902    0.00000000000000             2
   -0.07843137254902    0.03921568627451    0.00000000000000             2
    0.05882352941177    0.03921568627451    0.00000000000000             2
   -0.03921568627451    0.09803921568628    0.00000000000000             2
   -0.09803921568628    0.05882352941177    0.00000000000000             2
   -0.05882352941177    0.09803921568628    0.00000000000000             2
    0.03921568627451    0.05882352941177    0.00000000000000             2
    0.09803921568628   -0.03921568627451    0.00000000000000             2
    0.07843137254902    0.03921568627451    0.00000000000000             2
   -0.03921568627451    0.11764705882353    0.00000000000000             2
   -0.11764705882353    0.07843137254902    0.00000000000000             2
   -0.07843137254902    0.11764705882353    0.00000000000000             2
    0.03921568627451    0.07843137254902    0.00000000000000             2
    0.11764705882353   -0.03921568627451    0.00000000000000             2
    0.09803921568628    0.03921568627451    0.00000000000000             2
   -0.03921568627451    0.13725490196079    0.00000000000000             2
   -0.13725490196079    0.09803921568628    0.00000000000000             2
   -0.09803921568628    0.13725490196079    0.00000000000000             2
    0.03921568627451    0.09803921568628    0.00000000000000             2
    0.13725490196079   -0.03921568627451    0.00000000000000             2
    0.11764705882353    0.03921568627451    0.00000000000000             2
   -0.03921568627451    0.15686274509804    0.00000000000000             2
   -0.15686274509804    0.11764705882353    0.00000000000000             2
   -0.11764705882353    0.15686274509804    0.00000000000000             2
    0.03921568627451    0.11764705882353    0.00000000000000             2
    0.15686274509804   -0.03921568627451    0.00000000000000             2
    0.13725490196079    0.03921568627451    0.00000000000000             2
   -0.03921568627451    0.17647058823530    0.00000000000000             2
   -0.17647058823530    0.13725490196079    0.00000000000000             2
   -0.13725490196079    0.17647058823530    0.00000000000000             2
    0.03921568627451    0.13725490196079    0.00000000000000             2
    0.17647058823530   -0.03921568627451    0.00000000000000             2
    0.15686274509804    0.03921568627451    0.00000000000000             2
   -0.03921568627451    0.19607843137255    0.00000000000000             2
   -0.19607843137255    0.15686274509804    0.00000000000000             2
   -0.15686274509804    0.19607843137255    0.00000000000000             2
    0.03921568627451    0.15686274509804    0.00000000000000             2
    0.19607843137255   -0.03921568627451    0.00000000000000             2
    0.17647058823530    0.03921568627451    0.00000000000000             2
   -0.03921568627451    0.21568627450981    0.00000000000000             2
   -0.21568627450981    0.17647058823530    0.00000000000000             2
   -0.17647058823530    0.21568627450981    0.00000000000000             2
    0.03921568627451    0.17647058823530    0.00000000000000             2
    0.21568627450981   -0.03921568627451    0.00000000000000             2
    0.19607843137255    0.03921568627451    0.00000000000000             2
   -0.03921568627451    0.23529411764706    0.00000000000000             2
   -0.23529411764706    0.19607843137255    0.00000000000000             2
   -0.19607843137255    0.23529411764706    0.00000000000000             2
    0.03921568627451    0.19607843137255    0.00000000000000             2
    0.23529411764706   -0.03921568627451    0.00000000000000             2
    0.21568627450981    0.03921568627451    0.00000000000000             2
   -0.03921568627451    0.25490196078432    0.00000000000000             2
   -0.25490196078432    0.21568627450981    0.00000000000000             2
   -0.21568627450981    0.25490196078432    0.00000000000000             2
    0.03921568627451    0.21568627450981    0.00000000000000             2
    0.25490196078432   -0.03921568627451    0.00000000000000             2
    0.23529411764706    0.03921568627451    0.00000000000000             2
   -0.03921568627451    0.27450980392157    0.00000000000000             2
   -0.27450980392157    0.23529411764706    0.00000000000000             2
   -0.23529411764706    0.27450980392157    0.00000000000000             2
    0.03921568627451    0.23529411764706    0.00000000000000             2
    0.27450980392157   -0.03921568627451    0.00000000000000             2
    0.25490196078432    0.03921568627451    0.00000000000000             2
   -0.03921568627451    0.29411764705883    0.00000000000000             2
   -0.29411764705883    0.25490196078432    0.00000000000000             2
   -0.25490196078432    0.29411764705883    0.00000000000000             2
    0.03921568627451    0.25490196078432    0.00000000000000             2
    0.29411764705883   -0.03921568627451    0.00000000000000             2
    0.27450980392157    0.03921568627451    0.00000000000000             2
   -0.03921568627451    0.31372549019608    0.00000000000000             2
   -0.31372549019608    0.27450980392157    0.00000000000000             2
   -0.27450980392157    0.31372549019608    0.00000000000000             2
    0.03921568627451    0.27450980392157    0.00000000000000             2
    0.31372549019608   -0.03921568627451    0.00000000000000             2
    0.29411764705883    0.03921568627451    0.00000000000000             2
   -0.03921568627451    0.33333333333334    0.00000000000000             2
   -0.33333333333334    0.29411764705883    0.00000000000000             2
   -0.29411764705883    0.33333333333334    0.00000000000000             2
    0.03921568627451    0.29411764705883    0.00000000000000             2
    0.33333333333334   -0.03921568627451    0.00000000000000             2
    0.31372549019608    0.03921568627451    0.00000000000000             2
   -0.03921568627451    0.35294117647059    0.00000000000000             2
   -0.35294117647059    0.31372549019608    0.00000000000000             2
   -0.31372549019608    0.35294117647059    0.00000000000000             2
    0.03921568627451    0.31372549019608    0.00000000000000             2
    0.35294117647059   -0.03921568627451    0.00000000000000             2
    0.33333333333334    0.03921568627451    0.00000000000000             2
   -0.03921568627451    0.37254901960785    0.00000000000000             2
   -0.37254901960785    0.33333333333334    0.00000000000000             2
   -0.33333333333334    0.37254901960785    0.00000000000000             2
    0.03921568627451    0.33333333333334    0.00000000000000             2
    0.37254901960785   -0.03921568627451    0.00000000000000             2
    0.35294117647059    0.03921568627451    0.00000000000000             2
   -0.03921568627451    0.39215686274510    0.00000000000000             2
   -0.39215686274510    0.35294117647059    0.00000000000000             2
   -0.35294117647059    0.39215686274510    0.00000000000000             2
    0.03921568627451    0.35294117647059    0.00000000000000             2
    0.39215686274510   -0.03921568627451    0.00000000000000             2
    0.37254901960785    0.03921568627451    0.00000000000000             2
   -0.03921568627451    0.41176470588236    0.00000000000000             2
   -0.41176470588236    0.37254901960785    0.00000000000000             2
   -0.37254901960785    0.41176470588235    0.00000000000000             2
    0.03921568627451    0.37254901960785    0.00000000000000             2
    0.41176470588236   -0.03921568627451    0.00000000000000             2
    0.39215686274510    0.03921568627451    0.00000000000000             2
   -0.03921568627451    0.43137254901961    0.00000000000000             2
   -0.43137254901961    0.39215686274510    0.00000000000000             2
   -0.39215686274510    0.43137254901961    0.00000000000000             2
    0.03921568627451    0.39215686274510    0.00000000000000             2
    0.43137254901961   -0.03921568627451    0.00000000000000             2
    0.41176470588235    0.03921568627451    0.00000000000000             2
   -0.03921568627451    0.45098039215686    0.00000000000000             2
   -0.45098039215686    0.41176470588236    0.00000000000000             2
   -0.41176470588235    0.45098039215686    0.00000000000000             2
    0.03921568627451    0.41176470588236    0.00000000000000             2
    0.45098039215686   -0.03921568627451    0.00000000000000             2
    0.43137254901961    0.03921568627451    0.00000000000000             2
   -0.03921568627451    0.47058823529412    0.00000000000000             2
   -0.47058823529412    0.43137254901961    0.00000000000000             2
   -0.43137254901961    0.47058823529412    0.00000000000000             2
    0.03921568627451    0.43137254901961    0.00000000000000             2
    0.47058823529412   -0.03921568627451    0.00000000000000             2
    0.45098039215686    0.03921568627451    0.00000000000000             2
   -0.03921568627451    0.49019607843137    0.00000000000000             2
   -0.49019607843137    0.45098039215686    0.00000000000000             2
   -0.45098039215686    0.49019607843137    0.00000000000000             2
    0.03921568627451    0.45098039215686    0.00000000000000             2
    0.49019607843137   -0.03921568627451    0.00000000000000             2
    0.47058823529412    0.03921568627451    0.00000000000000             2
   -0.03921568627451   -0.49019607843137    0.00000000000000             2
    0.49019607843137    0.47058823529412    0.00000000000000             2
   -0.47058823529412   -0.49019607843137    0.00000000000000             2
    0.03921568627451    0.47058823529412    0.00000000000000             2
   -0.49019607843137   -0.03921568627451    0.00000000000000             2
    0.05882352941177    0.05882352941177    0.00000000000000             2
   -0.05882352941177    0.11764705882354    0.00000000000000             2
   -0.11764705882354    0.05882352941177    0.00000000000000             2
    0.07843137254902    0.05882352941177    0.00000000000000             2
   -0.05882352941177    0.13725490196079    0.00000000000000             2
   -0.13725490196079    0.07843137254902    0.00000000000000             2
   -0.07843137254902    0.13725490196079    0.00000000000000             2
    0.05882352941177    0.07843137254902    0.00000000000000             2
    0.13725490196079   -0.05882352941177    0.00000000000000             2
    0.09803921568628    0.05882352941177    0.00000000000000             2
   -0.05882352941177    0.15686274509805    0.00000000000000             2
   -0.15686274509805    0.09803921568628    0.00000000000000             2
   -0.09803921568628    0.15686274509805    0.00000000000000             2
    0.05882352941177    0.09803921568628    0.00000000000000             2
    0.15686274509805   -0.05882352941177    0.00000000000000             2
    0.11764705882353    0.05882352941177    0.00000000000000             2
   -0.05882352941177    0.17647058823530    0.00000000000000             2
   -0.17647058823530    0.11764705882353    0.00000000000000             2
   -0.11764705882353    0.17647058823530    0.00000000000000             2
    0.05882352941177    0.11764705882353    0.00000000000000             2
    0.17647058823530   -0.05882352941177    0.00000000000000             2
    0.13725490196079    0.05882352941177    0.00000000000000             2
   -0.05882352941177    0.19607843137256    0.00000000000000             2
   -0.19607843137256    0.13725490196079    0.00000000000000             2
   -0.13725490196079    0.19607843137256    0.00000000000000             2
    0.05882352941177    0.13725490196079    0.00000000000000             2
    0.19607843137256   -0.05882352941177    0.00000000000000             2
    0.15686274509804    0.05882352941177    0.00000000000000             2
   -0.05882352941177    0.21568627450981    0.00000000000000             2
   -0.21568627450981    0.15686274509804    0.00000000000000             2
   -0.15686274509804    0.21568627450981    0.00000000000000             2
    0.05882352941177    0.15686274509804    0.00000000000000             2
    0.21568627450981   -0.05882352941177    0.00000000000000             2
    0.17647058823530    0.05882352941177    0.00000000000000             2
   -0.05882352941177    0.23529411764707    0.00000000000000             2
   -0.23529411764707    0.17647058823530    0.00000000000000             2
   -0.17647058823530    0.23529411764707    0.00000000000000             2
    0.05882352941177    0.17647058823530    0.00000000000000             2
    0.23529411764707   -0.05882352941177    0.00000000000000             2
    0.19607843137255    0.05882352941177    0.00000000000000             2
   -0.05882352941177    0.25490196078432    0.00000000000000             2
   -0.25490196078432    0.19607843137255    0.00000000000000             2
   -0.19607843137255    0.25490196078432    0.00000000000000             2
    0.05882352941177    0.19607843137255    0.00000000000000             2