  15  15   0   4
  0.1999482E+02  0.4805000E-09  0.4805000E-09  0.1500000E-08  0.5000000E-15
  1.000000000000000E-004
  CAR 
 Lattice                                 
     10.46750341    -21.77090056  301     -0.17643783      1.00000000
    -21.771  0.0000E+00  0.0000E+00  0.0000E+00  0.0000E+00
    -21.663  0.0000E+00  0.0000E+00  0.0000E+00  0.0000E+00
    -21.556  0.0000E+00  0.0000E+00  0.0000E+00  0.0000E+00
    -21.449  0.0000E+00  0.0000E+00  0.0000E+00  0.0000E+00
    -21.341  0.0000E+00  0.0000E+00  0.0000E+00  0.0000E+00
    -21.234  0.0000E+00  0.0000E+00  0.0000E+00  0.0000E+00
    -21.126  0.0000E+00  0.0000E+00  0.0000E+00  0.0000E+00
    -21.019  0.0000E+00  0.0000E+00  0.0000E+00  0.0000E+00
    -20.911  0.0000E+00  0.0000E+00  0.0000E+00  0.0000E+00
    -20.804  0.4943E-15  0.4943E-15  0.5312E-16  0.5311E-16
    -20.696  0.9553E-11  0.9553E-11  0.1027E-11  0.1027E-11
    -20.589  0.2152E-07  0.2152E-07  0.2314E-08  0.2314E-08
    -20.481  0.6243E-05  0.6243E-05  0.6732E-06  0.6732E-06
    -20.374  0.2616E-03  0.2616E-03  0.2878E-04  0.2878E-04
    -20.266  0.1940E-02  0.1940E-02  0.2373E-03  0.2373E-03
    -20.159  0.4096E-02  0.4096E-02  0.6774E-03  0.6774E-03
    -20.052  0.4440E-02  0.4440E-02  0.1155E-02  0.1155E-02
    -19.944  0.4884E-02  0.4884E-02  0.1679E-02  0.1679E-02
    -19.837  0.4066E-02  0.4066E-02  0.2116E-02  0.2116E-02
    -19.729  0.5292E-02  0.5292E-02  0.2685E-02  0.2685E-02
    -19.622  0.4233E-02  0.4233E-02  0.3140E-02  0.3140E-02
    -19.514  0.4052E-02  0.4052E-02  0.3575E-02  0.3575E-02
    -19.407  0.5954E-02  0.5954E-02  0.4215E-02  0.4215E-02
    -19.299  0.3930E-02  0.3930E-02  0.4637E-02  0.4637E-02
    -19.192  0.3599E-02  0.3599E-02  0.5024E-02  0.5024E-02
    -19.084  0.5972E-02  0.5972E-02  0.5666E-02  0.5666E-02
    -18.977  0.5311E-02  0.5311E-02  0.6237E-02  0.6237E-02
    -18.869  0.3101E-02  0.3101E-02  0.6570E-02  0.6570E-02
    -18.762  0.3814E-02  0.3814E-02  0.6980E-02  0.6980E-02
    -18.655  0.6874E-02  0.6874E-02  0.7719E-02  0.7719E-02
    -18.547  0.4790E-02  0.4790E-02  0.8233E-02  0.8233E-02
    -18.440  0.3828E-02  0.3828E-02  0.8645E-02  0.8645E-02
    -18.332  0.2803E-02  0.2803E-02  0.8946E-02  0.8946E-02
    -18.225  0.5898E-02  0.5898E-02  0.9580E-02  0.9580E-02
    -18.117  0.6958E-02  0.6958E-02  0.1033E-01  0.1033E-01
    -18.010  0.3954E-02  0.3954E-02  0.1075E-01  0.1075E-01
    -17.902  0.2960E-02  0.2960E-02  0.1107E-01  0.1107E-01
    -17.795  0.3950E-02  0.3950E-02  0.1149E-01  0.1149E-01
    -17.687  0.5513E-02  0.5513E-02  0.1209E-01  0.1209E-01
    -17.580  0.7038E-02  0.7038E-02  0.1284E-01  0.1284E-01
    -17.472  0.6295E-02  0.6295E-02  0.1352E-01  0.1352E-01
    -17.365  0.7731E-02  0.7731E-02  0.1435E-01  0.1435E-01
    -17.258  0.9518E-02  0.9518E-02  0.1537E-01  0.1537E-01
    -17.150  0.1390E-01  0.1390E-01  0.1687E-01  0.1687E-01
    -17.043  0.1594E-01  0.1594E-01  0.1858E-01  0.1858E-01
    -16.935  0.1768E-01  0.1768E-01  0.2048E-01  0.2048E-01
    -16.828  0.2095E-01  0.2095E-01  0.2273E-01  0.2273E-01
    -16.720  0.1536E-01  0.1536E-01  0.2438E-01  0.2438E-01
    -16.613  0.4112E-02  0.4112E-02  0.2482E-01  0.2482E-01
    -16.505  0.4989E-02  0.4989E-02  0.2536E-01  0.2536E-01
    -16.398  0.8987E-02  0.8987E-02  0.2633E-01  0.2633E-01
    -16.290  0.5146E-02  0.5146E-02  0.2688E-01  0.2688E-01
    -16.183  0.4243E-02  0.4243E-02  0.2734E-01  0.2734E-01
    -16.075  0.3661E-02  0.3661E-02  0.2773E-01  0.2773E-01
    -15.968  0.4086E-02  0.4086E-02  0.2817E-01  0.2817E-01
    -15.861  0.3058E-02  0.3058E-02  0.2850E-01  0.2850E-01
    -15.753  0.6098E-02  0.6098E-02  0.2915E-01  0.2915E-01
    -15.646  0.8930E-02  0.8930E-02  0.3011E-01  0.3011E-01
    -15.538  0.5201E-02  0.5201E-02  0.3067E-01  0.3067E-01
    -15.431  0.3643E-02  0.3643E-02  0.3106E-01  0.3106E-01
    -15.323  0.3340E-02  0.3340E-02  0.3142E-01  0.3142E-01
    -15.216  0.3752E-02  0.3752E-02  0.3182E-01  0.3182E-01
    -15.108  0.5529E-02  0.5529E-02  0.3242E-01  0.3242E-01
    -15.001  0.9652E-02  0.9652E-02  0.3346E-01  0.3346E-01
    -14.893  0.1634E-01  0.1634E-01  0.3521E-01  0.3521E-01
    -14.786  0.1947E-01  0.1947E-01  0.3730E-01  0.3730E-01
    -14.678  0.1640E-01  0.1640E-01  0.3907E-01  0.3907E-01
    -14.571  0.1333E-01  0.1333E-01  0.4050E-01  0.4050E-01
    -14.464  0.8110E-02  0.8110E-02  0.4137E-01  0.4137E-01
    -14.356  0.1049E-01  0.1049E-01  0.4250E-01  0.4250E-01
    -14.249  0.1509E-01  0.1509E-01  0.4412E-01  0.4412E-01
    -14.141  0.1475E-01  0.1475E-01  0.4570E-01  0.4570E-01
    -14.034  0.1149E-01  0.1149E-01  0.4694E-01  0.4694E-01
    -13.926  0.1121E-01  0.1121E-01  0.4814E-01  0.4814E-01
    -13.819  0.1780E-01  0.1780E-01  0.5006E-01  0.5006E-01
    -13.711  0.1896E-01  0.1896E-01  0.5209E-01  0.5209E-01
    -13.604  0.1788E-01  0.1788E-01  0.5401E-01  0.5401E-01
    -13.496  0.1395E-01  0.1395E-01  0.5551E-01  0.5551E-01
    -13.389  0.7918E-02  0.7918E-02  0.5636E-01  0.5636E-01
    -13.281  0.3504E-02  0.3504E-02  0.5674E-01  0.5674E-01
    -13.174  0.3131E-02  0.3131E-02  0.5708E-01  0.5708E-01
    -13.067  0.5509E-02  0.5509E-02  0.5767E-01  0.5767E-01
    -12.959  0.7229E-02  0.7229E-02  0.5845E-01  0.5845E-01
    -12.852  0.5308E-02  0.5308E-02  0.5902E-01  0.5902E-01
    -12.744  0.5467E-02  0.5467E-02  0.5960E-01  0.5960E-01
    -12.637  0.6475E-02  0.6475E-02  0.6030E-01  0.6030E-01
    -12.529  0.6340E-02  0.6340E-02  0.6098E-01  0.6098E-01
    -12.422  0.5579E-02  0.5579E-02  0.6158E-01  0.6158E-01
    -12.314  0.4301E-02  0.4301E-02  0.6204E-01  0.6204E-01
    -12.207  0.4091E-02  0.4091E-02  0.6248E-01  0.6248E-01
    -12.099  0.7948E-02  0.7948E-02  0.6334E-01  0.6334E-01
    -11.992  0.5489E-02  0.5489E-02  0.6393E-01  0.6393E-01
    -11.884  0.3091E-02  0.3091E-02  0.6426E-01  0.6426E-01
    -11.777  0.3647E-02  0.3647E-02  0.6465E-01  0.6465E-01
    -11.670  0.3699E-02  0.3699E-02  0.6505E-01  0.6505E-01
    -11.562  0.6489E-02  0.6489E-02  0.6574E-01  0.6574E-01
    -11.455  0.6225E-02  0.6225E-02  0.6641E-01  0.6641E-01
    -11.347  0.2612E-02  0.2612E-02  0.6669E-01  0.6669E-01
    -11.240  0.2762E-02  0.2762E-02  0.6699E-01  0.6699E-01
    -11.132  0.5513E-02  0.5513E-02  0.6758E-01  0.6758E-01
    -11.025  0.6322E-02  0.6322E-02  0.6826E-01  0.6826E-01
    -10.917  0.6810E-02  0.6810E-02  0.6900E-01  0.6900E-01
    -10.810  0.6689E-02  0.6689E-02  0.6971E-01  0.6971E-01
    -10.702  0.4219E-02  0.4219E-02  0.7017E-01  0.7017E-01
    -10.595  0.6672E-02  0.6672E-02  0.7088E-01  0.7088E-01
    -10.487  0.1196E-01  0.1196E-01  0.7217E-01  0.7217E-01
    -10.380  0.1456E-01  0.1456E-01  0.7373E-01  0.7373E-01
    -10.273  0.1650E-01  0.1650E-01  0.7551E-01  0.7551E-01
    -10.165  0.1612E-01  0.1612E-01  0.7724E-01  0.7724E-01
    -10.058  0.1576E-01  0.1576E-01  0.7893E-01  0.7893E-01
     -9.950  0.1632E-01  0.1632E-01  0.8069E-01  0.8069E-01
     -9.843  0.1064E-01  0.1064E-01  0.8183E-01  0.8183E-01
     -9.735  0.9159E-02  0.9159E-02  0.8281E-01  0.8281E-01
     -9.628  0.1338E-01  0.1338E-01  0.8425E-01  0.8425E-01
     -9.520  0.1158E-01  0.1158E-01  0.8550E-01  0.8550E-01
     -9.413  0.1455E-01  0.1455E-01  0.8706E-01  0.8706E-01
     -9.305  0.1890E-01  0.1890E-01  0.8909E-01  0.8909E-01
     -9.198  0.1574E-01  0.1574E-01  0.9078E-01  0.9078E-01
     -9.090  0.1022E-01  0.1022E-01  0.9188E-01  0.9188E-01
     -8.983  0.5816E-02  0.5816E-02  0.9251E-01  0.9251E-01
     -8.876  0.1139E-01  0.1139E-01  0.9373E-01  0.9373E-01
     -8.768  0.2323E-01  0.2323E-01  0.9623E-01  0.9623E-01
     -8.661  0.1725E-01  0.1725E-01  0.9808E-01  0.9808E-01
     -8.553  0.8471E-02  0.8471E-02  0.9899E-01  0.9899E-01
     -8.446  0.9384E-02  0.9384E-02  0.1000E+00  0.1000E+00
     -8.338  0.1756E-01  0.1756E-01  0.1019E+00  0.1019E+00
     -8.231  0.2141E-01  0.2141E-01  0.1042E+00  0.1042E+00
     -8.123  0.1351E-01  0.1351E-01  0.1056E+00  0.1056E+00
     -8.016  0.1337E-01  0.1337E-01  0.1071E+00  0.1071E+00
     -7.908  0.2220E-01  0.2220E-01  0.1095E+00  0.1095E+00
     -7.801  0.2352E-01  0.2352E-01  0.1120E+00  0.1120E+00
     -7.693  0.2277E-01  0.2277E-01  0.1144E+00  0.1144E+00
     -7.586  0.1410E-01  0.1410E-01  0.1160E+00  0.1160E+00
     -7.479  0.7438E-02  0.7438E-02  0.1167E+00  0.1167E+00
     -7.371  0.1490E-01  0.1490E-01  0.1184E+00  0.1184E+00
     -7.264  0.1762E-01  0.1762E-01  0.1202E+00  0.1202E+00
     -7.156  0.1239E-01  0.1239E-01  0.1216E+00  0.1216E+00
     -7.049  0.1336E-01  0.1336E-01  0.1230E+00  0.1230E+00
     -6.941  0.1601E-01  0.1601E-01  0.1247E+00  0.1247E+00
     -6.834  0.1725E-01  0.1725E-01  0.1266E+00  0.1266E+00
     -6.726  0.1668E-01  0.1668E-01  0.1284E+00  0.1284E+00
     -6.619  0.2154E-01  0.2154E-01  0.1307E+00  0.1307E+00
     -6.511  0.2381E-01  0.2381E-01  0.1332E+00  0.1332E+00
     -6.404  0.2105E-01  0.2105E-01  0.1355E+00  0.1355E+00
     -6.296  0.1702E-01  0.1702E-01  0.1373E+00  0.1373E+00
     -6.189  0.1646E-01  0.1646E-01  0.1391E+00  0.1391E+00
     -6.082  0.2077E-01  0.2077E-01  0.1413E+00  0.1413E+00
     -5.974  0.2856E-01  0.2856E-01  0.1444E+00  0.1444E+00
     -5.867  0.2952E-01  0.2952E-01  0.1476E+00  0.1476E+00
     -5.759  0.2436E-01  0.2436E-01  0.1502E+00  0.1502E+00
     -5.652  0.1942E-01  0.1942E-01  0.1523E+00  0.1523E+00
     -5.544  0.2303E-01  0.2303E-01  0.1548E+00  0.1548E+00
     -5.437  0.2899E-01  0.2899E-01  0.1579E+00  0.1579E+00
     -5.329  0.3036E-01  0.3036E-01  0.1611E+00  0.1611E+00
     -5.222  0.2658E-01  0.2658E-01  0.1640E+00  0.1640E+00
     -5.114  0.1773E-01  0.1773E-01  0.1659E+00  0.1659E+00
     -5.007  0.1105E-01  0.1105E-01  0.1671E+00  0.1671E+00
     -4.899  0.7102E-02  0.7102E-02  0.1679E+00  0.1679E+00
     -4.792  0.1219E-01  0.1219E-01  0.1692E+00  0.1692E+00
     -4.685  0.1498E-01  0.1498E-01  0.1708E+00  0.1708E+00
     -4.577  0.1022E-01  0.1022E-01  0.1719E+00  0.1719E+00
     -4.470  0.8519E-02  0.8519E-02  0.1728E+00  0.1728E+00
     -4.362  0.1018E-01  0.1018E-01  0.1739E+00  0.1739E+00
     -4.255  0.2045E-01  0.2045E-01  0.1761E+00  0.1761E+00
     -4.147  0.2310E-01  0.2310E-01  0.1786E+00  0.1786E+00
     -4.040  0.1920E-01  0.1920E-01  0.1806E+00  0.1806E+00
     -3.932  0.2017E-01  0.2017E-01  0.1828E+00  0.1828E+00
     -3.825  0.2498E-01  0.2498E-01  0.1855E+00  0.1855E+00
     -3.717  0.2051E-01  0.2051E-01  0.1877E+00  0.1877E+00
     -3.610  0.1890E-01  0.1890E-01  0.1897E+00  0.1897E+00
     -3.502  0.1821E-01  0.1821E-01  0.1917E+00  0.1917E+00
     -3.395  0.1731E-01  0.1731E-01  0.1935E+00  0.1935E+00
     -3.288  0.1195E-01  0.1195E-01  0.1948E+00  0.1948E+00
     -3.180  0.1411E-01  0.1411E-01  0.1963E+00  0.1963E+00
     -3.073  0.1903E-01  0.1903E-01  0.1984E+00  0.1984E+00
     -2.965  0.1700E-01  0.1700E-01  0.2002E+00  0.2002E+00
     -2.858  0.1254E-01  0.1254E-01  0.2015E+00  0.2015E+00
     -2.750  0.1269E-01  0.1269E-01  0.2029E+00  0.2029E+00
     -2.643  0.8477E-02  0.8477E-02  0.2038E+00  0.2038E+00
     -2.535  0.9732E-02  0.9731E-02  0.2049E+00  0.2049E+00
     -2.428  0.1627E-01  0.1627E-01  0.2066E+00  0.2066E+00
     -2.320  0.1706E-01  0.1706E-01  0.2084E+00  0.2084E+00
     -2.213  0.4910E-02  0.4910E-02  0.2090E+00  0.2090E+00
     -2.105  0.5282E-02  0.5282E-02  0.2095E+00  0.2095E+00
     -1.998  0.1038E-01  0.1038E-01  0.2107E+00  0.2107E+00
     -1.891  0.9105E-02  0.9105E-02  0.2116E+00  0.2116E+00
     -1.783  0.1022E-01  0.1022E-01  0.2127E+00  0.2127E+00
     -1.676  0.1062E-01  0.1062E-01  0.2139E+00  0.2139E+00
     -1.568  0.1026E-01  0.1026E-01  0.2150E+00  0.2150E+00
     -1.461  0.8707E-02  0.8707E-02  0.2159E+00  0.2159E+00
     -1.353  0.3472E-02  0.3472E-02  0.2163E+00  0.2163E+00
     -1.246  0.4025E-02  0.4025E-02  0.2167E+00  0.2167E+00
     -1.138  0.4677E-02  0.4677E-02  0.2172E+00  0.2172E+00
     -1.031  0.3003E-02  0.3003E-02  0.2175E+00  0.2175E+00
     -0.923  0.4428E-02  0.4428E-02  0.2180E+00  0.2180E+00
     -0.816  0.4486E-02  0.4486E-02  0.2185E+00  0.2185E+00
     -0.708  0.1184E-02  0.1184E-02  0.2186E+00  0.2186E+00
     -0.601  0.8349E-04  0.8350E-04  0.2186E+00  0.2186E+00
     -0.494  0.1439E-05  0.1439E-05  0.2186E+00  0.2186E+00
     -0.386  0.3253E-05  0.3253E-05  0.2186E+00  0.2186E+00
     -0.279  0.1494E-03  0.1494E-03  0.2187E+00  0.2187E+00
     -0.171  0.9167E-03  0.9167E-03  0.2188E+00  0.2188E+00
     -0.064  0.8358E-03  0.8358E-03  0.2188E+00  0.2188E+00
      0.044  0.1124E-03  0.1124E-03  0.2189E+00  0.2189E+00
      0.151  0.1995E-05  0.1995E-05  0.2189E+00  0.2189E+00
      0.259  0.5703E-06  0.5703E-06  0.2189E+00  0.2189E+00
      0.366  0.7893E-04  0.7893E-04  0.2189E+00  0.2189E+00
      0.474  0.1368E-02  0.1368E-02  0.2190E+00  0.2190E+00
      0.581  0.3337E-02  0.3337E-02  0.2194E+00  0.2194E+00
      0.689  0.1513E-02  0.1513E-02  0.2195E+00  0.2195E+00
      0.796  0.3149E-02  0.3149E-02  0.2199E+00  0.2199E+00
      0.903  0.6483E-02  0.6483E-02  0.2206E+00  0.2206E+00
      1.011  0.8724E-02  0.8724E-02  0.2215E+00  0.2215E+00
      1.118  0.1845E-01  0.1845E-01  0.2235E+00  0.2235E+00
      1.226  0.2203E-01  0.2203E-01  0.2259E+00  0.2259E+00
      1.333  0.9614E-02  0.9615E-02  0.2269E+00  0.2269E+00
      1.441  0.2656E-02  0.2656E-02  0.2272E+00  0.2272E+00
      1.548  0.4789E-02  0.4789E-02  0.2277E+00  0.2277E+00
      1.656  0.1151E-01  0.1151E-01  0.2289E+00  0.2289E+00
      1.763  0.1848E-01  0.1848E-01  0.2309E+00  0.2309E+00
      1.871  0.1470E-01  0.1470E-01  0.2325E+00  0.2325E+00
      1.978  0.9610E-02  0.9611E-02  0.2335E+00  0.2335E+00
      2.086  0.7741E-02  0.7741E-02  0.2344E+00  0.2344E+00
      2.193  0.1017E-01  0.1017E-01  0.2355E+00  0.2355E+00
      2.300  0.8327E-02  0.8327E-02  0.2363E+00  0.2363E+00
      2.408  0.7945E-02  0.7944E-02  0.2372E+00  0.2372E+00
      2.515  0.9137E-02  0.9137E-02  0.2382E+00  0.2382E+00
      2.623  0.4777E-02  0.4777E-02  0.2387E+00  0.2387E+00
      2.730  0.9323E-02  0.9323E-02  0.2397E+00  0.2397E+00
      2.838  0.1221E-01  0.1221E-01  0.2410E+00  0.2410E+00
      2.945  0.8139E-02  0.8129E-02  0.2419E+00  0.2419E+00
      3.053  0.8289E-02  0.8279E-02  0.2428E+00  0.2428E+00
      3.160  0.8208E-02  0.8217E-02  0.2437E+00  0.2437E+00
      3.268  0.1086E-01  0.1084E-01  0.2448E+00  0.2448E+00
      3.375  0.1056E-01  0.1056E-01  0.2460E+00  0.2460E+00
      3.483  0.9597E-02  0.9604E-02  0.2470E+00  0.2470E+00
      3.590  0.9348E-02  0.9333E-02  0.2480E+00  0.2480E+00
      3.697  0.1281E-01  0.1281E-01  0.2494E+00  0.2494E+00
      3.805  0.2143E-01  0.2143E-01  0.2517E+00  0.2517E+00
      3.912  0.2166E-01  0.2166E-01  0.2540E+00  0.2540E+00
      4.020  0.1824E-01  0.1823E-01  0.2560E+00  0.2560E+00
      4.127  0.1941E-01  0.1942E-01  0.2580E+00  0.2580E+00
      4.235  0.2190E-01  0.2190E-01  0.2604E+00  0.2604E+00
      4.342  0.2457E-01  0.2456E-01  0.2630E+00  0.2630E+00
      4.450  0.2492E-01  0.2493E-01  0.2657E+00  0.2657E+00
      4.557  0.2494E-01  0.2493E-01  0.2684E+00  0.2684E+00
      4.665  0.2773E-01  0.2772E-01  0.2714E+00  0.2714E+00
      4.772  0.2298E-01  0.2296E-01  0.2738E+00  0.2738E+00
      4.880  0.2077E-01  0.2075E-01  0.2761E+00  0.2761E+00
      4.987  0.2438E-01  0.2434E-01  0.2787E+00  0.2787E+00
      5.094  0.2840E-01  0.2841E-01  0.2817E+00  0.2817E+00
      5.202  0.2516E-01  0.2515E-01  0.2845E+00  0.2844E+00
      5.309  0.2383E-01  0.2387E-01  0.2870E+00  0.2870E+00
      5.417  0.1944E-01  0.1944E-01  0.2891E+00  0.2891E+00
      5.524  0.2040E-01  0.2037E-01  0.2913E+00  0.2913E+00
      5.632  0.2283E-01  0.2284E-01  0.2937E+00  0.2937E+00
      5.739  0.3045E-01  0.3043E-01  0.2970E+00  0.2970E+00
      5.847  0.2680E-01  0.2682E-01  0.2999E+00  0.2999E+00
      5.954  0.1634E-01  0.1632E-01  0.3017E+00  0.3016E+00
      6.062  0.1830E-01  0.1828E-01  0.3036E+00  0.3036E+00
      6.169  0.2026E-01  0.2030E-01  0.3058E+00  0.3058E+00
      6.277  0.2091E-01  0.2090E-01  0.3080E+00  0.3080E+00
      6.384  0.1938E-01  0.1938E-01  0.3101E+00  0.3101E+00
      6.491  0.1484E-01  0.1486E-01  0.3117E+00  0.3117E+00
      6.599  0.2185E-01  0.2180E-01  0.3141E+00  0.3141E+00
      6.706  0.2881E-01  0.2882E-01  0.3172E+00  0.3172E+00
      6.814  0.2201E-01  0.2200E-01  0.3195E+00  0.3195E+00
      6.921  0.2213E-01  0.2215E-01  0.3219E+00  0.3219E+00
      7.029  0.2931E-01  0.2930E-01  0.3251E+00  0.3250E+00
      7.136  0.3101E-01  0.3098E-01  0.3284E+00  0.3284E+00
      7.244  0.2730E-01  0.2735E-01  0.3313E+00  0.3313E+00
      7.351  0.2462E-01  0.2458E-01  0.3340E+00  0.3340E+00
      7.459  0.1951E-01  0.1956E-01  0.3361E+00  0.3361E+00
      7.566  0.1857E-01  0.1847E-01  0.3381E+00  0.3380E+00
      7.674  0.2665E-01  0.2656E-01  0.3409E+00  0.3409E+00
      7.781  0.2247E-01  0.2255E-01  0.3433E+00  0.3433E+00
      7.888  0.2125E-01  0.2122E-01  0.3456E+00  0.3456E+00
      7.996  0.2409E-01  0.2408E-01  0.3482E+00  0.3482E+00
      8.103  0.2498E-01  0.2505E-01  0.3509E+00  0.3509E+00
      8.211  0.3469E-01  0.3463E-01  0.3546E+00  0.3546E+00
      8.318  0.3639E-01  0.3644E-01  0.3585E+00  0.3585E+00
      8.426  0.2774E-01  0.2779E-01  0.3615E+00  0.3615E+00
      8.533  0.3152E-01  0.3142E-01  0.3649E+00  0.3649E+00
      8.641  0.2967E-01  0.2976E-01  0.3681E+00  0.3681E+00
      8.748  0.2583E-01  0.2593E-01  0.3709E+00  0.3709E+00
      8.856  0.2156E-01  0.2158E-01  0.3732E+00  0.3732E+00
      8.963  0.1126E-01  0.1127E-01  0.3744E+00  0.3744E+00
      9.071  0.4652E-02  0.4658E-02  0.3749E+00  0.3749E+00
      9.178  0.9157E-03  0.9182E-03  0.3750E+00  0.3750E+00
      9.285  0.3229E-04  0.3244E-04  0.3750E+00  0.3750E+00
      9.393  0.1424E-06  0.1433E-06  0.3750E+00  0.3750E+00
      9.500  0.7027E-10  0.7079E-10  0.3750E+00  0.3750E+00
      9.608  0.3707E-14  0.3737E-14  0.3750E+00  0.3750E+00
      9.715  0.0000E+00  0.0000E+00  0.3750E+00  0.3750E+00
      9.823  0.0000E+00  0.0000E+00  0.3750E+00  0.3750E+00
      9.930  0.0000E+00  0.0000E+00  0.3750E+00  0.3750E+00
     10.038  0.0000E+00  0.0000E+00  0.3750E+00  0.3750E+00
     10.145  0.0000E+00  0.0000E+00  0.3750E+00  0.3750E+00
     10.253  0.0000E+00  0.0000E+00  0.3750E+00  0.3750E+00
     10.360  0.0000E+00  0.0000E+00  0.3750E+00  0.3750E+00
     10.468  0.0000E+00  0.0000E+00  0.3750E+00  0.3750E+00
