 ----------------------------------------------------
    OOO  PPPP  EEEEE N   N M   M PPPP
   O   O P   P E     NN  N MM MM P   P
   O   O PPPP  EEEEE N N N M M M PPPP   -- VERSION
   O   O P     E     N  NN M   M P
    OOO  P     EEEEE N   N M   M P
 ----------------------------------------------------
 running   48 mpi-ranks, with    1 threads/rank
 distrk:  each k-point on   48 cores,    1 groups
 distr:  one band on    1 cores,   48 groups
 vasp.6.3.2 27Jun22 (build Dec 22 2022 13:13:19) complex                        
  
 POSCAR found type information on POSCAR B C 
 POSCAR found :  2 types and      15 ions
 Reading from existing POTCAR
 -----------------------------------------------------------------------------
|                                                                             |
|           W    W    AA    RRRRR   N    N  II  N    N   GGGG   !!!           |
|           W    W   A  A   R    R  NN   N  II  NN   N  G    G  !!!           |
|           W    W  A    A  R    R  N N  N  II  N N  N  G       !!!           |
|           W WW W  AAAAAA  RRRRR   N  N N  II  N  N N  G  GGG   !            |
|           WW  WW  A    A  R   R   N   NN  II  N   NN  G    G                |
|           W    W  A    A  R    R  N    N  II  N    N   GGGG   !!!           |
|                                                                             |
|     You use a magnetic or noncollinear calculation, but did not specify     |
|     the initial magnetic moment with the MAGMOM tag. Note that a            |
|     default of 1 will be used for all atoms. This ferromagnetic setup       |
|     may break the symmetry of the crystal, in particular it may rule        |
|     out finding an antiferromagnetic solution. Thence, we recommend         |
|     setting the initial magnetic moment manually or verifying carefully     |
|     that this magnetic setup is desired.                                    |
|                                                                             |
 -----------------------------------------------------------------------------

 scaLAPACK will be used
 Reading from existing POTCAR
 LDA part: xc-table for Pade appr. of Perdew
 POSCAR found type information on POSCAR B C 
 POSCAR found :  2 types and      15 ions
 POSCAR, INCAR and KPOINTS ok, starting setup
 FFT: planning ... GRIDC
 FFT: planning ... GRID_SOFT
 FFT: planning ... GRID
 WAVECAR not read
 entering main loop
       N       E                     dE             d eps       ncg     rms          rms(c)
DAV:   1     0.202901967793E+03    0.20290E+03   -0.25560E+04 14208   0.858E+02
DAV:   2    -0.115330780022E+03   -0.31823E+03   -0.31684E+03 20112   0.161E+02
DAV:   3    -0.128747679995E+03   -0.13417E+02   -0.13394E+02 26544   0.435E+01
DAV:   4    -0.128773456867E+03   -0.25777E-01   -0.25774E-01 19584   0.188E+00
DAV:   5    -0.128773528858E+03   -0.71991E-04   -0.71991E-04 25728   0.989E-02    0.241E+01
DAV:   6    -0.918909868648E+02    0.36883E+02   -0.73191E+01 25776   0.255E+01    0.137E+01
DAV:   7    -0.100312573749E+03   -0.84216E+01   -0.93252E+00 21888   0.986E+00    0.804E+00
DAV:   8    -0.110419413500E+03   -0.10107E+02   -0.90731E+00 24096   0.904E+00    0.431E+00
DAV:   9    -0.117244416969E+03   -0.68250E+01   -0.40743E+00 18288   0.621E+00    0.277E+00
DAV:  10    -0.123638783301E+03   -0.63944E+01   -0.86081E+00 23952   0.713E+00    0.161E+00
DAV:  11    -0.125226584960E+03   -0.15878E+01   -0.23077E+00 26928   0.366E+00    0.972E-01
DAV:  12    -0.125376553420E+03   -0.14997E+00   -0.21568E-01 18864   0.138E+00    0.439E-01
DAV:  13    -0.125412301414E+03   -0.35748E-01   -0.24990E-02 18528   0.570E-01    0.178E-01
DAV:  14    -0.125435324046E+03   -0.23023E-01   -0.66123E-03 19152   0.288E-01    0.797E-02
DAV:  15    -0.125441826562E+03   -0.65025E-02   -0.27452E-03 19872   0.150E-01    0.412E-02
DAV:  16    -0.125443817584E+03   -0.19910E-02   -0.58336E-04 16896   0.795E-02    0.213E-02
DAV:  17    -0.125445017885E+03   -0.12003E-02   -0.14090E-04 17280   0.497E-02    0.160E-02
DAV:  18    -0.125445779489E+03   -0.76160E-03   -0.75533E-05 18528   0.378E-02    0.110E-02
DAV:  19    -0.125446189786E+03   -0.41030E-03   -0.36967E-05 21216   0.248E-02    0.660E-03
DAV:  20    -0.125446234746E+03   -0.44959E-04   -0.17444E-05 22560   0.170E-02    0.390E-03
DAV:  21    -0.125446255837E+03   -0.21091E-04   -0.56881E-06 20976   0.979E-03    0.210E-03
DAV:  22    -0.125446277526E+03   -0.21690E-04   -0.26668E-06 22080   0.588E-03    0.127E-03
DAV:  23    -0.125446288135E+03   -0.10609E-04   -0.13586E-06 20544   0.392E-03    0.688E-04
DAV:  24    -0.125446290492E+03   -0.23564E-05   -0.28405E-07 23520   0.208E-03    0.361E-04
DAV:  25    -0.125446291503E+03   -0.10110E-05   -0.10721E-07 22032   0.111E-03    0.182E-04
DAV:  26    -0.125446292021E+03   -0.51821E-06   -0.27659E-08 21984   0.536E-04
   1 F= -.12704334E+03 E0= -.12704257E+03  d E =-.127043E+03  mag=    -0.0000
 curvature:   0.00 expect dE= 0.000E+00 dE for cont linesearch  0.000E+00
 trial: gam= 0.00000 g(F)=  0.399E-01 g(S)=  0.000E+00 ort = 0.000E+00 (trialstep = 0.100E+01)
 search vector abs. value=  0.399E-01
 bond charge predicted
       N       E                     dE             d eps       ncg     rms          rms(c)
DAV:   1    -0.125459712414E+03   -0.13421E-01   -0.45245E+00 14208   0.668E+00    0.568E-01
DAV:   2    -0.125448111061E+03    0.11601E-01   -0.89329E-02 26496   0.871E-01    0.251E-01
DAV:   3    -0.125446764141E+03    0.13469E-02   -0.73313E-03 19152   0.248E-01    0.984E-02
DAV:   4    -0.125446704456E+03    0.59686E-04   -0.89749E-04 27168   0.883E-02    0.268E-02
DAV:   5    -0.125446708039E+03   -0.35828E-05   -0.23850E-05 23760   0.163E-02    0.969E-03
DAV:   6    -0.125446708059E+03   -0.20587E-07   -0.41019E-06 23184   0.635E-03
   2 F= -.12704300E+03 E0= -.12704223E+03  d E =0.342959E-03  mag=    -0.0000
 trial-energy change:    0.000343  1 .order    0.000261   -0.039924    0.040446
 step:   0.4952(harm=  0.4967)  dis= 0.00835  next Energy=  -127.053216 (dE=-0.988E-02)
 bond charge predicted
       N       E                     dE             d eps       ncg     rms          rms(c)
DAV:   1    -0.125459912259E+03   -0.13204E-01   -0.11526E+00 14208   0.338E+00    0.287E-01
DAV:   2    -0.125456883796E+03    0.30285E-02   -0.22745E-02 26112   0.438E-01    0.126E-01
DAV:   3    -0.125456553892E+03    0.32990E-03   -0.18425E-03 23760   0.125E-01    0.505E-02
DAV:   4    -0.125456538380E+03    0.15512E-04   -0.21125E-04 23184   0.429E-02    0.133E-02
DAV:   5    -0.125456539340E+03   -0.96001E-06   -0.69813E-06 23280   0.875E-03
   3 F= -.12705320E+03 E0= -.12705243E+03  d E =-.986307E-02  mag=    -0.0000
 curvature:  -0.25 expect dE=-0.197E-02 dE for cont linesearch -0.559E-07
 trial: gam= 0.19587 g(F)=  0.791E-02 g(S)=  0.000E+00 ort = 0.948E-04 (trialstep = 0.899E+00)
 search vector abs. value=  0.948E-02
 bond charge predicted
       N       E                     dE             d eps       ncg     rms          rms(c)
DAV:   1    -0.125462497018E+03   -0.59586E-02   -0.31352E-01 14208   0.210E+00    0.118E-01
DAV:   2    -0.125462537834E+03   -0.40816E-04   -0.26174E-03 27888   0.217E-01    0.687E-02
DAV:   3    -0.125462525566E+03    0.12267E-04   -0.27280E-04 22752   0.610E-02    0.217E-02
DAV:   4    -0.125462525863E+03   -0.29675E-06   -0.52103E-05 25392   0.258E-02    0.920E-03
DAV:   5    -0.125462526649E+03   -0.78632E-06   -0.22700E-06 22464   0.632E-03
   4 F= -.12705905E+03 E0= -.12705828E+03  d E =-.584342E-02  mag=     0.0000
 trial-energy change:   -0.005843  1 .order   -0.005846   -0.007132   -0.004560
 step:   2.4926(harm=  2.4926)  dis= 0.01454  next Energy=  -127.063090 (dE=-0.989E-02)
 bond charge predicted
       N       E                     dE             d eps       ncg     rms          rms(c)
DAV:   1    -0.125466842006E+03   -0.43161E-02   -0.98859E-01 14208   0.372E+00    0.209E-01
DAV:   2    -0.125467002419E+03   -0.16041E-03   -0.82568E-03 26304   0.385E-01    0.122E-01
DAV:   3    -0.125466967088E+03    0.35331E-04   -0.87914E-04 21888   0.109E-01    0.382E-02
DAV:   4    -0.125466967673E+03   -0.58494E-06   -0.16994E-04 26592   0.462E-02    0.165E-02
DAV:   5    -0.125466970083E+03   -0.24105E-05   -0.70211E-06 21360   0.112E-02    0.621E-03
DAV:   6    -0.125466970266E+03   -0.18231E-06   -0.21770E-06 26016   0.550E-03
   5 F= -.12706321E+03 E0= -.12706244E+03  d E =-.100064E-01  mag=     0.0000
 curvature:  -1.49 expect dE=-0.574E-01 dE for cont linesearch -0.604E-05
 trial: gam= 4.86982 g(F)=  0.386E-01 g(S)=  0.000E+00 ort = 0.196E-03 (trialstep = 0.435E-01)
 search vector abs. value=  0.265E+00
 bond charge predicted
       N       E                     dE             d eps       ncg     rms          rms(c)
DAV:   1    -0.125468658046E+03   -0.16880E-02   -0.20236E-02 14208   0.511E-01    0.297E-02
DAV:   2    -0.125468662216E+03   -0.41706E-05   -0.15714E-04 27216   0.520E-02    0.172E-02
DAV:   3    -0.125468661452E+03    0.76380E-06   -0.16465E-05 20832   0.152E-02    0.473E-03
DAV:   4    -0.125468661819E+03   -0.36663E-06   -0.28722E-06 24528   0.630E-03
   6 F= -.12706487E+03 E0= -.12706409E+03  d E =-.165833E-02  mag=     0.0000
 ZBRENT: can't locate minimum, use default step
 trial-energy change:   -0.001658  1 .order   -0.001659   -0.001720   -0.001597
 step:   0.1741(harm=  0.6118)  dis= 0.00482  next Energy=  -127.075297 (dE=-0.121E-01)
 bond charge predicted
       N       E                     dE             d eps       ncg     rms          rms(c)
DAV:   1    -0.125472984773E+03   -0.43233E-02   -0.18234E-01 14208   0.153E+00    0.891E-02
DAV:   2    -0.125473019014E+03   -0.34241E-04   -0.13595E-03 26160   0.153E-01    0.515E-02
DAV:   3    -0.125473011409E+03    0.76055E-05   -0.14562E-04 21504   0.449E-02    0.140E-02
DAV:   4    -0.125473011727E+03   -0.31790E-06   -0.24462E-05 26784   0.181E-02    0.589E-03
DAV:   5    -0.125473012223E+03   -0.49612E-06   -0.85323E-07 18624   0.393E-03
   7 F= -.12706912E+03 E0= -.12706834E+03  d E =-.590669E-02  mag=     0.0000
 curvature:  -0.84 expect dE=-0.160E-01 dE for cont linesearch -0.254E-02
 ZBRENT: increasing intervall
 opt :   0.4352  next Energy=  -127.074365 (dE=-0.112E-01)
 bond charge predicted
       N       E                     dE             d eps       ncg     rms          rms(c)
DAV:   1    -0.125478415016E+03   -0.54033E-02   -0.73250E-01 14208   0.307E+00    0.178E-01
DAV:   2    -0.125478553400E+03   -0.13838E-03   -0.55498E-03 27504   0.309E-01    0.103E-01
DAV:   3    -0.125478519510E+03    0.33890E-04   -0.56899E-04 22464   0.885E-02    0.281E-02
DAV:   4    -0.125478520907E+03   -0.13977E-05   -0.93470E-05 26880   0.355E-02    0.117E-02
DAV:   5    -0.125478522272E+03   -0.13648E-05   -0.31280E-06 22752   0.754E-03    0.505E-03
DAV:   6    -0.125478522151E+03    0.12116E-06   -0.16696E-06 24912   0.471E-03
   8 F= -.12707441E+03 E0= -.12707364E+03  d E =-.112023E-01  mag=     0.0000
 curvature:  -1.73 expect dE=-0.131E-01 dE for cont linesearch -0.974E-03
 ZBRENT: increasing intervall
 opt :   0.9574  next Energy=  -127.072357 (dE=-0.915E-02)
 bond charge predicted
       N       E                     dE             d eps       ncg     rms          rms(c)
DAV:   1    -0.125476611663E+03    0.19106E-02   -0.29468E+00 14208   0.614E+00    0.355E-01
DAV:   2    -0.125477211857E+03   -0.60019E-03   -0.23326E-02 27744   0.629E-01    0.204E-01
DAV:   3    -0.125477072606E+03    0.13925E-03   -0.22347E-03 22752   0.175E-01    0.576E-02
DAV:   4    -0.125477082824E+03   -0.10217E-04   -0.36463E-04 25920   0.697E-02    0.233E-02
DAV:   5    -0.125477089288E+03   -0.64647E-05   -0.11646E-05 23232   0.146E-02    0.988E-03
DAV:   6    -0.125477088529E+03    0.75961E-06   -0.59433E-06 24384   0.893E-03
   9 F= -.12707251E+03 E0= -.12707173E+03  d E =-.929994E-02  mag=     0.0000
 curvature:   3.64 expect dE= 0.182E+00 dE for cont linesearch  0.521E-02
 ZBRENT: bracketing found
 ZBRENT: interpolating
 opt :   0.6367  next Energy=  -127.075644 (dE=-0.124E-01)
 bond charge predicted
       N       E                     dE             d eps       ncg     rms          rms(c)
DAV:   1    -0.125479756490E+03   -0.26672E-02   -0.11114E+00 14208   0.376E+00    0.218E-01
DAV:   2    -0.125479970176E+03   -0.21369E-03   -0.89065E-03 28224   0.387E-01    0.126E-01
DAV:   3    -0.125479915905E+03    0.54271E-04   -0.82817E-04 20544   0.107E-01    0.357E-02
DAV:   4    -0.125479921411E+03   -0.55067E-05   -0.13942E-04 24048   0.431E-02    0.142E-02
DAV:   5    -0.125479924343E+03   -0.29318E-05   -0.44651E-06 18240   0.895E-03    0.602E-03
DAV:   6    -0.125479924590E+03   -0.24715E-06   -0.18580E-06 24480   0.492E-03
  10 F= -.12707564E+03 E0= -.12707487E+03  d E =-.124301E-01  mag=    -0.0000
 curvature:  -0.86 expect dE=-0.115E-01 dE for cont linesearch -0.577E-08
 trial: gam= 0.49111 g(F)=  0.134E-01 g(S)=  0.000E+00 ort =-0.421E-04 (trialstep = 0.162E+00)
 search vector abs. value=  0.773E-01
 bond charge predicted
       N       E                     dE             d eps       ncg     rms          rms(c)
DAV:   1    -0.125482102810E+03   -0.21785E-02   -0.83378E-02 14208   0.939E-01    0.549E-02
DAV:   2    -0.125482117361E+03   -0.14551E-04   -0.48805E-04 22800   0.796E-02    0.327E-02
DAV:   3    -0.125482114909E+03    0.24520E-05   -0.56324E-05 18048   0.233E-02    0.608E-03
DAV:   4    -0.125482115247E+03   -0.33779E-06   -0.47712E-06 24720   0.812E-03
  11 F= -.12707769E+03 E0= -.12707691E+03  d E =-.204939E-02  mag=    -0.0000
 ZBRENT: can't locate minimum, use default step
 trial-energy change:   -0.002049  1 .order   -0.002050   -0.002163   -0.001937
 step:   0.6486(harm=  1.5525)  dis= 0.00545  next Energy=  -127.085996 (dE=-0.104E-01)
 bond charge predicted
       N       E                     dE             d eps       ncg     rms          rms(c)
DAV:   1    -0.125487255363E+03   -0.51405E-02   -0.75134E-01 14208   0.282E+00    0.164E-01
DAV:   2    -0.125487405459E+03   -0.15010E-03   -0.42564E-03 27456   0.236E-01    0.975E-02
DAV:   3    -0.125487373956E+03    0.31503E-04   -0.51219E-04 21792   0.692E-02    0.172E-02
DAV:   4    -0.125487373592E+03    0.36387E-06   -0.37112E-05 23376   0.236E-02    0.819E-03
DAV:   5    -0.125487371473E+03    0.21195E-05   -0.38715E-06 22944   0.755E-03    0.310E-03
DAV:   6    -0.125487370384E+03    0.10883E-05   -0.16800E-06 25392   0.439E-03    0.162E-03
DAV:   7    -0.125487370411E+03   -0.26648E-07   -0.41309E-07 21936   0.202E-03
  12 F= -.12708252E+03 E0= -.12708175E+03  d E =-.688500E-02  mag=     0.0000
 curvature:  -2.60 expect dE=-0.155E-01 dE for cont linesearch -0.218E-02
 ZBRENT: increasing intervall
 opt :   1.6215  next Energy=  -127.086592 (dE=-0.110E-01)
 bond charge predicted
       N       E                     dE             d eps       ncg     rms          rms(c)
DAV:   1    -0.125492184989E+03   -0.48146E-02   -0.30050E+00 14208   0.563E+00    0.321E-01
DAV:   2    -0.125492823562E+03   -0.63857E-03   -0.15871E-02 26496   0.461E-01    0.193E-01
DAV:   3    -0.125492712386E+03    0.11118E-03   -0.21156E-03 23520   0.140E-01    0.306E-02
DAV:   4    -0.125492707434E+03    0.49523E-05   -0.14187E-04 23136   0.465E-02    0.160E-02
DAV:   5    -0.125492701911E+03    0.55230E-05   -0.13767E-05 23520   0.145E-02    0.569E-03
DAV:   6    -0.125492699247E+03    0.26641E-05   -0.58991E-06 24624   0.843E-03    0.206E-03
DAV:   7    -0.125492701292E+03   -0.20459E-05   -0.44779E-06 21264   0.647E-03    0.138E-03
DAV:   8    -0.125492704837E+03   -0.35449E-05   -0.91514E-07 21696   0.295E-03    0.908E-04
DAV:   9    -0.125492708266E+03   -0.34284E-05   -0.25024E-07 19248   0.147E-03    0.524E-04
DAV:  10    -0.125492711376E+03   -0.31107E-05   -0.15691E-07 19440   0.944E-04    0.270E-04
DAV:  11    -0.125492713786E+03   -0.24098E-05   -0.10487E-07 18336   0.577E-04    0.132E-04
DAV:  12    -0.125492714611E+03   -0.82439E-06   -0.26700E-08 24000   0.283E-04
  13 F= -.12708705E+03 E0= -.12708627E+03  d E =-.114094E-01  mag=     0.0000
 curvature:  -4.84 expect dE=-0.520E-01 dE for cont linesearch -0.132E-03
 trial: gam= 0.82553 g(F)=  0.107E-01 g(S)=  0.000E+00 ort = 0.145E-02 (trialstep = 0.454E+00)
 search vector abs. value=  0.658E-01
 bond charge predicted
       N       E                     dE             d eps       ncg     rms          rms(c)
DAV:   1    -0.125494849591E+03   -0.21358E-02   -0.72575E-01 14208   0.338E+00    0.175E-01
DAV:   2    -0.125494914001E+03   -0.64409E-04   -0.64299E-03 26304   0.349E-01    0.107E-01
DAV:   3    -0.125494762192E+03    0.15181E-03   -0.93570E-04 21600   0.115E-01    0.237E-02
DAV:   4    -0.125494763065E+03   -0.87315E-06   -0.11089E-04 24624   0.404E-02    0.145E-02
DAV:   5    -0.125494763151E+03   -0.85766E-07   -0.42467E-06 24288   0.854E-03
  14 F= -.12708868E+03 E0= -.12708790E+03  d E =-.163191E-02  mag=    -0.0000
 trial-energy change:   -0.001632  1 .order   -0.001641   -0.005424    0.002142
 step:   0.3255(harm=  0.3255)  dis= 0.00289  next Energy=  -127.088993 (dE=-0.194E-02)
 bond charge predicted
       N       E                     dE             d eps       ncg     rms          rms(c)
DAV:   1    -0.125494951745E+03   -0.18868E-03   -0.58075E-02 14208   0.957E-01    0.496E-02
DAV:   2    -0.125494957986E+03   -0.62413E-05   -0.52833E-04 26016   0.100E-01    0.303E-02
DAV:   3    -0.125494947532E+03    0.10454E-04   -0.75054E-05 21312   0.326E-02    0.672E-03
DAV:   4    -0.125494948415E+03   -0.88380E-06   -0.91572E-06 25920   0.114E-02
  15 F= -.12708899E+03 E0= -.12708821E+03  d E =-.193746E-02  mag=    -0.0000
 curvature:  -0.90 expect dE=-0.837E-03 dE for cont linesearch -0.276E-08
 trial: gam= 0.25222 g(F)=  0.933E-03 g(S)=  0.000E+00 ort =-0.142E-04 (trialstep = 0.428E+00)
 search vector abs. value=  0.511E-02
 bond charge predicted
       N       E                     dE             d eps       ncg     rms          rms(c)
DAV:   1    -0.125495392997E+03   -0.44547E-03   -0.43917E-02 14208   0.783E-01    0.404E-02
DAV:   2    -0.125495399456E+03   -0.64587E-05   -0.38061E-04 25920   0.775E-02    0.239E-02
DAV:   3    -0.125495396344E+03    0.31118E-05   -0.36126E-05 17568   0.209E-02    0.577E-03
DAV:   4    -0.125495396658E+03   -0.31433E-06   -0.45246E-06 26784   0.785E-03
  16 F= -.12708926E+03 E0= -.12708848E+03  d E =-.273589E-03  mag=    -0.0000
 trial-energy change:   -0.000274  1 .order   -0.000271   -0.000398   -0.000143
 step:   0.6696(harm=  0.6696)  dis= 0.00190  next Energy=  -127.089298 (dE=-0.311E-03)
 bond charge predicted
       N       E                     dE             d eps       ncg     rms          rms(c)
DAV:   1    -0.125495533939E+03   -0.13760E-03   -0.13940E-02 14208   0.441E-01    0.233E-02
DAV:   2    -0.125495536362E+03   -0.24221E-05   -0.11933E-04 26448   0.436E-02    0.139E-02
DAV:   3    -0.125495535819E+03    0.54237E-06   -0.11833E-05 25200   0.119E-02    0.337E-03
DAV:   4    -0.125495535894E+03   -0.74921E-07   -0.13780E-06 22800   0.444E-03
  17 F= -.12708930E+03 E0= -.12708852E+03  d E =-.314534E-03  mag=    -0.0000
 curvature:  -1.84 expect dE=-0.176E-02 dE for cont linesearch -0.432E-09
 trial: gam= 0.87455 g(F)=  0.958E-03 g(S)=  0.000E+00 ort = 0.110E-05 (trialstep = 0.477E+00)
 search vector abs. value=  0.487E-02
 bond charge predicted
       N       E                     dE             d eps       ncg     rms          rms(c)
DAV:   1    -0.125495911058E+03   -0.37524E-03   -0.56075E-02 14208   0.942E-01    0.478E-02
DAV:   2    -0.125495926146E+03   -0.15087E-04   -0.55282E-04 26976   0.102E-01    0.291E-02
DAV:   3    -0.125495920083E+03    0.60625E-05   -0.63260E-05 23808   0.296E-02    0.779E-03
DAV:   4    -0.125495920027E+03    0.56199E-07   -0.10022E-05 25584   0.114E-02    0.448E-03
DAV:   5    -0.125495920305E+03   -0.27850E-06   -0.38387E-07 21360   0.262E-03
  18 F= -.12708947E+03 E0= -.12708869E+03  d E =-.169088E-03  mag=     0.0000
 trial-energy change:   -0.000169  1 .order   -0.000169   -0.000457    0.000118
 step:   0.3787(harm=  0.3787)  dis= 0.00103  next Energy=  -127.089483 (dE=-0.182E-03)
 bond charge predicted
       N       E                     dE             d eps       ncg     rms          rms(c)
DAV:   1    -0.125495887684E+03    0.32343E-04   -0.23523E-03 14208   0.193E-01    0.979E-03
DAV:   2    -0.125495888330E+03   -0.64626E-06   -0.24126E-05 25584   0.213E-02    0.596E-03
DAV:   3    -0.125495888321E+03    0.92241E-08   -0.26985E-06 18048   0.617E-03
  19 F= -.12708948E+03 E0= -.12708870E+03  d E =-.181524E-03  mag=    -0.0000
 curvature:  -0.96 expect dE=-0.410E-03 dE for cont linesearch -0.759E-08
 trial: gam= 0.44081 g(F)=  0.426E-03 g(S)=  0.000E+00 ort = 0.620E-05 (trialstep = 0.457E+00)
 search vector abs. value=  0.138E-02
 bond charge predicted
       N       E                     dE             d eps       ncg     rms          rms(c)
DAV:   1    -0.125496157283E+03   -0.26895E-03   -0.15599E-02 14208   0.482E-01    0.257E-02
DAV:   2    -0.125496156627E+03    0.65552E-06   -0.18889E-04 26592   0.548E-02    0.148E-02
DAV:   3    -0.125496154663E+03    0.19643E-05   -0.14695E-05 18000   0.146E-02    0.466E-03
DAV:   4    -0.125496155050E+03   -0.38728E-06   -0.21513E-06 22176   0.555E-03
  20 F= -.12708961E+03 E0= -.12708883E+03  d E =-.129024E-03  mag=     0.0000
 trial-energy change:   -0.000129  1 .order   -0.000129   -0.000196   -0.000061
 step:   0.6651(harm=  0.6651)  dis= 0.00110  next Energy=  -127.089625 (dE=-0.143E-03)
 bond charge predicted
       N       E                     dE             d eps       ncg     rms          rms(c)
DAV:   1    -0.125496231986E+03   -0.77323E-04   -0.32366E-03 14784   0.219E-01    0.120E-02
DAV:   2    -0.125496232075E+03   -0.89575E-07   -0.39551E-05 27552   0.251E-02    0.694E-03
DAV:   3    -0.125496231855E+03    0.22048E-06   -0.30256E-06 16848   0.667E-03
  21 F= -.12708963E+03 E0= -.12708885E+03  d E =-.143079E-03  mag=     0.0000
 curvature:  -1.07 expect dE=-0.525E-03 dE for cont linesearch -0.151E-08
 trial: gam= 1.15673 g(F)=  0.491E-03 g(S)=  0.000E+00 ort =-0.140E-05 (trialstep = 0.295E+00)
 search vector abs. value=  0.233E-02
 bond charge predicted
       N       E                     dE             d eps       ncg     rms          rms(c)
DAV:   1    -0.125496478894E+03   -0.24682E-03   -0.10744E-02 14208   0.408E-01    0.196E-02
DAV:   2    -0.125496482121E+03   -0.32269E-05   -0.10689E-04 25440   0.427E-02    0.118E-02
DAV:   3    -0.125496482117E+03    0.40645E-08   -0.99081E-06 16800   0.118E-02
  22 F= -.12708973E+03 E0= -.12708895E+03  d E =-.101831E-03  mag=     0.0000
 trial-energy change:   -0.000102  1 .order   -0.000103   -0.000144   -0.000061
 step:   0.5134(harm=  0.5134)  dis= 0.00114  next Energy=  -127.089751 (dE=-0.126E-03)
 bond charge predicted
       N       E                     dE             d eps       ncg     rms          rms(c)
DAV:   1    -0.125496615106E+03   -0.13299E-03   -0.59538E-03 14400   0.304E-01    0.154E-02
DAV:   2    -0.125496617281E+03   -0.21746E-05   -0.59752E-05 26016   0.322E-02    0.929E-03
DAV:   3    -0.125496617548E+03   -0.26685E-06   -0.58940E-06 16320   0.918E-03
  23 F= -.12708975E+03 E0= -.12708897E+03  d E =-.126904E-03  mag=    -0.0000
 curvature:  -1.22 expect dE=-0.424E-03 dE for cont linesearch -0.255E-07
 trial: gam= 0.67484 g(F)=  0.347E-03 g(S)=  0.000E+00 ort = 0.697E-05 (trialstep = 0.338E+00)
 search vector abs. value=  0.142E-02
 bond charge predicted
       N       E                     dE             d eps       ncg     rms          rms(c)
DAV:   1    -0.125496874400E+03   -0.25712E-03   -0.99206E-03 14208   0.389E-01    0.208E-02
DAV:   2    -0.125496873562E+03    0.83873E-06   -0.11573E-04 24384   0.429E-02    0.120E-02
DAV:   3    -0.125496872527E+03    0.10346E-05   -0.10200E-05 21984   0.120E-02    0.342E-03
DAV:   4    -0.125496872777E+03   -0.24979E-06   -0.12778E-06 15744   0.454E-03
  24 F= -.12708983E+03 E0= -.12708905E+03  d E =-.809320E-04  mag=    -0.0000
 trial-energy change:   -0.000081  1 .order   -0.000080   -0.000119   -0.000042
 step:   0.5232(harm=  0.5232)  dis= 0.00067  next Energy=  -127.089844 (dE=-0.919E-04)
 bond charge predicted
       N       E                     dE             d eps       ncg     rms          rms(c)
DAV:   1    -0.125496979942E+03   -0.10741E-03   -0.29565E-03 14592   0.212E-01    0.112E-02
DAV:   2    -0.125496979684E+03    0.25770E-06   -0.34410E-05 20976   0.236E-02    0.646E-03
DAV:   3    -0.125496979461E+03    0.22296E-06   -0.31598E-06 19056   0.693E-03
  25 F= -.12708985E+03 E0= -.12708907E+03  d E =-.925079E-04  mag=    -0.0000
 curvature:  -1.06 expect dE=-0.279E-03 dE for cont linesearch -0.270E-08
 trial: gam= 0.80957 g(F)=  0.265E-03 g(S)=  0.000E+00 ort =-0.191E-05 (trialstep = 0.375E+00)
 search vector abs. value=  0.119E-02
 bond charge predicted
       N       E                     dE             d eps       ncg     rms          rms(c)
DAV:   1    -0.125497257105E+03   -0.27742E-03   -0.99142E-03 14208   0.386E-01    0.200E-02
DAV:   2    -0.125497257420E+03   -0.31442E-06   -0.11033E-04 21696   0.439E-02    0.120E-02
DAV:   3    -0.125497256799E+03    0.62012E-06   -0.11638E-05 22896   0.130E-02    0.375E-03
DAV:   4    -0.125497256943E+03   -0.14382E-06   -0.19303E-06 15168   0.582E-03
  26 F= -.12708991E+03 E0= -.12708913E+03  d E =-.674166E-04  mag=     0.0000
 trial-energy change:   -0.000067  1 .order   -0.000067   -0.000099   -0.000036
 step:   0.5874(harm=  0.5874)  dis= 0.00068  next Energy=  -127.089922 (dE=-0.772E-04)
 bond charge predicted
       N       E                     dE             d eps       ncg     rms          rms(c)
DAV:   1    -0.125497385257E+03   -0.12846E-03   -0.31577E-03 14208   0.218E-01    0.113E-02
DAV:   2    -0.125497385427E+03   -0.17052E-06   -0.36430E-05 21648   0.252E-02    0.683E-03
DAV:   3    -0.125497385336E+03    0.90679E-07   -0.37846E-06 22416   0.765E-03
  27 F= -.12708992E+03 E0= -.12708914E+03  d E =-.770917E-04  mag=     0.0000
 curvature:  -1.33 expect dE=-0.352E-03 dE for cont linesearch -0.196E-07
 trial: gam= 1.00671 g(F)=  0.265E-03 g(S)=  0.000E+00 ort =-0.419E-05 (trialstep = 0.340E+00)
 search vector abs. value=  0.146E-02
 bond charge predicted
       N       E                     dE             d eps       ncg     rms          rms(c)
DAV:   1    -0.125497683687E+03   -0.29826E-03   -0.93598E-03 14208   0.367E-01    0.184E-02
DAV:   2    -0.125497685499E+03   -0.18128E-05   -0.86126E-05 22080   0.390E-02    0.112E-02
DAV:   3    -0.125497685397E+03    0.10249E-06   -0.79812E-06 22368   0.108E-02
  28 F= -.12708999E+03 E0= -.12708921E+03  d E =-.717302E-04  mag=    -0.0000
 trial-energy change:   -0.000072  1 .order   -0.000071   -0.000089   -0.000054
 step:   0.8762(harm=  0.8762)  dis= 0.00130  next Energy=  -127.090036 (dE=-0.114E-03)
 bond charge predicted
       N       E                     dE             d eps       ncg     rms          rms(c)
DAV:   1    -0.125498087305E+03   -0.40181E-03   -0.23317E-02 14208   0.580E-01    0.289E-02
DAV:   2    -0.125498092803E+03   -0.54983E-05   -0.21427E-04 24384   0.616E-02    0.177E-02
DAV:   3    -0.125498091938E+03    0.86500E-06   -0.19446E-05 24192   0.166E-02    0.437E-03
DAV:   4    -0.125498092169E+03   -0.23070E-06   -0.30847E-06 15264   0.787E-03
  29 F= -.12709004E+03 E0= -.12708926E+03  d E =-.118750E-03  mag=     0.0000
 curvature:  -2.46 expect dE=-0.913E-03 dE for cont linesearch -0.113E-06
 trial: gam= 1.35408 g(F)=  0.371E-03 g(S)=  0.000E+00 ort = 0.820E-05 (trialstep = 0.213E+00)
 search vector abs. value=  0.308E-02
 bond charge predicted
       N       E                     dE             d eps       ncg     rms          rms(c)
DAV:   1    -0.125498369495E+03   -0.27756E-03   -0.84041E-03 14208   0.352E-01    0.178E-02
DAV:   2    -0.125498370415E+03   -0.91946E-06   -0.83734E-05 23232   0.390E-02    0.111E-02
DAV:   3    -0.125498369831E+03    0.58362E-06   -0.89903E-06 19968   0.123E-02
  30 F= -.12709010E+03 E0= -.12708932E+03  d E =-.587701E-04  mag=     0.0000
 trial-energy change:   -0.000059  1 .order   -0.000058   -0.000081   -0.000036
 step:   0.3780(harm=  0.3780)  dis= 0.00065  next Energy=  -127.090113 (dE=-0.722E-04)
 bond charge predicted
       N       E                     dE             d eps       ncg     rms          rms(c)
DAV:   1    -0.125498554189E+03   -0.18377E-03   -0.50814E-03 14208   0.274E-01    0.142E-02
DAV:   2    -0.125498554867E+03   -0.67780E-06   -0.50470E-05 21264   0.306E-02    0.888E-03
DAV:   3    -0.125498555005E+03   -0.13825E-06   -0.59262E-06 14736   0.109E-02
  31 F= -.12709011E+03 E0= -.12708934E+03  d E =-.740778E-04  mag=     0.0000
 curvature:  -1.52 expect dE=-0.255E-03 dE for cont linesearch -0.865E-08
 trial: gam= 0.48254 g(F)=  0.168E-03 g(S)=  0.000E+00 ort = 0.418E-05 (trialstep = 0.246E+00)
 search vector abs. value=  0.888E-03
 bond charge predicted
       N       E                     dE             d eps       ncg     rms          rms(c)
DAV:   1    -0.125498743924E+03   -0.18906E-03   -0.33448E-03 14208   0.222E-01    0.110E-02
DAV:   2    -0.125498744152E+03   -0.22780E-06   -0.30945E-05 15840   0.243E-02    0.677E-03
DAV:   3    -0.125498744745E+03   -0.59319E-06   -0.43280E-06 14688   0.965E-03
  32 F= -.12709015E+03 E0= -.12708937E+03  d E =-.368306E-04  mag=    -0.0000
 trial-energy change:   -0.000037  1 .order   -0.000036   -0.000042   -0.000030
 step:   0.9067(harm=  0.9067)  dis= 0.00160  next Energy=  -127.090192 (dE=-0.769E-04)
 bond charge predicted
       N       E                     dE             d eps       ncg     rms          rms(c)
DAV:   1    -0.125499196440E+03   -0.45229E-03   -0.24103E-02 14208   0.594E-01    0.288E-02
DAV:   2    -0.125499199255E+03   -0.28147E-05   -0.21406E-04 21936   0.624E-02    0.177E-02
DAV:   3    -0.125499198952E+03    0.30279E-06   -0.24421E-05 19104   0.195E-02    0.487E-03
DAV:   4    -0.125499199292E+03   -0.34054E-06   -0.58873E-06 15168   0.116E-02
  33 F= -.12709020E+03 E0= -.12708942E+03  d E =-.802948E-04  mag=    -0.0000
 curvature:  -2.37 expect dE=-0.572E-03 dE for cont linesearch -0.204E-06
 trial: gam= 1.40856 g(F)=  0.241E-03 g(S)=  0.000E+00 ort = 0.873E-05 (trialstep = 0.166E+00)
 search vector abs. value=  0.203E-02
 bond charge predicted
       N       E                     dE             d eps       ncg     rms          rms(c)
DAV:   1    -0.125499394609E+03   -0.19566E-03   -0.37791E-03 14208   0.238E-01    0.114E-02
DAV:   2    -0.125499395132E+03   -0.52268E-06   -0.40274E-05 17952   0.272E-02    0.723E-03
DAV:   3    -0.125499395680E+03   -0.54823E-06   -0.52539E-06 14688   0.106E-02
  34 F= -.12709023E+03 E0= -.12708945E+03  d E =-.347558E-04  mag=    -0.0000
 trial-energy change:   -0.000035  1 .order   -0.000034   -0.000042   -0.000026
 step:   0.4406(harm=  0.4406)  dis= 0.00119  next Energy=  -127.090251 (dE=-0.559E-04)
 bond charge predicted
       N       E                     dE             d eps       ncg     rms          rms(c)
DAV:   1    -0.125499687940E+03   -0.29281E-03   -0.10440E-02 14208   0.396E-01    0.190E-02
DAV:   2    -0.125499689137E+03   -0.11970E-05   -0.10455E-04 20640   0.436E-02    0.119E-02
DAV:   3    -0.125499689553E+03   -0.41552E-06   -0.12739E-05 14304   0.154E-02    0.289E-03
DAV:   4    -0.125499689688E+03   -0.13539E-06   -0.45250E-06 14880   0.108E-02
  35 F= -.12709026E+03 E0= -.12708948E+03  d E =-.602320E-04  mag=     0.0000
 curvature:  -1.76 expect dE=-0.213E-03 dE for cont linesearch -0.209E-06
 trial: gam= 0.50928 g(F)=  0.121E-03 g(S)=  0.000E+00 ort = 0.155E-04 (trialstep = 0.221E+00)
 search vector abs. value=  0.662E-03
 bond charge predicted
       N       E                     dE             d eps       ncg     rms          rms(c)
DAV:   1    -0.125499840467E+03   -0.15091E-03   -0.24608E-03 14208   0.195E-01    0.893E-03
DAV:   2    -0.125499840718E+03   -0.25143E-06   -0.28506E-05 16224   0.228E-02    0.575E-03
DAV:   3    -0.125499841127E+03   -0.40902E-06   -0.37843E-06 14352   0.873E-03
  36 F= -.12709028E+03 E0= -.12708950E+03  d E =-.228599E-04  mag=     0.0000
 trial-energy change:   -0.000023  1 .order   -0.000023   -0.000028   -0.000017
 step:   0.5631(harm=  0.5631)  dis= 0.00073  next Energy=  -127.090292 (dE=-0.362E-04)
 bond charge predicted
       N       E                     dE             d eps       ncg     rms          rms(c)
DAV:   1    -0.125500056437E+03   -0.21572E-03   -0.59500E-03 14208   0.303E-01    0.140E-02
DAV:   2    -0.125500056753E+03   -0.31632E-06   -0.64100E-05 17088   0.342E-02    0.890E-03
DAV:   3    -0.125500057132E+03   -0.37831E-06   -0.85549E-06 15168   0.125E-02
  37 F= -.12709029E+03 E0= -.12708952E+03  d E =-.391251E-04  mag=     0.0000
 curvature:  -1.45 expect dE=-0.174E-03 dE for cont linesearch -0.188E-07
 trial: gam= 1.00770 g(F)=  0.120E-03 g(S)=  0.000E+00 ort = 0.293E-05 (trialstep = 0.240E+00)
 search vector abs. value=  0.798E-03
 bond charge predicted
       N       E                     dE             d eps       ncg     rms          rms(c)
DAV:   1    -0.125500243037E+03   -0.18628E-03   -0.38046E-03 14208   0.243E-01    0.112E-02
DAV:   2    -0.125500242772E+03    0.26478E-06   -0.39854E-05 14208   0.273E-02    0.701E-03
DAV:   3    -0.125500243561E+03   -0.78928E-06   -0.60919E-06 17664   0.113E-02
  38 F= -.12709032E+03 E0= -.12708954E+03  d E =-.251265E-04  mag=    -0.0000
 trial-energy change:   -0.000025  1 .order   -0.000023   -0.000029   -0.000017
 step:   0.5711(harm=  0.5711)  dis= 0.00085  next Energy=  -127.090330 (dE=-0.350E-04)
 bond charge predicted
       N       E                     dE             d eps       ncg     rms          rms(c)
DAV:   1    -0.125500481726E+03   -0.23895E-03   -0.72314E-03 14208   0.334E-01    0.152E-02
DAV:   2    -0.125500481524E+03    0.20188E-06   -0.74817E-05 14352   0.371E-02    0.953E-03
DAV:   3    -0.125500482235E+03   -0.71095E-06   -0.10786E-05 14928   0.145E-02    0.280E-03
DAV:   4    -0.125500482387E+03   -0.15217E-06   -0.44222E-06 15552   0.107E-02
  39 F= -.12709034E+03 E0= -.12708956E+03  d E =-.411823E-04  mag=    -0.0000
 curvature:  -1.86 expect dE=-0.127E-03 dE for cont linesearch -0.433E-07
 trial: gam= 0.61834 g(F)=  0.686E-04 g(S)=  0.000E+00 ort = 0.431E-05 (trialstep = 0.306E+00)
 search vector abs. value=  0.379E-03
 bond charge predicted
       N       E                     dE             d eps       ncg     rms          rms(c)
DAV:   1    -0.125500658349E+03   -0.17611E-03   -0.32278E-03 14208   0.223E-01    0.103E-02
DAV:   2    -0.125500658192E+03    0.15728E-06   -0.35867E-05 17184   0.252E-02    0.658E-03
DAV:   3    -0.125500658338E+03   -0.14546E-06   -0.50538E-06 15024   0.973E-03
  40 F= -.12709035E+03 E0= -.12708957E+03  d E =-.153395E-04  mag=     0.0000
 trial-energy change:   -0.000015  1 .order   -0.000015   -0.000022   -0.000009
 step:   0.5036(harm=  0.5036)  dis= 0.00048  next Energy=  -127.090354 (dE=-0.179E-04)
 bond charge predicted
       N       E                     dE             d eps       ncg     rms          rms(c)
DAV:   1    -0.125500765940E+03   -0.10775E-03   -0.13632E-03 14208   0.145E-01    0.702E-03
DAV:   2    -0.125500765664E+03    0.27624E-06   -0.14639E-05 14208   0.170E-02    0.444E-03
DAV:   3    -0.125500766162E+03   -0.49845E-06   -0.28303E-06 17472   0.814E-03
  41 F= -.12709036E+03 E0= -.12708958E+03  d E =-.195330E-04  mag=    -0.0000
 curvature:  -1.34 expect dE=-0.900E-04 dE for cont linesearch -0.509E-07
 trial: gam= 0.92066 g(F)=  0.672E-04 g(S)=  0.000E+00 ort = 0.379E-05 (trialstep = 0.331E+00)
 search vector abs. value=  0.395E-03
 bond charge predicted
       N       E                     dE             d eps       ncg     rms          rms(c)
DAV:   1    -0.125500976876E+03   -0.21121E-03   -0.39349E-03 14208   0.244E-01    0.112E-02
DAV:   2    -0.125500976441E+03    0.43433E-06   -0.42191E-05 16176   0.277E-02    0.702E-03
DAV:   3    -0.125500976774E+03   -0.33265E-06   -0.59517E-06 14256   0.106E-02
  42 F= -.12709037E+03 E0= -.12708960E+03  d E =-.192396E-04  mag=    -0.0000
 trial-energy change:   -0.000019  1 .order   -0.000018   -0.000023   -0.000013
 step:   0.7379(harm=  0.7379)  dis= 0.00083  next Energy=  -127.090381 (dE=-0.261E-04)
 bond charge predicted
       N       E                     dE             d eps       ncg     rms          rms(c)
DAV:   1    -0.125501221887E+03   -0.24545E-03   -0.59471E-03 14208   0.300E-01    0.141E-02
DAV:   2    -0.125501221230E+03    0.65707E-06   -0.62715E-05 15120   0.340E-02    0.880E-03
DAV:   3    -0.125501221668E+03   -0.43824E-06   -0.91756E-06 14448   0.132E-02
  43 F= -.12709038E+03 E0= -.12708961E+03  d E =-.293207E-04  mag=     0.0000
 curvature:  -2.07 expect dE=-0.160E-03 dE for cont linesearch -0.134E-07
 trial: gam= 1.20410 g(F)=  0.773E-04 g(S)=  0.000E+00 ort = 0.160E-05 (trialstep = 0.249E+00)
 search vector abs. value=  0.654E-03
 bond charge predicted
       N       E                     dE             d eps       ncg     rms          rms(c)
DAV:   1    -0.125501426862E+03   -0.20563E-03   -0.37250E-03 14208   0.236E-01    0.113E-02
DAV:   2    -0.125501426570E+03    0.29283E-06   -0.40299E-05 15360   0.278E-02    0.719E-03
DAV:   3    -0.125501427552E+03   -0.98245E-06   -0.67155E-06 15312   0.123E-02
  44 F= -.12709040E+03 E0= -.12708962E+03  d E =-.164353E-04  mag=     0.0000
 trial-energy change:   -0.000016  1 .order   -0.000016   -0.000020   -0.000012
 step:   0.6022(harm=  0.6022)  dis= 0.00093  next Energy=  -127.090409 (dE=-0.238E-04)
 bond charge predicted
       N       E                     dE             d eps       ncg     rms          rms(c)
DAV:   1    -0.125501705053E+03   -0.27848E-03   -0.74228E-03 14208   0.333E-01    0.156E-02
DAV:   2    -0.125501704954E+03    0.99005E-07   -0.78883E-05 16992   0.380E-02    0.991E-03
DAV:   3    -0.125501705781E+03   -0.82782E-06   -0.11520E-05 15264   0.153E-02    0.245E-03
DAV:   4    -0.125501705637E+03    0.14487E-06   -0.51903E-06 14208   0.116E-02
  45 F= -.12709041E+03 E0= -.12708963E+03  d E =-.264761E-04  mag=    -0.0000
 curvature:  -2.49 expect dE=-0.199E-03 dE for cont linesearch -0.584E-07
 trial: gam= 1.11970 g(F)=  0.798E-04 g(S)=  0.000E+00 ort = 0.392E-05 (trialstep = 0.230E+00)
 search vector abs. value=  0.909E-03
 bond charge predicted
       N       E                     dE             d eps       ncg     rms          rms(c)
DAV:   1    -0.125501933399E+03   -0.22762E-03   -0.44178E-03 15312   0.255E-01    0.121E-02
DAV:   2    -0.125501933301E+03    0.97689E-07   -0.49995E-05 19680   0.293E-02    0.764E-03
DAV:   3    -0.125501933353E+03   -0.51894E-07   -0.61285E-06 22320   0.977E-03
  46 F= -.12709043E+03 E0= -.12708965E+03  d E =-.149745E-04  mag=     0.0000
 trial-energy change:   -0.000015  1 .order   -0.000015   -0.000019   -0.000011
 step:   0.5482(harm=  0.5482)  dis= 0.00088  next Energy=  -127.090434 (dE=-0.231E-04)
 bond charge predicted
       N       E                     dE             d eps       ncg     rms          rms(c)
DAV:   1    -0.125502238349E+03   -0.30505E-03   -0.84586E-03 14208   0.353E-01    0.170E-02
DAV:   2    -0.125502237736E+03    0.61233E-06   -0.89135E-05 14784   0.397E-02    0.106E-02
DAV:   3    -0.125502237689E+03    0.47079E-07   -0.12043E-05 18480   0.138E-02    0.262E-03
DAV:   4    -0.125502237949E+03   -0.25963E-06   -0.28978E-06 15360   0.794E-03
  47 F= -.12709044E+03 E0= -.12708966E+03  d E =-.259661E-04  mag=    -0.0000
 curvature:  -2.96 expect dE=-0.168E-03 dE for cont linesearch -0.485E-06
 ZBRENT: extrapolating
 opt :   0.6542  next Energy=  -127.090438 (dE=-0.266E-04)
 bond charge predicted
       N       E                     dE             d eps       ncg     rms          rms(c)
DAV:   1    -0.125502336215E+03   -0.98526E-04   -0.93699E-04 14208   0.118E-01    0.569E-03
DAV:   2    -0.125502336046E+03    0.16872E-06   -0.10990E-05 16224   0.145E-02    0.361E-03
DAV:   3    -0.125502336405E+03   -0.35860E-06   -0.17198E-06 15168   0.622E-03
  48 F= -.12709044E+03 E0= -.12708966E+03  d E =-.266558E-04  mag=    -0.0000
 curvature:  -3.95 expect dE=-0.308E-03 dE for cont linesearch -0.858E-07
 trial: gam= 0.99255 g(F)=  0.781E-04 g(S)=  0.000E+00 ort =-0.445E-05 (trialstep = 0.297E+00)
 search vector abs. value=  0.965E-03
 bond charge predicted
       N       E                     dE             d eps       ncg     rms          rms(c)
DAV:   1    -0.125502650522E+03   -0.31448E-03   -0.81257E-03 14208   0.346E-01    0.160E-02
DAV:   2    -0.125502649987E+03    0.53454E-06   -0.82291E-05 14208   0.383E-02    0.101E-02
DAV:   3    -0.125502649988E+03   -0.99135E-09   -0.11462E-05 17184   0.134E-02    0.250E-03
DAV:   4    -0.125502650221E+03   -0.23313E-06   -0.27554E-06 15696   0.768E-03
  49 F= -.12709046E+03 E0= -.12708968E+03  d E =-.183070E-04  mag=     0.0000
 trial-energy change:   -0.000018  1 .order   -0.000018   -0.000022   -0.000014
 step:   0.7942(harm=  0.7942)  dis= 0.00148  next Energy=  -127.090467 (dE=-0.293E-04)
 bond charge predicted
       N       E                     dE             d eps       ncg     rms          rms(c)
DAV:   1    -0.125503157123E+03   -0.50713E-03   -0.22773E-02 14208   0.579E-01    0.267E-02
DAV:   2    -0.125503156637E+03    0.48637E-06   -0.23231E-04 16320   0.637E-02    0.167E-02
DAV:   3    -0.125503155257E+03    0.13797E-05   -0.31871E-05 25104   0.209E-02    0.401E-03
DAV:   4    -0.125503155570E+03   -0.31283E-06   -0.48766E-06 16080   0.952E-03
  50 F= -.12709047E+03 E0= -.12708969E+03  d E =-.287536E-04  mag=     0.0000
 curvature:  -5.20 expect dE=-0.782E-03 dE for cont linesearch -0.579E-07
 trial: gam= 1.85377 g(F)=  0.150E-03 g(S)=  0.000E+00 ort =-0.328E-05 (trialstep = 0.111E+00)
 search vector abs. value=  0.345E-02
 bond charge predicted
       N       E                     dE             d eps       ncg     rms          rms(c)
DAV:   1    -0.125503382152E+03   -0.22689E-03   -0.41838E-03 14208   0.248E-01    0.115E-02
DAV:   2    -0.125503381802E+03    0.35047E-06   -0.43414E-05 14208   0.281E-02    0.722E-03
DAV:   3    -0.125503382144E+03   -0.34277E-06   -0.58952E-06 14880   0.103E-02
  51 F= -.12709048E+03 E0= -.12708970E+03  d E =-.145862E-04  mag=     0.0000
 trial-energy change:   -0.000015  1 .order   -0.000014   -0.000016   -0.000011
 step:   0.3575(harm=  0.3575)  dis= 0.00136  next Energy=  -127.090492 (dE=-0.258E-04)
 bond charge predicted
       N       E                     dE             d eps       ncg     rms          rms(c)
DAV:   1    -0.125503876968E+03   -0.49517E-03   -0.20818E-02 14208   0.554E-01    0.254E-02
DAV:   2    -0.125503875808E+03    0.11603E-05   -0.20501E-04 14688   0.602E-02    0.159E-02
DAV:   3    -0.125503874935E+03    0.87257E-06   -0.28259E-05 21696   0.203E-02    0.370E-03
DAV:   4    -0.125503875390E+03   -0.45411E-06   -0.51924E-06 15840   0.104E-02
  52 F= -.12709050E+03 E0= -.12708972E+03  d E =-.355821E-04  mag=     0.0000
 curvature:  -4.28 expect dE=-0.277E-03 dE for cont linesearch -0.308E-05
 ZBRENT: increasing intervall
 opt :   0.8510  next Energy=  -127.090502 (dE=-0.357E-04)
 bond charge predicted
       N       E                     dE             d eps       ncg     rms          rms(c)
DAV:   1    -0.125504821632E+03   -0.94670E-03   -0.82983E-02 14208   0.111E+00    0.505E-02
DAV:   2    -0.125504819640E+03    0.19918E-05   -0.82208E-04 17472   0.119E-01    0.313E-02
DAV:   3    -0.125504811450E+03    0.81896E-05   -0.11000E-04 27024   0.379E-02    0.694E-03
DAV:   4    -0.125504812274E+03   -0.82403E-06   -0.13275E-05 16512   0.149E-02    0.347E-03
DAV:   5    -0.125504813146E+03   -0.87179E-06   -0.20193E-06 14976   0.713E-03
  53 F= -.12709050E+03 E0= -.12708972E+03  d E =-.300506E-04  mag=    -0.0000
 curvature:  -0.12 expect dE=-0.300E-04 dE for cont linesearch -0.208E-06
 ZBRENT: bracketing found
 ZBRENT: interpolating
 opt :   0.5508  next Energy=  -127.090507 (dE=-0.404E-04)
 bond charge predicted
       N       E                     dE             d eps       ncg     rms          rms(c)
DAV:   1    -0.125504254112E+03    0.55816E-03   -0.30628E-02 14208   0.672E-01    0.306E-02
DAV:   2    -0.125504252738E+03    0.13740E-05   -0.30637E-04 21600   0.722E-02    0.189E-02
DAV:   3    -0.125504250547E+03    0.21904E-05   -0.38072E-05 22224   0.218E-02    0.419E-03
DAV:   4    -0.125504250819E+03   -0.27178E-06   -0.50425E-06 16512   0.816E-03
  54 F= -.12709051E+03 E0= -.12708973E+03  d E =-.412641E-04  mag=    -0.0000
 curvature:  -2.78 expect dE=-0.269E-03 dE for cont linesearch -0.180E-08
 trial: gam= 0.55281 g(F)=  0.969E-04 g(S)=  0.000E+00 ort = 0.150E-05 (trialstep = 0.199E+00)
 search vector abs. value=  0.115E-02
 bond charge predicted
       N       E                     dE             d eps       ncg     rms          rms(c)
DAV:   1    -0.125504486316E+03   -0.23577E-03   -0.48649E-03 14208   0.271E-01    0.120E-02
DAV:   2    -0.125504485423E+03    0.89337E-06   -0.52355E-05 17664   0.300E-02    0.758E-03
DAV:   3    -0.125504485239E+03    0.18406E-06   -0.73835E-06 15648   0.101E-02
  55 F= -.12709052E+03 E0= -.12708974E+03  d E =-.156514E-04  mag=     0.0000
 trial-energy change:   -0.000016  1 .order   -0.000014   -0.000019   -0.000009
 step:   0.3665(harm=  0.3665)  dis= 0.00074  next Energy=  -127.090526 (dE=-0.179E-04)
 bond charge predicted
       N       E                     dE             d eps       ncg     rms          rms(c)
DAV:   1    -0.125504676941E+03   -0.19152E-03   -0.35290E-03 14208   0.230E-01    0.109E-02
DAV:   2    -0.125504676373E+03    0.56812E-06   -0.37089E-05 16320   0.256E-02    0.691E-03
DAV:   3    -0.125504676512E+03   -0.13885E-06   -0.55874E-06 14496   0.915E-03
  56 F= -.12709053E+03 E0= -.12708975E+03  d E =-.223171E-04  mag=    -0.0000
 curvature:  -2.16 expect dE=-0.888E-04 dE for cont linesearch -0.188E-06
 ZBRENT: extrapolating
 opt :   0.4148  next Energy=  -127.090530 (dE=-0.226E-04)
 bond charge predicted
       N       E                     dE             d eps       ncg     rms          rms(c)
DAV:   1    -0.125504730623E+03   -0.54250E-04   -0.30425E-04 19008   0.675E-02    0.368E-03
DAV:   2    -0.125504730492E+03    0.13101E-06   -0.29686E-06 14208   0.772E-03
  57 F= -.12709053E+03 E0= -.12708975E+03  d E =-.231226E-04  mag=     0.0000
 curvature:  -2.79 expect dE=-0.135E-03 dE for cont linesearch -0.476E-06
 ZBRENT: increasing intervall
 opt :   0.5114  next Energy=  -127.090533 (dE=-0.249E-04)
 bond charge predicted
       N       E                     dE             d eps       ncg     rms          rms(c)
DAV:   1    -0.125504837249E+03   -0.10663E-03   -0.11313E-03 14208   0.131E-01    0.619E-03
DAV:   2    -0.125504836975E+03    0.27402E-06   -0.11917E-05 14208   0.150E-02    0.396E-03
DAV:   3    -0.125504837193E+03   -0.21792E-06   -0.19078E-06 14208   0.612E-03
  58 F= -.12709053E+03 E0= -.12708975E+03  d E =-.234754E-04  mag=    -0.0000
 curvature: -10.23 expect dE=-0.763E-03 dE for cont linesearch -0.187E-05
 trial: gam= 0.89663 g(F)=  0.746E-04 g(S)=  0.000E+00 ort =-0.145E-04 (trialstep = 0.261E+00)
 search vector abs. value=  0.976E-03
 bond charge predicted
       N       E                     dE             d eps       ncg     rms          rms(c)
DAV:   1    -0.125505115319E+03   -0.27834E-03   -0.74785E-03 14208   0.335E-01    0.148E-02
DAV:   2    -0.125505113958E+03    0.13612E-05   -0.72692E-05 15216   0.357E-02    0.918E-03
DAV:   3    -0.125505113761E+03    0.19722E-06   -0.10501E-05 20352   0.122E-02    0.219E-03
DAV:   4    -0.125505113981E+03   -0.21955E-06   -0.18508E-06 16656   0.603E-03
  59 F= -.12709054E+03 E0= -.12708976E+03  d E =-.114224E-04  mag=    -0.0000
 trial-energy change:   -0.000011  1 .order   -0.000013   -0.000016   -0.000010
 step:   0.7435(harm=  0.7435)  dis= 0.00152  next Energy=  -127.090554 (dE=-0.229E-04)
 bond charge predicted
       N       E                     dE             d eps       ncg     rms          rms(c)
DAV:   1    -0.125505617298E+03   -0.50354E-03   -0.25419E-02 14208   0.617E-01    0.272E-02
DAV:   2    -0.125505613249E+03    0.40487E-05   -0.24645E-04 17232   0.650E-02    0.167E-02
DAV:   3    -0.125505611183E+03    0.20665E-05   -0.35314E-05 26112   0.214E-02    0.380E-03
DAV:   4    -0.125505611650E+03   -0.46749E-06   -0.42349E-06 18288   0.817E-03
  60 F= -.12709055E+03 E0= -.12708977E+03  d E =-.196318E-04  mag=    -0.0000
 curvature:  -5.90 expect dE=-0.387E-03 dE for cont linesearch -0.312E-06
 trial: gam= 0.73930 g(F)=  0.657E-04 g(S)=  0.000E+00 ort =-0.719E-05 (trialstep = 0.358E+00)
 search vector abs. value=  0.589E-03
 bond charge predicted
       N       E                     dE             d eps       ncg     rms          rms(c)
DAV:   1    -0.125505902697E+03   -0.29151E-03   -0.87799E-03 14208   0.366E-01    0.164E-02
DAV:   2    -0.125505901445E+03    0.12524E-05   -0.92535E-05 15168   0.404E-02    0.104E-02
DAV:   3    -0.125505900883E+03    0.56130E-06   -0.13584E-05 19680   0.142E-02    0.271E-03
DAV:   4    -0.125505901093E+03   -0.20938E-06   -0.24924E-06 16464   0.702E-03
  61 F= -.12709056E+03 E0= -.12708978E+03  d E =-.845452E-05  mag=    -0.0000
 trial-energy change:   -0.000008  1 .order   -0.000008   -0.000022    0.000005
 step:   0.2875(harm=  0.2875)  dis= 0.00038  next Energy=  -127.090560 (dE=-0.868E-05)
 bond charge predicted
       N       E                     dE             d eps       ncg     rms          rms(c)
DAV:   1    -0.125505846502E+03    0.54382E-04   -0.33519E-04 14256   0.718E-02    0.284E-03
DAV:   2    -0.125505846555E+03   -0.53121E-07   -0.40241E-06 20544   0.850E-03
  62 F= -.12709056E+03 E0= -.12708978E+03  d E =-.904144E-05  mag=    -0.0000
 curvature:  -1.40 expect dE=-0.244E-04 dE for cont linesearch -0.117E-07
 trial: gam= 0.18546 g(F)=  0.174E-04 g(S)=  0.000E+00 ort =-0.221E-05 (trialstep = 0.344E+00)
 search vector abs. value=  0.368E-04
 bond charge predicted
       N       E                     dE             d eps       ncg     rms          rms(c)
DAV:   1    -0.125505912723E+03   -0.66221E-04   -0.45652E-04 16560   0.839E-02    0.375E-03
DAV:   2    -0.125505912617E+03    0.10576E-06   -0.50314E-06 14304   0.961E-03
  63 F= -.12709056E+03 E0= -.12708978E+03  d E =-.477069E-05  mag=    -0.0000
 trial-energy change:   -0.000005  1 .order   -0.000005   -0.000006   -0.000004
 step:   0.9697(harm=  0.9697)  dis= 0.00046  next Energy=  -127.090568 (dE=-0.822E-05)
 bond charge predicted
       N       E                     dE             d eps       ncg     rms          rms(c)
DAV:   1    -0.125506027012E+03   -0.11429E-03   -0.14400E-03 14208   0.151E-01    0.759E-03
DAV:   2    -0.125506026647E+03    0.36551E-06   -0.15108E-05 15648   0.167E-02    0.465E-03
DAV:   3    -0.125506026784E+03   -0.13756E-06   -0.22735E-06 14880   0.619E-03
  64 F= -.12709057E+03 E0= -.12708979E+03  d E =-.729357E-05  mag=     0.0000
 curvature:  -1.05 expect dE=-0.337E-04 dE for cont linesearch -0.376E-06
 ZBRENT: interpolating
 opt :   0.8139  next Energy=  -127.090568 (dE=-0.758E-05)
 bond charge predicted
       N       E                     dE             d eps       ncg     rms          rms(c)
DAV:   1    -0.125505999226E+03    0.27421E-04   -0.87301E-05 18096   0.372E-02    0.154E-03
DAV:   2    -0.125505999221E+03    0.47066E-08   -0.12143E-06 19056   0.493E-03
  65 F= -.12709057E+03 E0= -.12708979E+03  d E =-.750665E-05  mag=     0.0000
 curvature:  -0.79 expect dE=-0.171E-04 dE for cont linesearch -0.485E-08
 trial: gam= 1.24380 g(F)=  0.217E-04 g(S)=  0.000E+00 ort = 0.475E-06 (trialstep = 0.202E+00)
 search vector abs. value=  0.798E-04
 bond charge predicted
       N       E                     dE             d eps       ncg     rms          rms(c)
DAV:   1    -0.125506053889E+03   -0.54663E-04   -0.30735E-04 17280   0.688E-02    0.314E-03
DAV:   2    -0.125506053814E+03    0.75179E-07   -0.30744E-06 14208   0.759E-03
  66 F= -.12709057E+03 E0= -.12708979E+03  d E =-.369176E-05  mag=     0.0000
 trial-energy change:   -0.000004  1 .order   -0.000004   -0.000004   -0.000003
 step:   0.6140(harm=  0.6140)  dis= 0.00039  next Energy=  -127.090574 (dE=-0.683E-05)
 bond charge predicted
       N       E                     dE             d eps       ncg     rms          rms(c)
DAV:   1    -0.125506162092E+03   -0.10820E-03   -0.12392E-03 14208   0.139E-01    0.702E-03
DAV:   2    -0.125506161848E+03    0.24360E-06   -0.12590E-05 15168   0.153E-02    0.431E-03
DAV:   3    -0.125506161951E+03   -0.10246E-06   -0.18769E-06 14496   0.572E-03
  67 F= -.12709058E+03 E0= -.12708980E+03  d E =-.797359E-05  mag=     0.0000
 curvature:  -1.10 expect dE=-0.170E-04 dE for cont linesearch -0.222E-06
 ZBRENT: interpolating
 opt :   0.5268  next Energy=  -127.090576 (dE=-0.815E-05)
 bond charge predicted
       N       E                     dE             d eps       ncg     rms          rms(c)
DAV:   1    -0.125506139617E+03    0.22231E-04   -0.54164E-05 15168   0.293E-02    0.122E-03
DAV:   2    -0.125506139611E+03    0.56825E-08   -0.85640E-07 15840   0.426E-03
  68 F= -.12709058E+03 E0= -.12708980E+03  d E =-.762533E-05  mag=     0.0000
 curvature:  -0.87 expect dE=-0.930E-05 dE for cont linesearch -0.555E-08
 trial: gam= 0.53209 g(F)=  0.107E-04 g(S)=  0.000E+00 ort = 0.714E-06 (trialstep = 0.267E+00)
 search vector abs. value=  0.341E-04
 bond charge predicted
       N       E                     dE             d eps       ncg     rms          rms(c)
DAV:   1    -0.125506185287E+03   -0.45670E-04   -0.21960E-04 19488   0.574E-02    0.261E-03
DAV:   2    -0.125506185194E+03    0.93288E-07   -0.21439E-06 14592   0.625E-03
  69 F= -.12709058E+03 E0= -.12708980E+03  d E =-.264673E-05  mag=     0.0000
 ZBRENT: can't locate minimum, use default step
 trial-energy change:   -0.000003  1 .order   -0.000003   -0.000003   -0.000002
 step:   1.0677(harm=  1.5619)  dis= 0.00036  next Energy=  -127.090584 (dE=-0.867E-05)
 bond charge predicted
       N       E                     dE             d eps       ncg     rms          rms(c)
DAV:   1    -0.125506316967E+03   -0.13168E-03   -0.19185E-03 14208   0.171E-01    0.839E-03
DAV:   2    -0.125506316558E+03    0.40829E-06   -0.19573E-05 14208   0.187E-02    0.520E-03
DAV:   3    -0.125506316629E+03   -0.70286E-07   -0.30250E-06 15360   0.691E-03
  70 F= -.12709058E+03 E0= -.12708980E+03  d E =-.528955E-05  mag=     0.0000
 curvature:  -2.05 expect dE=-0.466E-04 dE for cont linesearch -0.115E-08
 trial: gam= 2.08312 g(F)=  0.228E-04 g(S)=  0.000E+00 ort = 0.139E-06 (trialstep = 0.850E-01)
 search vector abs. value=  0.171E-03
 bond charge predicted
       N       E                     dE             d eps       ncg     rms          rms(c)
DAV:   1    -0.125506349016E+03   -0.32457E-04   -0.11466E-04 15072   0.417E-02    0.225E-03
DAV:   2    -0.125506348979E+03    0.36137E-07   -0.13044E-06 14496   0.532E-03
  71 F= -.12709058E+03 E0= -.12708980E+03  d E =-.204106E-05  mag=     0.0000
 ZBRENT: can't locate minimum, use default step
 trial-energy change:   -0.000002  1 .order   -0.000002   -0.000002   -0.000002
 step:   0.3399(harm=  0.3399)  dis= 0.00028  next Energy=  -127.090588 (dE=-0.790E-05)
 bond charge predicted
       N       E                     dE             d eps       ncg     rms          rms(c)
DAV:   1    -0.125506444867E+03   -0.95851E-04   -0.97336E-04 14304   0.122E-01    0.581E-03
DAV:   2    -0.125506444663E+03    0.20385E-06   -0.96660E-06 14208   0.134E-02
  72 F= -.12709059E+03 E0= -.12708981E+03  d E =-.679994E-05  mag=     0.0000
 curvature:  -1.89 expect dE=-0.215E-04 dE for cont linesearch -0.295E-05
 ZBRENT: increasing intervall
 opt :   0.8498  next Energy=  -127.090592 (dE=-0.116E-04)
 bond charge predicted
       N       E                     dE             d eps       ncg     rms          rms(c)
DAV:   1    -0.125506630401E+03   -0.18553E-03   -0.38605E-03 14208   0.243E-01    0.116E-02
DAV:   2    -0.125506629929E+03    0.47226E-06   -0.37022E-05 14736   0.259E-02    0.736E-03
DAV:   3    -0.125506630270E+03   -0.34107E-06   -0.59971E-06 14736   0.997E-03
  73 F= -.12709059E+03 E0= -.12708981E+03  d E =-.105804E-04  mag=    -0.0000
 curvature:  -3.11 expect dE=-0.113E-03 dE for cont linesearch -0.411E-06
 ZBRENT: bracketing found
 ZBRENT: interpolating
 opt :   0.7348  next Energy=  -127.090591 (dE=-0.109E-04)
 bond charge predicted
       N       E                     dE             d eps       ncg     rms          rms(c)
DAV:   1    -0.125506589240E+03    0.40689E-04   -0.19105E-04 14832   0.542E-02    0.218E-03
DAV:   2    -0.125506589152E+03    0.87977E-07   -0.28157E-06 14208   0.777E-03
  74 F= -.12709059E+03 E0= -.12708981E+03  d E =-.104876E-04  mag=    -0.0000
 curvature:  -2.07 expect dE=-0.535E-04 dE for cont linesearch -0.513E-07
 trial: gam= 1.23635 g(F)=  0.258E-04 g(S)=  0.000E+00 ort = 0.206E-05 (trialstep = 0.126E+00)
 search vector abs. value=  0.293E-03
 bond charge predicted
       N       E                     dE             d eps       ncg     rms          rms(c)
DAV:   1    -0.125506651202E+03   -0.61962E-04   -0.42459E-04 16560   0.790E-02    0.322E-03
DAV:   2    -0.125506651097E+03    0.10432E-06   -0.41688E-06 15456   0.897E-03
  75 F= -.12709059E+03 E0= -.12708981E+03  d E =-.344340E-05  mag=    -0.0000
 ZBRENT: can't locate minimum, use default step
 trial-energy change:   -0.000003  1 .order   -0.000004   -0.000004   -0.000004
 step:   0.5030(harm=  6.6397)  dis= 0.00066  next Energy=  -127.090685 (dE=-0.942E-04)
 bond charge predicted
       N       E                     dE             d eps       ncg     rms          rms(c)
DAV:   1    -0.125506835866E+03   -0.18466E-03   -0.36920E-03 14208   0.235E-01    0.110E-02
DAV:   2    -0.125506835039E+03    0.82746E-06   -0.33571E-05 14208   0.245E-02    0.686E-03
DAV:   3    -0.125506835241E+03   -0.20227E-06   -0.56175E-06 15072   0.945E-03
  76 F= -.12709060E+03 E0= -.12708982E+03  d E =-.121209E-04  mag=    -0.0000
 curvature:  -3.85 expect dE=-0.713E-04 dE for cont linesearch -0.277E-05
 ZBRENT: increasing intervall
 opt :   1.2576  next Energy=  -127.090604 (dE=-0.130E-04)
 bond charge predicted
       N       E                     dE             d eps       ncg     rms          rms(c)
DAV:   1    -0.125507196751E+03   -0.36171E-03   -0.15023E-02 14208   0.473E-01    0.216E-02
DAV:   2    -0.125507194787E+03    0.19641E-05   -0.13662E-04 16656   0.490E-02    0.135E-02
DAV:   3    -0.125507194457E+03    0.32996E-06   -0.21101E-05 19728   0.172E-02    0.311E-03
DAV:   4    -0.125507194742E+03   -0.28568E-06   -0.39660E-06 16320   0.919E-03
  77 F= -.12709061E+03 E0= -.12708983E+03  d E =-.208785E-04  mag=     0.0000
 curvature:  -1.25 expect dE=-0.734E-04 dE for cont linesearch -0.449E-07
 trial: gam= 2.25240 g(F)=  0.589E-04 g(S)=  0.000E+00 ort = 0.325E-05 (trialstep = 0.661E-01)
 search vector abs. value=  0.156E-02
 bond charge predicted
       N       E                     dE             d eps       ncg     rms          rms(c)
DAV:   1    -0.125507268321E+03   -0.73864E-04   -0.62056E-04 14208   0.963E-02    0.459E-03
DAV:   2    -0.125507268160E+03    0.16025E-06   -0.64402E-06 14352   0.113E-02
  78 F= -.12709062E+03 E0= -.12708984E+03  d E =-.401552E-05  mag=     0.0000
 ZBRENT: can't locate minimum, use default step
 trial-energy change:   -0.000004  1 .order   -0.000004   -0.000004   -0.000004
 step:   0.2645(harm=  1.8420)  dis= 0.00083  next Energy=  -127.090673 (dE=-0.609E-04)
 bond charge predicted
       N       E                     dE             d eps       ncg     rms          rms(c)
DAV:   1    -0.125507487572E+03   -0.21925E-03   -0.54773E-03 14208   0.287E-01    0.132E-02
DAV:   2    -0.125507486496E+03    0.10762E-05   -0.48545E-05 14208   0.297E-02    0.834E-03
DAV:   3    -0.125507486929E+03   -0.43338E-06   -0.84079E-06 14208   0.119E-02
  79 F= -.12709063E+03 E0= -.12708985E+03  d E =-.145325E-04  mag=     0.0000
 curvature:  -4.57 expect dE=-0.111E-03 dE for cont linesearch -0.229E-05
 ZBRENT: increasing intervall
 opt :   0.6613  next Energy=  -127.090623 (dE=-0.114E-04)
 bond charge predicted
       N       E                     dE             d eps       ncg     rms          rms(c)
DAV:   1    -0.125507914492E+03   -0.42800E-03   -0.22297E-02 14208   0.577E-01    0.260E-02
DAV:   2    -0.125507911836E+03    0.26560E-05   -0.19695E-04 16608   0.590E-02    0.163E-02
DAV:   3    -0.125507911201E+03    0.63500E-06   -0.31231E-05 16800   0.212E-02    0.374E-03
DAV:   4    -0.125507911580E+03   -0.37864E-06   -0.66187E-06 16032   0.120E-02
  80 F= -.12709063E+03 E0= -.12708985E+03  d E =-.229063E-04  mag=     0.0000
 curvature:   6.32 expect dE= 0.319E-03 dE for cont linesearch  0.607E-08
 trial: gam= 1.02494 g(F)=  0.505E-04 g(S)=  0.000E+00 ort =-0.122E-05 (trialstep = 0.171E+00)
 search vector abs. value=  0.168E-02
 bond charge predicted
       N       E                     dE             d eps       ncg     rms          rms(c)
DAV:   1    -0.125508101747E+03   -0.19055E-03   -0.44401E-03 14208   0.257E-01    0.118E-02
DAV:   2    -0.125508101107E+03    0.63998E-06   -0.42215E-05 15024   0.275E-02    0.749E-03
DAV:   3    -0.125508101575E+03   -0.46734E-06   -0.68375E-06 14496   0.107E-02
  81 F= -.12709064E+03 E0= -.12708986E+03  d E =-.703992E-05  mag=     0.0000
 trial-energy change:   -0.000007  1 .order   -0.000006   -0.000008   -0.000004
 step:   0.3162(harm=  0.3162)  dis= 0.00105  next Energy=  -127.090642 (dE=-0.778E-05)
 bond charge predicted
       N       E                     dE             d eps       ncg     rms          rms(c)
DAV:   1    -0.125508260177E+03   -0.15907E-03   -0.32119E-03 14208   0.218E-01    0.102E-02
DAV:   2    -0.125508259556E+03    0.62084E-06   -0.29514E-05 14208   0.235E-02    0.643E-03
DAV:   3    -0.125508260155E+03   -0.59868E-06   -0.52845E-06 14448   0.988E-03
  82 F= -.12709065E+03 E0= -.12708987E+03  d E =-.108208E-04  mag=    -0.0000
 curvature:  -5.41 expect dE=-0.798E-04 dE for cont linesearch -0.310E-06
 ZBRENT: increasing intervall
 opt :   0.6062  next Energy=  -127.090645 (dE=-0.998E-05)
 bond charge predicted
       N       E                     dE             d eps       ncg     rms          rms(c)
DAV:   1    -0.125508574364E+03   -0.31481E-03   -0.12750E-02 14208   0.435E-01    0.197E-02
DAV:   2    -0.125508572405E+03    0.19581E-05   -0.11322E-04 14736   0.448E-02    0.123E-02
DAV:   3    -0.125508572452E+03   -0.46668E-07   -0.18314E-05 15648   0.165E-02    0.300E-03
DAV:   4    -0.125508572709E+03   -0.25641E-06   -0.42692E-06 15936   0.963E-03
  83 F= -.12709065E+03 E0= -.12708987E+03  d E =-.138935E-04  mag=     0.0000
 curvature:  14.74 expect dE= 0.238E-03 dE for cont linesearch  0.109E-05
 ZBRENT: bracketing found
 ZBRENT: interpolating
 opt :   0.4521  next Energy=  -127.090646 (dE=-0.115E-04)
 bond charge predicted
       N       E                     dE             d eps       ncg     rms          rms(c)
DAV:   1    -0.125508407855E+03    0.16460E-03   -0.35744E-03 14208   0.231E-01    0.985E-03
DAV:   2    -0.125508407282E+03    0.57386E-06   -0.33409E-05 19536   0.241E-02    0.616E-03
DAV:   3    -0.125508407098E+03    0.18339E-06   -0.51228E-06 20784   0.865E-03
  84 F= -.12709065E+03 E0= -.12708987E+03  d E =-.127352E-04  mag=     0.0000
 curvature:  -9.05 expect dE=-0.104E-03 dE for cont linesearch -0.106E-05
 ZBRENT: interpolating
 opt :   0.5380  next Energy=  -127.090649 (dE=-0.143E-04)
 bond charge predicted
       N       E                     dE             d eps       ncg     rms          rms(c)
DAV:   1    -0.125508500259E+03   -0.92977E-04   -0.10984E-03 15312   0.128E-01    0.527E-03
DAV:   2    -0.125508499963E+03    0.29571E-06   -0.10827E-05 18912   0.139E-02    0.328E-03
DAV:   3    -0.125508500004E+03   -0.40472E-07   -0.17543E-06 14928   0.578E-03
  85 F= -.12709065E+03 E0= -.12708987E+03  d E =-.139539E-04  mag=    -0.0000
 curvature:  -3.25 expect dE=-0.421E-04 dE for cont linesearch -0.712E-07
 ZBRENT: interpolating
 opt :   0.4809  next Energy=  -127.090649 (dE=-0.142E-04)
 bond charge predicted
       N       E                     dE             d eps       ncg     rms          rms(c)
DAV:   1    -0.125508438641E+03    0.61322E-04   -0.48910E-04 14208   0.853E-02    0.358E-03
DAV:   2    -0.125508438523E+03    0.11723E-06   -0.51368E-06 18192   0.976E-03
  86 F= -.12709065E+03 E0= -.12708987E+03  d E =-.133942E-04  mag=    -0.0000
 curvature: -10.30 expect dE=-0.120E-03 dE for cont linesearch -0.779E-09
 trial: gam= 0.06159 g(F)=  0.116E-04 g(S)=  0.000E+00 ort =-0.357E-06 (trialstep = 0.233E+00)
 search vector abs. value=  0.180E-04
 bond charge predicted
       N       E                     dE             d eps       ncg     rms          rms(c)
DAV:   1    -0.125508455156E+03   -0.16515E-04   -0.10193E-04 21408   0.415E-02    0.211E-03
DAV:   2    -0.125508455085E+03    0.70596E-07   -0.14793E-06 15792   0.602E-03
  87 F= -.12709065E+03 E0= -.12708987E+03  d E =-.102798E-05  mag=     0.0000
 trial-energy change:   -0.000001  1 .order   -0.000002   -0.000003   -0.000001
 step:   0.4371(harm=  0.4371)  dis= 0.00011  next Energy=  -127.090651 (dE=-0.253E-05)
 bond charge predicted
       N       E                     dE             d eps       ncg     rms          rms(c)
DAV:   1    -0.125508469133E+03   -0.13978E-04   -0.70956E-05 14352   0.355E-02    0.219E-03
DAV:   2    -0.125508469050E+03    0.83297E-07   -0.10660E-06 14208   0.520E-03
  88 F= -.12709065E+03 E0= -.12708987E+03  d E =-.140325E-05  mag=     0.0000
 curvature:  -0.34 expect dE=-0.211E-05 dE for cont linesearch -0.830E-08
 trial: gam= 0.61844 g(F)=  0.622E-05 g(S)=  0.000E+00 ort =-0.663E-06 (trialstep = 0.274E+00)
 search vector abs. value=  0.123E-04
 bond charge predicted
       N       E                     dE             d eps       ncg     rms          rms(c)
DAV:   1    -0.125508482740E+03   -0.13606E-04   -0.80076E-05 15072   0.379E-02    0.188E-03
DAV:   2    -0.125508482667E+03    0.72527E-07   -0.10173E-06 14208   0.495E-03
  89 F= -.12709065E+03 E0= -.12708987E+03  d E =-.115674E-05  mag=     0.0000
 trial-energy change:   -0.000001  1 .order   -0.000001   -0.000002   -0.000001
 step:   0.5526(harm=  0.5526)  dis= 0.00014  next Energy=  -127.090651 (dE=-0.161E-05)
 bond charge predicted
       N       E                     dE             d eps       ncg     rms          rms(c)
DAV:   1    -0.125508495767E+03   -0.13027E-04   -0.81644E-05 14352   0.383E-02    0.206E-03
DAV:   2    -0.125508495683E+03    0.83859E-07   -0.98369E-07 14256   0.486E-03
  90 F= -.12709065E+03 E0= -.12708987E+03  d E =-.149919E-05  mag=     0.0000
 curvature:  -0.58 expect dE=-0.852E-06 dE for cont linesearch -0.921E-09
 trial: gam= 0.09037 g(F)=  0.146E-05 g(S)=  0.000E+00 ort =-0.139E-06 (trialstep = 0.330E+00)
 search vector abs. value=  0.154E-05
 bond charge predicted
       N       E                     dE             d eps       ncg     rms          rms(c)
DAV:   1    -0.125508498445E+03   -0.26783E-05   -0.17843E-05 15840   0.182E-02    0.114E-03
DAV:   2    -0.125508498411E+03    0.34359E-07   -0.61486E-07 14640   0.428E-03
  91 F= -.12709065E+03 E0= -.12708987E+03  d E =-.258919E-06  mag=     0.0000
 trial-energy change:   -0.000000  1 .order   -0.000000   -0.000000    0.000000
 step:   0.3279(harm=  0.3279)  dis= 0.00004  next Energy=  -127.090651 (dE=-0.238E-06)
 bond charge predicted
       N       E                     dE             d eps       ncg     rms          rms(c)
DAV:   1    -0.125508498391E+03    0.54210E-07   -0.23163E-07 14208   0.253E-03    0.385E-04
DAV:   2    -0.125508498385E+03    0.61445E-08   -0.13289E-07 15792   0.184E-03
  92 F= -.12709065E+03 E0= -.12708987E+03  d E =-.246512E-06  mag=     0.0000
 curvature:  -0.17 expect dE=-0.783E-07 dE for cont linesearch -0.307E-09
 trial: gam= 0.32549 g(F)=  0.451E-06 g(S)=  0.000E+00 ort =-0.521E-07 (trialstep = 0.329E+00)
 search vector abs. value=  0.580E-06
 bond charge predicted
       N       E                     dE             d eps       ncg     rms          rms(c)
DAV:   1    -0.125508500254E+03   -0.18630E-05   -0.53172E-06 22128   0.100E-02    0.523E-04
DAV:   2    -0.125508500249E+03    0.51850E-08   -0.52817E-08 18336   0.106E-03
  93 F= -.12709065E+03 E0= -.12708987E+03  d E =-.858443E-07  mag=    -0.0000
 trial-energy change:   -0.000000  1 .order   -0.000000   -0.000000   -0.000000
 step:   0.5577(harm=  0.5577)  dis= 0.00003  next Energy=  -127.090651 (dE=-0.121E-06)
 reached required accuracy - stopping structural energy minimisation
