  16  16   0   4
  0.1981325E+02  0.4940000E-09  0.4940000E-09  0.1500000E-08  0.5000000E-15
  1.000000000000000E-004
  CAR 
 Lattice                                 
     10.01482283    -21.22140454  301     -0.26668089      1.00000000
    -21.221  0.0000E+00  0.0000E+00  0.0000E+00  0.0000E+00
    -21.117  0.0000E+00  0.0000E+00  0.0000E+00  0.0000E+00
    -21.013  0.0000E+00  0.0000E+00  0.0000E+00  0.0000E+00
    -20.909  0.0000E+00  0.0000E+00  0.0000E+00  0.0000E+00
    -20.805  0.0000E+00  0.0000E+00  0.0000E+00  0.0000E+00
    -20.701  0.0000E+00  0.0000E+00  0.0000E+00  0.0000E+00
    -20.597  0.0000E+00  0.0000E+00  0.0000E+00  0.0000E+00
    -20.493  0.0000E+00  0.0000E+00  0.0000E+00  0.0000E+00
    -20.388  0.2892E-19  0.2892E-19  0.3012E-20  0.3012E-20
    -20.284  0.2462E-14  0.2462E-14  0.2564E-15  0.2564E-15
    -20.180  0.2698E-10  0.2698E-10  0.2810E-11  0.2810E-11
    -20.076  0.3974E-07  0.3974E-07  0.4140E-08  0.4140E-08
    -19.972  0.8559E-05  0.8558E-05  0.8953E-06  0.8952E-06
    -19.868  0.2982E-03  0.2982E-03  0.3194E-04  0.3194E-04
    -19.764  0.2047E-02  0.2047E-02  0.2450E-03  0.2450E-03
    -19.660  0.4258E-02  0.4258E-02  0.6884E-03  0.6884E-03
    -19.555  0.4691E-02  0.4691E-02  0.1177E-02  0.1177E-02
    -19.451  0.5055E-02  0.5055E-02  0.1703E-02  0.1703E-02
    -19.347  0.4358E-02  0.4358E-02  0.2157E-02  0.2157E-02
    -19.243  0.5521E-02  0.5521E-02  0.2732E-02  0.2732E-02
    -19.139  0.4306E-02  0.4306E-02  0.3180E-02  0.3180E-02
    -19.035  0.4557E-02  0.4557E-02  0.3655E-02  0.3655E-02
    -18.931  0.6094E-02  0.6094E-02  0.4289E-02  0.4289E-02
    -18.827  0.3827E-02  0.3827E-02  0.4688E-02  0.4688E-02
    -18.723  0.4266E-02  0.4266E-02  0.5132E-02  0.5132E-02
    -18.618  0.6298E-02  0.6298E-02  0.5788E-02  0.5788E-02
    -18.514  0.5163E-02  0.5163E-02  0.6325E-02  0.6325E-02
    -18.410  0.2988E-02  0.2988E-02  0.6636E-02  0.6636E-02
    -18.306  0.5032E-02  0.5032E-02  0.7160E-02  0.7160E-02
    -18.202  0.6920E-02  0.6920E-02  0.7881E-02  0.7881E-02
    -18.098  0.4522E-02  0.4522E-02  0.8351E-02  0.8351E-02
    -17.994  0.3751E-02  0.3752E-02  0.8742E-02  0.8742E-02
    -17.890  0.3478E-02  0.3478E-02  0.9104E-02  0.9104E-02
    -17.785  0.7254E-02  0.7254E-02  0.9860E-02  0.9860E-02
    -17.681  0.6274E-02  0.6274E-02  0.1051E-01  0.1051E-01
    -17.577  0.3328E-02  0.3328E-02  0.1086E-01  0.1086E-01
    -17.473  0.3672E-02  0.3672E-02  0.1124E-01  0.1124E-01
    -17.369  0.4494E-02  0.4494E-02  0.1171E-01  0.1171E-01
    -17.265  0.6917E-02  0.6917E-02  0.1243E-01  0.1243E-01
    -17.161  0.6481E-02  0.6481E-02  0.1310E-01  0.1310E-01
    -17.057  0.4426E-02  0.4426E-02  0.1357E-01  0.1357E-01
    -16.952  0.2256E-02  0.2256E-02  0.1380E-01  0.1380E-01
    -16.848  0.4405E-02  0.4405E-02  0.1426E-01  0.1426E-01
    -16.744  0.7130E-02  0.7130E-02  0.1500E-01  0.1500E-01
    -16.640  0.6390E-02  0.6390E-02  0.1567E-01  0.1567E-01
    -16.536  0.5272E-02  0.5272E-02  0.1622E-01  0.1622E-01
    -16.432  0.4459E-02  0.4459E-02  0.1668E-01  0.1668E-01
    -16.328  0.2745E-02  0.2745E-02  0.1697E-01  0.1697E-01
    -16.224  0.3342E-02  0.3342E-02  0.1731E-01  0.1731E-01
    -16.119  0.8934E-02  0.8934E-02  0.1824E-01  0.1824E-01
    -16.015  0.7593E-02  0.7593E-02  0.1903E-01  0.1903E-01
    -15.911  0.8304E-02  0.8304E-02  0.1990E-01  0.1990E-01
    -15.807  0.9862E-02  0.9862E-02  0.2093E-01  0.2093E-01
    -15.703  0.1047E-01  0.1047E-01  0.2202E-01  0.2202E-01
    -15.599  0.9696E-02  0.9696E-02  0.2303E-01  0.2303E-01
    -15.495  0.1249E-01  0.1249E-01  0.2433E-01  0.2433E-01
    -15.391  0.1625E-01  0.1625E-01  0.2602E-01  0.2602E-01
    -15.287  0.1363E-01  0.1363E-01  0.2744E-01  0.2744E-01
    -15.182  0.1234E-01  0.1234E-01  0.2872E-01  0.2872E-01
    -15.078  0.1396E-01  0.1396E-01  0.3018E-01  0.3018E-01
    -14.974  0.1040E-01  0.1040E-01  0.3126E-01  0.3126E-01
    -14.870  0.9476E-02  0.9476E-02  0.3225E-01  0.3225E-01
    -14.766  0.9593E-02  0.9593E-02  0.3324E-01  0.3324E-01
    -14.662  0.1082E-01  0.1082E-01  0.3437E-01  0.3437E-01
    -14.558  0.8345E-02  0.8345E-02  0.3524E-01  0.3524E-01
    -14.454  0.9679E-02  0.9679E-02  0.3625E-01  0.3625E-01
    -14.349  0.8837E-02  0.8837E-02  0.3717E-01  0.3717E-01
    -14.245  0.8803E-02  0.8803E-02  0.3808E-01  0.3808E-01
    -14.141  0.1392E-01  0.1392E-01  0.3953E-01  0.3953E-01
    -14.037  0.1367E-01  0.1367E-01  0.4096E-01  0.4096E-01
    -13.933  0.7469E-02  0.7469E-02  0.4173E-01  0.4173E-01
    -13.829  0.5339E-02  0.5339E-02  0.4229E-01  0.4229E-01
    -13.725  0.3926E-02  0.3926E-02  0.4270E-01  0.4270E-01
    -13.621  0.3942E-02  0.3942E-02  0.4311E-01  0.4311E-01
    -13.516  0.7574E-02  0.7574E-02  0.4390E-01  0.4390E-01
    -13.412  0.9697E-02  0.9697E-02  0.4491E-01  0.4491E-01
    -13.308  0.7375E-02  0.7375E-02  0.4567E-01  0.4567E-01
    -13.204  0.5779E-02  0.5779E-02  0.4628E-01  0.4628E-01
    -13.100  0.7784E-02  0.7784E-02  0.4709E-01  0.4709E-01
    -12.996  0.7630E-02  0.7630E-02  0.4788E-01  0.4788E-01
    -12.892  0.6019E-02  0.6019E-02  0.4851E-01  0.4851E-01
    -12.788  0.8353E-02  0.8353E-02  0.4938E-01  0.4938E-01
    -12.684  0.8687E-02  0.8687E-02  0.5028E-01  0.5028E-01
    -12.579  0.9885E-02  0.9885E-02  0.5131E-01  0.5131E-01
    -12.475  0.1416E-01  0.1416E-01  0.5279E-01  0.5279E-01
    -12.371  0.1120E-01  0.1120E-01  0.5395E-01  0.5395E-01
    -12.267  0.1344E-01  0.1344E-01  0.5535E-01  0.5535E-01
    -12.163  0.1266E-01  0.1266E-01  0.5667E-01  0.5667E-01
    -12.059  0.1210E-01  0.1210E-01  0.5793E-01  0.5793E-01
    -11.955  0.1973E-01  0.1973E-01  0.5998E-01  0.5998E-01
    -11.851  0.1715E-01  0.1715E-01  0.6177E-01  0.6177E-01
    -11.746  0.1166E-01  0.1166E-01  0.6298E-01  0.6298E-01
    -11.642  0.1067E-01  0.1067E-01  0.6409E-01  0.6409E-01
    -11.538  0.9324E-02  0.9324E-02  0.6507E-01  0.6507E-01
    -11.434  0.8447E-02  0.8447E-02  0.6595E-01  0.6595E-01
    -11.330  0.5002E-02  0.5002E-02  0.6647E-01  0.6647E-01
    -11.226  0.3129E-02  0.3129E-02  0.6679E-01  0.6679E-01
    -11.122  0.4752E-02  0.4752E-02  0.6729E-01  0.6729E-01
    -11.018  0.5596E-02  0.5596E-02  0.6787E-01  0.6787E-01
    -10.913  0.5794E-02  0.5794E-02  0.6847E-01  0.6847E-01
    -10.809  0.7596E-02  0.7596E-02  0.6926E-01  0.6926E-01
    -10.705  0.1045E-01  0.1045E-01  0.7035E-01  0.7035E-01
    -10.601  0.1039E-01  0.1039E-01  0.7143E-01  0.7143E-01
    -10.497  0.1400E-01  0.1400E-01  0.7289E-01  0.7289E-01
    -10.393  0.1884E-01  0.1884E-01  0.7485E-01  0.7485E-01
    -10.289  0.1440E-01  0.1440E-01  0.7635E-01  0.7635E-01
    -10.185  0.6974E-02  0.6974E-02  0.7708E-01  0.7708E-01
    -10.080  0.4530E-02  0.4530E-02  0.7755E-01  0.7755E-01
     -9.976  0.1254E-01  0.1254E-01  0.7886E-01  0.7886E-01
     -9.872  0.1614E-01  0.1614E-01  0.8054E-01  0.8054E-01
     -9.768  0.9333E-02  0.9333E-02  0.8151E-01  0.8151E-01
     -9.664  0.6048E-02  0.6048E-02  0.8214E-01  0.8214E-01
     -9.560  0.6262E-02  0.6262E-02  0.8279E-01  0.8279E-01
     -9.456  0.1472E-01  0.1472E-01  0.8432E-01  0.8432E-01
     -9.352  0.1790E-01  0.1790E-01  0.8618E-01  0.8618E-01
     -9.248  0.1816E-01  0.1816E-01  0.8808E-01  0.8808E-01
     -9.143  0.1881E-01  0.1881E-01  0.9003E-01  0.9003E-01
     -9.039  0.1182E-01  0.1182E-01  0.9127E-01  0.9127E-01
     -8.935  0.9511E-02  0.9511E-02  0.9226E-01  0.9226E-01
     -8.831  0.1535E-01  0.1535E-01  0.9385E-01  0.9385E-01
     -8.727  0.1991E-01  0.1991E-01  0.9593E-01  0.9593E-01
     -8.623  0.1284E-01  0.1284E-01  0.9726E-01  0.9726E-01
     -8.519  0.9568E-02  0.9568E-02  0.9826E-01  0.9826E-01
     -8.415  0.1399E-01  0.1399E-01  0.9972E-01  0.9972E-01
     -8.310  0.2027E-01  0.2027E-01  0.1018E+00  0.1018E+00
     -8.206  0.1444E-01  0.1444E-01  0.1033E+00  0.1033E+00
     -8.102  0.9616E-02  0.9616E-02  0.1043E+00  0.1043E+00
     -7.998  0.1625E-01  0.1625E-01  0.1060E+00  0.1060E+00
     -7.894  0.1312E-01  0.1312E-01  0.1074E+00  0.1074E+00
     -7.790  0.1852E-01  0.1852E-01  0.1093E+00  0.1093E+00
     -7.686  0.2693E-01  0.2693E-01  0.1121E+00  0.1121E+00
     -7.582  0.1672E-01  0.1672E-01  0.1139E+00  0.1139E+00
     -7.477  0.1306E-01  0.1306E-01  0.1152E+00  0.1152E+00
     -7.373  0.1506E-01  0.1506E-01  0.1168E+00  0.1168E+00
     -7.269  0.1980E-01  0.1980E-01  0.1189E+00  0.1189E+00
     -7.165  0.1911E-01  0.1911E-01  0.1208E+00  0.1208E+00
     -7.061  0.1585E-01  0.1585E-01  0.1225E+00  0.1225E+00
     -6.957  0.1457E-01  0.1457E-01  0.1240E+00  0.1240E+00
     -6.853  0.1904E-01  0.1904E-01  0.1260E+00  0.1260E+00
     -6.749  0.2358E-01  0.2358E-01  0.1284E+00  0.1284E+00
     -6.644  0.2766E-01  0.2766E-01  0.1313E+00  0.1313E+00
     -6.540  0.3036E-01  0.3036E-01  0.1345E+00  0.1345E+00
     -6.436  0.2805E-01  0.2805E-01  0.1374E+00  0.1374E+00
     -6.332  0.2649E-01  0.2649E-01  0.1402E+00  0.1402E+00
     -6.228  0.2378E-01  0.2378E-01  0.1426E+00  0.1426E+00
     -6.124  0.1724E-01  0.1724E-01  0.1444E+00  0.1444E+00
     -6.020  0.1803E-01  0.1803E-01  0.1463E+00  0.1463E+00
     -5.916  0.1440E-01  0.1440E-01  0.1478E+00  0.1478E+00
     -5.812  0.1336E-01  0.1336E-01  0.1492E+00  0.1492E+00
     -5.707  0.2099E-01  0.2099E-01  0.1514E+00  0.1514E+00
     -5.603  0.1852E-01  0.1852E-01  0.1533E+00  0.1533E+00
     -5.499  0.7532E-02  0.7532E-02  0.1541E+00  0.1541E+00
     -5.395  0.9084E-02  0.9084E-02  0.1551E+00  0.1551E+00
     -5.291  0.1820E-01  0.1820E-01  0.1569E+00  0.1569E+00
     -5.187  0.2096E-01  0.2096E-01  0.1591E+00  0.1591E+00
     -5.083  0.1261E-01  0.1261E-01  0.1604E+00  0.1604E+00
     -4.979  0.1160E-01  0.1160E-01  0.1616E+00  0.1616E+00
     -4.874  0.1547E-01  0.1547E-01  0.1633E+00  0.1633E+00
     -4.770  0.1368E-01  0.1368E-01  0.1647E+00  0.1647E+00
     -4.666  0.1216E-01  0.1216E-01  0.1660E+00  0.1660E+00
     -4.562  0.1145E-01  0.1145E-01  0.1671E+00  0.1671E+00
     -4.458  0.1198E-01  0.1198E-01  0.1684E+00  0.1684E+00
     -4.354  0.2122E-01  0.2122E-01  0.1706E+00  0.1706E+00
     -4.250  0.2363E-01  0.2363E-01  0.1731E+00  0.1731E+00
     -4.146  0.1625E-01  0.1625E-01  0.1748E+00  0.1748E+00
     -4.041  0.1414E-01  0.1414E-01  0.1762E+00  0.1762E+00
     -3.937  0.2192E-01  0.2192E-01  0.1785E+00  0.1785E+00
     -3.833  0.2521E-01  0.2521E-01  0.1811E+00  0.1811E+00
     -3.729  0.2393E-01  0.2393E-01  0.1836E+00  0.1836E+00
     -3.625  0.2744E-01  0.2744E-01  0.1865E+00  0.1865E+00
     -3.521  0.2731E-01  0.2731E-01  0.1893E+00  0.1893E+00
     -3.417  0.2035E-01  0.2035E-01  0.1914E+00  0.1914E+00
     -3.313  0.1463E-01  0.1463E-01  0.1930E+00  0.1930E+00
     -3.209  0.1239E-01  0.1239E-01  0.1943E+00  0.1943E+00
     -3.104  0.1185E-01  0.1185E-01  0.1955E+00  0.1955E+00
     -3.000  0.1165E-01  0.1165E-01  0.1967E+00  0.1967E+00
     -2.896  0.1547E-01  0.1547E-01  0.1983E+00  0.1983E+00
     -2.792  0.1412E-01  0.1412E-01  0.1998E+00  0.1998E+00
     -2.688  0.9795E-02  0.9795E-02  0.2008E+00  0.2008E+00
     -2.584  0.8100E-02  0.8100E-02  0.2016E+00  0.2016E+00
     -2.480  0.1330E-01  0.1330E-01  0.2030E+00  0.2030E+00
     -2.376  0.1849E-01  0.1849E-01  0.2050E+00  0.2050E+00
     -2.271  0.1234E-01  0.1234E-01  0.2062E+00  0.2062E+00
     -2.167  0.7700E-02  0.7700E-02  0.2070E+00  0.2070E+00
     -2.063  0.9871E-02  0.9871E-02  0.2081E+00  0.2081E+00
     -1.959  0.6520E-02  0.6520E-02  0.2088E+00  0.2088E+00
     -1.855  0.7683E-02  0.7683E-02  0.2096E+00  0.2096E+00
     -1.751  0.8502E-02  0.8502E-02  0.2104E+00  0.2104E+00
     -1.647  0.9047E-02  0.9047E-02  0.2114E+00  0.2114E+00
     -1.543  0.8525E-02  0.8525E-02  0.2123E+00  0.2123E+00
     -1.438  0.9474E-02  0.9474E-02  0.2133E+00  0.2133E+00
     -1.334  0.7532E-02  0.7531E-02  0.2140E+00  0.2140E+00
     -1.230  0.5178E-02  0.5178E-02  0.2146E+00  0.2146E+00
     -1.126  0.5590E-02  0.5590E-02  0.2152E+00  0.2152E+00
     -1.022  0.6245E-02  0.6245E-02  0.2158E+00  0.2158E+00
     -0.918  0.8057E-02  0.8057E-02  0.2166E+00  0.2166E+00
     -0.814  0.5630E-02  0.5630E-02  0.2172E+00  0.2172E+00
     -0.710  0.2452E-02  0.2452E-02  0.2175E+00  0.2175E+00
     -0.605  0.1071E-02  0.1071E-02  0.2176E+00  0.2176E+00
     -0.501  0.2838E-02  0.2838E-02  0.2179E+00  0.2179E+00
     -0.397  0.4013E-02  0.4013E-02  0.2183E+00  0.2183E+00
     -0.293  0.3468E-02  0.3468E-02  0.2187E+00  0.2187E+00
     -0.189  0.2426E-02  0.2426E-02  0.2189E+00  0.2189E+00
     -0.085  0.3096E-02  0.3096E-02  0.2193E+00  0.2193E+00
      0.019  0.3288E-02  0.3288E-02  0.2196E+00  0.2196E+00
      0.123  0.2499E-02  0.2499E-02  0.2199E+00  0.2199E+00
      0.227  0.4255E-02  0.4255E-02  0.2203E+00  0.2203E+00
      0.332  0.9939E-02  0.9939E-02  0.2213E+00  0.2213E+00
      0.436  0.1149E-01  0.1149E-01  0.2225E+00  0.2225E+00
      0.540  0.1072E-01  0.1072E-01  0.2236E+00  0.2236E+00
      0.644  0.7572E-02  0.7571E-02  0.2244E+00  0.2244E+00
      0.748  0.2491E-02  0.2491E-02  0.2247E+00  0.2247E+00
      0.852  0.6977E-02  0.6977E-02  0.2254E+00  0.2254E+00
      0.956  0.1259E-01  0.1259E-01  0.2267E+00  0.2267E+00
      1.060  0.6637E-02  0.6637E-02  0.2274E+00  0.2274E+00
      1.165  0.4627E-02  0.4627E-02  0.2279E+00  0.2279E+00
      1.269  0.1173E-01  0.1173E-01  0.2291E+00  0.2291E+00
      1.373  0.1574E-01  0.1574E-01  0.2308E+00  0.2308E+00
      1.477  0.1429E-01  0.1429E-01  0.2322E+00  0.2322E+00
      1.581  0.1191E-01  0.1191E-01  0.2335E+00  0.2335E+00
      1.685  0.9794E-02  0.9794E-02  0.2345E+00  0.2345E+00
      1.789  0.8212E-02  0.8212E-02  0.2354E+00  0.2354E+00
      1.893  0.1086E-01  0.1086E-01  0.2365E+00  0.2365E+00
      1.998  0.9822E-02  0.9822E-02  0.2375E+00  0.2375E+00
      2.102  0.1220E-01  0.1220E-01  0.2388E+00  0.2388E+00
      2.206  0.1052E-01  0.1052E-01  0.2399E+00  0.2399E+00
      2.310  0.7316E-02  0.7316E-02  0.2406E+00  0.2406E+00
      2.414  0.1171E-01  0.1171E-01  0.2419E+00  0.2419E+00
      2.518  0.9371E-02  0.9372E-02  0.2428E+00  0.2428E+00
      2.622  0.8579E-02  0.8579E-02  0.2437E+00  0.2437E+00
      2.726  0.1394E-01  0.1394E-01  0.2452E+00  0.2452E+00
      2.830  0.1169E-01  0.1169E-01  0.2464E+00  0.2464E+00
      2.935  0.1032E-01  0.1032E-01  0.2475E+00  0.2475E+00
      3.039  0.1084E-01  0.1085E-01  0.2486E+00  0.2486E+00
      3.143  0.1025E-01  0.1025E-01  0.2497E+00  0.2497E+00
      3.247  0.1397E-01  0.1397E-01  0.2511E+00  0.2511E+00
      3.351  0.2163E-01  0.2163E-01  0.2534E+00  0.2534E+00
      3.455  0.1826E-01  0.1825E-01  0.2553E+00  0.2553E+00
      3.559  0.1324E-01  0.1324E-01  0.2567E+00  0.2567E+00
      3.663  0.1257E-01  0.1257E-01  0.2580E+00  0.2580E+00
      3.768  0.1791E-01  0.1791E-01  0.2598E+00  0.2598E+00
      3.872  0.2454E-01  0.2454E-01  0.2624E+00  0.2624E+00
      3.976  0.2378E-01  0.2378E-01  0.2649E+00  0.2649E+00
      4.080  0.1876E-01  0.1875E-01  0.2668E+00  0.2668E+00
      4.184  0.1483E-01  0.1483E-01  0.2684E+00  0.2684E+00
      4.288  0.1657E-01  0.1657E-01  0.2701E+00  0.2701E+00
      4.392  0.2263E-01  0.2263E-01  0.2724E+00  0.2724E+00
      4.496  0.2721E-01  0.2720E-01  0.2753E+00  0.2753E+00
      4.601  0.1987E-01  0.1987E-01  0.2773E+00  0.2773E+00
      4.705  0.2412E-01  0.2413E-01  0.2799E+00  0.2799E+00
      4.809  0.2933E-01  0.2933E-01  0.2829E+00  0.2829E+00
      4.913  0.2540E-01  0.2541E-01  0.2856E+00  0.2856E+00
      5.017  0.2019E-01  0.2018E-01  0.2877E+00  0.2877E+00
      5.121  0.2419E-01  0.2420E-01  0.2902E+00  0.2902E+00
      5.225  0.3168E-01  0.3169E-01  0.2935E+00  0.2935E+00
      5.329  0.2927E-01  0.2926E-01  0.2965E+00  0.2965E+00
      5.434  0.2541E-01  0.2541E-01  0.2992E+00  0.2992E+00
      5.538  0.2466E-01  0.2467E-01  0.3017E+00  0.3017E+00
      5.642  0.2652E-01  0.2651E-01  0.3045E+00  0.3045E+00
      5.746  0.2662E-01  0.2661E-01  0.3073E+00  0.3073E+00
      5.850  0.2280E-01  0.2280E-01  0.3096E+00  0.3096E+00
      5.954  0.2283E-01  0.2283E-01  0.3120E+00  0.3120E+00
      6.058  0.2084E-01  0.2085E-01  0.3142E+00  0.3142E+00
      6.162  0.1976E-01  0.1977E-01  0.3162E+00  0.3162E+00
      6.266  0.2036E-01  0.2034E-01  0.3184E+00  0.3184E+00
      6.371  0.1973E-01  0.1972E-01  0.3204E+00  0.3204E+00
      6.475  0.1926E-01  0.1927E-01  0.3224E+00  0.3224E+00
      6.579  0.2035E-01  0.2036E-01  0.3245E+00  0.3245E+00
      6.683  0.2081E-01  0.2080E-01  0.3267E+00  0.3267E+00
      6.787  0.2121E-01  0.2121E-01  0.3289E+00  0.3289E+00
      6.891  0.2815E-01  0.2816E-01  0.3318E+00  0.3319E+00
      6.995  0.3036E-01  0.3036E-01  0.3350E+00  0.3350E+00
      7.099  0.2935E-01  0.2934E-01  0.3381E+00  0.3381E+00
      7.204  0.2697E-01  0.2697E-01  0.3409E+00  0.3409E+00
      7.308  0.2767E-01  0.2767E-01  0.3438E+00  0.3438E+00
      7.412  0.3423E-01  0.3424E-01  0.3473E+00  0.3473E+00
      7.516  0.3316E-01  0.3316E-01  0.3508E+00  0.3508E+00
      7.620  0.2776E-01  0.2775E-01  0.3537E+00  0.3537E+00
      7.724  0.3842E-01  0.3843E-01  0.3577E+00  0.3577E+00
      7.828  0.4149E-01  0.4150E-01  0.3620E+00  0.3620E+00
      7.932  0.3118E-01  0.3118E-01  0.3652E+00  0.3652E+00
      8.037  0.3247E-01  0.3247E-01  0.3686E+00  0.3686E+00
      8.141  0.2820E-01  0.2819E-01  0.3715E+00  0.3715E+00
      8.245  0.1794E-01  0.1794E-01  0.3734E+00  0.3734E+00
      8.349  0.1028E-01  0.1026E-01  0.3745E+00  0.3745E+00
      8.453  0.3828E-02  0.3821E-02  0.3749E+00  0.3749E+00
      8.557  0.7225E-03  0.7219E-03  0.3750E+00  0.3750E+00
      8.661  0.2961E-03  0.2961E-03  0.3750E+00  0.3750E+00
      8.765  0.8681E-04  0.8679E-04  0.3750E+00  0.3750E+00
      8.869  0.4135E-05  0.4133E-05  0.3750E+00  0.3750E+00
      8.974  0.2697E-07  0.2695E-07  0.3750E+00  0.3750E+00
      9.078  0.2235E-10  0.2233E-10  0.3750E+00  0.3750E+00
      9.182  0.2259E-14  0.2257E-14  0.3750E+00  0.3750E+00
      9.286  0.0000E+00  0.0000E+00  0.3750E+00  0.3750E+00
      9.390  0.0000E+00  0.0000E+00  0.3750E+00  0.3750E+00
      9.494  0.0000E+00  0.0000E+00  0.3750E+00  0.3750E+00
      9.598  0.0000E+00  0.0000E+00  0.3750E+00  0.3750E+00
      9.702  0.0000E+00  0.0000E+00  0.3750E+00  0.3750E+00
      9.807  0.0000E+00  0.0000E+00  0.3750E+00  0.3750E+00
      9.911  0.0000E+00  0.0000E+00  0.3750E+00  0.3750E+00
     10.015  0.0000E+00  0.0000E+00  0.3750E+00  0.3750E+00
