Lattice                                 
           1
     4.278165    2.470000    0.000000
    -4.278165    2.470000    0.000000
     0.000000    0.000000   15.000000
   B    C 
     8     8
Direct configuration=     1
   0.66888689  0.00000000  0.10000000
   0.33111211  0.00000000  0.10000000
   0.00000000  0.33111211  0.10000000
   0.00000000  0.66888689  0.10000000
   0.33111211  0.33111211  0.10000000
   0.66888689  0.66888689  0.10000000
   0.66666600  0.33333300  0.09922189
   0.33333300  0.66666600  0.10077811
   0.24999933  0.24999967  0.46906667
   0.41666633  0.08333267  0.46906667
   0.24999933  0.74999967  0.46906667
   0.41666633  0.58333267  0.46906667
   0.74999933  0.24999967  0.46906667
   0.91666633  0.08333267  0.46906667
   0.74999933  0.74999967  0.46906667
   0.91666633  0.58333267  0.46906667
Direct configuration=     2
   0.67161657 -0.00000004  0.10002667
   0.32838263 -0.00000011  0.10002671
   0.00000004  0.32838243  0.10002667
   0.00000011  0.67161637  0.10002671
   0.32838232  0.32838222  0.10002672
   0.67161678  0.67161668  0.10002672
   0.66666613  0.33333287  0.09923302
   0.33333254  0.66666646  0.10082508
   0.24999500  0.24999469  0.46903965
   0.41666280  0.08333422  0.46903910
   0.24999894  0.75000006  0.46903871
   0.41666700  0.58333200  0.46903933
   0.75000233  0.24999667  0.46903947
   0.91666737  0.08333163  0.46904002
   0.75000431  0.75000400  0.46903965
   0.91666478  0.58333620  0.46903910
Direct configuration=     3
   0.67019158 -0.00000002  0.10001275
   0.32980751 -0.00000005  0.10001276
   0.00000002  0.32980742  0.10001275
   0.00000005  0.67019149  0.10001276
   0.32980736  0.32980731  0.10001277
   0.67019169  0.67019164  0.10001277
   0.66666606  0.33333294  0.09922721
   0.33333278  0.66666622  0.10080056
   0.24999726  0.24999729  0.46905376
   0.41666465  0.08333341  0.46905349
   0.24999914  0.74999986  0.46905331
   0.41666665  0.58333235  0.46905360
   0.75000077  0.24999823  0.46905367
   0.91666683  0.08333217  0.46905393
   0.75000171  0.75000174  0.46905376
   0.91666559  0.58333435  0.46905349
Direct configuration=     4
   0.67019960 -0.00000002  0.10001283
   0.32979950 -0.00000005  0.10001284
   0.00000002  0.32979940  0.10001283
   0.00000005  0.67019950  0.10001284
   0.32979935  0.32979930  0.10001285
   0.67019970  0.67019965  0.10001285
   0.66666606  0.33333294  0.09922724
   0.33333278  0.66666622  0.10080070
   0.24999725  0.24999727  0.46905368
   0.41666464  0.08333341  0.46905341
   0.24999914  0.74999986  0.46905322
   0.41666666  0.58333234  0.46905352
   0.75000078  0.24999822  0.46905359
   0.91666683  0.08333217  0.46905385
   0.75000173  0.75000175  0.46905368
   0.91666559  0.58333436  0.46905341
Direct configuration=     5
   0.67019614 -0.00000002  0.10001279
   0.32980295 -0.00000005  0.10001281
   0.00000002  0.32980286  0.10001279
   0.00000005  0.67019605  0.10001281
   0.32980280  0.32980275  0.10001281
   0.67019625  0.67019620  0.10001281
   0.66666606  0.33333294  0.09922723
   0.33333278  0.66666622  0.10080064
   0.24999726  0.24999728  0.46905371
   0.41666464  0.08333341  0.46905345
   0.24999914  0.74999986  0.46905326
   0.41666665  0.58333235  0.46905356
   0.75000077  0.24999823  0.46905362
   0.91666683  0.08333217  0.46905388
   0.75000172  0.75000174  0.46905371
   0.91666559  0.58333436  0.46905345
Direct configuration=     6
   0.67019386 -0.00000002  0.10001277
   0.32980523 -0.00000005  0.10001279
   0.00000002  0.32980514  0.10001277
   0.00000005  0.67019377  0.10001279
   0.32980508  0.32980503  0.10001279
   0.67019397  0.67019392  0.10001279
   0.66666606  0.33333294  0.09922722
   0.33333278  0.66666622  0.10080060
   0.24999726  0.24999728  0.46905373
   0.41666464  0.08333341  0.46905347
   0.24999914  0.74999986  0.46905328
   0.41666665  0.58333235  0.46905358
   0.75000077  0.24999823  0.46905364
   0.91666683  0.08333217  0.46905391
   0.75000172  0.75000174  0.46905373
   0.91666559  0.58333436  0.46905347
Direct configuration=     7
   0.67019272 -0.00000002  0.10001276
   0.32980637 -0.00000005  0.10001278
   0.00000002  0.32980628  0.10001276
   0.00000005  0.67019263  0.10001278
   0.32980622  0.32980617  0.10001278
   0.67019283  0.67019278  0.10001278
   0.66666606  0.33333294  0.09922721
   0.33333278  0.66666622  0.10080058
   0.24999726  0.24999729  0.46905374
   0.41666464  0.08333341  0.46905348
   0.24999914  0.74999986  0.46905329
   0.41666665  0.58333235  0.46905359
   0.75000077  0.24999823  0.46905366
   0.91666683  0.08333217  0.46905392
   0.75000171  0.75000174  0.46905374
   0.91666559  0.58333436  0.46905348
Direct configuration=     8
   0.67019215 -0.00000002  0.10001275
   0.32980694 -0.00000005  0.10001277
   0.00000002  0.32980685  0.10001275
   0.00000005  0.67019206  0.10001277
   0.32980679  0.32980674  0.10001278
   0.67019226  0.67019221  0.10001278
   0.66666606  0.33333294  0.09922721
   0.33333278  0.66666622  0.10080057
   0.24999726  0.24999729  0.46905375
   0.41666465  0.08333341  0.46905349
   0.24999914  0.74999986  0.46905330
   0.41666665  0.58333235  0.46905360
   0.75000077  0.24999823  0.46905366
   0.91666683  0.08333217  0.46905392
   0.75000171  0.75000174  0.46905375
   0.91666559  0.58333435  0.46905349
Direct configuration=     9
   0.67019218 -0.00000005  0.10003682
   0.32980706 -0.00000001  0.10003687
   0.00000005  0.32980682  0.10003682
   0.00000001  0.67019194  0.10003687
   0.32980693  0.32980688  0.10003689
   0.67019212  0.67019207  0.10003689
   0.66666605  0.33333295  0.09924157
   0.33333277  0.66666623  0.10083753
   0.24999986  0.25000127  0.46902946
   0.41666761  0.08333201  0.46902880
   0.24999904  0.74999996  0.46902835
   0.41666657  0.58333243  0.46902908
   0.74999821  0.25000079  0.46902925
   0.91666648  0.08333252  0.46902988
   0.74999773  0.74999914  0.46902946
   0.91666699  0.58333139  0.46902880
Direct configuration=    10
   0.67019226 -0.00000015  0.10010904
   0.32980739  0.00000010  0.10010918
   0.00000015  0.32980674  0.10010904
  -0.00000010  0.67019161  0.10010918
   0.32980734  0.32980728  0.10010923
   0.67019172  0.67019166  0.10010923
   0.66666601  0.33333299  0.09928465
   0.33333273  0.66666627  0.10094839
   0.25000766  0.25001321  0.46895658
   0.41667650  0.08332780  0.46895474
   0.24999873  0.75000027  0.46895351
   0.41666630  0.58333270  0.46895552
   0.74999053  0.25000847  0.46895600
   0.91666544  0.08333356  0.46895773
   0.74998579  0.74999134  0.46895658
   0.91667120  0.58332250  0.46895474
Direct configuration=    11
   0.67019243 -0.00000034  0.10025347
   0.32980807  0.00000033  0.10025380
   0.00000034  0.32980657  0.10025347
  -0.00000033  0.67019093  0.10025380
   0.32980815  0.32980808  0.10025390
   0.67019092  0.67019085  0.10025390
   0.66666594  0.33333306  0.09937081
   0.33333265  0.66666635  0.10117012
   0.25002326  0.25003708  0.46881081
   0.41669428  0.08331938  0.46880663
   0.24999812  0.75000088  0.46880382
   0.41666577  0.58333323  0.46880841
   0.74997516  0.25002384  0.46880950
   0.91666336  0.08333564  0.46881345
   0.74996192  0.74997574  0.46881081
   0.91667962  0.58330472  0.46880663
Direct configuration=    12
   0.67019277 -0.00000073  0.10054233
   0.32980943  0.00000078  0.10054303
   0.00000073  0.32980623  0.10054233
  -0.00000078  0.67018957  0.10054303
   0.32980978  0.32980968  0.10054326
   0.67018932  0.67018922  0.10054326
   0.66666580  0.33333320  0.09954312
   0.33333248  0.66666652  0.10161357
   0.25005445  0.25008484  0.46851929
   0.41672984  0.08330255  0.46851041
   0.24999689  0.75000211  0.46850444
   0.41666472  0.58333428  0.46851419
   0.74994444  0.25005456  0.46851650
   0.91665920  0.08333980  0.46852488
   0.74991416  0.74994455  0.46851929
   0.91669645  0.58326916  0.46851041
Direct configuration=    13
   0.67019344 -0.00000151  0.10112004
   0.32981213  0.00000169  0.10112150
   0.00000151  0.32980556  0.10112004
  -0.00000169  0.67018687  0.10112150
   0.32981304  0.32981288  0.10112197
   0.67018612  0.67018596  0.10112197
   0.66666551  0.33333349  0.09988775
   0.33333216  0.66666684  0.10250047
   0.25011683  0.25018035  0.46793625
   0.41680096  0.08326888  0.46791797
   0.24999443  0.75000457  0.46790569
   0.41666260  0.58333640  0.46792574
   0.74988299  0.25011601  0.46793050
   0.91665087  0.08334813  0.46794774
   0.74981865  0.74988217  0.46793625
   0.91673012  0.58319804  0.46791797
Direct configuration=    14
   0.67019478 -0.00000306  0.10227548
   0.32981755  0.00000350  0.10227844
   0.00000306  0.32980422  0.10227548
  -0.00000350  0.67018145  0.10227844
   0.32981955  0.32981929  0.10227938
   0.67017971  0.67017945  0.10227938
   0.66666494  0.33333406  0.10057700
   0.33333151  0.66666749  0.10427428
   0.25024160  0.25037138  0.46677016
   0.41694321  0.08320155  0.46673308
   0.24998950  0.75000950  0.46670818
   0.41665837  0.58334063  0.46674884
   0.74976009  0.25023891  0.46675850
   0.91663422  0.08336478  0.46679345
   0.74962762  0.74975740  0.46677016
   0.91679745  0.58305579  0.46673308
Direct configuration=    15
   0.67019746 -0.00000617  0.10458634
   0.32982839  0.00000713  0.10459232
   0.00000617  0.32980154  0.10458634
  -0.00000713  0.67017061  0.10459232
   0.32983258  0.32983210  0.10459421
   0.67016690  0.67016642  0.10459421
   0.66666380  0.33333520  0.10195551
   0.33333021  0.66666879  0.10782189
   0.25049114  0.25075343  0.46443798
   0.41722770  0.08306688  0.46436330
   0.24997965  0.75001935  0.46431317
   0.41664991  0.58334909  0.46439506
   0.74951429  0.25048471  0.46441451
   0.91660091  0.08339809  0.46448488
   0.74924557  0.74950786  0.46443798
   0.91693212  0.58277130  0.46436330
Direct configuration=    16
   0.67020283 -0.00001238  0.10920807
   0.32985006  0.00001440  0.10922008
   0.00001238  0.32979617  0.10920807
  -0.00001440  0.67014894  0.10922008
   0.32985864  0.32985773  0.10922387
   0.67014127  0.67014036  0.10922387
   0.66666152  0.33333748  0.10471253
   0.33332762  0.66667138  0.11491712
   0.25099021  0.25151754  0.45977362
   0.41779668  0.08279755  0.45962374
   0.24995995  0.75003905  0.45952315
   0.41663299  0.58336601  0.45968748
   0.74902269  0.25097631  0.45972652
   0.91653431  0.08346469  0.45986775
   0.74848146  0.74900879  0.45977362
   0.91720145  0.58220232  0.45962374
Direct configuration=    17
   0.67021356 -0.00002480  0.11845154
   0.32989340  0.00002892  0.11847560
   0.00002480  0.32978544  0.11845154
  -0.00002892  0.67010560  0.11847560
   0.32991077  0.32990897  0.11848320
   0.67009003  0.67008823  0.11848320
   0.66665695  0.33334205  0.11022656
   0.33332244  0.66667656  0.12910758
   0.25198836  0.25304575  0.45044491
   0.41893463  0.08225889  0.45014462
   0.24992055  0.75007845  0.44994310
   0.41659916  0.58339984  0.45027232
   0.74803949  0.25195951  0.45035054
   0.91640109  0.08359791  0.45063348
   0.74695325  0.74801064  0.45044491
   0.91774011  0.58106437  0.45014462
Direct configuration=    18
   0.67020550 -0.00001547  0.11150838
   0.32986084  0.00001801  0.11152339
   0.00001547  0.32979350  0.11150838
  -0.00001801  0.67013816  0.11152339
   0.32987162  0.32987048  0.11152813
   0.67012852  0.67012738  0.11152813
   0.66666038  0.33333862  0.10608474
   0.33332633  0.66667267  0.11844853
   0.25123861  0.25189785  0.45745210
   0.41807987  0.08266350  0.45726479
   0.24995015  0.75004885  0.45713908
   0.41662457  0.58337443  0.45734444
   0.74877801  0.25122099  0.45739324
   0.91650116  0.08349784  0.45756973
   0.74810115  0.74876039  0.45745210
   0.91733550  0.58191913  0.45726479
Direct configuration=    19
   0.67020550 -0.00001547  0.11150926
   0.32986085  0.00001801  0.11152426
   0.00001547  0.32979350  0.11150926
  -0.00001801  0.67013815  0.11152426
   0.32987162  0.32987049  0.11152901
   0.67012851  0.67012738  0.11152901
   0.66666038  0.33333862  0.10608526
   0.33332633  0.66667267  0.11844987
   0.25123865  0.25189790  0.45745122
   0.41807990  0.08266349  0.45726389
   0.24995015  0.75004885  0.45713817
   0.41662457  0.58337443  0.45734355
   0.74877798  0.25122102  0.45739235
   0.91650114  0.08349786  0.45756886
   0.74810110  0.74876035  0.45745122
   0.91733551  0.58191910  0.45726389
Direct configuration=    20
   0.67020548 -0.00001548  0.11151189
   0.32986087  0.00001801  0.11152690
   0.00001548  0.32979352  0.11151189
  -0.00001801  0.67013813  0.11152690
   0.32987164  0.32987051  0.11153164
   0.67012849  0.67012736  0.11153164
   0.66666038  0.33333862  0.10608682
   0.33332633  0.66667267  0.11845391
   0.25123878  0.25189804  0.45744856
   0.41808000  0.08266344  0.45726120
   0.24995017  0.75004883  0.45713545
   0.41662454  0.58337446  0.45734087
   0.74877789  0.25122111  0.45738968
   0.91650111  0.08349789  0.45756622
   0.74810096  0.74876022  0.45744856
   0.91733556  0.58191900  0.45726120
Direct configuration=    21
   0.67020546 -0.00001550  0.11151715
   0.32986091  0.00001800  0.11153217
   0.00001550  0.32979354  0.11151715
  -0.00001800  0.67013809  0.11153217
   0.32987168  0.32987056  0.11153692
   0.67012844  0.67012732  0.11153692
   0.66666038  0.33333862  0.10608996
   0.33332633  0.66667267  0.11846199
   0.25123903  0.25189834  0.45744325
   0.41808020  0.08266335  0.45725580
   0.24995019  0.75004881  0.45713000
   0.41662449  0.58337451  0.45733551
   0.74877772  0.25122128  0.45738434
   0.91650104  0.08349796  0.45756096
   0.74810066  0.74875997  0.45744325
   0.91733565  0.58191880  0.45725580
Direct configuration=    22
   0.67020541 -0.00001553  0.11152768
   0.32986098  0.00001798  0.11154271
   0.00001553  0.32979359  0.11152768
  -0.00001798  0.67013802  0.11154271
   0.32987177  0.32987066  0.11154746
   0.67012834  0.67012723  0.11154746
   0.66666038  0.33333862  0.10609622
   0.33332632  0.66667268  0.11847815
   0.25123954  0.25189893  0.45743262
   0.41808060  0.08266316  0.45724501
   0.24995025  0.75004875  0.45711911
   0.41662438  0.58337462  0.45732479
   0.74877736  0.25122164  0.45737366
   0.91650090  0.08349810  0.45755043
   0.74810007  0.74875946  0.45743262
   0.91733584  0.58191840  0.45724501
Direct configuration=    23
   0.67020532 -0.00001560  0.11154874
   0.32986112  0.00001796  0.11156379
   0.00001560  0.32979368  0.11154874
  -0.00001796  0.67013788  0.11156379
   0.32987193  0.32987086  0.11156855
   0.67012814  0.67012707  0.11156855
   0.66666038  0.33333862  0.10610875
   0.33332631  0.66667269  0.11851046
   0.25124056  0.25190011  0.45741136
   0.41808139  0.08266280  0.45722344
   0.24995035  0.75004865  0.45709732
   0.41662417  0.58337483  0.45730335
   0.74877665  0.25122235  0.45735230
   0.91650062  0.08349838  0.45752937
   0.74809889  0.74875844  0.45741136
   0.91733620  0.58191761  0.45722344
Direct configuration=    24
   0.67020513 -0.00001574  0.11159085
   0.32986142  0.00001790  0.11160596
   0.00001574  0.32979387  0.11159085
  -0.00001790  0.67013758  0.11160596
   0.32987226  0.32987126  0.11161073
   0.67012774  0.67012674  0.11161073
   0.66666038  0.33333862  0.10613381
   0.33332628  0.66667272  0.11857509
   0.25124259  0.25190248  0.45736885
   0.41808298  0.08266206  0.45718029
   0.24995057  0.75004843  0.45705375
   0.41662374  0.58337526  0.45726047
   0.74877523  0.25122377  0.45730959
   0.91650006  0.08349894  0.45748725
   0.74809652  0.74875641  0.45736885
   0.91733694  0.58191602  0.45718029
Direct configuration=    25
   0.67020474 -0.00001603  0.11167507
   0.32986200  0.00001780  0.11169029
   0.00001603  0.32979426  0.11167507
  -0.00001780  0.67013700  0.11169029
   0.32987292  0.32987207  0.11169510
   0.67012693  0.67012608  0.11169510
   0.66666037  0.33333863  0.10618394
   0.33332623  0.66667277  0.11870434
   0.25124665  0.25190720  0.45728382
   0.41808617  0.08266059  0.45709400
   0.24995100  0.75004800  0.45696661
   0.41662289  0.58337611  0.45717470
   0.74877239  0.25122661  0.45722417
   0.91649893  0.08350007  0.45740302
   0.74809180  0.74875235  0.45728382
   0.91733841  0.58191283  0.45709400
Direct configuration=    26
   0.67020398 -0.00001659  0.11184352
   0.32986316  0.00001758  0.11185895
   0.00001659  0.32979502  0.11184352
  -0.00001758  0.67013584  0.11185895
   0.32987423  0.32987367  0.11186383
   0.67012533  0.67012477  0.11186383
   0.66666037  0.33333863  0.10628418
   0.33332613  0.66667287  0.11896285
   0.25125478  0.25191666  0.45711376
   0.41809254  0.08265765  0.45692141
   0.24995187  0.75004713  0.45679232
   0.41662118  0.58337782  0.45700317
   0.74876671  0.25123229  0.45705331
   0.91649668  0.08350232  0.45723455
   0.74808234  0.74874422  0.45711376
   0.91734135  0.58190646  0.45692141
Direct configuration=    27
   0.67020245 -0.00001772  0.11218041
   0.32986549  0.00001715  0.11219628
   0.00001772  0.32979655  0.11218041
  -0.00001715  0.67013351  0.11219628
   0.32987686  0.32987688  0.11220129
   0.67012212  0.67012214  0.11220129
   0.66666036  0.33333864  0.10648467
   0.33332593  0.66667307  0.11947986
   0.25127104  0.25193558  0.45677365
   0.41810528  0.08265177  0.45657623
   0.24995360  0.75004540  0.45644375
   0.41661777  0.58338123  0.45666012
   0.74875536  0.25124364  0.45671161
   0.91649219  0.08350681  0.45689761
   0.74806342  0.74872796  0.45677365
   0.91734723  0.58189372  0.45657623
Direct configuration=    28
   0.67019939 -0.00001998  0.11285419
   0.32987016  0.00001629  0.11287093
   0.00001998  0.32979961  0.11285419
  -0.00001629  0.67012884  0.11287093
   0.32988211  0.32988329  0.11287621
   0.67011571  0.67011689  0.11287621
   0.66666033  0.33333867  0.10688565
   0.33332553  0.66667347  0.12051390
   0.25130355  0.25197341  0.45609343
   0.41813076  0.08264002  0.45588586
   0.24995705  0.75004195  0.45574660
   0.41661095  0.58338805  0.45597400
   0.74873265  0.25126635  0.45602820
   0.91648320  0.08351580  0.45622374
   0.74802559  0.74869545  0.45609343
   0.91735898  0.58186824  0.45588586
Direct configuration=    29
   0.67019328 -0.00002451  0.11420175
   0.32987948  0.00001457  0.11422024
   0.00002451  0.32980572  0.11420175
  -0.00001457  0.67011952  0.11422024
   0.32989263  0.32989612  0.11422604
   0.67010288  0.67010637  0.11422604
   0.66666029  0.33333871  0.10768761
   0.33332473  0.66667427  0.12258196
   0.25136858  0.25204907  0.45473298
   0.41818171  0.08261651  0.45450514
   0.24996397  0.75003503  0.45435231
   0.41659731  0.58340169  0.45460177
   0.74868723  0.25131177  0.45466139
   0.91646522  0.08353378  0.45487599
   0.74794993  0.74863042  0.45473298
   0.91738249  0.58181729  0.45450514
Direct configuration=    30
   0.67018105 -0.00003355  0.11689688
   0.32989812  0.00001113  0.11691885
   0.00003355  0.32981795  0.11689688
  -0.00001113  0.67010088  0.11691885
   0.32991365  0.32992178  0.11692571
   0.67007722  0.67008535  0.11692571
   0.66666019  0.33333881  0.10929152
   0.33332312  0.66667588  0.12671808
   0.25149865  0.25220038  0.45201209
   0.41828363  0.08256948  0.45174369
   0.24997780  0.75002120  0.45156372
   0.41657003  0.58342897  0.45185731
   0.74859638  0.25140262  0.45192776
   0.91642926  0.08356974  0.45218050
   0.74779862  0.74850035  0.45201209
   0.91742952  0.58171537  0.45174369
Direct configuration=    31
   0.67015659 -0.00005164  0.12228713
   0.32993542  0.00000426  0.12231607
   0.00005164  0.32984241  0.12228713
  -0.00000426  0.67006358  0.12231607
   0.32995570  0.32997309  0.12232505
   0.67002591  0.67004330  0.12232505
   0.66666001  0.33333899  0.11249936
   0.33331991  0.66667909  0.13499033
   0.25175877  0.25250302  0.44657031
   0.41848746  0.08247543  0.44622079
   0.25000545  0.74999355  0.44598655
   0.41651548  0.58348352  0.44636838
   0.74841470  0.25158430  0.44646050
   0.91635734  0.08364166  0.44678951
   0.74749598  0.74824023  0.44657031
   0.91752357  0.58151154  0.44622079
Direct configuration=    32
   0.67010768 -0.00008782  0.13306764
   0.33001000 -0.00000950  0.13311051
   0.00008782  0.32989132  0.13306764
   0.00000950  0.66998900  0.13311051
   0.33003979  0.33007572  0.13312374
   0.66992328  0.66995921  0.13312374
   0.66665963  0.33333937  0.11891502
   0.33331349  0.66668551  0.15153482
   0.25227901  0.25310829  0.43568675
   0.41889512  0.08228732  0.43517498
   0.25006077  0.74993823  0.43483220
   0.41640636  0.58359264  0.43539053
   0.74805133  0.25194767  0.43552598
   0.91621351  0.08378549  0.43600753
   0.74689071  0.74771999  0.43568675
   0.91771168  0.58110388  0.43517498
Direct configuration=    33
   0.67000985 -0.00016017  0.15462866
   0.33015917 -0.00003700  0.15469940
   0.00016017  0.32998915  0.15462866
   0.00003700  0.66983983  0.15469940
   0.33020798  0.33028098  0.15472111
   0.66971802  0.66979102  0.15472111
   0.66665889  0.33334011  0.13174635
   0.33330066  0.66669834  0.18462382
   0.25331950  0.25431884  0.41391962
   0.41971043  0.08191111  0.41308337
   0.25017140  0.74982760  0.41252351
   0.41618813  0.58381087  0.41343482
   0.74732458  0.25267442  0.41365694
   0.91592584  0.08407316  0.41444356
   0.74568016  0.74667950  0.41391962
   0.91808789  0.58028857  0.41308337
Direct configuration=    34
   0.67008630 -0.00010363  0.13777921
   0.33004260 -0.00001551  0.13782817
   0.00010363  0.32991270  0.13777921
   0.00001551  0.66995640  0.13782817
   0.33007654  0.33012058  0.13784324
   0.66987842  0.66992246  0.13784324
   0.66665947  0.33333953  0.12171895
   0.33331069  0.66668831  0.15876550
   0.25250638  0.25337283  0.43093015
   0.41907328  0.08220511  0.43034747
   0.25008495  0.74991405  0.42995726
   0.41635867  0.58364033  0.43059272
   0.74789252  0.25210648  0.43074711
   0.91615065  0.08384835  0.43129532
   0.74662617  0.74749262  0.43093015
   0.91779389  0.58092572  0.43034747
Direct configuration=    35
   0.67006690 -0.00011797  0.14205491
   0.33007218 -0.00002096  0.14210939
   0.00011797  0.32993210  0.14205491
   0.00002096  0.66992682  0.14210939
   0.33010990  0.33016128  0.14212615
   0.66983772  0.66988910  0.14212615
   0.66665932  0.33333968  0.12426350
   0.33330814  0.66669086  0.16532728
   0.25271272  0.25361289  0.42661358
   0.41923496  0.08213051  0.42596655
   0.25010688  0.74989212  0.42553329
   0.41631540  0.58368360  0.42623875
   0.74774840  0.25225060  0.42641033
   0.91609360  0.08390540  0.42701904
   0.74638611  0.74728628  0.42661358
   0.91786849  0.58076404  0.42596655
Direct configuration=    36
   0.66994338 -0.00016402  0.14533573
   0.33016196 -0.00006350  0.14539434
   0.00016402  0.33005562  0.14533573
   0.00006350  0.66983704  0.14539434
   0.33020183  0.33029194  0.14541203
   0.66970706  0.66979717  0.14541203
   0.66666072  0.33333828  0.12622753
   0.33330617  0.66669283  0.17032151
   0.25263318  0.25343779  0.42330160
   0.41908622  0.08219589  0.42261272
   0.25012998  0.74986902  0.42215138
   0.41628909  0.58370991  0.42290191
   0.74786854  0.25213046  0.42308533
   0.91607970  0.08391930  0.42373283
   0.74656121  0.74736582  0.42330160
   0.91780311  0.58091278  0.42261272
Direct configuration=    37
   0.66976266 -0.00023139  0.15013581
   0.33029332 -0.00012573  0.15020044
   0.00023139  0.33023634  0.15013581
   0.00012573  0.66970568  0.15020044
   0.33033633  0.33048310  0.15021951
   0.66951590  0.66966267  0.15021951
   0.66666277  0.33333623  0.12910105
   0.33330329  0.66669571  0.17762842
   0.25251681  0.25318162  0.41845594
   0.41886859  0.08229154  0.41770583
   0.25016377  0.74983523  0.41720341
   0.41625060  0.58374840  0.41801987
   0.74804433  0.25195467  0.41822064
   0.91605936  0.08393964  0.41892489
   0.74681738  0.74748219  0.41845594
   0.91770746  0.58113041  0.41770583
Direct configuration=    38
   0.66962349 -0.00027812  0.14986480
   0.33037735 -0.00017587  0.14992879
   0.00027812  0.33037551  0.14986480
   0.00017587  0.66962165  0.14992879
   0.33041806  0.33060817  0.14994694
   0.66939083  0.66958094  0.14994694
   0.66666397  0.33333503  0.12897537
   0.33330316  0.66669584  0.17712737
   0.25223583  0.25279056  0.41873107
   0.41858077  0.08242555  0.41799568
   0.25015580  0.74984320  0.41750288
   0.41627753  0.58372147  0.41830313
   0.74828939  0.25170961  0.41850022
   0.91610759  0.08389141  0.41918980
   0.74720844  0.74776317  0.41873107
   0.91757345  0.58141823  0.41799568
Direct configuration=    39
   0.66920597 -0.00041832  0.14905175
   0.33062947 -0.00032632  0.14911385
   0.00041832  0.33079303  0.14905175
   0.00032632  0.66936953  0.14911385
   0.33066325  0.33098336  0.14912923
   0.66901564  0.66933575  0.14912923
   0.66666759  0.33333141  0.12859834
   0.33330276  0.66669624  0.17562421
   0.25139289  0.25161738  0.41955647
   0.41771731  0.08282758  0.41886525
   0.25013189  0.74986711  0.41840130
   0.41635834  0.58364066  0.41915288
   0.74902460  0.25097440  0.41933898
   0.91625229  0.08374671  0.41998453
   0.74838162  0.74860611  0.41955647
   0.91717142  0.58228169  0.41886525
Direct configuration=    40
   0.66837094 -0.00069872  0.14742565
   0.33113371 -0.00062721  0.14748396
   0.00069872  0.33162806  0.14742565
   0.00062721  0.66886529  0.14748396
   0.33115363  0.33173375  0.14749381
   0.66826525  0.66884537  0.14749381
   0.66667481  0.33332419  0.12784427
   0.33330197  0.66669703  0.17261791
   0.24970702  0.24927103  0.42120727
   0.41599038  0.08363164  0.42060438
   0.25008406  0.74991494  0.42019812
   0.41651995  0.58347905  0.42085238
   0.75049500  0.24950400  0.42101651
   0.91654168  0.08345732  0.42157400
   0.75072797  0.75029198  0.42120727
   0.91636736  0.58400862  0.42060438
Direct configuration=    41
   0.66852981 -0.00064537  0.14773503
   0.33103777 -0.00056996  0.14779407
   0.00064537  0.33146919  0.14773503
   0.00056996  0.66896123  0.14779407
   0.33106032  0.33159098  0.14780497
   0.66840802  0.66893868  0.14780497
   0.66667344  0.33332556  0.12798775
   0.33330212  0.66669688  0.17318990
   0.25002778  0.24971746  0.42089318
   0.41631895  0.08347866  0.42027349
   0.25009316  0.74990584  0.41985625
   0.41648920  0.58350980  0.42052902
   0.75021524  0.24978376  0.42069734
   0.91648662  0.08351238  0.42127159
   0.75028154  0.74997122  0.42089318
   0.91652034  0.58368005  0.42027349
Direct configuration=    42
   0.66838124 -0.00066469  0.14770074
   0.33115537 -0.00059493  0.14775911
   0.00066469  0.33161776  0.14770074
   0.00059493  0.66884363  0.14775911
   0.33117371  0.33171983  0.14776820
   0.66827917  0.66882529  0.14776820
   0.66667517  0.33332383  0.12804551
   0.33330427  0.66669473  0.17295618
   0.24993600  0.24974872  0.42092921
   0.41637855  0.08345731  0.42033557
   0.25003612  0.74996288  0.41993628
   0.41656175  0.58343725  0.42057979
   0.75016878  0.24983022  0.42073978
   0.91655796  0.08344104  0.42129013
   0.75025028  0.75006300  0.42092921
   0.91654169  0.58362045  0.42033557
Direct configuration=    43
   0.66793552 -0.00072264  0.14759787
   0.33150816 -0.00066986  0.14765421
   0.00072264  0.33206348  0.14759787
   0.00066986  0.66849084  0.14765421
   0.33151386  0.33210640  0.14765789
   0.66789260  0.66848514  0.14765789
   0.66668035  0.33331865  0.12821879
   0.33331073  0.66668827  0.17225504
   0.24966064  0.24984251  0.42103730
   0.41655735  0.08339328  0.42052180
   0.24986499  0.75013401  0.42017637
   0.41677939  0.58321961  0.42073207
   0.75002939  0.24996961  0.42086712
   0.91677198  0.08322702  0.42134578
   0.75015649  0.75033836  0.42103730
   0.91660572  0.58344165  0.42052180
Direct configuration=    44
   0.66704408 -0.00083854  0.14739213
   0.33221375 -0.00081972  0.14744441
   0.00083854  0.33295492  0.14739213
   0.00081972  0.66778525  0.14744441
   0.33219415  0.33287954  0.14743727
   0.66711946  0.66780485  0.14743727
   0.66669072  0.33330828  0.12856536
   0.33332365  0.66667535  0.17085276
   0.24910993  0.25003010  0.42125349
   0.41691495  0.08326521  0.42089428
   0.24952273  0.75047627  0.42065655
   0.41721467  0.58278433  0.42103665
   0.74975061  0.25024839  0.42112181
   0.91720002  0.08279898  0.42145707
   0.74996890  0.75088907  0.42125349
   0.91673379  0.58308405  0.42089428
Direct configuration=    45
   0.66742773 -0.00078866  0.14748067
   0.33191008 -0.00075522  0.14753470
   0.00078866  0.33257127  0.14748067
   0.00075522  0.66808892  0.14753470
   0.33190137  0.33254680  0.14753222
   0.66745220  0.66809763  0.14753222
   0.66668626  0.33331274  0.12841621
   0.33331809  0.66668091  0.17145627
   0.24934695  0.24994937  0.42116045
   0.41676105  0.08332033  0.42073397
   0.24967003  0.75032897  0.42044989
   0.41702734  0.58297166  0.42090557
   0.74987059  0.25012841  0.42101220
   0.91701580  0.08298320  0.42140917
   0.75004963  0.75065205  0.42116045
   0.91667867  0.58323795  0.42073397
Direct configuration=    46
   0.66736206 -0.00074838  0.14745169
   0.33200078 -0.00072339  0.14750388
   0.00074838  0.33263694  0.14745169
   0.00072339  0.66799822  0.14750388
   0.33198456  0.33258695  0.14749660
   0.66741205  0.66801444  0.14749660
   0.66668695  0.33331205  0.12860998
   0.33332698  0.66667202  0.17093544
   0.24954408  0.24999986  0.42119305
   0.41675935  0.08335066  0.42083297
   0.24975789  0.75024111  0.42059394
   0.41692284  0.58307616  0.42097631
   0.74987997  0.25011903  0.42106264
   0.91690291  0.08309609  0.42139864
   0.74999914  0.75045492  0.42119305
   0.91664834  0.58323965  0.42083297
Direct configuration=    47
   0.66716505 -0.00062753  0.14736475
   0.33227290 -0.00062791  0.14741141
   0.00062753  0.33283395  0.14736475
   0.00062791  0.66772610  0.14741141
   0.33223414  0.33270740  0.14738974
   0.66729160  0.66776486  0.14738974
   0.66668901  0.33330999  0.12919129
   0.33335365  0.66664535  0.16937295
   0.25013548  0.25015136  0.42129088
   0.41675426  0.08344164  0.42112994
   0.25002145  0.74997755  0.42102610
   0.41660937  0.58338963  0.42118853
   0.74990810  0.25009090  0.42121398