PROCAR lm decomposed
# of k-points:   61         # of bands:   48         # of ions:    8

 k-point     1 :    0.00000000 0.00000000 0.00000000     weight = 0.00826446

band     1 # energy  -19.88477085 # occ.  2.00000000
 
ion      s     py     pz     px    dxy    dyz    dz2    dxz  x2-y2    tot
    1  0.028  0.000  0.000  0.000  0.000  0.000  0.000  0.000  0.000  0.028
    2  0.028  0.000  0.000  0.000  0.000  0.000  0.000  0.000  0.000  0.028
    3  0.093  0.004  0.000  0.001  0.000  0.000  0.000  0.000  0.000  0.098
    4  0.093  0.004  0.000  0.001  0.000  0.000  0.000  0.000  0.000  0.098
    5  0.093  0.000  0.000  0.005  0.000  0.000  0.000  0.000  0.000  0.098
    6  0.093  0.000  0.000  0.005  0.000  0.000  0.000  0.000  0.000  0.098
    7  0.093  0.004  0.000  0.001  0.000  0.000  0.000  0.000  0.000  0.098
    8  0.093  0.004  0.000  0.001  0.000  0.000  0.000  0.000  0.000  0.098
tot    0.613  0.015  0.000  0.015  0.000  0.000  0.000  0.000  0.000  0.642
 
band     2 # energy  -15.98316419 # occ.  2.00000000
 
ion      s     py     pz     px    dxy    dyz    dz2    dxz  x2-y2    tot
    1  0.000  0.000  0.000  0.014  0.000  0.000  0.000  0.000  0.000  0.014
    2  0.000  0.000  0.000  0.014  0.000  0.000  0.000  0.000  0.000  0.014
    3  0.059  0.011  0.000  0.010  0.000  0.000  0.000  0.000  0.000  0.080
    4  0.040  0.011  0.000  0.012  0.000  0.000  0.000  0.000  0.000  0.062
    5  0.195  0.000  0.000  0.006  0.000  0.000  0.000  0.000  0.000  0.201
    6  0.195  0.000  0.000  0.006  0.000  0.000  0.000  0.000  0.000  0.201
    7  0.040  0.011  0.000  0.012  0.000  0.000  0.000  0.000  0.000  0.062
    8  0.059  0.011  0.000  0.010  0.000  0.000  0.000  0.000  0.000  0.080
tot    0.587  0.044  0.000  0.083  0.000  0.000  0.000  0.000  0.000  0.713
 
band     3 # energy  -15.98301295 # occ.  2.00000000
 
ion      s     py     pz     px    dxy    dyz    dz2    dxz  x2-y2    tot
    1  0.000  0.014  0.000  0.000  0.000  0.000  0.000  0.000  0.000  0.014
    2  0.000  0.014  0.000  0.000  0.000  0.000  0.000  0.000  0.000  0.014
    3  0.137  0.000  0.000  0.012  0.000  0.000  0.000  0.000  0.000  0.149
    4  0.156  0.001  0.000  0.010  0.000  0.000  0.000  0.000  0.000  0.166
    5  0.001  0.027  0.000  0.000  0.000  0.000  0.000  0.000  0.000  0.028
    6  0.001  0.027  0.000  0.000  0.000  0.000  0.000  0.000  0.000  0.028
    7  0.156  0.001  0.000  0.010  0.000  0.000  0.000  0.000  0.000  0.166
    8  0.137  0.000  0.000  0.012  0.000  0.000  0.000  0.000  0.000  0.149
tot    0.587  0.083  0.000  0.044  0.000  0.000  0.000  0.000  0.000  0.713
 
band     4 # energy  -13.64183549 # occ.  2.00000000
 
ion      s     py     pz     px    dxy    dyz    dz2    dxz  x2-y2    tot
    1  0.000  0.054  0.000  0.000  0.000  0.000  0.000  0.000  0.000  0.054
    2  0.000  0.054  0.000  0.000  0.000  0.000  0.000  0.000  0.000  0.054
    3  0.074  0.001  0.000  0.022  0.000  0.000  0.000  0.000  0.000  0.097
    4  0.070  0.001  0.000  0.025  0.000  0.000  0.000  0.000  0.000  0.096
    5  0.000  0.087  0.000  0.000  0.000  0.000  0.000  0.000  0.000  0.088
    6  0.000  0.087  0.000  0.000  0.000  0.000  0.000  0.000  0.000  0.088
    7  0.070  0.001  0.000  0.025  0.000  0.000  0.000  0.000  0.000  0.096
    8  0.074  0.001  0.000  0.022  0.000  0.000  0.000  0.000  0.000  0.097
tot    0.288  0.286  0.000  0.094  0.000  0.000  0.000  0.000  0.000  0.669
 
band     5 # energy  -13.64180132 # occ.  2.00000000
 
ion      s     py     pz     px    dxy    dyz    dz2    dxz  x2-y2    tot
    1  0.000  0.000  0.000  0.054  0.000  0.000  0.000  0.000  0.000  0.054
    2  0.000  0.000  0.000  0.054  0.000  0.000  0.000  0.000  0.000  0.054
    3  0.022  0.024  0.000  0.044  0.000  0.000  0.000  0.000  0.000  0.090
    4  0.026  0.023  0.000  0.042  0.000  0.000  0.000  0.000  0.000  0.091
    5  0.096  0.000  0.000  0.003  0.000  0.000  0.000  0.000  0.000  0.099
    6  0.096  0.000  0.000  0.003  0.000  0.000  0.000  0.000  0.000  0.099
    7  0.026  0.023  0.000  0.042  0.000  0.000  0.000  0.000  0.000  0.091
    8  0.022  0.024  0.000  0.044  0.000  0.000  0.000  0.000  0.000  0.090
tot    0.288  0.094  0.000  0.286  0.000  0.000  0.000  0.000  0.000  0.669
 
band     6 # energy  -12.57333878 # occ.  2.00000000
 
ion      s     py     pz     px    dxy    dyz    dz2    dxz  x2-y2    tot
    1  0.122  0.000  0.000  0.000  0.000  0.000  0.000  0.000  0.000  0.122
    2  0.122  0.000  0.000  0.000  0.000  0.000  0.000  0.000  0.000  0.122
    3  0.000  0.047  0.000  0.016  0.000  0.000  0.000  0.000  0.000  0.063
    4  0.000  0.047  0.000  0.016  0.000  0.000  0.000  0.000  0.000  0.063
    5  0.000  0.000  0.000  0.062  0.000  0.000  0.000  0.000  0.000  0.063
    6  0.000  0.000  0.000  0.062  0.000  0.000  0.000  0.000  0.000  0.063
    7  0.000  0.047  0.000  0.016  0.000  0.000  0.000  0.000  0.000  0.063
    8  0.000  0.047  0.000  0.016  0.000  0.000  0.000  0.000  0.000  0.063
tot    0.245  0.187  0.000  0.187  0.000  0.000  0.000  0.000  0.000  0.619
 
band     7 # energy  -11.25012349 # occ.  2.00000000
 
ion      s     py     pz     px    dxy    dyz    dz2    dxz  x2-y2    tot
    1  0.201  0.000  0.000  0.000  0.000  0.000  0.000  0.000  0.000  0.201
    2  0.201  0.000  0.000  0.000  0.000  0.000  0.000  0.000  0.000  0.201
    3  0.030  0.016  0.000  0.005  0.000  0.000  0.000  0.000  0.000  0.051
    4  0.030  0.016  0.000  0.005  0.000  0.000  0.000  0.000  0.000  0.051
    5  0.030  0.000  0.000  0.021  0.000  0.000  0.000  0.000  0.000  0.051
    6  0.030  0.000  0.000  0.021  0.000  0.000  0.000  0.000  0.000  0.051
    7  0.030  0.016  0.000  0.005  0.000  0.000  0.000  0.000  0.000  0.051
    8  0.030  0.016  0.000  0.005  0.000  0.000  0.000  0.000  0.000  0.051
tot    0.582  0.064  0.000  0.064  0.000  0.000  0.000  0.000  0.000  0.710
 
band     8 # energy   -8.68870195 # occ.  2.00000000
 
ion      s     py     pz     px    dxy    dyz    dz2    dxz  x2-y2    tot
    1  0.000  0.000  0.032  0.000  0.000  0.000  0.000  0.000  0.000  0.032
    2  0.000  0.000  0.032  0.000  0.000  0.000  0.000  0.000  0.000  0.032
    3  0.000  0.000  0.059  0.000  0.000  0.000  0.000  0.000  0.000  0.059
    4  0.000  0.000  0.059  0.000  0.000  0.000  0.000  0.000  0.000  0.059
    5  0.000  0.000  0.059  0.000  0.000  0.000  0.000  0.000  0.000  0.059
    6  0.000  0.000  0.059  0.000  0.000  0.000  0.000  0.000  0.000  0.059
    7  0.000  0.000  0.059  0.000  0.000  0.000  0.000  0.000  0.000  0.059
    8  0.000  0.000  0.059  0.000  0.000  0.000  0.000  0.000  0.000  0.059
tot    0.000  0.000  0.416  0.000  0.000  0.000  0.000  0.000  0.000  0.416
 
band     9 # energy   -8.45664935 # occ.  2.00000000
 
ion      s     py     pz     px    dxy    dyz    dz2    dxz  x2-y2    tot
    1  0.000  0.000  0.000  0.000  0.000  0.000  0.000  0.000  0.000  0.000
    2  0.000  0.000  0.000  0.000  0.000  0.000  0.000  0.000  0.000  0.000
    3  0.000  0.032  0.000  0.096  0.000  0.000  0.000  0.000  0.000  0.128
    4  0.000  0.032  0.000  0.096  0.000  0.000  0.000  0.000  0.000  0.128
    5  0.000  0.128  0.000  0.000  0.000  0.000  0.000  0.000  0.000  0.128
    6  0.000  0.128  0.000  0.000  0.000  0.000  0.000  0.000  0.000  0.128
    7  0.000  0.032  0.000  0.096  0.000  0.000  0.000  0.000  0.000  0.128
    8  0.000  0.032  0.000  0.096  0.000  0.000  0.000  0.000  0.000  0.128
tot    0.000  0.384  0.000  0.384  0.000  0.000  0.000  0.000  0.000  0.768
 
band    10 # energy   -6.30437732 # occ.  2.00000000
 
ion      s     py     pz     px    dxy    dyz    dz2    dxz  x2-y2    tot
    1  0.000  0.001  0.000  0.130  0.000  0.000  0.000  0.000  0.000  0.131
    2  0.000  0.001  0.000  0.130  0.000  0.000  0.000  0.000  0.000  0.131
    3  0.000  0.054  0.000  0.001  0.000  0.000  0.000  0.000  0.000  0.056
    4  0.000  0.039  0.000  0.000  0.000  0.000  0.000  0.000  0.000  0.039
    5  0.001  0.000  0.000  0.157  0.000  0.000  0.000  0.000  0.000  0.158
    6  0.001  0.000  0.000  0.157  0.000  0.000  0.000  0.000  0.000  0.158
    7  0.000  0.039  0.000  0.000  0.000  0.000  0.000  0.000  0.000  0.039
    8  0.000  0.054  0.000  0.001  0.000  0.000  0.000  0.000  0.000  0.056
tot    0.002  0.188  0.000  0.578  0.000  0.000  0.000  0.000  0.000  0.768
 
band    11 # energy   -6.30422517 # occ.  2.00000000
 
ion      s     py     pz     px    dxy    dyz    dz2    dxz  x2-y2    tot
    1  0.000  0.130  0.000  0.001  0.000  0.000  0.000  0.000  0.000  0.131
    2  0.000  0.130  0.000  0.001  0.000  0.000  0.000  0.000  0.000  0.131
    3  0.000  0.067  0.000  0.046  0.000  0.000  0.000  0.000  0.000  0.113
    4  0.001  0.082  0.000  0.047  0.000  0.000  0.000  0.000  0.000  0.130
    5  0.000  0.010  0.000  0.001  0.000  0.000  0.000  0.000  0.000  0.011
    6  0.000  0.010  0.000  0.001  0.000  0.000  0.000  0.000  0.000  0.011
    7  0.001  0.082  0.000  0.047  0.000  0.000  0.000  0.000  0.000  0.130
    8  0.000  0.067  0.000  0.046  0.000  0.000  0.000  0.000  0.000  0.113
tot    0.002  0.578  0.000  0.188  0.000  0.000  0.000  0.000  0.000  0.768
 
band    12 # energy   -4.48074345 # occ.  2.00000000
 
ion      s     py     pz     px    dxy    dyz    dz2    dxz  x2-y2    tot
    1  0.000  0.000  0.000  0.000  0.000  0.000  0.000  0.000  0.000  0.000
    2  0.000  0.000  0.000  0.000  0.000  0.000  0.000  0.000  0.000  0.000
    3  0.000  0.000  0.054  0.000  0.000  0.000  0.000  0.000  0.000  0.054
    4  0.000  0.000  0.029  0.000  0.000  0.000  0.000  0.000  0.000  0.029
    5  0.000  0.000  0.162  0.000  0.000  0.000  0.000  0.000  0.000  0.162
    6  0.000  0.000  0.162  0.000  0.000  0.000  0.000  0.000  0.000  0.162
    7  0.000  0.000  0.029  0.000  0.000  0.000  0.000  0.000  0.000  0.029
    8  0.000  0.000  0.054  0.000  0.000  0.000  0.000  0.000  0.000  0.054
tot    0.000  0.000  0.491  0.000  0.000  0.000  0.000  0.000  0.000  0.491
 
band    13 # energy   -4.48066347 # occ.  2.00000000
 
ion      s     py     pz     px    dxy    dyz    dz2    dxz  x2-y2    tot
    1  0.000  0.000  0.000  0.000  0.000  0.000  0.000  0.000  0.000  0.000
    2  0.000  0.000  0.000  0.000  0.000  0.000  0.000  0.000  0.000  0.000
    3  0.000  0.000  0.109  0.000  0.000  0.000  0.000  0.000  0.000  0.109
    4  0.000  0.000  0.135  0.000  0.000  0.000  0.000  0.000  0.000  0.135
    5  0.000  0.000  0.001  0.000  0.000  0.000  0.000  0.000  0.000  0.001
    6  0.000  0.000  0.001  0.000  0.000  0.000  0.000  0.000  0.000  0.001
    7  0.000  0.000  0.135  0.000  0.000  0.000  0.000  0.000  0.000  0.135
    8  0.000  0.000  0.109  0.000  0.000  0.000  0.000  0.000  0.000  0.109
tot    0.000  0.000  0.491  0.000  0.000  0.000  0.000  0.000  0.000  0.491
 
band    14 # energy   -3.79198904 # occ.  2.00000000
 
ion      s     py     pz     px    dxy    dyz    dz2    dxz  x2-y2    tot
    1  0.000  0.003  0.000  0.104  0.000  0.000  0.000  0.000  0.000  0.107
    2  0.000  0.003  0.000  0.104  0.000  0.000  0.000  0.000  0.000  0.107
    3  0.000  0.004  0.000  0.093  0.000  0.000  0.000  0.000  0.000  0.097
    4  0.000  0.002  0.000  0.091  0.000  0.000  0.000  0.000  0.000  0.093
    5  0.001  0.003  0.000  0.102  0.000  0.000  0.000  0.000  0.000  0.105
    6  0.001  0.003  0.000  0.102  0.000  0.000  0.000  0.000  0.000  0.105
    7  0.000  0.002  0.000  0.091  0.000  0.000  0.000  0.000  0.000  0.093
    8  0.000  0.004  0.000  0.093  0.000  0.000  0.000  0.000  0.000  0.097
tot    0.003  0.024  0.000  0.779  0.000  0.000  0.000  0.000  0.000  0.806
 
band    15 # energy   -3.79180913 # occ.  2.00000000
 
ion      s     py     pz     px    dxy    dyz    dz2    dxz  x2-y2    tot
    1  0.000  0.104  0.000  0.003  0.000  0.000  0.000  0.000  0.000  0.107
    2  0.000  0.104  0.000  0.003  0.000  0.000  0.000  0.000  0.000  0.107
    3  0.001  0.098  0.000  0.002  0.000  0.000  0.000  0.000  0.000  0.100
    4  0.001  0.099  0.000  0.004  0.000  0.000  0.000  0.000  0.000  0.104
    5  0.000  0.089  0.000  0.003  0.000  0.000  0.000  0.000  0.000  0.092
    6  0.000  0.089  0.000  0.003  0.000  0.000  0.000  0.000  0.000  0.092
    7  0.001  0.099  0.000  0.004  0.000  0.000  0.000  0.000  0.000  0.104
    8  0.001  0.098  0.000  0.002  0.000  0.000  0.000  0.000  0.000  0.100
tot    0.003  0.779  0.000  0.024  0.000  0.000  0.000  0.000  0.000  0.806
 
band    16 # energy   -1.96397099 # occ.  0.00000000
 
ion      s     py     pz     px    dxy    dyz    dz2    dxz  x2-y2    tot
    1  0.000  0.000  0.175  0.000  0.000  0.000  0.000  0.000  0.000  0.175
    2  0.000  0.000  0.175  0.000  0.000  0.000  0.000  0.000  0.000  0.175
    3  0.000  0.000  0.023  0.000  0.000  0.000  0.000  0.000  0.000  0.023
    4  0.000  0.000  0.023  0.000  0.000  0.000  0.000  0.000  0.000  0.023
    5  0.000  0.000  0.023  0.000  0.000  0.000  0.000  0.000  0.000  0.023
    6  0.000  0.000  0.023  0.000  0.000  0.000  0.000  0.000  0.000  0.023
    7  0.000  0.000  0.023  0.000  0.000  0.000  0.000  0.000  0.000  0.023
    8  0.000  0.000  0.023  0.000  0.000  0.000  0.000  0.000  0.000  0.023
tot    0.000  0.000  0.491  0.000  0.000  0.000  0.000  0.000  0.000  0.491
 
band    17 # energy   -0.22779675 # occ.  0.00000000
 
ion      s     py     pz     px    dxy    dyz    dz2    dxz  x2-y2    tot
    1  0.000  0.000  0.000  0.000  0.000  0.000  0.000  0.000  0.000  0.000
    2  0.000  0.000  0.000  0.000  0.000  0.000  0.000  0.000  0.000  0.000
    3  0.000  0.000  0.138  0.000  0.000  0.000  0.000  0.000  0.000  0.138
    4  0.000  0.000  0.016  0.000  0.000  0.000  0.000  0.000  0.000  0.016
    5  0.000  0.000  0.059  0.000  0.000  0.000  0.000  0.000  0.000  0.059
    6  0.000  0.000  0.059  0.000  0.000  0.000  0.000  0.000  0.000  0.059
    7  0.000  0.000  0.016  0.000  0.000  0.000  0.000  0.000  0.000  0.016
    8  0.000  0.000  0.138  0.000  0.000  0.000  0.000  0.000  0.000  0.138
tot    0.000  0.000  0.427  0.000  0.000  0.000  0.000  0.000  0.000  0.427
 
band    18 # energy   -0.22774319 # occ.  0.00000000
 
ion      s     py     pz     px    dxy    dyz    dz2    dxz  x2-y2    tot
    1  0.000  0.000  0.000  0.000  0.000  0.000  0.000  0.000  0.000  0.000
    2  0.000  0.000  0.000  0.000  0.000  0.000  0.000  0.000  0.000  0.000
    3  0.000  0.000  0.005  0.000  0.000  0.000  0.000  0.000  0.000  0.005
    4  0.000  0.000  0.126  0.000  0.000  0.000  0.000  0.000  0.000  0.126
    5  0.000  0.000  0.083  0.000  0.000  0.000  0.000  0.000  0.000  0.083
    6  0.000  0.000  0.083  0.000  0.000  0.000  0.000  0.000  0.000  0.083
    7  0.000  0.000  0.126  0.000  0.000  0.000  0.000  0.000  0.000  0.126
    8  0.000  0.000  0.005  0.000  0.000  0.000  0.000  0.000  0.000  0.005
tot    0.000  0.000  0.427  0.000  0.000  0.000  0.000  0.000  0.000  0.427
 
band    19 # energy    0.43164250 # occ.  0.00000000
 
ion      s     py     pz     px    dxy    dyz    dz2    dxz  x2-y2    tot
    1  0.000  0.000  0.127  0.000  0.000  0.000  0.000  0.000  0.000  0.127
    2  0.000  0.000  0.127  0.000  0.000  0.000  0.000  0.000  0.000  0.127
    3  0.000  0.000  0.017  0.000  0.000  0.000  0.000  0.000  0.000  0.017
    4  0.000  0.000  0.017  0.000  0.000  0.000  0.000  0.000  0.000  0.017
    5  0.000  0.000  0.017  0.000  0.000  0.000  0.000  0.000  0.000  0.017
    6  0.000  0.000  0.017  0.000  0.000  0.000  0.000  0.000  0.000  0.017
    7  0.000  0.000  0.017  0.000  0.000  0.000  0.000  0.000  0.000  0.017
    8  0.000  0.000  0.017  0.000  0.000  0.000  0.000  0.000  0.000  0.017
tot    0.000  0.000  0.360  0.000  0.000  0.000  0.000  0.000  0.000  0.360
 
band    20 # energy    0.83900125 # occ.  0.00000000
 
ion      s     py     pz     px    dxy    dyz    dz2    dxz  x2-y2    tot
    1  0.000  0.000  0.000  0.000  0.000  0.000  0.000  0.000  0.000  0.000
    2  0.000  0.000  0.000  0.000  0.000  0.000  0.000  0.000  0.000  0.000
    3  0.003  0.000  0.000  0.000  0.000  0.000  0.000  0.000  0.000  0.004
    4  0.003  0.000  0.000  0.000  0.000  0.000  0.000  0.000  0.000  0.004
    5  0.003  0.000  0.000  0.000  0.000  0.000  0.000  0.000  0.000  0.004
    6  0.003  0.000  0.000  0.000  0.000  0.000  0.000  0.000  0.000  0.004
    7  0.003  0.000  0.000  0.000  0.000  0.000  0.000  0.000  0.000  0.004
    8  0.003  0.000  0.000  0.000  0.000  0.000  0.000  0.000  0.000  0.004
tot    0.020  0.001  0.000  0.001  0.000  0.000  0.000  0.000  0.000  0.023
 
band    21 # energy    1.84105452 # occ.  0.00000000
 
ion      s     py     pz     px    dxy    dyz    dz2    dxz  x2-y2    tot
    1  0.000  0.000  0.030  0.000  0.000  0.000  0.000  0.000  0.000  0.030
    2  0.000  0.000  0.030  0.000  0.000  0.000  0.000  0.000  0.000  0.030
    3  0.000  0.000  0.000  0.000  0.000  0.000  0.000  0.000  0.000  0.000
    4  0.000  0.000  0.000  0.000  0.000  0.000  0.000  0.000  0.000  0.000
    5  0.000  0.000  0.000  0.000  0.000  0.000  0.000  0.000  0.000  0.000
    6  0.000  0.000  0.000  0.000  0.000  0.000  0.000  0.000  0.000  0.000
    7  0.000  0.000  0.000  0.000  0.000  0.000  0.000  0.000  0.000  0.000
    8  0.000  0.000  0.000  0.000  0.000  0.000  0.000  0.000  0.000  0.000
tot    0.000  0.000  0.062  0.000  0.000  0.000  0.000  0.000  0.000  0.062
 
band    22 # energy    2.24002909 # occ.  0.00000000
 
ion      s     py     pz     px    dxy    dyz    dz2    dxz  x2-y2    tot
    1  0.000  0.000  0.000  0.000  0.000  0.000  0.000  0.000  0.000  0.000
    2  0.000  0.000  0.000  0.000  0.000  0.000  0.000  0.000  0.000  0.000
    3  0.001  0.000  0.000  0.000  0.000  0.000  0.000  0.000  0.000  0.001
    4  0.001  0.000  0.000  0.000  0.000  0.000  0.000  0.000  0.000  0.001
    5  0.001  0.000  0.000  0.000  0.000  0.000  0.000  0.000  0.000  0.001
    6  0.001  0.000  0.000  0.000  0.000  0.000  0.000  0.000  0.000  0.001
    7  0.001  0.000  0.000  0.000  0.000  0.000  0.000  0.000  0.000  0.001
    8  0.001  0.000  0.000  0.000  0.000  0.000  0.000  0.000  0.000  0.001
tot    0.008  0.000  0.000  0.000  0.000  0.000  0.000  0.000  0.000  0.009
 
band    23 # energy    4.21992406 # occ.  0.00000000
 
ion      s     py     pz     px    dxy    dyz    dz2    dxz  x2-y2    tot
    1  0.000  0.000  0.012  0.000  0.000  0.000  0.000  0.000  0.000  0.012
    2  0.000  0.000  0.012  0.000  0.000  0.000  0.000  0.000  0.000  0.012
    3  0.000  0.000  0.003  0.000  0.000  0.000  0.000  0.000  0.000  0.003
    4  0.000  0.000  0.003  0.000  0.000  0.000  0.000  0.000  0.000  0.003
    5  0.000  0.000  0.003  0.000  0.000  0.000  0.000  0.000  0.000  0.003
    6  0.000  0.000  0.003  0.000  0.000  0.000  0.000  0.000  0.000  0.003
    7  0.000  0.000  0.003  0.000  0.000  0.000  0.000  0.000  0.000  0.003
    8  0.000  0.000  0.003  0.000  0.000  0.000  0.000  0.000  0.000  0.003
tot    0.000  0.000  0.041  0.000  0.000  0.000  0.000  0.000  0.000  0.041
 
band    24 # energy    4.84521013 # occ.  0.00000000
 
ion      s     py     pz     px    dxy    dyz    dz2    dxz  x2-y2    tot
    1  0.004  0.000  0.000  0.000  0.000  0.000  0.000  0.000  0.000  0.004
    2  0.004  0.000  0.000  0.000  0.000  0.000  0.000  0.000  0.000  0.004
    3  0.006  0.001  0.000  0.000  0.000  0.000  0.000  0.000  0.000  0.007
    4  0.006  0.001  0.000  0.000  0.000  0.000  0.000  0.000  0.000  0.007
    5  0.006  0.000  0.000  0.002  0.000  0.000  0.000  0.000  0.000  0.007
    6  0.006  0.000  0.000  0.002  0.000  0.000  0.000  0.000  0.000  0.007
    7  0.006  0.001  0.000  0.000  0.000  0.000  0.000  0.000  0.000  0.007
    8  0.006  0.001  0.000  0.000  0.000  0.000  0.000  0.000  0.000  0.007
tot    0.042  0.005  0.000  0.005  0.000  0.000  0.000  0.000  0.000  0.052
 
band    25 # energy    5.00888335 # occ.  0.00000000
 
ion      s     py     pz     px    dxy    dyz    dz2    dxz  x2-y2    tot
    1  0.000  0.020  0.000  0.000  0.000  0.000  0.000  0.000  0.000  0.020
    2  0.000  0.020  0.000  0.000  0.000  0.000  0.000  0.000  0.000  0.020
    3  0.088  0.000  0.000  0.002  0.000  0.000  0.000  0.000  0.000  0.090
    4  0.076  0.000  0.000  0.003  0.000  0.000  0.000  0.000  0.000  0.079
    5  0.000  0.009  0.000  0.000  0.000  0.000  0.000  0.000  0.000  0.010
    6  0.000  0.009  0.000  0.000  0.000  0.000  0.000  0.000  0.000  0.010
    7  0.076  0.000  0.000  0.003  0.000  0.000  0.000  0.000  0.000  0.079
    8  0.088  0.000  0.000  0.002  0.000  0.000  0.000  0.000  0.000  0.090
tot    0.329  0.059  0.000  0.010  0.000  0.000  0.000  0.000  0.000  0.398
 
band    26 # energy    5.00903999 # occ.  0.00000000
 
ion      s     py     pz     px    dxy    dyz    dz2    dxz  x2-y2    tot
    1  0.000  0.000  0.000  0.020  0.000  0.000  0.000  0.000  0.000  0.020
    2  0.000  0.000  0.000  0.020  0.000  0.000  0.000  0.000  0.000  0.020
    3  0.022  0.002  0.000  0.005  0.000  0.000  0.000  0.000  0.000  0.029
    4  0.034  0.002  0.000  0.004  0.000  0.000  0.000  0.000  0.000  0.040
    5  0.109  0.000  0.000  0.000  0.000  0.000  0.000  0.000  0.000  0.110
    6  0.109  0.000  0.000  0.000  0.000  0.000  0.000  0.000  0.000  0.110
    7  0.034  0.002  0.000  0.004  0.000  0.000  0.000  0.000  0.000  0.040
    8  0.022  0.002  0.000  0.005  0.000  0.000  0.000  0.000  0.000  0.029
tot    0.329  0.010  0.000  0.059  0.000  0.000  0.000  0.000  0.000  0.398
 
band    27 # energy    6.29607989 # occ.  0.00000000
 
ion      s     py     pz     px    dxy    dyz    dz2    dxz  x2-y2    tot
    1  0.126  0.000  0.000  0.000  0.000  0.000  0.000  0.000  0.000  0.126
    2  0.126  0.000  0.000  0.000  0.000  0.000  0.000  0.000  0.000  0.126
    3  0.010  0.012  0.000  0.004  0.000  0.000  0.000  0.000  0.000  0.025
    4  0.010  0.012  0.000  0.004  0.000  0.000  0.000  0.000  0.000  0.025
    5  0.010  0.000  0.000  0.016  0.000  0.000  0.000  0.000  0.000  0.025
    6  0.010  0.000  0.000  0.016  0.000  0.000  0.000  0.000  0.000  0.025
    7  0.010  0.012  0.000  0.004  0.000  0.000  0.000  0.000  0.000  0.025
    8  0.010  0.012  0.000  0.004  0.000  0.000  0.000  0.000  0.000  0.025
tot    0.310  0.047  0.000  0.047  0.000  0.000  0.000  0.000  0.000  0.405
 
band    28 # energy    6.77025693 # occ.  0.00000000
 
ion      s     py     pz     px    dxy    dyz    dz2    dxz  x2-y2    tot
    1  0.000  0.091  0.000  0.003  0.000  0.000  0.000  0.000  0.000  0.094
    2  0.000  0.091  0.000  0.003  0.000  0.000  0.000  0.000  0.000  0.094
    3  0.000  0.050  0.000  0.004  0.000  0.000  0.000  0.000  0.000  0.053
    4  0.000  0.047  0.000  0.001  0.000  0.000  0.000  0.000  0.000  0.048
    5  0.000  0.062  0.000  0.002  0.000  0.000  0.000  0.000  0.000  0.063
    6  0.000  0.062  0.000  0.002  0.000  0.000  0.000  0.000  0.000  0.063
    7  0.000  0.047  0.000  0.001  0.000  0.000  0.000  0.000  0.000  0.048
    8  0.000  0.050  0.000  0.004  0.000  0.000  0.000  0.000  0.000  0.054
tot    0.000  0.499  0.000  0.018  0.000  0.000  0.000  0.000  0.000  0.517
 
band    29 # energy    6.77045213 # occ.  0.00000000
 
ion      s     py     pz     px    dxy    dyz    dz2    dxz  x2-y2    tot
    1  0.000  0.003  0.000  0.091  0.000  0.000  0.000  0.000  0.000  0.094
    2  0.000  0.003  0.000  0.091  0.000  0.000  0.000  0.000  0.000  0.094
    3  0.000  0.001  0.000  0.056  0.000  0.000  0.000  0.000  0.000  0.056
    4  0.000  0.003  0.000  0.059  0.000  0.000  0.000  0.000  0.000  0.062
    5  0.000  0.002  0.000  0.044  0.000  0.000  0.000  0.000  0.000  0.046
    6  0.000  0.002  0.000  0.044  0.000  0.000  0.000  0.000  0.000  0.046
    7  0.000  0.003  0.000  0.059  0.000  0.000  0.000  0.000  0.000  0.062
    8  0.000  0.001  0.000  0.056  0.000  0.000  0.000  0.000  0.000  0.056
tot    0.000  0.018  0.000  0.499  0.000  0.000  0.000  0.000  0.000  0.517
 
band    30 # energy    7.87353751 # occ.  0.00000000
 
ion      s     py     pz     px    dxy    dyz    dz2    dxz  x2-y2    tot
    1  0.003  0.000  0.000  0.000  0.000  0.000  0.000  0.000  0.000  0.003
    2  0.003  0.000  0.000  0.000  0.000  0.000  0.000  0.000  0.000  0.003
    3  0.012  0.004  0.000  0.001  0.000  0.000  0.000  0.000  0.000  0.017
    4  0.012  0.004  0.000  0.001  0.000  0.000  0.000  0.000  0.000  0.017
    5  0.012  0.000  0.000  0.005  0.000  0.000  0.000  0.000  0.000  0.017
    6  0.012  0.000  0.000  0.005  0.000  0.000  0.000  0.000  0.000  0.017
    7  0.012  0.004  0.000  0.001  0.000  0.000  0.000  0.000  0.000  0.017
    8  0.012  0.004  0.000  0.001  0.000  0.000  0.000  0.000  0.000  0.017
tot    0.077  0.016  0.000  0.016  0.000  0.000  0.000  0.000  0.000  0.109
 
band    31 # energy    8.04891822 # occ.  0.00000000
 
ion      s     py     pz     px    dxy    dyz    dz2    dxz  x2-y2    tot
    1  0.000  0.000  0.000  0.008  0.000  0.000  0.000  0.000  0.000  0.008
    2  0.000  0.000  0.000  0.008  0.000  0.000  0.000  0.000  0.000  0.008
    3  0.002  0.001  0.000  0.000  0.000  0.000  0.000  0.000  0.000  0.003
    4  0.000  0.001  0.000  0.001  0.000  0.000  0.000  0.000  0.000  0.002
    5  0.003  0.000  0.000  0.001  0.000  0.000  0.000  0.000  0.000  0.004
    6  0.003  0.000  0.000  0.001  0.000  0.000  0.000  0.000  0.000  0.004
    7  0.000  0.001  0.000  0.001  0.000  0.000  0.000  0.000  0.000  0.002
    8  0.002  0.001  0.000  0.000  0.000  0.000  0.000  0.000  0.000  0.003
tot    0.011  0.003  0.000  0.019  0.000  0.000  0.000  0.000  0.000  0.033
 
band    32 # energy    8.04893211 # occ.  0.00000000
 
ion      s     py     pz     px    dxy    dyz    dz2    dxz  x2-y2    tot
    1  0.000  0.008  0.000  0.000  0.000  0.000  0.000  0.000  0.000  0.008
    2  0.000  0.008  0.000  0.000  0.000  0.000  0.000  0.000  0.000  0.008
    3  0.002  0.000  0.000  0.001  0.000  0.000  0.000  0.000  0.000  0.003
    4  0.003  0.000  0.000  0.001  0.000  0.000  0.000  0.000  0.000  0.004
    5  0.000  0.001  0.000  0.000  0.000  0.000  0.000  0.000  0.000  0.002
    6  0.000  0.001  0.000  0.000  0.000  0.000  0.000  0.000  0.000  0.002
    7  0.003  0.000  0.000  0.001  0.000  0.000  0.000  0.000  0.000  0.004
    8  0.002  0.000  0.000  0.001  0.000  0.000  0.000  0.000  0.000  0.003
tot    0.011  0.019  0.000  0.003  0.000  0.000  0.000  0.000  0.000  0.033
 
band    33 # energy    8.12582511 # occ.  0.00000000
 
ion      s     py     pz     px    dxy    dyz    dz2    dxz  x2-y2    tot
    1  0.000  0.000  0.005  0.000  0.000  0.000  0.000  0.000  0.000  0.005
    2  0.000  0.000  0.005  0.000  0.000  0.000  0.000  0.000  0.000  0.005
    3  0.000  0.000  0.007  0.000  0.000  0.000  0.000  0.000  0.000  0.007
    4  0.000  0.000  0.007  0.000  0.000  0.000  0.000  0.000  0.000  0.007
    5  0.000  0.000  0.007  0.000  0.000  0.000  0.000  0.000  0.000  0.007
    6  0.000  0.000  0.007  0.000  0.000  0.000  0.000  0.000  0.000  0.007
    7  0.000  0.000  0.007  0.000  0.000  0.000  0.000  0.000  0.000  0.007
    8  0.000  0.000  0.007  0.000  0.000  0.000  0.000  0.000  0.000  0.007
tot    0.000  0.000  0.052  0.000  0.000  0.000  0.000  0.000  0.000  0.052
 
band    34 # energy    8.21518866 # occ.  0.00000000
 
ion      s     py     pz     px    dxy    dyz    dz2    dxz  x2-y2    tot
    1  0.000  0.006  0.000  0.000  0.000  0.000  0.000  0.000  0.000  0.006
    2  0.000  0.006  0.000  0.000  0.000  0.000  0.000  0.000  0.000  0.006
    3  0.000  0.000  0.000  0.003  0.000  0.000  0.000  0.000  0.000  0.004
    4  0.000  0.001  0.000  0.003  0.000  0.000  0.000  0.000  0.000  0.003
    5  0.000  0.005  0.000  0.000  0.000  0.000  0.000  0.000  0.000  0.005
    6  0.000  0.005  0.000  0.000  0.000  0.000  0.000  0.000  0.000  0.005
    7  0.000  0.001  0.000  0.003  0.000  0.000  0.000  0.000  0.000  0.003
    8  0.000  0.000  0.000  0.003  0.000  0.000  0.000  0.000  0.000  0.004
tot    0.000  0.025  0.000  0.012  0.000  0.000  0.000  0.000  0.000  0.037
 
band    35 # energy    8.21520611 # occ.  0.00000000
 
ion      s     py     pz     px    dxy    dyz    dz2    dxz  x2-y2    tot
    1  0.000  0.000  0.000  0.006  0.000  0.000  0.000  0.000  0.000  0.006
    2  0.000  0.000  0.000  0.006  0.000  0.000  0.000  0.000  0.000  0.006
    3  0.000  0.003  0.000  0.001  0.000  0.000  0.000  0.000  0.000  0.005
    4  0.000  0.003  0.000  0.002  0.000  0.000  0.000  0.000  0.000  0.005
    5  0.000  0.000  0.000  0.003  0.000  0.000  0.000  0.000  0.000  0.003
    6  0.000  0.000  0.000  0.003  0.000  0.000  0.000  0.000  0.000  0.003
    7  0.000  0.003  0.000  0.002  0.000  0.000  0.000  0.000  0.000  0.005
    8  0.000  0.003  0.000  0.001  0.000  0.000  0.000  0.000  0.000  0.005
tot    0.000  0.012  0.000  0.025  0.000  0.000  0.000  0.000  0.000  0.037
 
band    36 # energy    8.36362539 # occ.  0.00000000
 
ion      s     py     pz     px    dxy    dyz    dz2    dxz  x2-y2    tot
    1  0.016  0.000  0.000  0.000  0.000  0.000  0.000  0.000  0.000  0.016
    2  0.016  0.000  0.000  0.000  0.000  0.000  0.000  0.000  0.000  0.016
    3  0.003  0.001  0.000  0.000  0.000  0.000  0.000  0.000  0.000  0.004
    4  0.003  0.001  0.000  0.000  0.000  0.000  0.000  0.000  0.000  0.004
    5  0.003  0.000  0.000  0.001  0.000  0.000  0.000  0.000  0.000  0.004
    6  0.003  0.000  0.000  0.001  0.000  0.000  0.000  0.000  0.000  0.004
    7  0.003  0.001  0.000  0.000  0.000  0.000  0.000  0.000  0.000  0.004
    8  0.003  0.001  0.000  0.000  0.000  0.000  0.000  0.000  0.000  0.004
tot    0.050  0.003  0.000  0.003  0.000  0.000  0.000  0.000  0.000  0.056
 
band    37 # energy    8.73995904 # occ.  0.00000000
 
ion      s     py     pz     px    dxy    dyz    dz2    dxz  x2-y2    tot
    1  0.000  0.000  0.000  0.000  0.000  0.000  0.000  0.000  0.000  0.000
    2  0.000  0.000  0.000  0.000  0.000  0.000  0.000  0.000  0.000  0.000
    3  0.000  0.000  0.021  0.000  0.000  0.000  0.000  0.000  0.000  0.021
    4  0.000  0.000  0.022  0.000  0.000  0.000  0.000  0.000  0.000  0.022