   8   8   0  16
  0.4338553E+02  0.5169000E-09  0.5169000E-09  0.1500000E-08  0.5000000E-15
  1.000000000000000E-004
  CAR 
 Lattice                                 
      6.57468852    -21.14481360  301     -3.47635772      1.00000000
    -21.145  0.0000E+00  0.0000E+00
    -21.052  0.0000E+00  0.0000E+00
    -20.960  0.0000E+00  0.0000E+00
    -20.868  0.0000E+00  0.0000E+00
    -20.775  0.0000E+00  0.0000E+00
    -20.683  0.0000E+00  0.0000E+00
    -20.590  0.0000E+00  0.0000E+00
    -20.498  0.0000E+00  0.0000E+00
    -20.406  0.1282E-15  0.1184E-16
    -20.313  0.1194E-11  0.1103E-12
    -20.221  0.2176E-08  0.2012E-09
    -20.128  0.8040E-06  0.7449E-07
    -20.036  0.6390E-04  0.5978E-05
    -19.944  0.1207E-02  0.1175E-03
    -19.851  0.6423E-02  0.7110E-03
    -19.759  0.1300E-01  0.1912E-02
    -19.666  0.1591E-01  0.3382E-02
    -19.574  0.1760E-01  0.5007E-02
    -19.482  0.2037E-01  0.6890E-02
    -19.389  0.2651E-01  0.9340E-02
    -19.297  0.3390E-01  0.1247E-01
    -19.204  0.2564E-01  0.1484E-01
    -19.112  0.7727E-02  0.1555E-01
    -19.020  0.7410E-03  0.1562E-01
    -18.927  0.1890E-04  0.1562E-01
    -18.835  0.1114E-06  0.1562E-01
    -18.742  0.1388E-09  0.1562E-01
    -18.650  0.3467E-13  0.1563E-01
    -18.558  0.1608E-17  0.1563E-01
    -18.465  0.0000E+00  0.1563E-01
    -18.373  0.0000E+00  0.1563E-01
    -18.280  0.0000E+00  0.1563E-01
    -18.188  0.5026E-18  0.1563E-01
    -18.096  0.1293E-13  0.1563E-01
    -18.003  0.5832E-10  0.1563E-01
    -17.911  0.5220E-07  0.1563E-01
    -17.818  0.9694E-05  0.1563E-01
    -17.726  0.4027E-03  0.1566E-01
    -17.634  0.4255E-02  0.1606E-01
    -17.541  0.1437E-01  0.1738E-01
    -17.449  0.2297E-01  0.1951E-01
    -17.356  0.2513E-01  0.2183E-01
    -17.264  0.1981E-01  0.2366E-01
    -17.172  0.1507E-01  0.2505E-01
    -17.079  0.1441E-01  0.2638E-01
    -16.987  0.1487E-01  0.2776E-01
    -16.894  0.1553E-01  0.2919E-01
    -16.802  0.1641E-01  0.3071E-01
    -16.710  0.1767E-01  0.3234E-01
    -16.617  0.1973E-01  0.3416E-01
    -16.525  0.2371E-01  0.3635E-01
    -16.432  0.2791E-01  0.3893E-01
    -16.340  0.2544E-01  0.4128E-01
    -16.248  0.1973E-01  0.4311E-01
    -16.155  0.1606E-01  0.4459E-01
    -16.063  0.1326E-01  0.4581E-01
    -15.971  0.8541E-02  0.4660E-01
    -15.878  0.2661E-02  0.4685E-01
    -15.786  0.2691E-03  0.4687E-01
    -15.693  0.7006E-05  0.4687E-01
    -15.601  0.4107E-07  0.4687E-01
    -15.509  0.5016E-10  0.4687E-01
    -15.416  0.1219E-13  0.4688E-01
    -15.324  0.5473E-18  0.4688E-01
    -15.231  0.0000E+00  0.4688E-01
    -15.139  0.0000E+00  0.4688E-01
    -15.047  0.0000E+00  0.4688E-01
    -14.954  0.0000E+00  0.4688E-01
    -14.862  0.0000E+00  0.4688E-01
    -14.769  0.6701E-19  0.4688E-01
    -14.677  0.3389E-14  0.4688E-01
    -14.585  0.1827E-10  0.4688E-01
    -14.492  0.1949E-07  0.4688E-01
    -14.400  0.4287E-05  0.4688E-01
    -14.307  0.2086E-03  0.4689E-01
    -14.215  0.2531E-02  0.4713E-01
    -14.123  0.9407E-02  0.4800E-01
    -14.030  0.1536E-01  0.4942E-01
    -13.938  0.1791E-01  0.5107E-01
    -13.845  0.2071E-01  0.5298E-01
    -13.753  0.2569E-01  0.5536E-01
    -13.661  0.2708E-01  0.5786E-01
    -13.568  0.1977E-01  0.5969E-01
    -13.476  0.1403E-01  0.6098E-01
    -13.383  0.1218E-01  0.6211E-01
    -13.291  0.1140E-01  0.6316E-01
    -13.199  0.1090E-01  0.6417E-01
    -13.106  0.1050E-01  0.6514E-01
    -13.014  0.1015E-01  0.6608E-01
    -12.921  0.9887E-02  0.6699E-01
    -12.829  0.1013E-01  0.6793E-01
    -12.737  0.1207E-01  0.6904E-01
    -12.644  0.1501E-01  0.7043E-01
    -12.552  0.1559E-01  0.7187E-01
    -12.459  0.1472E-01  0.7323E-01
    -12.367  0.1374E-01  0.7450E-01
    -12.275  0.1281E-01  0.7568E-01
    -12.182  0.1204E-01  0.7679E-01
    -12.090  0.1140E-01  0.7785E-01
    -11.997  0.1079E-01  0.7884E-01
    -11.905  0.9663E-02  0.7974E-01
    -11.813  0.6886E-02  0.8037E-01
    -11.720  0.4190E-02  0.8076E-01
    -11.628  0.3521E-02  0.8109E-01
    -11.535  0.3593E-02  0.8142E-01
    -11.443  0.3616E-02  0.8175E-01
    -11.351  0.3888E-02  0.8211E-01
    -11.258  0.4343E-02  0.8251E-01
    -11.166  0.5766E-02  0.8305E-01
    -11.073  0.6361E-02  0.8363E-01
    -10.981  0.7093E-02  0.8429E-01
    -10.889  0.8118E-02  0.8504E-01
    -10.796  0.1074E-01  0.8603E-01
    -10.704  0.1190E-01  0.8713E-01
    -10.611  0.1305E-01  0.8834E-01
    -10.519  0.1353E-01  0.8959E-01
    -10.427  0.1493E-01  0.9097E-01
    -10.334  0.1657E-01  0.9250E-01
    -10.242  0.1836E-01  0.9420E-01
    -10.149  0.1575E-01  0.9565E-01
    -10.057  0.1161E-01  0.9672E-01
     -9.965  0.1025E-01  0.9767E-01
     -9.872  0.1417E-01  0.9898E-01
     -9.780  0.2097E-01  0.1009E+00
     -9.687  0.2098E-01  0.1029E+00
     -9.595  0.1795E-01  0.1045E+00
     -9.503  0.1633E-01  0.1060E+00
     -9.410  0.1488E-01  0.1074E+00
     -9.318  0.1466E-01  0.1088E+00
     -9.225  0.1473E-01  0.1101E+00
     -9.133  0.1596E-01  0.1116E+00
     -9.041  0.1749E-01  0.1132E+00
     -8.948  0.1943E-01  0.1150E+00
     -8.856  0.2050E-01  0.1169E+00
     -8.763  0.1945E-01  0.1187E+00
     -8.671  0.2019E-01  0.1206E+00
     -8.579  0.2313E-01  0.1227E+00
     -8.486  0.2306E-01  0.1248E+00
     -8.394  0.1975E-01  0.1266E+00
     -8.301  0.1708E-01  0.1282E+00
     -8.209  0.1554E-01  0.1297E+00
     -8.117  0.1617E-01  0.1312E+00
     -8.024  0.2008E-01  0.1330E+00
     -7.932  0.2500E-01  0.1353E+00
     -7.839  0.3099E-01  0.1382E+00
     -7.747  0.3437E-01  0.1414E+00
     -7.655  0.3406E-01  0.1445E+00
     -7.562  0.3265E-01  0.1475E+00
     -7.470  0.2497E-01  0.1498E+00
     -7.377  0.1618E-01  0.1513E+00
     -7.285  0.1337E-01  0.1526E+00
     -7.193  0.1653E-01  0.1541E+00
     -7.100  0.1596E-01  0.1556E+00
     -7.008  0.1355E-01  0.1568E+00
     -6.915  0.1264E-01  0.1580E+00
     -6.823  0.1265E-01  0.1592E+00
     -6.731  0.1367E-01  0.1604E+00
     -6.638  0.1799E-01  0.1621E+00
     -6.546  0.2684E-01  0.1646E+00
     -6.453  0.4080E-01  0.1683E+00
     -6.361  0.6002E-01  0.1739E+00
     -6.269  0.5929E-01  0.1794E+00
     -6.176  0.4270E-01  0.1833E+00
     -6.084  0.3023E-01  0.1861E+00
     -5.991  0.2134E-01  0.1881E+00
     -5.899  0.1831E-01  0.1898E+00
     -5.807  0.1831E-01  0.1914E+00
     -5.714  0.1882E-01  0.1932E+00
     -5.622  0.1939E-01  0.1950E+00
     -5.529  0.2014E-01  0.1968E+00
     -5.437  0.2099E-01  0.1988E+00
     -5.345  0.2208E-01  0.2008E+00
     -5.252  0.2349E-01  0.2030E+00
     -5.160  0.2549E-01  0.2053E+00
     -5.068  0.2879E-01  0.2080E+00
     -4.975  0.3224E-01  0.2110E+00
     -4.883  0.3360E-01  0.2141E+00
     -4.790  0.3581E-01  0.2174E+00
     -4.698  0.3747E-01  0.2209E+00
     -4.606  0.3405E-01  0.2240E+00
     -4.513  0.2847E-01  0.2266E+00
     -4.421  0.1920E-01  0.2284E+00
     -4.328  0.1179E-01  0.2295E+00
     -4.236  0.9869E-02  0.2304E+00
     -4.144  0.9449E-02  0.2313E+00
     -4.051  0.9143E-02  0.2321E+00
     -3.959  0.8845E-02  0.2329E+00
     -3.866  0.8155E-02  0.2337E+00
     -3.774  0.5472E-02  0.2342E+00
     -3.682  0.1667E-02  0.2344E+00
     -3.589  0.1593E-03  0.2344E+00
     -3.497  0.3849E-05  0.2344E+00
     -3.404  0.5052E-06  0.2344E+00
     -3.312  0.4055E-04  0.2344E+00
     -3.220  0.8048E-03  0.2345E+00
     -3.127  0.4485E-02  0.2349E+00
     -3.035  0.9441E-02  0.2357E+00
     -2.942  0.1190E-01  0.2368E+00
     -2.850  0.1342E-01  0.2381E+00
     -2.758  0.1567E-01  0.2395E+00
     -2.665  0.1949E-01  0.2413E+00
     -2.573  0.2102E-01  0.2433E+00
     -2.480  0.1679E-01  0.2448E+00
     -2.388  0.1248E-01  0.2460E+00
     -2.296  0.9865E-02  0.2469E+00
     -2.203  0.8209E-02  0.2476E+00
     -2.111  0.6828E-02  0.2483E+00
     -2.018  0.5624E-02  0.2488E+00
     -1.926  0.4182E-02  0.2492E+00
     -1.834  0.2863E-02  0.2494E+00
     -1.741  0.2157E-02  0.2496E+00
     -1.649  0.1622E-02  0.2498E+00
     -1.556  0.1161E-02  0.2499E+00
     -1.464  0.6938E-03  0.2500E+00
     -1.372  0.3539E-03  0.2500E+00
     -1.279  0.3554E-03  0.2500E+00
     -1.187  0.6996E-03  0.2501E+00
     -1.094  0.1175E-02  0.2502E+00
     -1.002  0.1648E-02  0.2504E+00
     -0.910  0.2188E-02  0.2506E+00
     -0.817  0.2712E-02  0.2508E+00
     -0.725  0.3336E-02  0.2511E+00
     -0.632  0.4006E-02  0.2515E+00
     -0.540  0.4762E-02  0.2519E+00
     -0.448  0.5769E-02  0.2525E+00
     -0.355  0.6985E-02  0.2531E+00
     -0.263  0.1028E-01  0.2541E+00
     -0.170  0.1789E-01  0.2557E+00
     -0.078  0.2421E-01  0.2579E+00
      0.014  0.2050E-01  0.2598E+00
      0.107  0.1547E-01  0.2613E+00
      0.199  0.1273E-01  0.2624E+00
      0.292  0.1132E-01  0.2635E+00
      0.384  0.1060E-01  0.2645E+00
      0.476  0.1124E-01  0.2655E+00
      0.569  0.1181E-01  0.2666E+00
      0.661  0.1122E-01  0.2676E+00
      0.754  0.9263E-02  0.2685E+00
      0.846  0.9268E-02  0.2694E+00
      0.938  0.1230E-01  0.2705E+00
      1.031  0.1426E-01  0.2718E+00
      1.123  0.1479E-01  0.2732E+00
      1.216  0.1521E-01  0.2746E+00
      1.308  0.1573E-01  0.2760E+00
      1.400  0.1638E-01  0.2775E+00
      1.493  0.1751E-01  0.2792E+00
      1.585  0.1879E-01  0.2809E+00
      1.678  0.1882E-01  0.2826E+00
      1.770  0.1833E-01  0.2843E+00
      1.862  0.1976E-01  0.2862E+00
      1.955  0.2267E-01  0.2883E+00
      2.047  0.2337E-01  0.2904E+00
      2.140  0.2364E-01  0.2926E+00
      2.232  0.2441E-01  0.2949E+00
      2.324  0.2784E-01  0.2974E+00
      2.417  0.2988E-01  0.3002E+00
      2.509  0.3032E-01  0.3030E+00
      2.602  0.3027E-01  0.3058E+00
      2.694  0.2997E-01  0.3085E+00
      2.786  0.3021E-01  0.3113E+00
      2.879  0.2972E-01  0.3141E+00
      2.971  0.3005E-01  0.3169E+00
      3.064  0.2964E-01  0.3196E+00
      3.156  0.2983E-01  0.3224E+00
      3.248  0.2963E-01  0.3251E+00
      3.341  0.2968E-01  0.3278E+00
      3.433  0.2970E-01  0.3306E+00
      3.526  0.2965E-01  0.3333E+00
      3.618  0.2948E-01  0.3360E+00
      3.710  0.2959E-01  0.3388E+00
      3.803  0.2987E-01  0.3415E+00
      3.895  0.3061E-01  0.3444E+00
      3.988  0.3175E-01  0.3473E+00
      4.080  0.3058E-01  0.3501E+00
      4.172  0.2573E-01  0.3525E+00
      4.265  0.2433E-01  0.3548E+00
      4.357  0.2725E-01  0.3573E+00
      4.450  0.3096E-01  0.3601E+00
      4.542  0.2758E-01  0.3627E+00
      4.634  0.2103E-01  0.3646E+00
      4.727  0.1773E-01  0.3663E+00
      4.819  0.1837E-01  0.3680E+00
      4.912  0.2082E-01  0.3699E+00
      5.004  0.2055E-01  0.3718E+00
      5.096  0.1547E-01  0.3732E+00
      5.189  0.1087E-01  0.3742E+00
      5.281  0.6212E-02  0.3748E+00
      5.374  0.1973E-02  0.3750E+00
      5.466  0.2834E-03  0.3750E+00
      5.558  0.1445E-04  0.3750E+00
      5.651  0.2026E-06  0.3750E+00
      5.743  0.6486E-09  0.3750E+00
      5.836  0.4248E-12  0.3750E+00
      5.928  0.5390E-16  0.3750E+00
      6.020  0.0000E+00  0.3750E+00
      6.113  0.0000E+00  0.3750E+00
      6.205  0.0000E+00  0.3750E+00
      6.297  0.0000E+00  0.3750E+00
      6.390  0.0000E+00  0.3750E+00
      6.482  0.0000E+00  0.3750E+00
      6.575  0.0000E+00  0.3750E+00
