    8    8  128    1
  0.4338553E+02  0.5169000E-09  0.5169000E-09  0.1500000E-08  0.5000000E-15
  1.000000000000000E-004
  CAR 
 Lattice                                 
     30    841     24
 
  0.0000000E+00  0.0000000E+00  0.0000000E+00  0.5948840E-03
      1        -19.884836   1.000000
      2        -15.983262   1.000000
      3        -15.983049   1.000000
      4        -13.641880   1.000000
      5        -13.641788   1.000000
      6        -12.573353   1.000000
      7        -11.250066   1.000000
      8         -8.688733   1.000000
      9         -8.456712   1.000000
     10         -6.304389   1.000000
     11         -6.304213   1.000000
     12         -4.480813   1.000000
     13         -4.480697   1.000000
     14         -3.791954   0.999996
     15         -3.791867   0.999996
     16         -1.963923   0.000000
     17         -0.227821   0.000000
     18         -0.227764   0.000000
     19          0.431658   0.000000
     20          0.839917   0.000000
     21          1.841838   0.000000
     22          2.254780   0.000000
     23          4.224075   0.000000
     24          4.852974   0.000000
 
  0.2439024E-01 -0.1865212E-18  0.0000000E+00  0.1189768E-02
      1        -19.882493   1.000000
      2        -15.995144   1.000000
      3        -15.987055   1.000000
      4        -13.644993   1.000000
      5        -13.633118   1.000000
      6        -12.561766   1.000000
      7        -11.235852   1.000000
      8         -8.685190   1.000000
      9         -8.461521   1.000000
     10         -6.314999   1.000000
     11         -6.306480   1.000000
     12         -4.491583   1.000000
     13         -4.482597   1.000000
     14         -3.804298   0.999998
     15         -3.797907   0.999997
     16         -1.985250   0.000000
     17         -0.222519   0.000000
     18         -0.196323   0.000000
     19          0.441348   0.000000
     20          0.844361   0.000000
     21          1.846648   0.000000
     22          2.259246   0.000000
     23          4.228461   0.000000
     24          4.857793   0.000000
 
 -0.3655968E-17  0.2439024E-01  0.0000000E+00  0.1189768E-02
      1        -19.882493   1.000000
      2        -15.995131   1.000000
      3        -15.987067   1.000000
      4        -13.644993   1.000000
      5        -13.633120   1.000000
      6        -12.561766   1.000000
      7        -11.235852   1.000000
      8         -8.685190   1.000000
      9         -8.461521   1.000000
     10         -6.314970   1.000000
     11         -6.306510   1.000000
     12         -4.491574   1.000000
     13         -4.482606   1.000000
     14         -3.804268   0.999998
     15         -3.797937   0.999997
     16         -1.985249   0.000000
     17         -0.222521   0.000000
     18         -0.196322   0.000000
     19          0.441348   0.000000
     20          0.844361   0.000000
     21          1.846648   0.000000
     22          2.259246   0.000000
     23          4.228461   0.000000
     24          4.857793   0.000000
 
 -0.2439024E-01  0.2439024E-01  0.0000000E+00  0.1189768E-02
      1        -19.882493   1.000000
      2        -15.995295   1.000000
      3        -15.986903   1.000000
      4        -13.644924   1.000000
      5        -13.633188   1.000000
      6        -12.561768   1.000000
      7        -11.235852   1.000000
      8         -8.685190   1.000000
      9         -8.461521   1.000000
     10         -6.315114   1.000000
     11         -6.306366   1.000000
     12         -4.491665   1.000000
     13         -4.482515   1.000000
     14         -3.804342   0.999998
     15         -3.797863   0.999997
     16         -1.985250   0.000000
     17         -0.222562   0.000000
     18         -0.196278   0.000000
     19          0.441347   0.000000
     20          0.844361   0.000000
     21          1.846648   0.000000
     22          2.259246   0.000000
     23          4.228461   0.000000
     24          4.857793   0.000000
 
  0.4878049E-01 -0.3730423E-18  0.0000000E+00  0.1189768E-02
      1        -19.875475   1.000000
      2        -16.030502   1.000000
      3        -15.998401   1.000000
      4        -13.654690   1.000000
      5        -13.607289   1.000000
      6        -12.526950   1.000000
      7        -11.193777   1.000000
      8         -8.674565   1.000000
      9         -8.476196   1.000000
     10         -6.347097   1.000000
     11         -6.312728   1.000000
     12         -4.524165   1.000000
     13         -4.488066   1.000000
     14         -3.841363   1.000000
     15         -3.815898   0.999999
     16         -2.044173   0.000000
     17         -0.207160   0.000000
     18         -0.108133   0.000000
     19          0.471162   0.000000
     20          0.857688   0.000000
     21          1.861099   0.000000
     22          2.272643   0.000000
     23          4.241621   0.000000
     24          4.871992   0.000000
 
 -0.7311936E-17  0.4878049E-01  0.0000000E+00  0.1189768E-02
      1        -19.875475   1.000000
      2        -16.030489   1.000000
      3        -15.998414   1.000000
      4        -13.654691   1.000000
      5        -13.607290   1.000000
      6        -12.526949   1.000000
      7        -11.193777   1.000000
      8         -8.674565   1.000000
      9         -8.476196   1.000000
     10         -6.347068   1.000000
     11         -6.312757   1.000000
     12         -4.524156   1.000000
     13         -4.488076   1.000000
     14         -3.841333   1.000000
     15         -3.815927   0.999999
     16         -2.044172   0.000000
     17         -0.207162   0.000000
     18         -0.108134   0.000000
     19          0.471163   0.000000
     20          0.857688   0.000000
     21          1.861099   0.000000
     22          2.272643   0.000000
     23          4.241621   0.000000
     24          4.871992   0.000000
 
 -0.4878049E-01  0.4878049E-01  0.0000000E+00  0.1189768E-02
      1        -19.875474   1.000000
      2        -16.030652   1.000000
      3        -15.998251   1.000000
      4        -13.654621   1.000000
      5        -13.607356   1.000000
      6        -12.526956   1.000000
      7        -11.193774   1.000000
      8         -8.674565   1.000000
      9         -8.476196   1.000000
     10         -6.347212   1.000000
     11         -6.312613   1.000000
     12         -4.524245   1.000000
     13         -4.487985   1.000000
     14         -3.841407   1.000000
     15         -3.815854   0.999999
     16         -2.044175   0.000000
     17         -0.207203   0.000000
     18         -0.108084   0.000000
     19          0.471157   0.000000
     20          0.857688   0.000000
     21          1.861098   0.000000
     22          2.272643   0.000000
     23          4.241621   0.000000
     24          4.871989   0.000000
 
  0.7317073E-01  0.1381802E-17  0.0000000E+00  0.1189768E-02
      1        -19.863826   1.000000
      2        -16.087097   1.000000
      3        -16.016611   1.000000
      4        -13.671503   1.000000
      5        -13.565005   1.000000
      6        -12.468965   1.000000
      7        -11.125341   1.000000
      8         -8.656868   1.000000
      9         -8.500940   1.000000
     10         -6.399885   1.000000
     11         -6.322213   1.000000
     12         -4.577658   1.000000
     13         -4.496910   1.000000
     14         -3.902522   1.000000
     15         -3.845448   1.000000
     16         -2.129130   0.000000
     17         -0.181693   0.000000
     18          0.021351   0.000000
     19          0.523959   0.000000
     20          0.879883   0.000000
     21          1.885269   0.000000
     22          2.294961   0.000000
     23          4.263553   0.000000
     24          4.894969   0.000000
 
  0.1381802E-17  0.7317073E-01  0.0000000E+00  0.1189768E-02
      1        -19.863826   1.000000
      2        -16.087084   1.000000
      3        -16.016624   1.000000
      4        -13.671505   1.000000
      5        -13.565006   1.000000
      6        -12.468962   1.000000
      7        -11.125341   1.000000
      8         -8.656869   1.000000
      9         -8.500940   1.000000
     10         -6.399856   1.000000
     11         -6.322242   1.000000
     12         -4.577649   1.000000
     13         -4.496919   1.000000
     14         -3.902492   1.000000
     15         -3.845477   1.000000
     16         -2.129127   0.000000
     17         -0.181695   0.000000
     18          0.021346   0.000000
     19          0.523963   0.000000
     20          0.879883   0.000000
     21          1.885269   0.000000
     22          2.294961   0.000000
     23          4.263553   0.000000
     24          4.894970   0.000000
 
 -0.7317073E-01  0.7317073E-01  0.0000000E+00  0.1189768E-02
      1        -19.863826   1.000000
      2        -16.087245   1.000000
      3        -16.016463   1.000000
      4        -13.671434   1.000000
      5        -13.565069   1.000000
      6        -12.468976   1.000000
      7        -11.125334   1.000000
      8         -8.656868   1.000000
      9         -8.500940   1.000000
     10         -6.400000   1.000000
     11         -6.322099   1.000000
     12         -4.577737   1.000000
     13         -4.496829   1.000000
     14         -3.902565   1.000000
     15         -3.845405   1.000000
     16         -2.129134   0.000000
     17         -0.181736   0.000000
     18          0.021408   0.000000
     19          0.523947   0.000000
     20          0.879883   0.000000
     21          1.885268   0.000000
     22          2.294961   0.000000
     23          4.263552   0.000000
     24          4.894965   0.000000
 
  0.9756098E-01 -0.7460847E-18  0.0000000E+00  0.1189768E-02
      1        -19.847628   1.000000
      2        -16.161935   1.000000
      3        -16.040750   1.000000
      4        -13.695645   1.000000
      5        -13.507318   1.000000
      6        -12.388514   1.000000
      7        -11.032684   1.000000
      8         -8.632147   1.000000
      9         -8.536187   1.000000
     10         -6.472410   1.000000
     11         -6.333668   1.000000
     12         -4.650877   1.000000
     13         -4.508868   1.000000
     14         -3.986995   1.000000
     15         -3.886027   1.000000
     16         -2.228222   0.000000
     17         -0.146705   0.000000
     18          0.172302   0.000000
     19          0.606308   0.000000
     20          0.910926   0.000000
     21          1.919313   0.000000
     22          2.326188   0.000000
     23          4.294245   0.000000
     24          4.926008   0.000000
 
 -0.1462387E-16  0.9756098E-01  0.0000000E+00  0.1189768E-02
      1        -19.847629   1.000000
      2        -16.161922   1.000000
      3        -16.040762   1.000000
      4        -13.695648   1.000000
      5        -13.507320   1.000000
      6        -12.388509   1.000000
      7        -11.032685   1.000000
      8         -8.632147   1.000000
      9         -8.536186   1.000000
     10         -6.472381   1.000000
     11         -6.333697   1.000000
     12         -4.650868   1.000000
     13         -4.508878   1.000000
     14         -3.986966   1.000000
     15         -3.886056   1.000000
     16         -2.228218   0.000000
     17         -0.146707   0.000000
     18          0.172293   0.000000
     19          0.606316   0.000000
     20          0.910926   0.000000
     21          1.919314   0.000000
     22          2.326188   0.000000
     23          4.294245   0.000000
     24          4.926007   0.000000
 
 -0.9756098E-01  0.9756098E-01  0.0000000E+00  0.1189768E-02
      1        -19.847627   1.000000
      2        -16.162080   1.000000
      3        -16.040605   1.000000
      4        -13.695576   1.000000
      5        -13.507379   1.000000
      6        -12.388531   1.000000
      7        -11.032673   1.000000
      8         -8.632146   1.000000
      9         -8.536186   1.000000
     10         -6.472525   1.000000
     11         -6.333555   1.000000
     12         -4.650952   1.000000
     13         -4.508787   1.000000
     14         -3.987037   1.000000
     15         -3.885986   1.000000
     16         -2.228229   0.000000
     17         -0.146747   0.000000
     18          0.172369   0.000000
     19          0.606286   0.000000
     20          0.910926   0.000000
     21          1.919311   0.000000
     22          2.326188   0.000000
     23          4.294245   0.000000
     24          4.926002   0.000000
 
  0.1219512E+00  0.7961727E-17  0.0000000E+00  0.1189768E-02
      1        -19.827001   1.000000
      2        -16.251606   1.000000
      3        -16.069688   1.000000
      4        -13.726599   1.000000
      5        -13.435534   1.000000
      6        -12.287193   1.000000
      7        -10.918225   1.000000
      8         -8.600479   1.000000
      9         -8.582452   1.000000
     10         -6.563549   1.000000
     11         -6.345517   1.000000
     12         -4.742140   1.000000
     13         -4.523592   1.000000
     14         -4.093694   1.000000
     15         -3.936949   1.000000
     16         -2.332323   0.000000
     17         -0.103279   0.000000
     18          0.321896   0.000000
     19          0.729105   0.000000
     20          0.950794   0.000000
     21          1.963504   0.000000
     22          2.366312   0.000000
     23          4.333674   0.000000
     24          4.964486   0.000000
 
  0.7961727E-17  0.1219512E+00  0.0000000E+00  0.1189768E-02
      1        -19.827001   1.000000
      2        -16.251593   1.000000
      3        -16.069700   1.000000
      4        -13.726603   1.000000
      5        -13.435536   1.000000
      6        -12.287187   1.000000
      7        -10.918226   1.000000
      8         -8.600479   1.000000
      9         -8.582452   1.000000
     10         -6.563521   1.000000
     11         -6.345546   1.000000
     12         -4.742131   1.000000
     13         -4.523602   1.000000
     14         -4.093666   1.000000
     15         -3.936978   1.000000
     16         -2.332318   0.000000
     17         -0.103282   0.000000
     18          0.321882   0.000000
     19          0.729117   0.000000
     20          0.950794   0.000000
     21          1.963504   0.000000
     22          2.366312   0.000000
     23          4.333674   0.000000
     24          4.964485   0.000000
 
 -0.1219512E+00  0.1219512E+00  0.0000000E+00  0.1189768E-02
      1        -19.826999   1.000000
      2        -16.251748   1.000000
      3        -16.069547   1.000000
      4        -13.726531   1.000000
      5        -13.435592   1.000000
      6        -12.287217   1.000000
      7        -10.918210   1.000000
      8         -8.600478   1.000000
      9         -8.582451   1.000000
     10         -6.563665   1.000000
     11         -6.345404   1.000000
     12         -4.742213   1.000000
     13         -4.523512   1.000000
     14         -4.093735   1.000000
     15         -3.936910   1.000000
     16         -2.332332   0.000000
     17         -0.103321   0.000000
     18          0.321972   0.000000
     19          0.729077   0.000000
     20          0.950794   0.000000
     21          1.963501   0.000000
     22          2.366312   0.000000
     23          4.333674   0.000000
     24          4.964478   0.000000
 
  0.1463415E+00 -0.1105054E-17  0.0000000E+00  0.1189768E-02
      1        -19.802091   1.000000
      2        -16.352695   1.000000
      3        -16.102216   1.000000
      4        -13.763153   1.000000
      5        -13.351081   1.000000
      6        -12.167330   1.000000
      7        -10.784372   1.000000
      8         -8.640170   1.000000
      9         -8.561879   1.000000
     10         -6.671762   1.000000
     11         -6.356098   1.000000
     12         -4.849436   1.000000
     13         -4.540604   1.000000
     14         -4.221338   1.000000
     15         -3.997154   1.000000
     16         -2.435365   0.000000
     17         -0.051905   0.000000
     18          0.453959   0.000000
     19          0.899601   0.000000
     20          0.999459   0.000000
     21          2.018333   0.000000
     22          2.415316   0.000000
     23          4.381840   0.000000
     24          5.009861   0.000000
 
 -0.1105054E-17  0.1463415E+00  0.0000000E+00  0.1189768E-02
      1        -19.802092   1.000000
      2        -16.352682   1.000000
      3        -16.102227   1.000000
      4        -13.763159   1.000000
      5        -13.351083   1.000000
      6        -12.167323   1.000000
      7        -10.784373   1.000000
      8         -8.640169   1.000000
      9         -8.561880   1.000000
     10         -6.671733   1.000000
     11         -6.356127   1.000000
     12         -4.849428   1.000000
     13         -4.540614   1.000000
     14         -4.221311   1.000000
     15         -3.997183   1.000000
     16         -2.435359   0.000000
     17         -0.051908   0.000000
     18          0.453942   0.000000
     19          0.899615   0.000000
     20          0.999459   0.000000
     21          2.018334   0.000000
     22          2.415316   0.000000
     23          4.381840   0.000000
     24          5.009859   0.000000
 
 -0.1463415E+00  0.1463415E+00  0.0000000E+00  0.1189768E-02
      1        -19.802089   1.000000
      2        -16.352834   1.000000
      3        -16.102078   1.000000
      4        -13.763087   1.000000
      5        -13.351134   1.000000
      6        -12.167361   1.000000
      7        -10.784351   1.000000
      8         -8.640168   1.000000
      9         -8.561878   1.000000
     10         -6.671877   1.000000
     11         -6.355987   1.000000
     12         -4.849506   1.000000
     13         -4.540525   1.000000
     14         -4.221377   1.000000
     15         -3.997117   1.000000
     16         -2.435377   0.000000
     17         -0.051946   0.000000
     18          0.454035   0.000000
     19          0.899575   0.000000
     20          0.999459   0.000000
     21          2.018328   0.000000
     22          2.415316   0.000000
     23          4.381839   0.000000
     24          5.009853   0.000000
 
  0.1707317E+00  0.1064485E-16  0.0000000E+00  0.1189768E-02
      1        -19.773126   1.000000
      2        -16.462022   1.000000
      3        -16.137139   1.000000
      4        -13.803715   1.000000
      5        -13.255452   1.000000
      6        -12.031593   1.000000
      7        -10.633398   1.000000
      8         -8.709583   1.000000
      9         -8.516569   1.000000
     10         -6.795409   1.000000
     11         -6.363754   1.000000
     12         -4.970468   1.000000
     13         -4.559418   1.000000
     14         -4.368395   1.000000
     15         -4.065652   1.000000
     16         -2.533848   0.000000
     17          0.006184   0.000000
     18          0.568404   0.000000
     19          1.056895   0.000000
     20          1.110003   0.000000
     21          2.084694   0.000000
     22          2.473187   0.000000
     23          4.438663   0.000000
     24          5.061575   0.000000
 
  0.1064485E-16  0.1707317E+00  0.0000000E+00  0.1189768E-02
      1        -19.773127   1.000000
      2        -16.462008   1.000000
      3        -16.137150   1.000000
      4        -13.803722   1.000000
      5        -13.255455   1.000000
      6        -12.031584   1.000000
      7        -10.633399   1.000000
      8         -8.709582   1.000000
      9         -8.516569   1.000000
     10         -6.795380   1.000000
     11         -6.363783   1.000000
     12         -4.970460   1.000000
     13         -4.559427   1.000000
     14         -4.368368   1.000000
     15         -4.065680   1.000000
     16         -2.533842   0.000000
     17          0.006182   0.000000
     18          0.568387   0.000000
     19          1.056895   0.000000
     20          1.110015   0.000000
     21          2.084695   0.000000
     22          2.473187   0.000000
     23          4.438664   0.000000
     24          5.061572   0.000000
 
 -0.1707317E+00  0.1707317E+00  0.0000000E+00  0.1189768E-02
      1        -19.773122   1.000000
      2        -16.462158   1.000000
      3        -16.137005   1.000000
      4        -13.803651   1.000000
      5        -13.255501   1.000000
      6        -12.031629   1.000000
      7        -10.633372   1.000000
      8         -8.709580   1.000000
      9         -8.516567   1.000000
     10         -6.795526   1.000000
     11         -6.363643   1.000000
     12         -4.970535   1.000000
     13         -4.559339   1.000000
     14         -4.368433   1.000000
     15         -4.065617   1.000000
     16         -2.533864   0.000000
     17          0.006144   0.000000
     18          0.568475   0.000000
     19          1.056894   0.000000
     20          1.109984   0.000000
     21          2.084686   0.000000
     22          2.473186   0.000000
     23          4.438663   0.000000
     24          5.061567   0.000000
 
  0.1951220E+00  0.2570103E-16  0.0000000E+00  0.1189768E-02
      1        -19.740360   1.000000
      2        -16.576734   1.000000
      3        -16.173343   1.000000
      4        -13.846637   1.000000
      5        -13.150142   1.000000
      6        -11.882609   1.000000
      7        -10.467398   1.000000
      8         -8.790576   1.000000
      9         -8.464625   1.000000
     10         -6.932669   1.000000
     11         -6.367006   1.000000
     12         -5.102755   1.000000
     13         -4.579516   1.000000
     14         -4.533344   1.000000
     15         -4.141192   1.000000
     16         -2.625803   0.000000
     17          0.069751   0.000000
     18          0.673554   0.000000
     19          1.123069   0.000000
     20          1.345069   0.000000
     21          2.164305   0.000000
     22          2.539906   0.000000
     23          4.504109   0.000000
     24          5.118777   0.000000
 
  0.4123195E-16  0.1951220E+00  0.0000000E+00  0.1189768E-02
      1        -19.740360   1.000000
      2        -16.576721   1.000000
      3        -16.173354   1.000000
      4        -13.846644   1.000000
      5        -13.150146   1.000000
      6        -11.882599   1.000000
      7        -10.467400   1.000000
      8         -8.790575   1.000000
      9         -8.464625   1.000000
     10         -6.932640   1.000000
     11         -6.367035   1.000000
     12         -5.102747   1.000000
     13         -4.579526   1.000000
     14         -4.533318   1.000000
     15         -4.141219   1.000000
     16         -2.625796   0.000000
     17          0.069748   0.000000
     18          0.673538   0.000000
     19          1.123069   0.000000
     20          1.345079   0.000000
     21          2.164307   0.000000
     22          2.539906   0.000000
     23          4.504110   0.000000
     24          5.118772   0.000000
 
 -0.1951220E+00  0.1951220E+00  0.0000000E+00  0.1189768E-02
      1        -19.740354   1.000000
      2        -16.576868   1.000000
      3        -16.173212   1.000000
      4        -13.846574   1.000000
      5        -13.150188   1.000000
      6        -11.882649   1.000000
      7        -10.467367   1.000000
      8         -8.790573   1.000000
      9         -8.464622   1.000000
     10         -6.932786   1.000000
     11         -6.366896   1.000000
     12         -5.102819   1.000000
     13         -4.579439   1.000000
     14         -4.533380   1.000000
     15         -4.141159   1.000000
     16         -2.625822   0.000000
     17          0.069711   0.000000
     18          0.673620   0.000000
     19          1.123069   0.000000
     20          1.345060   0.000000
     21          2.164293   0.000000
     22          2.539906   0.000000
     23          4.504110   0.000000
     24          5.118769   0.000000
 
  0.2195122E+00  0.6389073E-17  0.0000000E+00  0.1189768E-02
      1        -19.704138   1.000000
      2        -16.694333   1.000000
      3        -16.209828   1.000000
      4        -13.890395   1.000000
      5        -13.036648   1.000000
      6        -11.722754   1.000000
      7        -10.288302   1.000000
      8         -8.882767   1.000000
      9         -8.406249   1.000000
     10         -7.081635   1.000000
     11         -6.364789   1.000000
     12         -5.243736   1.000000
     13         -4.714518   1.000000
     14         -4.600376   1.000000
     15         -4.222605   1.000000
     16         -2.710310   0.000000
     17          0.137468   0.000000
     18          0.775211   0.000000
     19          1.197960   0.000000
     20          1.591017   0.000000
     21          2.260609   0.000000
     22          2.615464   0.000000
     23          4.578060   0.000000
     24          5.179713   0.000000
 
  0.2192000E-16  0.2195122E+00  0.0000000E+00  0.1189768E-02
      1        -19.704139   1.000000
      2        -16.694319   1.000000
      3        -16.209839   1.000000
      4        -13.890403   1.000000
      5        -13.036652   1.000000
      6        -11.722744   1.000000
      7        -10.288304   1.000000
      8         -8.882764   1.000000
      9         -8.406250   1.000000
     10         -7.081606   1.000000
     11         -6.364818   1.000000
     12         -5.243729   1.000000
     13         -4.714492   1.000000
     14         -4.600385   1.000000
     15         -4.222632   1.000000
     16         -2.710302   0.000000
     17          0.137464   0.000000
     18          0.775195   0.000000
     19          1.197960   0.000000
     20          1.591024   0.000000
     21          2.260613   0.000000
     22          2.615464   0.000000
     23          4.578060   0.000000
     24          5.179706   0.000000
 
 -0.2195122E+00  0.2195122E+00  0.0000000E+00  0.1189768E-02
      1        -19.704131   1.000000
      2        -16.694465   1.000000
      3        -16.209701   1.000000
      4        -13.890335   1.000000
      5        -13.036690   1.000000
      6        -11.722799   1.000000
      7        -10.288265   1.000000
      8         -8.882762   1.000000
      9         -8.406246   1.000000
     10         -7.081754   1.000000
     11         -6.364680   1.000000
     12         -5.243797   1.000000
     13         -4.714552   1.000000
     14         -4.600299   1.000000
     15         -4.222576   1.000000
     16         -2.710331   0.000000
     17          0.137429   0.000000
     18          0.775273   0.000000
     19          1.197960   0.000000
     20          1.591018   0.000000
     21          2.260591   0.000000
     22          2.615464   0.000000
     23          4.578060   0.000000
     24          5.179704   0.000000
 
  0.2439024E+00  0.4261185E-17  0.0000000E+00  0.1189768E-02
      1        -19.664888   1.000000
      2        -16.812609   1.000000
      3        -16.245716   1.000000
      4        -13.933685   1.000000
      5        -12.916458   1.000000
      6        -11.554085   1.000000
      7        -10.098016   1.000000
      8         -8.985152   1.000000
      9         -8.341696   1.000000
     10         -7.240237   1.000000
     11         -6.356362   1.000000
     12         -5.391016   1.000000
     13         -4.910099   1.000000
     14         -4.621443   1.000000
     15         -4.308410   1.000000
     16         -2.787066   0.000000
     17          0.207984   0.000000
     18          0.875642   0.000000
     19          1.281541   0.000000
     20          1.834391   0.000000
     21          2.380477   0.000000
     22          2.699848   0.000000
     23          4.660295   0.000000
     24          4.999825   0.000000
 
  0.1979211E-16  0.2439024E+00  0.0000000E+00  0.1189768E-02
      1        -19.664889   1.000000
      2        -16.812594   1.000000
      3        -16.245726   1.000000
      4        -13.933694   1.000000
      5        -12.916463   1.000000
      6        -11.554076   1.000000
      7        -10.098018   1.000000
      8         -8.985150   1.000000
      9         -8.341697   1.000000
     10         -7.240207   1.000000
     11         -6.356391   1.000000
     12         -5.391009   1.000000
     13         -4.910074   1.000000
     14         -4.621452   1.000000
     15         -4.308436   1.000000
     16         -2.787058   0.000000
     17          0.207981   0.000000
     18          0.875627   0.000000
     19          1.281541   0.000000
     20          1.834395   0.000000
     21          2.380482   0.000000
     22          2.699848   0.000000
     23          4.660296   0.000000
     24          4.999825   0.000000
 
 -0.2439024E+00  0.2439024E+00  0.0000000E+00  0.1189768E-02
      1        -19.664879   1.000000
      2        -16.812740   1.000000
      3        -16.245592   1.000000
      4        -13.933627   1.000000
      5        -12.916496   1.000000
      6        -11.554134   1.000000
      7        -10.097974   1.000000
      8         -8.985147   1.000000
      9         -8.341693   1.000000
     10         -7.240358   1.000000
     11         -6.356253   1.000000
     12         -5.391075   1.000000
     13         -4.910132   1.000000
     14         -4.621366   1.000000
     15         -4.308384   1.000000
     16         -2.787090   0.000000
     17          0.207946   0.000000
     18          0.875701   0.000000
     19          1.281541   0.000000
     20          1.834403   0.000000
     21          2.380451   0.000000
     22          2.699848   0.000000
     23          4.660297   0.000000
     24          4.999828   0.000000
 
  0.2682927E+00 -0.1174449E-16  0.0000000E+00  0.1189768E-02
      1        -19.623149   1.000000
      2        -16.929573   1.000000
      3        -16.280261   1.000000
      4        -13.975437   1.000000
      5        -12.791136   1.000000
      6        -11.378339   1.000000
      7         -9.898563   1.000000