       N       E                     dE             d eps       ncg     rms          rms(c)
DAV:   1     0.183702306772E+03    0.18370E+03   -0.11433E+04 40368   0.826E+02
DAV:   2    -0.563585995302E+02   -0.24006E+03   -0.23938E+03 66024   0.157E+02
DAV:   3    -0.733124622035E+02   -0.16954E+02   -0.16924E+02 66144   0.639E+01
DAV:   4    -0.734310513357E+02   -0.11859E+00   -0.11859E+00 66336   0.532E+00
DAV:   5    -0.734312604309E+02   -0.20910E-03   -0.20910E-03 63048   0.207E-01    0.131E+01
DAV:   6    -0.689927494305E+02    0.44385E+01   -0.58730E+00 77592   0.104E+01    0.746E+00
DAV:   7    -0.673334325658E+02    0.16593E+01   -0.39171E+00 78024   0.857E+00    0.213E+00
DAV:   8    -0.672503311416E+02    0.83101E-01   -0.17085E-01 62856   0.178E+00    0.602E-01
DAV:   9    -0.672309104361E+02    0.19421E-01   -0.13522E-02 61776   0.657E-01    0.169E-01
DAV:  10    -0.672219309218E+02    0.89795E-02   -0.95312E-03 54816   0.344E-01    0.971E-02
DAV:  11    -0.672195897989E+02    0.23411E-02   -0.48697E-03 54816   0.255E-01    0.593E-02
DAV:  12    -0.672202534694E+02   -0.66367E-03   -0.66934E-04 44472   0.116E-01    0.280E-02
DAV:  13    -0.672232695566E+02   -0.30161E-02   -0.57075E-04 66648   0.869E-02    0.197E-02
DAV:  14    -0.672248542075E+02   -0.15847E-02   -0.28948E-04 52200   0.598E-02    0.123E-02
DAV:  15    -0.672255909761E+02   -0.73677E-03   -0.83635E-05 55848   0.324E-02    0.490E-03
DAV:  16    -0.672258295189E+02   -0.23854E-03   -0.29887E-05 46656   0.165E-02    0.213E-03
DAV:  17    -0.672259032281E+02   -0.73709E-04   -0.37094E-06 42240   0.685E-03    0.123E-03
DAV:  18    -0.672259086220E+02   -0.53940E-05   -0.23734E-07 57984   0.215E-03    0.230E-04
DAV:  19    -0.672259107544E+02   -0.21324E-05   -0.53357E-08 43488   0.750E-04    0.158E-04
DAV:  20    -0.672259110681E+02   -0.31362E-06   -0.67276E-09 54120   0.254E-04
   1 F= -.67904248E+02 E0= -.67904248E+02  d E =-.679042E+02
       N       E                     dE             d eps       ncg     rms          rms(c)
DAV:   1    -0.672219986792E+02    0.39121E-02   -0.32494E+00 40536   0.107E+01    0.493E-01
DAV:   2    -0.672164040607E+02    0.55946E-02   -0.55006E-02 70440   0.146E+00    0.241E-01
DAV:   3    -0.672156317704E+02    0.77229E-03   -0.89734E-03 51288   0.499E-01    0.943E-02
DAV:   4    -0.672156289349E+02    0.28355E-05   -0.13028E-03 53568   0.181E-01    0.425E-02
DAV:   5    -0.672156349768E+02   -0.60419E-05   -0.74833E-05 43128   0.554E-02    0.684E-03
DAV:   6    -0.672156358724E+02   -0.89552E-06   -0.13725E-05 45168   0.217E-02    0.420E-03
DAV:   7    -0.672156378176E+02   -0.19453E-05   -0.23378E-06 41664   0.842E-03    0.758E-04
DAV:   8    -0.672156390447E+02   -0.12271E-05   -0.22605E-07 44256   0.252E-03    0.454E-04
DAV:   9    -0.672156406463E+02   -0.16016E-05   -0.89964E-08 41424   0.987E-04    0.323E-04
DAV:  10    -0.672156416400E+02   -0.99367E-06   -0.50054E-08 62784   0.880E-04
   2 F= -.67892985E+02 E0= -.67892985E+02  d E =0.112625E-01
       N       E                     dE             d eps       ncg     rms          rms(c)
DAV:   1    -0.672325231822E+02   -0.16883E-01   -0.14756E+00 40368   0.720E+00    0.335E-01
DAV:   2    -0.672299671485E+02    0.25560E-02   -0.25388E-02 66288   0.980E-01    0.163E-01
DAV:   3    -0.672296458773E+02    0.32127E-03   -0.40676E-03 67704   0.338E-01    0.636E-02
DAV:   4    -0.672296430186E+02    0.28587E-05   -0.50766E-04 52824   0.112E-01    0.280E-02
DAV:   5    -0.672296479735E+02   -0.49548E-05   -0.34187E-05 55296   0.367E-02    0.456E-03
DAV:   6    -0.672296492879E+02   -0.13144E-05   -0.54705E-06 47064   0.137E-02    0.276E-03
DAV:   7    -0.672296510332E+02   -0.17454E-05   -0.95773E-07 42336   0.535E-03    0.585E-04
DAV:   8    -0.672296521105E+02   -0.10773E-05   -0.14179E-07 43032   0.187E-03    0.410E-04
DAV:   9    -0.672296531334E+02   -0.10228E-05   -0.71031E-08 57576   0.917E-04    0.217E-04
DAV:  10    -0.672296537957E+02   -0.66238E-06   -0.43664E-08 55104   0.708E-04
   3 F= -.67907691E+02 E0= -.67907691E+02  d E =-.344293E-02
       N       E                     dE             d eps       ncg     rms          rms(c)
DAV:   1    -0.672296595083E+02   -0.63749E-05   -0.43256E-03 55368   0.426E-01    0.142E-02
DAV:   2    -0.672296606136E+02   -0.11053E-05   -0.45054E-05 45672   0.403E-02    0.859E-03
DAV:   3    -0.672296601798E+02    0.43378E-06   -0.31696E-06 45360   0.109E-02
   4 F= -.67907695E+02 E0= -.67907695E+02  d E =-.466164E-05
       N       E                     dE             d eps       ncg     rms          rms(c)
DAV:   1    -0.672296678938E+02   -0.72802E-05   -0.89262E-04 41760   0.194E-01    0.583E-03
DAV:   2    -0.672296685453E+02   -0.65154E-06   -0.13294E-05 43032   0.221E-02    0.378E-03
DAV:   3    -0.672296684523E+02    0.92993E-07   -0.67641E-07 49440   0.504E-03
   5 F= -.67907704E+02 E0= -.67907704E+02  d E =-.137165E-04
       N       E                     dE             d eps       ncg     rms          rms(c)
DAV:   1    -0.672296834241E+02   -0.14879E-04   -0.15311E-03 40560   0.261E-01    0.657E-03
DAV:   2    -0.672296845177E+02   -0.10936E-05   -0.14863E-05 40920   0.213E-02    0.488E-03
DAV:   3    -0.672296846840E+02   -0.16623E-06   -0.55040E-07 40464   0.413E-03
   6 F= -.67907721E+02 E0= -.67907721E+02  d E =-.168843E-04
       N       E                     dE             d eps       ncg     rms          rms(c)
DAV:   1    -0.672296889878E+02   -0.44701E-05   -0.18747E-03 40488   0.288E-01    0.750E-03
DAV:   2    -0.672296903479E+02   -0.13601E-05   -0.18489E-05 41880   0.239E-02    0.555E-03
DAV:   3    -0.672296905681E+02   -0.22020E-06   -0.67827E-07 40656   0.456E-03
   7 F= -.67907728E+02 E0= -.67907728E+02  d E =-.234704E-04
       N       E                     dE             d eps       ncg     rms          rms(c)
DAV:   1    -0.672296910668E+02   -0.71889E-06   -0.24964E-05 43584   0.305E-02    0.140E-03
DAV:   2    -0.672296910536E+02    0.13225E-07   -0.51299E-07 47160   0.445E-03
   8 F= -.67907728E+02 E0= -.67907728E+02  d E =-.313804E-06
