Lattice                                 
           1
     4.476485    2.584500    0.000000
    -4.476485    2.584500    0.000000
     0.000000    0.000000   15.000000
   B    C 
     2     6
Direct configuration=     1
   0.33835568  0.66919338  0.25000000
   0.67168550  0.33578412  0.25000000
   0.16393418  0.32096121  0.25000000
   0.32344383  0.16194918  0.25000000
   0.16445142  0.84350783  0.25000000
   0.84555675  0.16147694  0.25000000
   0.68650730  0.84304996  0.25000000
   0.84606136  0.68407339  0.25000000
Direct configuration=     2
   0.33826096  0.66913789  0.25000000
   0.67167031  0.33589161  0.25000000
   0.16281400  0.31804956  0.25000000
   0.32052413  0.16045110  0.25000000
   0.16295923  0.84489275  0.25000000
   0.84701510  0.16013919  0.25000000
   0.68957102  0.84455667  0.25000000
   0.84718125  0.68687722  0.25000000
Direct configuration=     3
   0.33832470  0.66917523  0.25000000
   0.67168053  0.33581927  0.25000000
   0.16356785  0.32000902  0.25000000
   0.32248901  0.16145927  0.25000000
   0.16396343  0.84396074  0.25000000
   0.84603367  0.16103946  0.25000000
   0.68750922  0.84354269  0.25000000
   0.84642759  0.68499032  0.25000000
Direct configuration=     4
   0.33835320  0.66917133  0.25000000
   0.67163665  0.33583228  0.25000000
   0.16358180  0.31999618  0.25000000
   0.32253710  0.16135840  0.25000000
   0.16380818  0.84385606  0.25000000
   0.84619419  0.16114525  0.25000000
   0.68746268  0.84363728  0.25000000
   0.84642221  0.68499922  0.25000000
Direct configuration=     5
   0.33834025  0.66917310  0.25000000
   0.67165658  0.33582637  0.25000000
   0.16357546  0.32000201  0.25000000
   0.32251526  0.16140421  0.25000000
   0.16387869  0.84390360  0.25000000
   0.84612128  0.16109720  0.25000000
   0.68748382  0.84359432  0.25000000
   0.84642466  0.68499518  0.25000000
Direct configuration=     6
   0.33833470  0.66916865  0.25000000
   0.67165637  0.33583402  0.25000000
   0.16365965  0.32000133  0.25000000
   0.32250870  0.16133266  0.25000000
   0.16382075  0.84383189  0.25000000
   0.84618080  0.16116885  0.25000000
   0.68749121  0.84366354  0.25000000
   0.84634383  0.68499507  0.25000000
Direct configuration=     7
   0.33832855  0.66916371  0.25000000
   0.67165613  0.33584249  0.25000000
   0.16375287  0.32000058  0.25000000
   0.32250144  0.16125343  0.25000000
   0.16375659  0.84375248  0.25000000
   0.84624671  0.16124818  0.25000000
   0.68749939  0.84374018  0.25000000
   0.84625433  0.68499496  0.25000000
Direct configuration=     8
   0.33833451  0.66916509  0.25000000
   0.67166609  0.33583184  0.25000000
   0.16374594  0.31999926  0.25000000
   0.32249973  0.16124937  0.25000000
   0.16375292  0.84374833  0.25000000
   0.84624551  0.16125143  0.25000000
   0.68749978  0.84375107  0.25000000
   0.84625151  0.68499960  0.25000000
