       N       E                     dE             d eps       ncg     rms          rms(c)
DAV:   1     0.186290708026E+03    0.18629E+03   -0.25257E+04  8256   0.861E+02
DAV:   2    -0.118194448883E+03   -0.30449E+03   -0.30365E+03 12960   0.157E+02
DAV:   3    -0.127551795438E+03   -0.93573E+01   -0.93308E+01 14016   0.366E+01
DAV:   4    -0.127579287890E+03   -0.27492E-01   -0.27491E-01 12384   0.178E+00
DAV:   5    -0.127579329709E+03   -0.41819E-04   -0.41819E-04 13152   0.772E-02    0.225E+01
DAV:   6    -0.944110419473E+02    0.33168E+02   -0.57897E+01 10560   0.216E+01    0.122E+01
DAV:   7    -0.105603841802E+03   -0.11193E+02   -0.13832E+01 12576   0.110E+01    0.667E+00
DAV:   8    -0.111454488169E+03   -0.58506E+01   -0.51163E+00 12336   0.646E+00    0.373E+00
DAV:   9    -0.116722880340E+03   -0.52684E+01   -0.27725E+00 10272   0.468E+00    0.253E+00
DAV:  10    -0.120891133720E+03   -0.41683E+01   -0.32315E+00 12192   0.473E+00    0.135E+00
DAV:  11    -0.122769718705E+03   -0.18786E+01   -0.14693E+00 11856   0.284E+00    0.817E-01
DAV:  12    -0.123757403470E+03   -0.98768E+00   -0.78980E-01 13200   0.193E+00    0.404E-01
DAV:  13    -0.124063860985E+03   -0.30646E+00   -0.19135E-01 12000   0.966E-01    0.195E-01
