 vasp.6.3.2 27Jun22 (build Dec 22 2022 13:13:19) complex                        
  
 executed on             LinuxIFC date 2023.08.22  20:00:01
 running   48 mpi-ranks, with    1 threads/rank
 distrk:  each k-point on   48 cores,    1 groups
 distr:  one band on NCORE=   1 cores,   48 groups


--------------------------------------------------------------------------------------------------------


 INCAR:
   SYSTEM = Lattice
   ISTART = 0
   ICHARG = 2
   PREC = Accurate
   ENCUT = 450
   LCHARG = .FALSE.
   LWAVE = .FALSE.
   ALGO = Normal
   NELM = 64
   EDIFF = 1E-6
   EDIFFG = -1E-3
   SIGMA = 0.1
   ISMEAR = 0
   ISPIN = 2
   NSW = 128
   IBRION = 2
   POTIM = .5
   ISIF = 2
   GGA = PE
   IVDW = 12

 POTCAR:    PAW_PBE B 06Sep2000                   
 POTCAR:    PAW_PBE C 08Apr2002                   
 -----------------------------------------------------------------------------
|                                                                             |
|           W    W    AA    RRRRR   N    N  II  N    N   GGGG   !!!           |
|           W    W   A  A   R    R  NN   N  II  NN   N  G    G  !!!           |
|           W    W  A    A  R    R  N N  N  II  N N  N  G       !!!           |
|           W WW W  AAAAAA  RRRRR   N  N N  II  N  N N  G  GGG   !            |
|           WW  WW  A    A  R   R   N   NN  II  N   NN  G    G                |
|           W    W  A    A  R    R  N    N  II  N    N   GGGG   !!!           |
|                                                                             |
|     You use a magnetic or noncollinear calculation, but did not specify     |
|     the initial magnetic moment with the MAGMOM tag. Note that a            |
|     default of 1 will be used for all atoms. This ferromagnetic setup       |
|     may break the symmetry of the crystal, in particular it may rule        |
|     out finding an antiferromagnetic solution. Thence, we recommend         |
|     setting the initial magnetic moment manually or verifying carefully     |
|     that this magnetic setup is desired.                                    |
|                                                                             |
 -----------------------------------------------------------------------------

 POTCAR:    PAW_PBE B 06Sep2000                   
   SHA256 =  a32ced30f5ae56fd4d10b4325ff17eb3e4e38ee0f4288bc219fb012fddfa6e97 B/POTCAR              
   COPYR  = (c) Copyright 06Sep2000 Georg Kresse                                                    
   COPYR  = This file is part of the software VASP. Any use, copying, and all other rights are regul
   COPYR  = If you do not have a valid VASP license, you may not use, copy or distribute this file. 
   VRHFIN =B: s2p1                                                                                  
   LEXCH  = PE                                                                                      
   EATOM  =    71.1703 eV,    5.2309 Ry                                                             
                                                                                                    
   TITEL  = PAW_PBE B 06Sep2000                                                                     
   LULTRA =        F    use ultrasoft PP ?                                                          
   IUNSCR =        1    unscreen: 0-lin 1-nonlin 2-no                                               
   RPACOR =    1.200    partial core radius                                                         
   POMASS =   10.811; ZVAL   =    3.000    mass and valenz                                          
   RCORE  =    1.700    outmost cutoff radius                                                       
   RWIGS  =    1.710; RWIGS  =    0.905    wigner-seitz radius (au A)                               
   ENMAX  =  318.614; ENMIN  =  238.960 eV                                                          
   ICORE  =        2    local potential                                                             
   LCOR   =        T    correct aug charges                                                         
   LPAW   =        T    paw PP                                                                      
   EAUG   =  535.514                                                                                
   DEXC   =    0.000                                                                                
   RMAX   =    1.732    core radius for proj-oper                                                   
   RAUG   =    1.300    factor for augmentation sphere                                              
   RDEP   =    1.757    radius for radial grids                                                     
   RDEPT  =    1.436    core radius for aug-charge                                                  
                                                                                                    
   Atomic configuration                                                                             
    4 entries                                                                                       
     n  l   j            E        occ.                                                              
     1  0  0.50      -180.5896   2.0000                                                             
     2  0  0.50        -9.4431   2.0000                                                             
     2  1  0.50        -3.6068   1.0000                                                             
     3  2  1.50        -4.0817   0.0000                                                             
   Description                                                                                      
     l       E           TYP  RCUT    TYP  RCUT                                                     
     0     -9.4430752     23  1.500                                                                 
     0      0.8675899     23  1.500                                                                 
     1     -3.6067955     23  1.700                                                                 
     1      6.1086146     23  1.700                                                                 
     2     -4.0817478      7  1.700                                                                 
  local pseudopotential read in
  partial core-charges read in
  partial kinetic energy density read in
  atomic valenz-charges read in
  non local Contribution for L=           0  read in
    real space projection operators read in
  non local Contribution for L=           0  read in
    real space projection operators read in
  non local Contribution for L=           1  read in
    real space projection operators read in
  non local Contribution for L=           1  read in
    real space projection operators read in
    PAW grid and wavefunctions read in
 
   number of l-projection  operators is LMAX  =           4
   number of lm-projection operators is LMMAX =           8
 
 POTCAR:    PAW_PBE C 08Apr2002                   
   SHA256 =  253f7b50bb8d59471dbedb8285d89021f4a42ed1a2c5d38a03a736e69125dd95 C/POTCAR              
   COPYR  = (c) Copyright 08Apr2002 Georg Kresse                                                    
   COPYR  = This file is part of the software VASP. Any use, copying, and all other rights are regul
   COPYR  = If you do not have a valid VASP license, you may not use, copy or distribute this file. 
   VRHFIN =C: s2p2                                                                                  
   LEXCH  = PE                                                                                      
   EATOM  =   147.1560 eV,   10.8157 Ry                                                             
                                                                                                    
   TITEL  = PAW_PBE C 08Apr2002                                                                     
   LULTRA =        F    use ultrasoft PP ?                                                          
   IUNSCR =        1    unscreen: 0-lin 1-nonlin 2-no                                               
   RPACOR =    1.200    partial core radius                                                         
   POMASS =   12.011; ZVAL   =    4.000    mass and valenz                                          
   RCORE  =    1.500    outmost cutoff radius                                                       
   RWIGS  =    1.630; RWIGS  =    0.863    wigner-seitz radius (au A)                               
   ENMAX  =  400.000; ENMIN  =  300.000 eV                                                          
   ICORE  =        2    local potential                                                             
   LCOR   =        T    correct aug charges                                                         
   LPAW   =        T    paw PP                                                                      
   EAUG   =  644.873                                                                                
   DEXC   =    0.000                                                                                
   RMAX   =    1.529    core radius for proj-oper                                                   
   RAUG   =    1.300    factor for augmentation sphere                                              
   RDEP   =    1.501    radius for radial grids                                                     
   RDEPT  =    1.300    core radius for aug-charge                                                  
                                                                                                    
   Atomic configuration                                                                             
    4 entries                                                                                       
     n  l   j            E        occ.                                                              
     1  0  0.50      -273.3789   2.0000                                                             
     2  0  0.50       -13.7508   2.0000                                                             
     2  1  0.50        -5.2854   2.0000                                                             
     3  2  1.50        -5.4423   0.0000                                                             
   Description                                                                                      
     l       E           TYP  RCUT    TYP  RCUT                                                     
     0    -13.7508458     23  1.200                                                                 
     0     -8.2022199     23  1.200                                                                 
     1     -5.2854383     23  1.500                                                                 
     1     34.0145650     23  1.500                                                                 
     2     -5.4423304      7  1.500                                                                 
  local pseudopotential read in
  partial core-charges read in
  partial kinetic energy density read in
  atomic valenz-charges read in
  non local Contribution for L=           0  read in
    real space projection operators read in
  non local Contribution for L=           0  read in
    real space projection operators read in
  non local Contribution for L=           1  read in
    real space projection operators read in
  non local Contribution for L=           1  read in
    real space projection operators read in
    PAW grid and wavefunctions read in
 
   number of l-projection  operators is LMAX  =           4
   number of lm-projection operators is LMMAX =           8
 
  PAW_PBE B 06Sep2000                   :
 energy of atom  1       EATOM=  -71.1703
 kinetic energy error for atom=    0.0015 (will be added to EATOM!!)
  PAW_PBE C 08Apr2002                   :
 energy of atom  2       EATOM= -147.1560
 kinetic energy error for atom=    0.0116 (will be added to EATOM!!)
 
 
 POSCAR: Graphene-Borophene Bridge with lattice p
  positions in direct lattice
  No initial velocities read in
 exchange correlation table for  LEXCH =        8
   RHO(1)=    0.500       N(1)  =     2000
   RHO(2)=  100.500       N(2)  =     4000

 VTST: version 4.2, (08/11/21)

 CHAIN: initializing optimizer
 
 OPT: Using VASP Conjugate-Gradient optimizer
 CHAIN: Read ICHAIN            0
 
 POSCAR: Graphene-Borophene Bridge with lattice p
  positions in direct lattice
  No initial velocities read in
 


--------------------------------------------------------------------------------------------------------


 ion  position               nearest neighbor table
   1  0.669  0.000  0.100-   3 1.66   6 1.66   7 1.67   8 1.67   2 1.69
   2  0.331  0.000  0.100-   5 1.66   4 1.66   7 1.67   8 1.67   1 1.69
   3  0.000  0.331  0.100-   5 1.66   1 1.66   8 1.67   7 1.67   4 1.69
   4  0.000  0.669  0.100-   2 1.66   6 1.66   8 1.67   7 1.67   3 1.69
   5  0.331  0.331  0.100-   2 1.66   3 1.66   7 1.67   8 1.67   6 1.69
   6  0.669  0.669  0.100-   1 1.66   4 1.66   7 1.67   8 1.67   5 1.69
   7  0.667  0.333  0.099-   5 1.67   6 1.67   2 1.67   1 1.67   4 1.67   3 1.67
   8  0.333  0.667  0.101-   5 1.67   6 1.67   3 1.67   4 1.67   1 1.67   2 1.67
   9  0.250  0.250  0.469-  12 1.44  14 1.44  10 1.44
  10  0.417  0.083  0.469-  11 1.44  13 1.44   9 1.44
  11  0.250  0.750  0.469-  10 1.44  16 1.44  12 1.44
  12  0.417  0.583  0.469-   9 1.44  15 1.44  11 1.44
  13  0.750  0.250  0.469-  10 1.44  16 1.44  14 1.44
  14  0.917  0.083  0.469-   9 1.44  15 1.44  13 1.44
  15  0.750  0.750  0.469-  12 1.44  14 1.44  16 1.44
  16  0.917  0.583  0.469-  11 1.44  13 1.44  15 1.44
 
  LATTYP: Found a hexagonal cell.
 ALAT       =     5.0000010000
 C/A-ratio  =     2.9999994000
  
  Lattice vectors:
  
 A1 = (   4.3301278849,   2.5000005000,   0.0000000000)
 A2 = (  -4.3301278849,   2.5000005000,   0.0000000000)
 A3 = (   0.0000000000,   0.0000000000,  15.0000000000)


Analysis of symmetry for initial positions (statically):
=====================================================================
 Subroutine PRICEL returns:
 Original cell was already a primitive cell.
 

 Routine SETGRP: Setting up the symmetry group for a 
 hexagonal supercell.


 Subroutine GETGRP returns: Found  2 space group operations
 (whereof  2 operations were pure point group operations)
 out of a pool of 24 trial point group operations.


The static configuration has the point symmetry C_1h.


Analysis of symmetry for dynamics (positions and initial velocities):
=====================================================================
 Subroutine PRICEL returns:
 Original cell was already a primitive cell.
 

 Routine SETGRP: Setting up the symmetry group for a 
 hexagonal supercell.


 Subroutine GETGRP returns: Found  2 space group operations
 (whereof  2 operations were pure point group operations)
 out of a pool of 24 trial point group operations.


The dynamic configuration has the point symmetry C_1h.


Analysis of structural, dynamic, and magnetic symmetry:
=====================================================================
 Subroutine PRICEL returns:
 Original cell was already a primitive cell.
 

 Routine SETGRP: Setting up the symmetry group for a 
 hexagonal supercell.


 Subroutine GETGRP returns: Found  2 space group operations
 (whereof  2 operations were pure point group operations)
 out of a pool of 24 trial point group operations.


The overall configuration has the point symmetry C_1h.


 Subroutine INISYM returns: Found  2 space group operations
 (whereof  2 operations are pure point group operations),
 and found     1 'primitive' translations


----------------------------------------------------------------------------------------

                                     Primitive cell                                     

  volume of cell :     324.7597

  direct lattice vectors                    reciprocal lattice vectors
     4.330127885  2.500000500  0.000000000     0.115470031  0.199999960  0.000000000
    -4.330127885  2.500000500  0.000000000    -0.115470031  0.199999960  0.000000000
     0.000000000  0.000000000 15.000000000     0.000000000  0.000000000  0.066666667

  length of vectors
     5.000001000  5.000001000 15.000000000     0.230940061  0.230940061  0.066666667

  position of ions in fractional coordinates (direct lattice)
     0.668886888  1.000000000  0.100000000
     0.331112112  1.000000000  0.100000000
     1.000000000  0.331112112  0.100000000
     1.000000000  0.668886888  0.100000000
     0.331112112  0.331112112  0.100000000
     0.668886888  0.668886888  0.100000000
     0.666666000  0.333333000  0.099221887
     0.333333000  0.666666000  0.100778113
     0.249999333  0.249999667  0.469066667
     0.416666333  0.083332667  0.469066667
     0.249999333  0.749999667  0.469066667
     0.416666333  0.583332667  0.469066667
     0.749999333  0.249999667  0.469066667
     0.916666333  0.083332667  0.469066667
     0.749999333  0.749999667  0.469066667
     0.916666333  0.583332667  0.469066667

  ion indices of the primitive-cell ions
   primitive index   ion index
                 1           1
                 2           2
                 3           3
                 4           4
                 5           5
                 6           6
                 7           7
                 8           8
                 9           9
                10          10
                11          11
                12          12
                13          13
                14          14
                15          15
                16          16

----------------------------------------------------------------------------------------

 
 
 KPOINTS: k-points                                

Automatic generation of k-mesh.
 Grid dimensions read from file:
 generate k-points for:   12   12    1

 Generating k-lattice:

  Cartesian coordinates                     Fractional coordinates (reciprocal lattice)
     0.009622503  0.016666663  0.000000000     0.083333333 -0.000000000  0.000000000
    -0.009622503  0.016666663  0.000000000    -0.000000000  0.083333333  0.000000000
     0.000000000  0.000000000  0.066666667     0.000000000  0.000000000  1.000000000

  Length of vectors
     0.019245005  0.019245005  0.066666667

  Shift w.r.t. Gamma in fractional coordinates (k-lattice)
     0.000000000  0.000000000  0.000000000

 
 Subroutine IBZKPT returns following result:
 ===========================================
 
 Found     43 irreducible k-points:
 
 Following reciprocal coordinates:
            Coordinates               Weight
  0.000000  0.000000  0.000000      1.000000
  0.083333 -0.000000  0.000000      4.000000
 -0.083333  0.083333  0.000000      2.000000
  0.166667 -0.000000  0.000000      4.000000
 -0.166667  0.166667  0.000000      2.000000
  0.250000 -0.000000  0.000000      4.000000
 -0.250000  0.250000  0.000000      2.000000
  0.333333 -0.000000  0.000000      4.000000
 -0.333333  0.333333  0.000000      2.000000
  0.416667  0.000000  0.000000      4.000000
 -0.416667  0.416667  0.000000      2.000000
  0.500000 -0.000000  0.000000      2.000000
  0.500000  0.500000  0.000000      1.000000
  0.083333  0.083333  0.000000      2.000000
 -0.083333  0.166667  0.000000      4.000000
  0.166667  0.083333  0.000000      4.000000
 -0.083333  0.250000  0.000000      4.000000
 -0.250000  0.166667  0.000000      4.000000
  0.250000  0.083333  0.000000      4.000000
 -0.083333  0.333333  0.000000      4.000000
 -0.333333  0.250000  0.000000      4.000000
  0.333333  0.083333  0.000000      4.000000
 -0.083333  0.416667  0.000000      4.000000
 -0.416667  0.333333  0.000000      4.000000
  0.416667  0.083333  0.000000      4.000000
 -0.083333  0.500000  0.000000      4.000000
  0.500000  0.416667  0.000000      4.000000
  0.166667  0.166667  0.000000      2.000000
 -0.166667  0.333333  0.000000      4.000000
  0.250000  0.166667  0.000000      4.000000
 -0.166667  0.416667  0.000000      4.000000
 -0.416667  0.250000  0.000000      4.000000
  0.333333  0.166667  0.000000      4.000000
 -0.166667  0.500000  0.000000      4.000000
  0.500000  0.333333  0.000000      4.000000
  0.416667  0.166667  0.000000      4.000000
  0.416667  0.416667  0.000000      2.000000
  0.250000  0.250000  0.000000      2.000000
 -0.250000  0.500000  0.000000      4.000000
  0.333333  0.250000  0.000000      4.000000
 -0.250000 -0.416667  0.000000      4.000000
  0.416667  0.333333  0.000000      4.000000
  0.333333  0.333333  0.000000      2.000000
 
 Following cartesian coordinates:
            Coordinates               Weight
  0.000000  0.000000  0.000000      1.000000
  0.009623  0.016667  0.000000      4.000000
 -0.019245  0.000000  0.000000      2.000000
  0.019245  0.033333  0.000000      4.000000
 -0.038490  0.000000  0.000000      2.000000
  0.028868  0.050000  0.000000      4.000000
 -0.057735 -0.000000  0.000000      2.000000
  0.038490  0.066667  0.000000      4.000000
 -0.076980  0.000000  0.000000      2.000000
  0.048113  0.083333  0.000000      4.000000
 -0.096225  0.000000  0.000000      2.000000
  0.057735  0.100000  0.000000      2.000000
  0.000000  0.200000  0.000000      1.000000
 -0.000000  0.033333  0.000000      2.000000
 -0.028868  0.016667  0.000000      4.000000
  0.009623  0.050000  0.000000      4.000000
 -0.038490  0.033333  0.000000      4.000000
 -0.048113 -0.016667  0.000000      4.000000
  0.019245  0.066667  0.000000      4.000000
 -0.048113  0.050000  0.000000      4.000000
 -0.067358 -0.016667  0.000000      4.000000
  0.028868  0.083333  0.000000      4.000000
 -0.057735  0.066667  0.000000      4.000000
 -0.086603 -0.016667  0.000000      4.000000
  0.038490  0.100000  0.000000      4.000000
 -0.067358  0.083333  0.000000      4.000000
  0.009623  0.183333  0.000000      4.000000
 -0.000000  0.066667  0.000000      2.000000
 -0.057735  0.033333  0.000000      4.000000
  0.009623  0.083333  0.000000      4.000000
 -0.067358  0.050000  0.000000      4.000000
 -0.076980 -0.033333  0.000000      4.000000
  0.019245  0.100000  0.000000      4.000000
 -0.076980  0.066667  0.000000      4.000000
  0.019245  0.166667  0.000000      4.000000
  0.028868  0.116667  0.000000      4.000000
  0.000000  0.166667  0.000000      2.000000
  0.000000  0.100000  0.000000      2.000000
 -0.086603  0.050000  0.000000      4.000000
  0.009623  0.116667  0.000000      4.000000
  0.019245 -0.133333  0.000000      4.000000
  0.009623  0.150000  0.000000      4.000000
 -0.000000  0.133333  0.000000      2.000000
 


--------------------------------------------------------------------------------------------------------




 Dimension of arrays:
   k-points           NKPTS =     43   k-points in BZ     NKDIM =     43   number of bands    NBANDS=     48
   number of dos      NEDOS =    301   number of ions     NIONS =     16
   non local maximal  LDIM  =      4   non local SUM 2l+1 LMDIM =      8
   total plane-waves  NPLWV = 139968
   max r-space proj   IRMAX =      1   max aug-charges    IRDMAX=   6920
   dimension x,y,z NGX =    36 NGY =   36 NGZ =  108
   dimension x,y,z NGXF=    72 NGYF=   72 NGZF=  216
   support grid    NGXF=    72 NGYF=   72 NGZF=  216
   ions per type =               8   8
   NGX,Y,Z   is equivalent  to a cutoff of  11.97, 11.97, 11.97 a.u.
   NGXF,Y,Z  is equivalent  to a cutoff of  23.94, 23.94, 23.94 a.u.

 SYSTEM =  Lattice                                 
 POSCAR =  Graphene-Borophene Bridge with lattice p

 Startparameter for this run:
   NWRITE =      2    write-flag & timer
   PREC   = accura    normal or accurate (medium, high low for compatibility)
   ISTART =      0    job   : 0-new  1-cont  2-samecut
   ICHARG =      2    charge: 1-file 2-atom 10-const
   ISPIN  =      2    spin polarized calculation?
   LNONCOLLINEAR =      F non collinear calculations
   LSORBIT =      F    spin-orbit coupling
   INIWAV =      1    electr: 0-lowe 1-rand  2-diag
   LASPH  =      F    aspherical Exc in radial PAW
 Electronic Relaxation 1
   ENCUT  =  450.0 eV  33.07 Ry    5.75 a.u.   8.65  8.65 25.95*2*pi/ulx,y,z
   ENINI  =  450.0     initial cutoff
   ENAUG  =  644.9 eV  augmentation charge cutoff
   NELM   =     64;   NELMIN=  2; NELMDL= -5     # of ELM steps 
   EDIFF  = 0.1E-05   stopping-criterion for ELM
   LREAL  =      F    real-space projection
   NLSPLINE    = F    spline interpolate recip. space projectors
   LCOMPAT=      F    compatible to vasp.4.4
   GGA_COMPAT  = T    GGA compatible to vasp.4.4-vasp.4.6
   LMAXPAW     = -100 max onsite density
   LMAXMIX     =    2 max onsite mixed and CHGCAR
   VOSKOWN=      0    Vosko Wilk Nusair interpolation
   ROPT   =    0.00000   0.00000
 Ionic relaxation
   EDIFFG = -.1E-02   stopping-criterion for IOM
   NSW    =    128    number of steps for IOM
   NBLOCK =      1;   KBLOCK =    128    inner block; outer block 
   IBRION =      2    ionic relax: 0-MD 1-quasi-New 2-CG
   NFREE  =      1    steps in history (QN), initial steepest desc. (CG)
   ISIF   =      2    stress and relaxation
   IWAVPR =     11    prediction:  0-non 1-charg 2-wave 3-comb
   ISYM   =      2    0-nonsym 1-usesym 2-fastsym
   LCORR  =      T    Harris-Foulkes like correction to forces

   POTIM  = 0.5000    time-step for ionic-motion
   TEIN   =    0.0    initial temperature
   TEBEG  =    0.0;   TEEND  =   0.0 temperature during run
   SMASS  =  -3.00    Nose mass-parameter (am)
   estimated Nose-frequenzy (Omega)   =  0.10E-29 period in steps = 0.13E+47 mass=  -0.571E-27a.u.
   SCALEE = 1.0000    scale energy and forces
   NPACO  =    256;   APACO  = 10.0  distance and # of slots for P.C.
   PSTRESS=    0.0 pullay stress

  Mass of Ions in am
   POMASS =  10.81 12.01
  Ionic Valenz
   ZVAL   =   3.00  4.00
  Atomic Wigner-Seitz radii
   RWIGS  =  -1.00 -1.00
  virtual crystal weights 
   VCA    =   1.00  1.00
   NELECT =      56.0000    total number of electrons
   NUPDOWN=      -1.0000    fix difference up-down

 DOS related values:
   EMIN   =  10.00;   EMAX   =-10.00  energy-range for DOS
   EFERMI =   0.00
   ISMEAR =     0;   SIGMA  =   0.10  broadening in eV -4-tet -1-fermi 0-gaus

 Electronic relaxation 2 (details)
   IALGO  =     38    algorithm
   LDIAG  =      T    sub-space diagonalisation (order eigenvalues)
   LSUBROT=      F    optimize rotation matrix (better conditioning)
   TURBO    =      0    0=normal 1=particle mesh
   IRESTART =      0    0=no restart 2=restart with 2 vectors
   NREBOOT  =      0    no. of reboots
   NMIN     =      0    reboot dimension
   EREF     =   0.00    reference energy to select bands
   IMIX   =      4    mixing-type and parameters
     AMIX     =   0.40;   BMIX     =  1.00
     AMIX_MAG =   1.60;   BMIX_MAG =  1.00
     AMIN     =   0.10
     WC   =   100.;   INIMIX=   1;  MIXPRE=   1;  MAXMIX= -45

 Intra band minimization:
   WEIMIN = 0.0010     energy-eigenvalue tresh-hold
   EBREAK =  0.52E-08  absolut break condition
   DEPER  =   0.30     relativ break condition  

   TIME   =   0.40     timestep for ELM

  volume/ion in A,a.u.               =      20.30       136.97
  Fermi-wavevector in a.u.,A,eV,Ry     =   0.911207  1.721931 11.296881  0.830297
  Thomas-Fermi vector in A             =   2.035459
 
 Write flags
   LWAVE        =      F    write WAVECAR
   LDOWNSAMPLE  =      F    k-point downsampling of WAVECAR
   LCHARG       =      F    write CHGCAR
   LVTOT        =      F    write LOCPOT, total local potential
   LVHAR        =      F    write LOCPOT, Hartree potential only
   LELF         =      F    write electronic localiz. function (ELF)
   LORBIT       =      0    0 simple, 1 ext, 2 COOP (PROOUT), +10 PAW based schemes


 Dipole corrections
   LMONO  =      F    monopole corrections only (constant potential shift)
   LDIPOL =      F    correct potential (dipole corrections)
   IDIPOL =      0    1-x, 2-y, 3-z, 4-all directions 
   EPSILON=  1.0000000 bulk dielectric constant

 Exchange correlation treatment:
   GGA     =    PE    GGA type
   LEXCH   =     8    internal setting for exchange type
   LIBXC   =     F    Libxc                    
   VOSKOWN =     0    Vosko Wilk Nusair interpolation
   LHFCALC =     F    Hartree Fock is set to
   LHFONE  =     F    Hartree Fock one center treatment
   AEXX    =    0.0000 exact exchange contribution

 Linear response parameters
   LEPSILON=     F    determine dielectric tensor
   LRPA    =     F    only Hartree local field effects (RPA)
   LNABLA  =     F    use nabla operator in PAW spheres
   LVEL    =     F    velocity operator in full k-point grid
   CSHIFT  =0.1000    complex shift for real part using Kramers Kronig
   OMEGAMAX=  -1.0    maximum frequency
   DEG_THRESHOLD= 0.2000000E-02 threshold for treating states as degnerate
   RTIME   =   -0.100 relaxation time in fs
  (WPLASMAI=    0.000 imaginary part of plasma frequency in eV, 0.658/RTIME)
   DFIELD  = 0.0000000 0.0000000 0.0000000 field for delta impulse in time
 
  Optional k-point grid parameters
   LKPOINTS_OPT  =     F    use optional k-point grid
   KPOINTS_OPT_MODE=     1    mode for optional k-point grid
 
 Orbital magnetization related:
   ORBITALMAG=     F  switch on orbital magnetization
   LCHIMAG   =     F  perturbation theory with respect to B field
   DQ        =  0.001000  dq finite difference perturbation B field
   LLRAUG    =     F  two centre corrections for induced B field



--------------------------------------------------------------------------------------------------------


 conjugate gradient relaxation of ions
 charge density and potential will be updated during run
 spin polarized calculation
 Variant of blocked Davidson
 Davidson routine will perform the subspace rotation
 perform sub-space diagonalisation
    after iterative eigenvector-optimisation
 modified Broyden-mixing scheme, WC =      100.0
 initial mixing is a Kerker type mixing with AMIX =  0.4000 and BMIX =      1.0000
 Hartree-type preconditioning will be used
 using additional bands           20
 reciprocal scheme for non local part
 use partial core corrections
 calculate Harris-corrections to forces 
   (improved forces if not selfconsistent)
 use gradient corrections 
 use of overlap-Matrix (Vanderbilt PP)
 Gauss-broadening in eV      SIGMA  =   0.10


--------------------------------------------------------------------------------------------------------


  energy-cutoff  :      450.00
  volume of cell :      324.76
      direct lattice vectors                 reciprocal lattice vectors
     4.330127885  2.500000500  0.000000000     0.115470031  0.199999960  0.000000000
    -4.330127885  2.500000500  0.000000000    -0.115470031  0.199999960  0.000000000
     0.000000000  0.000000000 15.000000000     0.000000000  0.000000000  0.066666667

  length of vectors
     5.000001000  5.000001000 15.000000000     0.230940061  0.230940061  0.066666667


 
 k-points in units of 2pi/SCALE and weight: k-points                                
   0.00000000  0.00000000  0.00000000       0.007
   0.00962250  0.01666666  0.00000000       0.028
  -0.01924501  0.00000000  0.00000000       0.014
   0.01924501  0.03333333  0.00000000       0.028
  -0.03849001  0.00000000  0.00000000       0.014
   0.02886751  0.04999999  0.00000000       0.028
  -0.05773502 -0.00000000  0.00000000       0.014
   0.03849001  0.06666665  0.00000000       0.028
  -0.07698002  0.00000000  0.00000000       0.014
   0.04811251  0.08333332  0.00000000       0.028
  -0.09622503  0.00000000  0.00000000       0.014
   0.05773502  0.09999998  0.00000000       0.014
   0.00000000  0.19999996  0.00000000       0.007
  -0.00000000  0.03333333  0.00000000       0.014
  -0.02886751  0.01666666  0.00000000       0.028
   0.00962250  0.04999999  0.00000000       0.028
  -0.03849001  0.03333333  0.00000000       0.028
  -0.04811251 -0.01666666  0.00000000       0.028
   0.01924501  0.06666665  0.00000000       0.028
  -0.04811251  0.04999999  0.00000000       0.028
  -0.06735752 -0.01666666  0.00000000       0.028
   0.02886751  0.08333332  0.00000000       0.028
  -0.05773502  0.06666665  0.00000000       0.028
  -0.08660252 -0.01666666  0.00000000       0.028
   0.03849001  0.09999998  0.00000000       0.028
  -0.06735752  0.08333332  0.00000000       0.028
   0.00962250  0.18333330  0.00000000       0.028
  -0.00000000  0.06666665  0.00000000       0.014
  -0.05773502  0.03333333  0.00000000       0.028
   0.00962250  0.08333332  0.00000000       0.028
  -0.06735752  0.04999999  0.00000000       0.028
  -0.07698002 -0.03333333  0.00000000       0.028
   0.01924501  0.09999998  0.00000000       0.028
  -0.07698002  0.06666665  0.00000000       0.028
   0.01924501  0.16666663  0.00000000       0.028
   0.02886751  0.11666664  0.00000000       0.028
   0.00000000  0.16666663  0.00000000       0.014
   0.00000000  0.09999998  0.00000000       0.014
  -0.08660252  0.04999999  0.00000000       0.028
   0.00962250  0.11666664  0.00000000       0.028
   0.01924501 -0.13333331  0.00000000       0.028
   0.00962250  0.14999997  0.00000000       0.028
  -0.00000000  0.13333331  0.00000000       0.014
 
 k-points in reciprocal lattice and weights: k-points                                
   0.00000000  0.00000000  0.00000000       0.007
   0.08333333 -0.00000000  0.00000000       0.028
  -0.08333333  0.08333333  0.00000000       0.014
   0.16666667 -0.00000000  0.00000000       0.028
  -0.16666667  0.16666667  0.00000000       0.014
   0.25000000 -0.00000000  0.00000000       0.028
  -0.25000000  0.25000000  0.00000000       0.014
   0.33333333 -0.00000000  0.00000000       0.028
  -0.33333333  0.33333333  0.00000000       0.014
   0.41666667  0.00000000  0.00000000       0.028
  -0.41666667  0.41666667  0.00000000       0.014
   0.50000000 -0.00000000  0.00000000       0.014
   0.50000000  0.50000000  0.00000000       0.007
   0.08333333  0.08333333  0.00000000       0.014
  -0.08333333  0.16666667  0.00000000       0.028
   0.16666667  0.08333333  0.00000000       0.028
  -0.08333333  0.25000000  0.00000000       0.028
  -0.25000000  0.16666667  0.00000000       0.028
   0.25000000  0.08333333  0.00000000       0.028
  -0.08333333  0.33333333  0.00000000       0.028
  -0.33333333  0.25000000  0.00000000       0.028
   0.33333333  0.08333333  0.00000000       0.028
  -0.08333333  0.41666667  0.00000000       0.028
  -0.41666667  0.33333333  0.00000000       0.028
   0.41666667  0.08333333  0.00000000       0.028
  -0.08333333  0.50000000  0.00000000       0.028
   0.50000000  0.41666667  0.00000000       0.028
   0.16666667  0.16666667  0.00000000       0.014
  -0.16666667  0.33333333  0.00000000       0.028
   0.25000000  0.16666667  0.00000000       0.028
  -0.16666667  0.41666667  0.00000000       0.028
  -0.41666667  0.25000000  0.00000000       0.028
   0.33333333  0.16666667  0.00000000       0.028
  -0.16666667  0.50000000  0.00000000       0.028
   0.50000000  0.33333333  0.00000000       0.028
   0.41666667  0.16666667  0.00000000       0.028
   0.41666667  0.41666667  0.00000000       0.014
   0.25000000  0.25000000  0.00000000       0.014
  -0.25000000  0.50000000  0.00000000       0.028
   0.33333333  0.25000000  0.00000000       0.028
  -0.25000000 -0.41666667  0.00000000       0.028
   0.41666667  0.33333333  0.00000000       0.028
   0.33333333  0.33333333  0.00000000       0.014
 
 position of ions in fractional coordinates (direct lattice) 
   0.66888689  0.00000000  0.10000000
   0.33111211  0.00000000  0.10000000
   0.00000000  0.33111211  0.10000000
   0.00000000  0.66888689  0.10000000
   0.33111211  0.33111211  0.10000000
   0.66888689  0.66888689  0.10000000
   0.66666600  0.33333300  0.09922189
   0.33333300  0.66666600  0.10077811
   0.24999933  0.24999967  0.46906667
   0.41666633  0.08333267  0.46906667
   0.24999933  0.74999967  0.46906667
   0.41666633  0.58333267  0.46906667
   0.74999933  0.24999967  0.46906667
   0.91666633  0.08333267  0.46906667
   0.74999933  0.74999967  0.46906667
   0.91666633  0.58333267  0.46906667
 
 position of ions in cartesian coordinates  (Angst):
   2.89636577  1.67221755  1.50000000
   1.43375779  0.82778045  1.50000000
  -1.43375779  0.82778045  1.50000000
  -2.89636577  1.67221755  1.50000000
   0.00000000  1.65556089  1.50000000
  -0.00000000  3.34443511  1.50000000
   1.44337452  2.49999800  1.48832830
  -1.44337452  2.49999800  1.51167170
  -0.00000144  1.24999775  7.03600000
   1.44337741  1.24999775  7.03600000
  -2.16506539  2.49999800  7.03600000
  -0.72168654  2.49999800  7.03600000
   2.16506250  2.49999800  7.03600000
   3.60844135  2.49999800  7.03600000
  -0.00000144  3.74999825  7.03600000
   1.44337741  3.74999825  7.03600000
 


--------------------------------------------------------------------------------------------------------


 k-point   1 :   0.0000 0.0000 0.0000  plane waves:    7089
 k-point   2 :   0.0833-0.0000 0.0000  plane waves:    7053
 k-point   3 :  -0.0833 0.0833 0.0000  plane waves:    7053
 k-point   4 :   0.1667-0.0000 0.0000  plane waves:    7049
 k-point   5 :  -0.1667 0.1667 0.0000  plane waves:    7049
 k-point   6 :   0.2500-0.0000 0.0000  plane waves:    7051
 k-point   7 :  -0.2500 0.2500 0.0000  plane waves:    7051
 k-point   8 :   0.3333-0.0000 0.0000  plane waves:    7021
 k-point   9 :  -0.3333 0.3333 0.0000  plane waves:    7021
 k-point  10 :   0.4167 0.0000 0.0000  plane waves:    7027
 k-point  11 :  -0.4167 0.4167 0.0000  plane waves:    7027
 k-point  12 :   0.5000-0.0000 0.0000  plane waves:    7054
 k-point  13 :   0.5000 0.5000 0.0000  plane waves:    7054
 k-point  14 :   0.0833 0.0833 0.0000  plane waves:    7037
 k-point  15 :  -0.0833 0.1667 0.0000  plane waves:    7037
 k-point  16 :   0.1667 0.0833 0.0000  plane waves:    7062
 k-point  17 :  -0.0833 0.2500 0.0000  plane waves:    7062
 k-point  18 :  -0.2500 0.1667 0.0000  plane waves:    7062
 k-point  19 :   0.2500 0.0833 0.0000  plane waves:    7051
 k-point  20 :  -0.0833 0.3333 0.0000  plane waves:    7051
 k-point  21 :  -0.3333 0.2500 0.0000  plane waves:    7051
 k-point  22 :   0.3333 0.0833 0.0000  plane waves:    7044
 k-point  23 :  -0.0833 0.4167 0.0000  plane waves:    7044
 k-point  24 :  -0.4167 0.3333 0.0000  plane waves:    7044
 k-point  25 :   0.4167 0.0833 0.0000  plane waves:    7039
 k-point  26 :  -0.0833 0.5000 0.0000  plane waves:    7039
 k-point  27 :   0.5000 0.4167 0.0000  plane waves:    7039
 k-point  28 :   0.1667 0.1667 0.0000  plane waves:    7053
 k-point  29 :  -0.1667 0.3333 0.0000  plane waves:    7053
 k-point  30 :   0.2500 0.1667 0.0000  plane waves:    7041
 k-point  31 :  -0.1667 0.4167 0.0000  plane waves:    7041
 k-point  32 :  -0.4167 0.2500 0.0000  plane waves:    7041
 k-point  33 :   0.3333 0.1667 0.0000  plane waves:    7023
 k-point  34 :  -0.1667 0.5000 0.0000  plane waves:    7023
 k-point  35 :   0.5000 0.3333 0.0000  plane waves:    7023
 k-point  36 :   0.4167 0.1667 0.0000  plane waves:    7008
 k-point  37 :   0.4167 0.4167 0.0000  plane waves:    7008
 k-point  38 :   0.2500 0.2500 0.0000  plane waves:    7029
 k-point  39 :  -0.2500 0.5000 0.0000  plane waves:    7029
 k-point  40 :   0.3333 0.2500 0.0000  plane waves:    7008
 k-point  41 :  -0.2500-0.4167 0.0000  plane waves:    7008
 k-point  42 :   0.4167 0.3333 0.0000  plane waves:    7008
 k-point  43 :   0.3333 0.3333 0.0000  plane waves:    6972

 maximum and minimum number of plane-waves per node :      7089     6972

 maximum number of plane-waves:      7089
 maximum index in each direction: 
   IXMAX=    9   IYMAX=    9   IZMAX=   25
   IXMIN=   -9   IYMIN=   -9   IZMIN=  -25


 serial   3D FFT for wavefunctions
 parallel 3D FFT for charge:
    minimum data exchange during FFTs selected (reduces bandwidth)


 total amount of memory used by VASP MPI-rank0    96295. kBytes
=======================================================================

   base      :      30000. kBytes
   nonl-proj :      40919. kBytes
   fftplans  :       1560. kBytes
   grid      :      13745. kBytes
   one-center:         98. kBytes
   wavefun   :       9973. kBytes
 
     INWAV:  cpu time      0.0000: real time      0.0000
 Broyden mixing: mesh for mixing (old mesh)
   NGX = 17   NGY = 17   NGZ = 51
  (NGX  = 72   NGY  = 72   NGZ  =216)
  gives a total of  14739 points

 initial charge density was supplied:
 charge density of overlapping atoms calculated
 number of electron      56.0000000 magnetization      16.0000000
 keeping initial charge density in first step


--------------------------------------------------------------------------------------------------------


 Maximum index for augmentation-charges          384 (set IRDMAX)


--------------------------------------------------------------------------------------------------------


 First call to EWALD:  gamma=   0.258
 Maximum number of real-space cells 4x 4x 2
 Maximum number of reciprocal cells 2x 2x 5

    FEWALD:  cpu time      0.0019: real time      0.0022


--------------------------------------- Iteration      1(   1)  ---------------------------------------


    POTLOK:  cpu time      0.0436: real time      0.0456
    SETDIJ:  cpu time      0.0042: real time      0.0043
     EDDAV:  cpu time      3.2798: real time      3.3236
       DOS:  cpu time      0.0020: real time      0.0026
    --------------------------------------------
      LOOP:  cpu time      3.3297: real time      3.3761

 eigenvalue-minimisations  :  8256
 total energy-change (2. order) : 0.1862906E+03  (-0.2525678E+04)
 number of electron      56.0000000 magnetization      16.0000000
 augmentation part       56.0000000 magnetization      16.0000000

 Free energy of the ion-electron system (eV)
  ---------------------------------------------------
  alpha Z        PSCENC =        59.96383161
  Ewald energy   TEWEN  =      1846.02016126
  -Hartree energ DENC   =     -3263.31692313
  -exchange      EXHF   =         0.00000000
  -V(xc)+E(xc)   XCENC  =       163.07937887
  PAW double counting   =      1214.24570090    -1211.68112031
  entropy T*S    EENTRO =        -0.01977717
  eigenvalues    EBANDS =      -368.50617639
  atomic energy  EATOM  =      1746.50554237
  Solvation  Ediel_sol  =         0.00000000
  ---------------------------------------------------
  free energy    TOTEN  =       186.29061800 eV

  energy without entropy =      186.31039517  energy(sigma->0) =      186.30050659


--------------------------------------------------------------------------------------------------------




--------------------------------------- Iteration      1(   2)  ---------------------------------------


     EDDAV:  cpu time      5.2709: real time      5.3396
       DOS:  cpu time      0.0010: real time      0.0010
    --------------------------------------------
      LOOP:  cpu time      5.2718: real time      5.3407

 eigenvalue-minimisations  : 12960
 total energy-change (2. order) :-0.3044850E+03  (-0.3036485E+03)
 number of electron      56.0000000 magnetization      16.0000000
 augmentation part       56.0000000 magnetization      16.0000000

 Free energy of the ion-electron system (eV)
  ---------------------------------------------------
  alpha Z        PSCENC =        59.96383161
  Ewald energy   TEWEN  =      1846.02016126
  -Hartree energ DENC   =     -3263.31692313
  -exchange      EXHF   =         0.00000000
  -V(xc)+E(xc)   XCENC  =       163.07937887
  PAW double counting   =      1214.24570090    -1211.68112031
  entropy T*S    EENTRO =        -0.01136961
  eigenvalues    EBANDS =      -672.99963182
  atomic energy  EATOM  =      1746.50554237
  Solvation  Ediel_sol  =         0.00000000
  ---------------------------------------------------
  free energy    TOTEN  =      -118.19442988 eV

  energy without entropy =     -118.18306027  energy(sigma->0) =     -118.18874507


--------------------------------------------------------------------------------------------------------




--------------------------------------- Iteration      1(   3)  ---------------------------------------


     EDDAV:  cpu time      5.9294: real time      5.9995
       DOS:  cpu time      0.0008: real time      0.0008
    --------------------------------------------
      LOOP:  cpu time      5.9302: real time      6.0004

 eigenvalue-minimisations  : 14016
 total energy-change (2. order) :-0.9357347E+01  (-0.9330839E+01)
 number of electron      56.0000000 magnetization      16.0000000
 augmentation part       56.0000000 magnetization      16.0000000

 Free energy of the ion-electron system (eV)
  ---------------------------------------------------
  alpha Z        PSCENC =        59.96383161
  Ewald energy   TEWEN  =      1846.02016126
  -Hartree energ DENC   =     -3263.31692313
  -exchange      EXHF   =         0.00000000
  -V(xc)+E(xc)   XCENC  =       163.07937887
  PAW double counting   =      1214.24570090    -1211.68112031
  entropy T*S    EENTRO =        -0.01263791
  eigenvalues    EBANDS =      -682.35571094
  atomic energy  EATOM  =      1746.50554237
  Solvation  Ediel_sol  =         0.00000000
  ---------------------------------------------------
  free energy    TOTEN  =      -127.55177729 eV

  energy without entropy =     -127.53913938  energy(sigma->0) =     -127.54545834


--------------------------------------------------------------------------------------------------------




--------------------------------------- Iteration      1(   4)  ---------------------------------------


     EDDAV:  cpu time      5.2157: real time      5.2772
       DOS:  cpu time      0.0011: real time      0.0011
    --------------------------------------------
      LOOP:  cpu time      5.2168: real time      5.2783

 eigenvalue-minimisations  : 12384
 total energy-change (2. order) :-0.2749247E-01  (-0.2749142E-01)
 number of electron      56.0000000 magnetization      16.0000000
 augmentation part       56.0000000 magnetization      16.0000000

 Free energy of the ion-electron system (eV)
  ---------------------------------------------------
  alpha Z        PSCENC =        59.96383161
  Ewald energy   TEWEN  =      1846.02016126
  -Hartree energ DENC   =     -3263.31692313
  -exchange      EXHF   =         0.00000000
  -V(xc)+E(xc)   XCENC  =       163.07937887
  PAW double counting   =      1214.24570090    -1211.68112031
  entropy T*S    EENTRO =        -0.01260959
  eigenvalues    EBANDS =      -682.38323173
  atomic energy  EATOM  =      1746.50554237
  Solvation  Ediel_sol  =         0.00000000
  ---------------------------------------------------
  free energy    TOTEN  =      -127.57926976 eV

  energy without entropy =     -127.56666017  energy(sigma->0) =     -127.57296497


--------------------------------------------------------------------------------------------------------




--------------------------------------- Iteration      1(   5)  ---------------------------------------


     EDDAV:  cpu time      5.5968: real time      5.6606
       DOS:  cpu time      0.0008: real time      0.0008
    CHARGE:  cpu time      0.1773: real time      0.1984
    MIXING:  cpu time      0.0025: real time      0.0029
    --------------------------------------------
      LOOP:  cpu time      5.7774: real time      5.8628

 eigenvalue-minimisations  : 13152
 total energy-change (2. order) :-0.4181935E-04  (-0.4181931E-04)
 number of electron      55.9999990 magnetization      12.4614224
 augmentation part        0.8452324 magnetization      11.3199396

 Broyden mixing:
  rms(total) = 0.22523E+01    rms(broyden)= 0.22521E+01
  rms(prec ) = 0.24211E+01
  weight for this iteration     100.00

 Free energy of the ion-electron system (eV)
  ---------------------------------------------------
  alpha Z        PSCENC =        59.96383161
  Ewald energy   TEWEN  =      1846.02016126
  -Hartree energ DENC   =     -3263.31692313
  -exchange      EXHF   =         0.00000000
  -V(xc)+E(xc)   XCENC  =       163.07937887
  PAW double counting   =      1214.24570090    -1211.68112031
  entropy T*S    EENTRO =        -0.01260976
  eigenvalues    EBANDS =      -682.38327338
  atomic energy  EATOM  =      1746.50554237
  Solvation  Ediel_sol  =         0.00000000
  ---------------------------------------------------
  free energy    TOTEN  =      -127.57931158 eV

  energy without entropy =     -127.56670182  energy(sigma->0) =     -127.57300670


--------------------------------------------------------------------------------------------------------




--------------------------------------- Iteration      1(   6)  ---------------------------------------


    POTLOK:  cpu time      0.0411: real time      0.0488
    SETDIJ:  cpu time      0.0035: real time      0.0037
     EDDAV:  cpu time      4.3520: real time      4.4002
       DOS:  cpu time      0.0008: real time      0.0008
    CHARGE:  cpu time      0.1837: real time      0.2033
    MIXING:  cpu time      0.0013: real time      0.0013
    --------------------------------------------
      LOOP:  cpu time      4.5826: real time      4.6582

 eigenvalue-minimisations  : 10560
 total energy-change (2. order) : 0.3316828E+02  (-0.5789676E+01)
 number of electron      55.9999991 magnetization       8.7126521
 augmentation part        0.8214329 magnetization       7.2556385

 Broyden mixing:
  rms(total) = 0.12238E+01    rms(broyden)= 0.12238E+01
  rms(prec ) = 0.13546E+01
  weight for this iteration     100.00

 eigenvalues of (default mixing * dielectric matrix)
  average eigenvalue GAMMA=   1.1023
  1.1023

 Free energy of the ion-electron system (eV)
  ---------------------------------------------------
  alpha Z        PSCENC =        59.96383161
  Ewald energy   TEWEN  =      1846.02016126
  -Hartree energ DENC   =     -3328.31047051
  -exchange      EXHF   =         0.00000000
  -V(xc)+E(xc)   XCENC  =       186.21155586
  PAW double counting   =      2488.32544089    -2486.96622164
  entropy T*S    EENTRO =        -0.01030205
  eigenvalues    EBANDS =      -606.15056963
  atomic energy  EATOM  =      1746.50554237
  Solvation  Ediel_sol  =         0.00000000
  ---------------------------------------------------
  free energy    TOTEN  =       -94.41103184 eV

  energy without entropy =      -94.40072980  energy(sigma->0) =      -94.40588082


--------------------------------------------------------------------------------------------------------




--------------------------------------- Iteration      1(   7)  ---------------------------------------


    POTLOK:  cpu time      0.0318: real time      0.0336
    SETDIJ:  cpu time      0.0034: real time      0.0034
     EDDAV:  cpu time      5.2890: real time      5.3488
       DOS:  cpu time      0.0008: real time      0.0008
    CHARGE:  cpu time      0.1909: real time      0.2228
    MIXING:  cpu time      0.0009: real time      0.0012
    --------------------------------------------
      LOOP:  cpu time      5.5168: real time      5.6106

 eigenvalue-minimisations  : 12576
 total energy-change (2. order) :-0.1119280E+02  (-0.1383160E+01)
 number of electron      55.9999991 magnetization       5.4112986
 augmentation part        0.7657099 magnetization       4.4924670

 Broyden mixing:
  rms(total) = 0.66695E+00    rms(broyden)= 0.66692E+00
  rms(prec ) = 0.70630E+00
  weight for this iteration     100.00

 eigenvalues of (default mixing * dielectric matrix)
  average eigenvalue GAMMA=   1.3288
  0.8593  1.7983

 Free energy of the ion-electron system (eV)
  ---------------------------------------------------
  alpha Z        PSCENC =        59.96383161
  Ewald energy   TEWEN  =      1846.02016126
  -Hartree energ DENC   =     -3403.29852317
  -exchange      EXHF   =         0.00000000
  -V(xc)+E(xc)   XCENC  =       178.48881155
  PAW double counting   =      4129.18404078    -4128.52045891
  entropy T*S    EENTRO =        -0.00954680
  eigenvalues    EBANDS =      -533.93769097
  atomic energy  EATOM  =      1746.50554237
  Solvation  Ediel_sol  =         0.00000000
  ---------------------------------------------------
  free energy    TOTEN  =      -105.60383229 eV

  energy without entropy =     -105.59428549  energy(sigma->0) =     -105.59905889


--------------------------------------------------------------------------------------------------------




--------------------------------------- Iteration      1(   8)  ---------------------------------------


    POTLOK:  cpu time      0.0318: real time      0.0356
    SETDIJ:  cpu time      0.0035: real time      0.0035
     EDDAV:  cpu time      5.1874: real time      5.2418
       DOS:  cpu time      0.0008: real time      0.0008
    CHARGE:  cpu time      0.1827: real time      0.1966
    MIXING:  cpu time      0.0009: real time      0.0008
    --------------------------------------------
      LOOP:  cpu time      5.4069: real time      5.4791

 eigenvalue-minimisations  : 12336
 total energy-change (2. order) :-0.5850652E+01  (-0.5116339E+00)
 number of electron      55.9999991 magnetization       3.7131116
 augmentation part        0.7287336 magnetization       3.1516449

 Broyden mixing:
  rms(total) = 0.37296E+00    rms(broyden)= 0.37293E+00
  rms(prec ) = 0.38673E+00
  weight for this iteration     100.00

 eigenvalues of (default mixing * dielectric matrix)
  average eigenvalue GAMMA=   1.3548
  2.3142  1.0575  0.6927

 Free energy of the ion-electron system (eV)
  ---------------------------------------------------
  alpha Z        PSCENC =        59.96383161
  Ewald energy   TEWEN  =      1846.02016126
  -Hartree energ DENC   =     -3448.31529041
  -exchange      EXHF   =         0.00000000
  -V(xc)+E(xc)   XCENC  =       175.92914371
  PAW double counting   =      5434.75143840    -5434.34438896
  entropy T*S    EENTRO =        -0.00950136
  eigenvalues    EBANDS =      -491.95542140
  atomic energy  EATOM  =      1746.50554237
  Solvation  Ediel_sol  =         0.00000000
  ---------------------------------------------------
  free energy    TOTEN  =      -111.45448479 eV

  energy without entropy =     -111.44498343  energy(sigma->0) =     -111.44973411


--------------------------------------------------------------------------------------------------------




--------------------------------------- Iteration      1(   9)  ---------------------------------------


    POTLOK:  cpu time      0.0306: real time      0.0312
    SETDIJ:  cpu time      0.0033: real time      0.0033
     EDDAV:  cpu time      4.1741: real time      4.2178
       DOS:  cpu time      0.0007: real time      0.0007
    CHARGE:  cpu time      0.1859: real time      0.1930
    MIXING:  cpu time      0.0008: real time      0.0008
    --------------------------------------------
      LOOP:  cpu time      4.3955: real time      4.4468

 eigenvalue-minimisations  : 10272
 total energy-change (2. order) :-0.5268391E+01  (-0.2772495E+00)
 number of electron      55.9999991 magnetization       1.9943105
 augmentation part        0.7177339 magnetization       1.6627892

 Broyden mixing:
  rms(total) = 0.25264E+00    rms(broyden)= 0.25262E+00
  rms(prec ) = 0.26356E+00
  weight for this iteration     100.00

 eigenvalues of (default mixing * dielectric matrix)
  average eigenvalue GAMMA=   1.4148
  2.6611  1.5041  0.8744  0.6198

 Free energy of the ion-electron system (eV)
  ---------------------------------------------------
  alpha Z        PSCENC =        59.96383161
  Ewald energy   TEWEN  =      1846.02016126
  -Hartree energ DENC   =     -3457.48750131
  -exchange      EXHF   =         0.00000000
  -V(xc)+E(xc)   XCENC  =       172.83114089
  PAW double counting   =      5769.66001759    -5769.18807491
  entropy T*S    EENTRO =        -0.00279970
  eigenvalues    EBANDS =      -485.02519380
  atomic energy  EATOM  =      1746.50554237
  Solvation  Ediel_sol  =         0.00000000
  ---------------------------------------------------
  free energy    TOTEN  =      -116.72287600 eV

  energy without entropy =     -116.72007631  energy(sigma->0) =     -116.72147615


--------------------------------------------------------------------------------------------------------




--------------------------------------- Iteration      1(  10)  ---------------------------------------


    POTLOK:  cpu time      0.0297: real time      0.0299
    SETDIJ:  cpu time      0.0033: real time      0.0034
     EDDAV:  cpu time      5.1562: real time      5.2578
       DOS:  cpu time      0.0008: real time      0.0008
    CHARGE:  cpu time      0.1811: real time      0.1899
    MIXING:  cpu time      0.0010: real time      0.0010
    --------------------------------------------
      LOOP:  cpu time      5.3721: real time      5.4828

 eigenvalue-minimisations  : 12192
 total energy-change (2. order) :-0.4168255E+01  (-0.3231470E+00)
 number of electron      55.9999991 magnetization       1.0600401
 augmentation part        0.7139367 magnetization       0.8644414

 Broyden mixing:
  rms(total) = 0.13483E+00    rms(broyden)= 0.13481E+00
  rms(prec ) = 0.14368E+00
  weight for this iteration     100.00

 eigenvalues of (default mixing * dielectric matrix)
  average eigenvalue GAMMA=   1.5235
  3.0185  2.1308  1.0623  0.8068  0.5990

 Free energy of the ion-electron system (eV)
  ---------------------------------------------------
  alpha Z        PSCENC =        59.96383161
  Ewald energy   TEWEN  =      1846.02016126
  -Hartree energ DENC   =     -3459.51351030
  -exchange      EXHF   =         0.00000000
  -V(xc)+E(xc)   XCENC  =       170.22402947
  PAW double counting   =      5878.29960459    -5877.67403705
  entropy T*S    EENTRO =        -0.00478571
  eigenvalues    EBANDS =      -484.71196716
  atomic energy  EATOM  =      1746.50554237
  Solvation  Ediel_sol  =         0.00000000
  ---------------------------------------------------
  free energy    TOTEN  =      -120.89113095 eV

  energy without entropy =     -120.88634524  energy(sigma->0) =     -120.88873810


--------------------------------------------------------------------------------------------------------




--------------------------------------- Iteration      1(  11)  ---------------------------------------


    POTLOK:  cpu time      0.0304: real time      0.0307
    SETDIJ:  cpu time      0.0033: real time      0.0034
     EDDAV:  cpu time      4.8829: real time      4.9315
       DOS:  cpu time      0.0008: real time      0.0008
    CHARGE:  cpu time      0.1807: real time      0.1876
    MIXING:  cpu time      0.0010: real time      0.0010
    --------------------------------------------
      LOOP:  cpu time      5.0992: real time      5.1551

 eigenvalue-minimisations  : 11856
 total energy-change (2. order) :-0.1878586E+01  (-0.1469308E+00)
 number of electron      55.9999991 magnetization       0.4388800
 augmentation part        0.7126666 magnetization       0.3413829

 Broyden mixing:
  rms(total) = 0.81749E-01    rms(broyden)= 0.81734E-01
  rms(prec ) = 0.91171E-01
  weight for this iteration     100.00

 eigenvalues of (default mixing * dielectric matrix)
  average eigenvalue GAMMA=   1.5732
  3.4339  2.3398  1.3024  1.0004  0.7620  0.6006

 Free energy of the ion-electron system (eV)
  ---------------------------------------------------
  alpha Z        PSCENC =        59.96383161
  Ewald energy   TEWEN  =      1846.02016126
  -Hartree energ DENC   =     -3458.67306805
  -exchange      EXHF   =         0.00000000
  -V(xc)+E(xc)   XCENC  =       169.01735128
  PAW double counting   =      5821.11058793    -5820.41912598
  entropy T*S    EENTRO =        -0.00322462
  eigenvalues    EBANDS =      -486.29177302
  atomic energy  EATOM  =      1746.50554237
  Solvation  Ediel_sol  =         0.00000000
  ---------------------------------------------------
  free energy    TOTEN  =      -122.76971723 eV

  energy without entropy =     -122.76649261  energy(sigma->0) =     -122.76810492


--------------------------------------------------------------------------------------------------------




--------------------------------------- Iteration      1(  12)  ---------------------------------------


    POTLOK:  cpu time      0.0423: real time      0.0444
    SETDIJ:  cpu time      0.0033: real time      0.0033
     EDDAV:  cpu time      5.5146: real time      5.6139
       DOS:  cpu time      0.0010: real time      0.0010
    CHARGE:  cpu time      0.1812: real time      0.1871
    MIXING:  cpu time      0.0009: real time      0.0009
    --------------------------------------------
      LOOP:  cpu time      5.7433: real time      5.8505

 eigenvalue-minimisations  : 13200
 total energy-change (2. order) :-0.9876849E+00  (-0.7898034E-01)
 number of electron      55.9999991 magnetization       0.1403551
 augmentation part        0.7116396 magnetization       0.0848969

 Broyden mixing:
  rms(total) = 0.40364E-01    rms(broyden)= 0.40356E-01
  rms(prec ) = 0.50104E-01
  weight for this iteration     100.00

 eigenvalues of (default mixing * dielectric matrix)
  average eigenvalue GAMMA=   1.6853
  4.1651  2.3561  2.0319  1.0936  0.8289  0.7148  0.6070

 Free energy of the ion-electron system (eV)
  ---------------------------------------------------
  alpha Z        PSCENC =        59.96383161
  Ewald energy   TEWEN  =      1846.02016126
  -Hartree energ DENC   =     -3456.98049306
  -exchange      EXHF   =         0.00000000
  -V(xc)+E(xc)   XCENC  =       168.27144692
  PAW double counting   =      5721.59139553    -5720.89797307
  entropy T*S    EENTRO =        -0.00453247
  eigenvalues    EBANDS =      -488.22678120
  atomic energy  EATOM  =      1746.50554237
  Solvation  Ediel_sol  =         0.00000000
  ---------------------------------------------------
  free energy    TOTEN  =      -123.75740212 eV

  energy without entropy =     -123.75286965  energy(sigma->0) =     -123.75513588


--------------------------------------------------------------------------------------------------------




--------------------------------------- Iteration      1(  13)  ---------------------------------------


    POTLOK:  cpu time      0.0310: real time      0.0312
    SETDIJ:  cpu time      0.0035: real time      0.0035
     EDDAV:  cpu time      5.0124: real time      5.0581
       DOS:  cpu time      0.0008: real time      0.0008
    CHARGE:  cpu time      0.1788: real time      0.1888
    MIXING:  cpu time      0.0010: real time      0.0010
    --------------------------------------------
      LOOP:  cpu time      5.2275: real time      5.2834

 eigenvalue-minimisations  : 12000
 total energy-change (2. order) :-0.3064579E+00  (-0.1913486E-01)
 number of electron      55.9999991 magnetization       0.0590477
 augmentation part        0.7111097 magnetization       0.0353090

 Broyden mixing:
  rms(total) = 0.19494E-01    rms(broyden)= 0.19486E-01
  rms(prec ) = 0.28166E-01
  weight for this iteration     100.00

 eigenvalues of (default mixing * dielectric matrix)
  average eigenvalue GAMMA=   1.6771
  4.4471  2.3078  2.3078  1.2167  1.0307  0.8113  0.6139  0.6817

 Free energy of the ion-electron system (eV)
  ---------------------------------------------------
  alpha Z        PSCENC =        59.96383161
  Ewald energy   TEWEN  =      1846.02016126
  -Hartree energ DENC   =     -3455.98983502
  -exchange      EXHF   =         0.00000000
  -V(xc)+E(xc)   XCENC  =       167.97878880
  PAW double counting   =      5682.06537251    -5681.38576408
  entropy T*S    EENTRO =        -0.00602400
  eigenvalues    EBANDS =      -489.21593351
  atomic energy  EATOM  =      1746.50554237
  Solvation  Ediel_sol  =         0.00000000
  ---------------------------------------------------
  free energy    TOTEN  =      -124.06386006 eV

  energy without entropy =     -124.05783607  energy(sigma->0) =     -124.06084807


--------------------------------------------------------------------------------------------------------




--------------------------------------- Iteration      1(  14)  ---------------------------------------


    POTLOK:  cpu time      0.0303: real time      0.0306
    SETDIJ:  cpu time      0.0030: real time      0.0032
     EDDAV:  cpu time      4.5374: real time      4.5851
       DOS:  cpu time      0.0008: real time      0.0008
    CHARGE:  cpu time      0.1810: real time      0.1857
    MIXING:  cpu time      0.0010: real time      0.0010
    --------------------------------------------
      LOOP:  cpu time      4.7535: real time      4.8063

 eigenvalue-minimisations  : 10992
 total energy-change (2. order) :-0.5434161E-01  (-0.3010912E-02)
 number of electron      55.9999991 magnetization       0.0118927
 augmentation part        0.7110448 magnetization       0.0015204

 Broyden mixing:
  rms(total) = 0.10819E-01    rms(broyden)= 0.10817E-01
  rms(prec ) = 0.18695E-01
  weight for this iteration     100.00

 eigenvalues of (default mixing * dielectric matrix)
  average eigenvalue GAMMA=   1.6863
  4.5693  2.4914  2.4914  1.5860  1.1057  0.8683  0.7874  0.6196  0.6581

 Free energy of the ion-electron system (eV)
  ---------------------------------------------------
  alpha Z        PSCENC =        59.96383161
  Ewald energy   TEWEN  =      1846.02016126
  -Hartree energ DENC   =     -3455.27096925
  -exchange      EXHF   =         0.00000000
  -V(xc)+E(xc)   XCENC  =       167.89913056
  PAW double counting   =      5687.40312204    -5686.72834281
  entropy T*S    EENTRO =        -0.00610587
  eigenvalues    EBANDS =      -489.90457156
  atomic energy  EATOM  =      1746.50554237
  Solvation  Ediel_sol  =         0.00000000
  ---------------------------------------------------
  free energy    TOTEN  =      -124.11820168 eV

  energy without entropy =     -124.11209580  energy(sigma->0) =     -124.11514874


--------------------------------------------------------------------------------------------------------




--------------------------------------- Iteration      1(  15)  ---------------------------------------


    POTLOK:  cpu time      0.0304: real time      0.0309
    SETDIJ:  cpu time      0.0033: real time      0.0033
     EDDAV:  cpu time      3.9987: real time      4.0389
       DOS:  cpu time      0.0008: real time      0.0008
    CHARGE:  cpu time      0.1795: real time      0.1867
    MIXING:  cpu time      0.0011: real time      0.0011
    --------------------------------------------
      LOOP:  cpu time      4.2138: real time      4.2617

 eigenvalue-minimisations  :  9888
 total energy-change (2. order) :-0.2301559E-01  (-0.1435045E-02)
 number of electron      55.9999991 magnetization      -0.0051653
 augmentation part        0.7112989 magnetization      -0.0075118

 Broyden mixing:
  rms(total) = 0.57638E-02    rms(broyden)= 0.57632E-02
  rms(prec ) = 0.96659E-02
  weight for this iteration     100.00

 eigenvalues of (default mixing * dielectric matrix)
  average eigenvalue GAMMA=   1.6823
  4.6518  2.7012  2.7012  1.8394  1.1276  1.0075  0.8242  0.7196  0.6253  0.6253

 Free energy of the ion-electron system (eV)
  ---------------------------------------------------
  alpha Z        PSCENC =        59.96383161
  Ewald energy   TEWEN  =      1846.02016126
  -Hartree energ DENC   =     -3454.34381627
  -exchange      EXHF   =         0.00000000
  -V(xc)+E(xc)   XCENC  =       167.82467385
  PAW double counting   =      5683.37769485    -5682.70592249
  entropy T*S    EENTRO =        -0.00609399
  eigenvalues    EBANDS =      -490.77728845
  atomic energy  EATOM  =      1746.50554237
  Solvation  Ediel_sol  =         0.00000000
  ---------------------------------------------------
  free energy    TOTEN  =      -124.14121727 eV

  energy without entropy =     -124.13512328  energy(sigma->0) =     -124.13817027


--------------------------------------------------------------------------------------------------------




--------------------------------------- Iteration      1(  16)  ---------------------------------------


    POTLOK:  cpu time      0.0294: real time      0.0296
    SETDIJ:  cpu time      0.0034: real time      0.0034
     EDDAV:  cpu time      4.0170: real time      4.0576
       DOS:  cpu time      0.0008: real time      0.0008
    CHARGE:  cpu time      0.1766: real time      0.1853
    MIXING:  cpu time      0.0012: real time      0.0012
    --------------------------------------------
      LOOP:  cpu time      4.2285: real time      4.2779

 eigenvalue-minimisations  :  9888
 total energy-change (2. order) :-0.1516753E-02  (-0.2297908E-03)
 number of electron      55.9999991 magnetization      -0.0009337
 augmentation part        0.7115712 magnetization      -0.0014720

 Broyden mixing:
  rms(total) = 0.36379E-02    rms(broyden)= 0.36375E-02
  rms(prec ) = 0.51959E-02
  weight for this iteration     100.00

 eigenvalues of (default mixing * dielectric matrix)
  average eigenvalue GAMMA=   1.7084
  4.6269  2.9563  2.9563  2.0322  1.4198  1.0986  0.9588  0.8145  0.6888  0.6203
  0.6203

 Free energy of the ion-electron system (eV)
  ---------------------------------------------------
  alpha Z        PSCENC =        59.96383161
  Ewald energy   TEWEN  =      1846.02016126
  -Hartree energ DENC   =     -3454.05245426
  -exchange      EXHF   =         0.00000000
  -V(xc)+E(xc)   XCENC  =       167.79509742
  PAW double counting   =      5682.89200529    -5682.21976694
  entropy T*S    EENTRO =        -0.00606007
  eigenvalues    EBANDS =      -491.04109069
  atomic energy  EATOM  =      1746.50554237
  Solvation  Ediel_sol  =         0.00000000
  ---------------------------------------------------
  free energy    TOTEN  =      -124.14273402 eV

  energy without entropy =     -124.13667395  energy(sigma->0) =     -124.13970398


--------------------------------------------------------------------------------------------------------




--------------------------------------- Iteration      1(  17)  ---------------------------------------


    POTLOK:  cpu time      0.0298: real time      0.0301
    SETDIJ:  cpu time      0.0033: real time      0.0033
     EDDAV:  cpu time      3.5915: real time      3.6268
       DOS:  cpu time      0.0008: real time      0.0008
    CHARGE:  cpu time      0.1745: real time      0.1850
    MIXING:  cpu time      0.0010: real time      0.0010
    --------------------------------------------
      LOOP:  cpu time      3.8009: real time      3.8470

 eigenvalue-minimisations  :  9072
 total energy-change (2. order) :-0.7128308E-03  (-0.7310244E-04)
 number of electron      55.9999991 magnetization      -0.0032904
 augmentation part        0.7115965 magnetization      -0.0037523

 Broyden mixing:
  rms(total) = 0.15412E-02    rms(broyden)= 0.15411E-02
  rms(prec ) = 0.27462E-02
  weight for this iteration     100.00

 eigenvalues of (default mixing * dielectric matrix)
  average eigenvalue GAMMA=   1.7223
  4.6962  3.7430  2.5253  2.3311  1.6473  1.1189  0.9425  0.9425  0.8038  0.6776
  0.6198  0.6198

 Free energy of the ion-electron system (eV)
  ---------------------------------------------------
  alpha Z        PSCENC =        59.96383161
  Ewald energy   TEWEN  =      1846.02016126
  -Hartree energ DENC   =     -3454.28574483
  -exchange      EXHF   =         0.00000000
  -V(xc)+E(xc)   XCENC  =       167.79742320
  PAW double counting   =      5686.35423615    -5685.68150315
  entropy T*S    EENTRO =        -0.00604612
  eigenvalues    EBANDS =      -490.81134733
  atomic energy  EATOM  =      1746.50554237
  Solvation  Ediel_sol  =         0.00000000
  ---------------------------------------------------
  free energy    TOTEN  =      -124.14344685 eV

  energy without entropy =     -124.13740073  energy(sigma->0) =     -124.14042379


--------------------------------------------------------------------------------------------------------




--------------------------------------- Iteration      1(  18)  ---------------------------------------


    POTLOK:  cpu time      0.0287: real time      0.0290
    SETDIJ:  cpu time      0.0032: real time      0.0032
     EDDAV:  cpu time      3.6850: real time      3.7216
       DOS:  cpu time      0.0008: real time      0.0008
    CHARGE:  cpu time      0.1754: real time      0.1861
    MIXING:  cpu time      0.0012: real time      0.0012
    --------------------------------------------
      LOOP:  cpu time      3.8943: real time      3.9420

 eigenvalue-minimisations  :  9120
 total energy-change (2. order) :-0.2408862E-04  (-0.1732109E-04)
 number of electron      55.9999991 magnetization      -0.0040239
 augmentation part        0.7116071 magnetization      -0.0039002

 Broyden mixing:
  rms(total) = 0.83925E-03    rms(broyden)= 0.83922E-03
  rms(prec ) = 0.15741E-02
  weight for this iteration     100.00

 eigenvalues of (default mixing * dielectric matrix)
  average eigenvalue GAMMA=   1.7451
  4.8965  3.9094  2.6086  2.6086  1.8206  1.2761  1.1117  1.0006  0.8201  0.7370
  0.6543  0.6123  0.6308

 Free energy of the ion-electron system (eV)
  ---------------------------------------------------
  alpha Z        PSCENC =        59.96383161
  Ewald energy   TEWEN  =      1846.02016126
  -Hartree energ DENC   =     -3454.41999937
  -exchange      EXHF   =         0.00000000
  -V(xc)+E(xc)   XCENC  =       167.79493388
  PAW double counting   =      5686.14329538    -5685.47098174
  entropy T*S    EENTRO =        -0.00605872
  eigenvalues    EBANDS =      -490.67419559
  atomic energy  EATOM  =      1746.50554237
  Solvation  Ediel_sol  =         0.00000000
  ---------------------------------------------------
  free energy    TOTEN  =      -124.14347094 eV

  energy without entropy =     -124.13741221  energy(sigma->0) =     -124.14044158


--------------------------------------------------------------------------------------------------------




--------------------------------------- Iteration      1(  19)  ---------------------------------------


    POTLOK:  cpu time      0.0322: real time      0.0379
    SETDIJ:  cpu time      0.0033: real time      0.0033
     EDDAV:  cpu time      3.4194: real time      3.4513
       DOS:  cpu time      0.0008: real time      0.0008
    CHARGE:  cpu time      0.1801: real time      0.1861
    MIXING:  cpu time      0.0011: real time      0.0011
    --------------------------------------------
      LOOP:  cpu time      3.6369: real time      3.6806

 eigenvalue-minimisations  :  8544
 total energy-change (2. order) :-0.4696810E-04  (-0.3747498E-05)
 number of electron      55.9999991 magnetization      -0.0027322
 augmentation part        0.7115979 magnetization      -0.0023883

 Broyden mixing:
  rms(total) = 0.49808E-03    rms(broyden)= 0.49806E-03
  rms(prec ) = 0.10597E-02
  weight for this iteration     100.00

 eigenvalues of (default mixing * dielectric matrix)
  average eigenvalue GAMMA=   1.7106
  4.9152  3.8294  2.7512  2.7512  1.8709  1.3907  1.1577  0.9400  0.9400  0.8058
  0.7031  0.6544  0.6109  0.6279

 Free energy of the ion-electron system (eV)
  ---------------------------------------------------
  alpha Z        PSCENC =        59.96383161
  Ewald energy   TEWEN  =      1846.02016126
  -Hartree energ DENC   =     -3454.57977969
  -exchange      EXHF   =         0.00000000
  -V(xc)+E(xc)   XCENC  =       167.79718608
  PAW double counting   =      5685.88855214    -5685.21621295
  entropy T*S    EENTRO =        -0.00606362
  eigenvalues    EBANDS =      -490.51673509
  atomic energy  EATOM  =      1746.50554237
  Solvation  Ediel_sol  =         0.00000000
  ---------------------------------------------------
  free energy    TOTEN  =      -124.14351791 eV

  energy without entropy =     -124.13745428  energy(sigma->0) =     -124.14048609


--------------------------------------------------------------------------------------------------------




--------------------------------------- Iteration      1(  20)  ---------------------------------------


    POTLOK:  cpu time      0.0296: real time      0.0316
    SETDIJ:  cpu time      0.0034: real time      0.0034
     EDDAV:  cpu time      3.5520: real time      3.5839
       DOS:  cpu time      0.0009: real time      0.0009
    CHARGE:  cpu time      0.1792: real time      0.1864
    MIXING:  cpu time      0.0012: real time      0.0013
    --------------------------------------------
      LOOP:  cpu time      3.7663: real time      3.8074

 eigenvalue-minimisations  :  8736
 total energy-change (2. order) :-0.2687738E-04  (-0.2000841E-05)
 number of electron      55.9999991 magnetization      -0.0012882
 augmentation part        0.7115700 magnetization      -0.0011051

 Broyden mixing:
  rms(total) = 0.36052E-03    rms(broyden)= 0.36050E-03
  rms(prec ) = 0.71683E-03
  weight for this iteration     100.00

 eigenvalues of (default mixing * dielectric matrix)
  average eigenvalue GAMMA=   1.7020
  4.9469  3.7288  3.0792  2.7098  1.7911  1.7911  1.2386  1.0328  1.0328  0.8214
  0.7942  0.6844  0.6105  0.6320  0.6370

 Free energy of the ion-electron system (eV)
  ---------------------------------------------------
  alpha Z        PSCENC =        59.96383161
  Ewald energy   TEWEN  =      1846.02016126
  -Hartree energ DENC   =     -3454.74834595
  -exchange      EXHF   =         0.00000000
  -V(xc)+E(xc)   XCENC  =       167.80113329
  PAW double counting   =      5685.99893105    -5685.32651020
  entropy T*S    EENTRO =        -0.00606148
  eigenvalues    EBANDS =      -490.35222673
  atomic energy  EATOM  =      1746.50554237
  Solvation  Ediel_sol  =         0.00000000
  ---------------------------------------------------
  free energy    TOTEN  =      -124.14354478 eV

  energy without entropy =     -124.13748330  energy(sigma->0) =     -124.14051404


--------------------------------------------------------------------------------------------------------




--------------------------------------- Iteration      1(  21)  ---------------------------------------


    POTLOK:  cpu time      0.0310: real time      0.0327
    SETDIJ:  cpu time      0.0033: real time      0.0033
     EDDAV:  cpu time      3.4188: real time      3.4433
       DOS:  cpu time      0.0008: real time      0.0008
    CHARGE:  cpu time      0.1737: real time      0.1841
    MIXING:  cpu time      0.0013: real time      0.0013
    --------------------------------------------
      LOOP:  cpu time      3.6289: real time      3.6655

 eigenvalue-minimisations  :  8544
 total energy-change (2. order) :-0.4762367E-04  (-0.1704104E-05)
 number of electron      55.9999991 magnetization      -0.0004572
 augmentation part        0.7115516 magnetization      -0.0003331

 Broyden mixing:
  rms(total) = 0.22648E-03    rms(broyden)= 0.22646E-03
  rms(prec ) = 0.36791E-03
  weight for this iteration     100.00

 eigenvalues of (default mixing * dielectric matrix)
  average eigenvalue GAMMA=   1.7431
  5.0429  3.6351  3.2206  3.2206  2.0897  2.0897  1.3465  1.1743  0.9813  0.9813
  0.8095  0.7520  0.6765  0.6109  0.6293  0.6293

 Free energy of the ion-electron system (eV)
  ---------------------------------------------------
  alpha Z        PSCENC =        59.96383161
  Ewald energy   TEWEN  =      1846.02016126
  -Hartree energ DENC   =     -3454.88092893
  -exchange      EXHF   =         0.00000000
  -V(xc)+E(xc)   XCENC  =       167.80251831
  PAW double counting   =      5685.75402942    -5685.08166549
  entropy T*S    EENTRO =        -0.00606041
  eigenvalues    EBANDS =      -490.22102053
  atomic energy  EATOM  =      1746.50554237
  Solvation  Ediel_sol  =         0.00000000
  ---------------------------------------------------
  free energy    TOTEN  =      -124.14359241 eV

  energy without entropy =     -124.13753200  energy(sigma->0) =     -124.14056220


--------------------------------------------------------------------------------------------------------




--------------------------------------- Iteration      1(  22)  ---------------------------------------


[...]
      9      -9.8465      1.00000
     10      -9.8038      1.00000
     11      -9.3654      1.00000
     12      -9.2539      1.00000
     13      -9.2537      1.00000
     14      -7.9757      1.00000
     15      -7.1451      1.00000
     16      -6.8781      1.00000
     17      -6.8780      1.00000
     18      -6.5262      1.00000
     19      -6.4288      1.00000
     20      -5.6652      1.00000
     21      -5.4065      1.00000
     22      -4.8276      1.00000
     23      -4.8268      1.00000
     24      -4.2843      1.00000
     25      -4.2147      1.00000
     26      -4.1199      1.00000
     27      -2.5583      1.00000
     28      -1.3320      1.00000
     29       0.5762      0.00000
     30       1.7162      0.00000
     31       2.6974      0.00000
     32       3.0863      0.00000
     33       3.9190      0.00000
     34       4.2090      0.00000
     35       4.6255      0.00000
     36       4.6657      0.00000
     37       4.6668      0.00000
     38       5.0742      0.00000
     39       5.1271      0.00000
     40       5.5370      0.00000
     41       5.6019      0.00000
     42       5.9594      0.00000
     43       5.9652      0.00000
     44       6.2297      0.00000
     45       6.9207      0.00000
     46       7.0367      0.00000
     47       7.0495      0.00000
     48       7.0904      0.00000

 k-point    40 :       0.3333    0.2500    0.0000
  band No.  band energies     occupation 
      1     -18.0596      1.00000
      2     -17.5900      1.00000
      3     -17.1246      1.00000
      4     -15.0726      1.00000
      5     -14.5979      1.00000
      6     -13.3575      1.00000
      7     -12.7460      1.00000
      8     -12.4174      1.00000
      9     -10.3557      1.00000
     10      -9.6852      1.00000
     11      -9.0569      1.00000
     12      -8.8449      1.00000
     13      -8.2726      1.00000
     14      -7.7912      1.00000
     15      -7.6022      1.00000
     16      -7.3495      1.00000
     17      -7.2065      1.00000
     18      -6.4639      1.00000
     19      -5.9730      1.00000
     20      -5.9682      1.00000
     21      -5.4365      1.00000
     22      -5.2840      1.00000
     23      -4.9091      1.00000
     24      -4.5636      1.00000
     25      -4.3879      1.00000
     26      -4.1168      1.00000
     27      -2.7821      1.00000
     28      -0.9960      1.00000
     29       0.2931      0.00000
     30       1.9416      0.00000
     31       3.2194      0.00000
     32       3.3070      0.00000
     33       3.7351      0.00000
     34       4.2911      0.00000
     35       4.4575      0.00000
     36       4.7420      0.00000
     37       4.8735      0.00000
     38       5.0747      0.00000
     39       5.5745      0.00000
     40       5.6667      0.00000
     41       5.6738      0.00000
     42       5.7702      0.00000
     43       6.2544      0.00000
     44       6.3289      0.00000
     45       6.6523      0.00000
     46       6.8139      0.00000
     47       6.8962      0.00000
     48       6.9418      0.00000

 k-point    41 :      -0.2500   -0.4167    0.0000
  band No.  band energies     occupation 
      1     -18.0596      1.00000
      2     -17.5900      1.00000
      3     -17.1246      1.00000
      4     -15.0726      1.00000
      5     -14.5979      1.00000
      6     -13.3575      1.00000
      7     -12.7460      1.00000
      8     -12.4175      1.00000
      9     -10.3556      1.00000
     10      -9.6852      1.00000
     11      -9.0569      1.00000
     12      -8.8449      1.00000
     13      -8.2727      1.00000
     14      -7.7912      1.00000
     15      -7.6022      1.00000
     16      -7.3493      1.00000
     17      -7.2065      1.00000
     18      -6.4638      1.00000
     19      -5.9730      1.00000
     20      -5.9683      1.00000
     21      -5.4365      1.00000
     22      -5.2840      1.00000
     23      -4.9091      1.00000
     24      -4.5636      1.00000
     25      -4.3879      1.00000
     26      -4.1168      1.00000
     27      -2.7821      1.00000
     28      -0.9959      1.00000
     29       0.2931      0.00000
     30       1.9416      0.00000
     31       3.2194      0.00000
     32       3.3070      0.00000
     33       3.7351      0.00000
     34       4.2911      0.00000
     35       4.4575      0.00000
     36       4.7420      0.00000
     37       4.8735      0.00000
     38       5.0747      0.00000
     39       5.5745      0.00000
     40       5.6667      0.00000
     41       5.6738      0.00000
     42       5.7702      0.00000
     43       6.2545      0.00000
     44       6.3289      0.00000
     45       6.6524      0.00000
     46       6.8139      0.00000
     47       6.8960      0.00000
     48       6.9420      0.00000

 k-point    42 :       0.4167    0.3333    0.0000
  band No.  band energies     occupation 
      1     -18.0596      1.00000
      2     -17.5900      1.00000
      3     -17.1246      1.00000
      4     -15.0726      1.00000
      5     -14.5979      1.00000
      6     -13.3574      1.00000
      7     -12.7460      1.00000
      8     -12.4176      1.00000
      9     -10.3556      1.00000
     10      -9.6852      1.00000
     11      -9.0569      1.00000
     12      -8.8451      1.00000
     13      -8.2725      1.00000
     14      -7.7912      1.00000
     15      -7.6022      1.00000
     16      -7.3493      1.00000
     17      -7.2063      1.00000
     18      -6.4640      1.00000
     19      -5.9731      1.00000
     20      -5.9684      1.00000
     21      -5.4365      1.00000
     22      -5.2840      1.00000
     23      -4.9090      1.00000
     24      -4.5636      1.00000
     25      -4.3879      1.00000
     26      -4.1168      1.00000
     27      -2.7821      1.00000
     28      -0.9959      1.00000
     29       0.2930      0.00000
     30       1.9416      0.00000
     31       3.2194      0.00000
     32       3.3070      0.00000
     33       3.7351      0.00000
     34       4.2911      0.00000
     35       4.4575      0.00000
     36       4.7420      0.00000
     37       4.8734      0.00000
     38       5.0747      0.00000
     39       5.5745      0.00000
     40       5.6667      0.00000
     41       5.6740      0.00000
     42       5.7701      0.00000
     43       6.2544      0.00000
     44       6.3289      0.00000
     45       6.6524      0.00000
     46       6.8139      0.00000
     47       6.8963      0.00000
     48       6.9419      0.00000

 k-point    43 :       0.3333    0.3333    0.0000
  band No.  band energies     occupation 
      1     -17.6292      1.00000
      2     -17.6292      1.00000
      3     -17.6288      1.00000
      4     -14.8368      1.00000
      5     -14.8368      1.00000
      6     -12.8226      1.00000
      7     -12.8103      1.00000
      8     -12.8102      1.00000
      9     -10.5902      1.00000
     10      -9.2540      1.00000
     11      -9.2540      1.00000
     12      -8.0457      1.00000
     13      -8.0455      1.00000
     14      -8.0455      1.00000
     15      -7.8714      1.00000
     16      -7.7201      1.00000
     17      -6.6303      1.00000
     18      -6.6301      1.00000
     19      -6.6299      1.00000
     20      -5.4799      1.00000
     21      -5.4798      1.00000
     22      -5.4786      1.00000
     23      -4.9108      1.00000
     24      -4.9108      1.00000
     25      -4.2185      1.00000
     26      -4.2184      1.00000
     27      -2.9501      1.00000
     28      -0.3445      0.67951
     29      -0.3444      0.67872
     30       2.7581      0.00000
     31       2.7583      0.00000
     32       3.4441      0.00000
     33       3.4441      0.00000
     34       4.1430      0.00000
     35       4.3190      0.00000
     36       4.9300      0.00000
     37       4.9309      0.00000
     38       5.2391      0.00000
     39       5.7908      0.00000
     40       5.7910      0.00000
     41       5.7911      0.00000
     42       6.1294      0.00000
     43       6.1336      0.00000
     44       6.2280      0.00000
     45       6.2309      0.00000
     46       6.3188      0.00000
     47       6.3553      0.00000
     48       7.3925      0.00000


--------------------------------------------------------------------------------------------------------


 soft charge-density along one line, spin component           1
         0         1         2         3         4         5         6         7         8         9
 total charge-density along one line
 
 soft charge-density along one line, spin component           2
         0         1         2         3         4         5         6         7         8         9
 total charge-density along one line
 
 pseudopotential strength for first ion, spin component:           1
  6.670  10.173  -0.004  -0.000  -0.008  -0.007  -0.000  -0.012
 10.173  15.510  -0.007  -0.000  -0.012  -0.010  -0.000  -0.018
 -0.004  -0.007  -2.285   0.000   0.003  -3.915   0.000   0.005
 -0.000  -0.000   0.000  -2.279  -0.000   0.000  -3.901  -0.000
 -0.008  -0.012   0.003  -0.000  -2.282   0.005  -0.000  -3.909
 -0.007  -0.010  -3.915   0.000   0.005  -6.510   0.000   0.011
 -0.000  -0.000   0.000  -3.901  -0.000   0.000  -6.480  -0.000
 -0.012  -0.018   0.005  -0.000  -3.909   0.011  -0.000  -6.498
 pseudopotential strength for first ion, spin component:           2
  6.670  10.173  -0.004  -0.000  -0.008  -0.007  -0.000  -0.012
 10.173  15.510  -0.007  -0.000  -0.012  -0.010  -0.000  -0.018
 -0.004  -0.007  -2.285   0.000   0.003  -3.915   0.000   0.005
 -0.000  -0.000   0.000  -2.279  -0.000   0.000  -3.901  -0.000
 -0.008  -0.012   0.003  -0.000  -2.282   0.005  -0.000  -3.909
 -0.007  -0.010  -3.915   0.000   0.005  -6.510   0.000   0.011
 -0.000  -0.000   0.000  -3.901  -0.000   0.000  -6.480  -0.000
 -0.012  -0.018   0.005  -0.000  -3.909   0.011  -0.000  -6.498
 total augmentation occupancy for first ion, spin component:           1
  3.755  -1.035  -0.192  -0.000  -0.332   0.090   0.000   0.156
 -1.035   0.303   0.108   0.000   0.187  -0.040  -0.000  -0.070
 -0.192   0.108   4.274  -0.006  -0.275  -1.212   0.003   0.123
 -0.000   0.000  -0.006   1.811   0.003   0.003  -0.384  -0.002
 -0.332   0.187  -0.275   0.003   3.957   0.123  -0.002  -1.069
  0.090  -0.040  -1.212   0.003   0.123   0.353  -0.001  -0.047
  0.000  -0.000   0.003  -0.384  -0.002  -0.001   0.085   0.001
  0.156  -0.070   0.123  -0.002  -1.069  -0.047   0.001   0.299
 total augmentation occupancy for first ion, spin component:           2
 -0.000   0.000   0.000  -0.000   0.000  -0.000   0.000  -0.000
  0.000  -0.000  -0.000   0.000  -0.000   0.000  -0.000   0.000
  0.000  -0.000  -0.000   0.000  -0.000   0.000  -0.000   0.000
 -0.000   0.000   0.000   0.000   0.000  -0.000  -0.000  -0.000
  0.000  -0.000  -0.000   0.000  -0.000   0.000  -0.000   0.000
 -0.000   0.000   0.000  -0.000   0.000  -0.000   0.000  -0.000
  0.000  -0.000  -0.000  -0.000  -0.000   0.000   0.000   0.000
 -0.000   0.000   0.000  -0.000   0.000  -0.000   0.000  -0.000


------------------------ aborting loop because EDIFF is reached ----------------------------------------


    CHARGE:  cpu time      0.1673: real time      0.1785
    FORLOC:  cpu time      0.0015: real time      0.0015
    FORNL :  cpu time      0.4943: real time      0.4959
    STRESS:  cpu time      2.1225: real time      2.1346
    FORCOR:  cpu time      0.0253: real time      0.0254
    FORHAR:  cpu time      0.0037: real time      0.0037
    MIXING:  cpu time      0.0007: real time      0.0007
    OFIELD:  cpu time      0.0000: real time      0.0000

 ---------------------------------------------------------------------------------------------

         DFTD3 V3.0 Rev 1        
 Edisp (eV)   -1.48135

 E6    (eV) :    -1.0044
 E8    (eV) :    -0.4770
 % E8        : 32.20
    FORVDW:  cpu time      0.0416: real time      0.0417

  FORCE on cell =-STRESS in cart. coord.  units (eV):
  Direction    XX          YY          ZZ          XY          YZ          ZX
  --------------------------------------------------------------------------------------
  Alpha Z    59.96383    59.96383    59.96383
  Ewald    3509.35280  3509.37394 -5172.33409     0.00000     0.00000     0.00035
  Hartree  3395.35539  3395.35829 -3335.34979    -0.00000    -0.00000     0.00024
  E(xc)    -195.15010  -195.15004  -202.07897    -0.00000     0.00000    -0.00000
  Local   -7453.29019 -7453.31049  7836.38813    -0.00000     0.00000    -0.00061
  n-local   -37.58969   -37.58951   -39.61734    -0.24588     0.00170     0.00001
  augment    -2.72811    -2.72807    -2.46975     0.00000     0.00000     0.00000
  Kinetic   721.77676   721.77316   855.17922    -1.12609    -0.00671    -0.00012
  Fock        0.00000     0.00000     0.00000     0.00000     0.00000     0.00000
  vdW        -1.13989    -1.13990    -0.41274    -0.00000    -0.00000    -0.00000
  -------------------------------------------------------------------------------------
  Total      -3.44921    -3.44879    -0.73150     0.00000     0.00000    -0.00014
  in kB     -17.01640   -17.01435    -3.60882     0.00000     0.00000    -0.00069
  external pressure =      -12.55 kB  Pullay stress =        0.00 kB


 VOLUME and BASIS-vectors are now :
 -----------------------------------------------------------------------------
  energy-cutoff  :      450.00
  volume of cell :      324.76
      direct lattice vectors                 reciprocal lattice vectors
     4.330127885  2.500000500  0.000000000     0.115470031  0.199999960  0.000000000
    -4.330127885  2.500000500  0.000000000    -0.115470031  0.199999960  0.000000000
     0.000000000  0.000000000 15.000000000     0.000000000  0.000000000  0.066666667

  length of vectors
     5.000001000  5.000001000 15.000000000     0.230940061  0.230940061  0.066666667


 FORCES acting on ions
    electron-ion (+dipol)            ewald-force                    non-local-force                 convergence-correction
 -----------------------------------------------------------------------------------------------
   -.254E+02 -.147E+02 0.105E+03   0.283E+02 0.164E+02 -.105E+03   -.289E+01 -.167E+01 -.268E-02   -.485E-05 -.101E-04 0.246E-02
   0.254E+02 0.147E+02 0.105E+03   -.283E+02 -.164E+02 -.105E+03   0.289E+01 0.167E+01 -.270E-02   0.106E-04 0.105E-05 0.246E-02
   -.254E+02 0.147E+02 0.105E+03   0.283E+02 -.164E+02 -.105E+03   -.289E+01 0.167E+01 -.268E-02   -.484E-05 0.101E-04 0.246E-02
   0.254E+02 -.147E+02 0.105E+03   -.283E+02 0.164E+02 -.105E+03   0.289E+01 -.167E+01 -.270E-02   0.106E-04 -.104E-05 0.246E-02
   0.114E-03 0.294E+02 0.105E+03   -.887E-04 -.327E+02 -.105E+03   -.208E-04 0.334E+01 -.270E-02   -.622E-05 0.110E-04 0.246E-02
   0.114E-03 -.294E+02 0.105E+03   -.887E-04 0.327E+02 -.105E+03   -.208E-04 -.334E+01 -.270E-02   -.622E-05 -.111E-04 0.246E-02
   -.147E-03 0.770E-04 0.107E+03   0.137E-03 0.314E-03 -.107E+03   0.211E-04 0.187E-17 0.849E-01   -.115E-05 -.295E-08 0.243E-02
   -.173E-03 0.770E-04 0.103E+03   0.152E-03 0.314E-03 -.103E+03   0.163E-04 -.757E-18 -.926E-01   0.259E-05 -.281E-08 0.244E-02
   -.320E-02 0.541E-01 -.105E+03   0.337E-02 -.551E-01 0.105E+03   0.185E-03 0.398E-03 -.472E-02   0.365E-04 0.200E-03 -.341E-02
   0.289E-01 0.264E-01 -.105E+03   -.301E-01 -.264E-01 0.105E+03   -.325E-04 0.238E-03 -.556E-02   0.793E-04 0.780E-04 -.341E-02
   0.305E-01 0.476E-03 -.105E+03   -.309E-01 0.782E-09 0.105E+03   0.474E-03 0.117E-17 -.582E-02   0.138E-03 0.105E-08 -.341E-02
   -.103E-01 0.476E-03 -.105E+03   0.106E-01 0.309E-06 0.105E+03   -.261E-03 0.301E-17 -.617E-02   -.926E-04 -.164E-08 -.341E-02
   -.313E-01 0.476E-03 -.105E+03   0.327E-01 0.786E-09 0.105E+03   0.227E-04 -.509E-17 -.600E-02   -.849E-04 0.294E-09 -.341E-02
   -.403E-01 0.476E-03 -.105E+03   0.411E-01 -.308E-06 0.105E+03   -.546E-03 -.166E-17 -.400E-02   -.191E-03 0.270E-08 -.341E-02
   -.320E-02 -.531E-01 -.105E+03   0.337E-02 0.551E-01 0.105E+03   0.185E-03 -.398E-03 -.472E-02   0.365E-04 -.200E-03 -.341E-02
   0.289E-01 -.254E-01 -.105E+03   -.301E-01 0.264E-01 0.105E+03   -.325E-04 -.238E-03 -.556E-02   0.793E-04 -.780E-04 -.341E-02
 -----------------------------------------------------------------------------------------------
   0.101E-05 0.471E-02 0.756E-01   0.965E-15 -.264E-13 0.711E-13   0.370E-05 0.448E-15 -.665E-01   0.207E-05 -.195E-08 -.767E-02
 
 
 POSITION                                       TOTAL-FORCE (eV/Angst)
 -----------------------------------------------------------------------------------
      2.89910      1.67379      1.50058        -0.001790     -0.001041      0.007908
      1.43103      0.82620      1.50058         0.001799      0.001028      0.007928
     -1.43102      0.82620      1.50058        -0.001790      0.001041      0.007908
     -2.89910      1.67379      1.50058         0.001799     -0.001028      0.007928
      0.00000      1.65241      1.50058        -0.000002      0.002068      0.007930
      0.00000      3.34759      1.50058        -0.000002     -0.002068      0.007930
      1.44337      2.50000      1.48898         0.000010     -0.000000      0.009174
     -1.44338      2.50000      1.51231        -0.000002     -0.000000      0.008438
     -0.00001      1.25000      7.03541         0.000395     -0.000901     -0.008107
      1.44339      1.25000      7.03540        -0.001179     -0.000154     -0.008179
     -2.16507      2.50000      7.03539         0.000193     -0.000000     -0.008222
     -0.72169      2.50000      7.03540        -0.000029     -0.000000     -0.008153
      2.16505      2.50000      7.03541         0.001357     -0.000000     -0.008135
      3.60844      2.50000      7.03542         0.000025     -0.000000     -0.008062
     -0.00001      3.74999      7.03541         0.000395      0.000901     -0.008107
      1.44339      3.75000      7.03540        -0.001179      0.000154     -0.008179
 -----------------------------------------------------------------------------------
    total drift:                                0.000007      0.004714      0.001451


--------------------------------------------------------------------------------------------------------



  FREE ENERGIE OF THE ION-ELECTRON SYSTEM (eV)
  ---------------------------------------------------
  free  energy   TOTEN  =      -125.62603491 eV

  energy  without entropy=     -125.61999662  energy(sigma->0) =     -125.62301576
 
 d Force = 0.4989462E-04[ 0.489E-04, 0.509E-04]  d Energy = 0.5078304E-04-0.888E-06
 d Force =-0.6318064E+00[-0.632E+00,-0.632E+00]  d Ewald  =-0.6318064E+00 0.932E-11


--------------------------------------------------------------------------------------------------------


    POTLOK:  cpu time      0.0329: real time      0.0330


--------------------------------------------------------------------------------------------------------


 stress matrix after NEB project (eV)
     -3.44921      0.00000     -0.00014
      0.00000     -3.44879      0.00000
     -0.00014      0.00000     -0.73150
  FORCES: max atom, RMS     0.009174    0.008272
  FORCE total and by dimension    0.033087    0.009174
  Stress total and by dimension    4.932167    3.449206
 Conjugate gradient step on ions:
 trial-energy change:   -0.000051  1 .order   -0.000050   -0.000051   -0.000049
  (g-gl).g = 0.664E-04      g.g   = 0.562E-04  gl.gl    = 0.430E-02
 g(Force)  = 0.562E-04   g(Stress)= 0.000E+00 ortho     =-0.102E-04
 gamma     =   0.01544
 trial     =   0.90795
 opt step  =   3.63182  (harmonic =  23.18948) maximal distance =0.00168575
 next E    =  -125.626634   (d E  =  -0.00065)


--------------------------------------------------------------------------------------------------------


    WAVPRE:  cpu time      0.0045: real time      0.0090
    FEWALD:  cpu time      0.0003: real time      0.0003
    ORTHCH:  cpu time      0.2200: real time      0.2210
     LOOP+:  cpu time     15.1370: real time     15.2763
