 ----------------------------------------------------
    OOO  PPPP  EEEEE N   N M   M PPPP
   O   O P   P E     NN  N MM MM P   P
   O   O PPPP  EEEEE N N N M M M PPPP   -- VERSION
   O   O P     E     N  NN M   M P
    OOO  P     EEEEE N   N M   M P
 ----------------------------------------------------
 running   48 mpi-ranks, with    1 threads/rank
 distrk:  each k-point on   48 cores,    1 groups
 distr:  one band on    1 cores,   48 groups
 vasp.6.3.2 27Jun22 (build Dec 22 2022 13:13:19) complex                        
  
 POSCAR found type information on POSCAR B C 
 POSCAR found :  2 types and      16 ions
 Reading from existing POTCAR
 -----------------------------------------------------------------------------
|                                                                             |
|           W    W    AA    RRRRR   N    N  II  N    N   GGGG   !!!           |
|           W    W   A  A   R    R  NN   N  II  NN   N  G    G  !!!           |
|           W    W  A    A  R    R  N N  N  II  N N  N  G       !!!           |
|           W WW W  AAAAAA  RRRRR   N  N N  II  N  N N  G  GGG   !            |
|           WW  WW  A    A  R   R   N   NN  II  N   NN  G    G                |
|           W    W  A    A  R    R  N    N  II  N    N   GGGG   !!!           |
|                                                                             |
|     You use a magnetic or noncollinear calculation, but did not specify     |
|     the initial magnetic moment with the MAGMOM tag. Note that a            |
|     default of 1 will be used for all atoms. This ferromagnetic setup       |
|     may break the symmetry of the crystal, in particular it may rule        |
|     out finding an antiferromagnetic solution. Thence, we recommend         |
|     setting the initial magnetic moment manually or verifying carefully     |
|     that this magnetic setup is desired.                                    |
|                                                                             |
 -----------------------------------------------------------------------------

 scaLAPACK will be used
 Reading from existing POTCAR
 LDA part: xc-table for Pade appr. of Perdew
 POSCAR found type information on POSCAR B C 
 POSCAR found :  2 types and      16 ions
 POSCAR, INCAR and KPOINTS ok, starting setup
 FFT: planning ... GRIDC
 FFT: planning ... GRID_SOFT
 FFT: planning ... GRID
 WAVECAR not read
 entering main loop
       N       E                     dE             d eps       ncg     rms          rms(c)
DAV:   1     0.186290618001E+03    0.18629E+03   -0.25257E+04  8256   0.861E+02
DAV:   2    -0.118194429879E+03   -0.30449E+03   -0.30365E+03 12960   0.157E+02
DAV:   3    -0.127551777291E+03   -0.93573E+01   -0.93308E+01 14016   0.366E+01
DAV:   4    -0.127579269760E+03   -0.27492E-01   -0.27491E-01 12384   0.178E+00
DAV:   5    -0.127579311580E+03   -0.41819E-04   -0.41819E-04 13152   0.772E-02    0.225E+01
DAV:   6    -0.944110318427E+02    0.33168E+02   -0.57897E+01 10560   0.216E+01    0.122E+01
DAV:   7    -0.105603832290E+03   -0.11193E+02   -0.13832E+01 12576   0.110E+01    0.667E+00
DAV:   8    -0.111454484789E+03   -0.58507E+01   -0.51163E+00 12336   0.646E+00    0.373E+00
DAV:   9    -0.116722876001E+03   -0.52684E+01   -0.27725E+00 10272   0.468E+00    0.253E+00
DAV:  10    -0.120891130952E+03   -0.41683E+01   -0.32315E+00 12192   0.473E+00    0.135E+00
DAV:  11    -0.122769717227E+03   -0.18786E+01   -0.14693E+00 11856   0.284E+00    0.817E-01
DAV:  12    -0.123757402116E+03   -0.98768E+00   -0.78980E-01 13200   0.193E+00    0.404E-01
DAV:  13    -0.124063860065E+03   -0.30646E+00   -0.19135E-01 12000   0.966E-01    0.195E-01
DAV:  14    -0.124118201676E+03   -0.54342E-01   -0.30109E-02 10992   0.405E-01    0.108E-01
DAV:  15    -0.124141217265E+03   -0.23016E-01   -0.14350E-02  9888   0.295E-01    0.576E-02
DAV:  16    -0.124142734019E+03   -0.15168E-02   -0.22979E-03  9888   0.177E-01    0.364E-02
DAV:  17    -0.124143446850E+03   -0.71283E-03   -0.73102E-04  9072   0.929E-02    0.154E-02
DAV:  18    -0.124143470938E+03   -0.24089E-04   -0.17321E-04  9120   0.479E-02    0.839E-03
DAV:  19    -0.124143517906E+03   -0.46968E-04   -0.37475E-05  8544   0.275E-02    0.498E-03
DAV:  20    -0.124143544784E+03   -0.26877E-04   -0.20008E-05  8736   0.185E-02    0.361E-03
DAV:  21    -0.124143592408E+03   -0.47624E-04   -0.17041E-05  8544   0.163E-02    0.226E-03
DAV:  22    -0.124143617436E+03   -0.25029E-04   -0.55253E-06 10176   0.925E-03    0.133E-03
DAV:  23    -0.124143621405E+03   -0.39687E-05   -0.19589E-06 10704   0.538E-03    0.626E-04
DAV:  24    -0.124143624595E+03   -0.31903E-05   -0.41266E-07 12864   0.238E-03    0.330E-04
DAV:  25    -0.124143625915E+03   -0.13197E-05   -0.18799E-07 10032   0.159E-03    0.173E-04
DAV:  26    -0.124143626270E+03   -0.35551E-06   -0.98189E-08 13200   0.125E-03
   1 F= -.12562483E+03 E0= -.12562180E+03  d E =-.125625E+03  mag=     0.0000
 curvature:   0.00 expect dE= 0.000E+00 dE for cont linesearch  0.000E+00
 trial: gam= 0.00000 g(F)=  0.430E-02 g(S)=  0.000E+00 ort = 0.000E+00 (trialstep = 0.100E+01)
 search vector abs. value=  0.430E-02
 bond charge predicted
       N       E                     dE             d eps       ncg     rms          rms(c)
DAV:   1    -0.124145529722E+03   -0.19038E-02   -0.31867E-01  8448   0.144E+00    0.188E-01
DAV:   2    -0.124143998839E+03    0.15309E-02   -0.75712E-03 12960   0.214E-01    0.834E-02
DAV:   3    -0.124143748990E+03    0.24985E-03   -0.11917E-03 13776   0.746E-02    0.228E-02
DAV:   4    -0.124143740063E+03    0.89276E-05   -0.85947E-05 10752   0.226E-02    0.823E-03
DAV:   5    -0.124143739969E+03    0.94249E-07   -0.48802E-06 11856   0.579E-03
   2 F= -.12562513E+03 E0= -.12562211E+03  d E =-.298716E-03  mag=     0.0000
 trial-energy change:   -0.000299  1 .order   -0.000292   -0.004302    0.003718
 step:   0.5365(harm=  0.5365)  dis= 0.00314  next Energy=  -125.625985 (dE=-0.115E-02)
 bond charge predicted
       N       E                     dE             d eps       ncg     rms          rms(c)
DAV:   1    -0.124145060279E+03   -0.13202E-02   -0.67971E-02  8688   0.665E-01    0.869E-02
DAV:   2    -0.124144733386E+03    0.32689E-03   -0.16307E-03 12912   0.992E-02    0.385E-02
DAV:   3    -0.124144681259E+03    0.52128E-04   -0.26152E-04 11376   0.349E-02    0.104E-02
DAV:   4    -0.124144679917E+03    0.13414E-05   -0.20618E-05 12240   0.110E-02    0.385E-03
DAV:   5    -0.124144679954E+03   -0.36539E-07   -0.93737E-07 12288   0.270E-03
   3 F= -.12562598E+03 E0= -.12562297E+03  d E =-.115339E-02  mag=     0.0000
 curvature:  -0.27 expect dE=-0.149E-04 dE for cont linesearch -0.447E-07
 ZBRENT: interpolating
 opt :   0.5398  next Energy=  -125.625984 (dE=-0.115E-02)
 bond charge predicted
       N       E                     dE             d eps       ncg     rms          rms(c)
DAV:   1    -0.124144679354E+03    0.56349E-06   -0.28358E-06 12336   0.467E-03    0.989E-04
DAV:   2    -0.124144679304E+03    0.49739E-07   -0.19000E-07 12480   0.108E-03
   4 F= -.12562598E+03 E0= -.12562297E+03  d E =-.115335E-02  mag=     0.0000
 curvature:  -0.27 expect dE=-0.150E-04 dE for cont linesearch -0.648E-08
 trial: gam= 0.01544 g(F)=  0.562E-04 g(S)=  0.000E+00 ort =-0.102E-04 (trialstep = 0.908E+00)
 search vector abs. value=  0.569E-04
 bond charge predicted
       N       E                     dE             d eps       ncg     rms          rms(c)
DAV:   1    -0.124144686114E+03   -0.67600E-05   -0.46168E-03  8928   0.251E-01    0.119E-02
