Lattice                                 
           1
     4.330128    2.500001    0.000000
    -4.330128    2.500001    0.000000
     0.000000    0.000000   15.000000
   B    C 
     8     8
Direct configuration=     1
   0.66888689  0.00000000  0.10000000
   0.33111211  0.00000000  0.10000000
   0.00000000  0.33111211  0.10000000
   0.00000000  0.66888689  0.10000000
   0.33111211  0.33111211  0.10000000
   0.66888689  0.66888689  0.10000000
   0.66666600  0.33333300  0.09922189
   0.33333300  0.66666600  0.10077811
   0.24999933  0.24999967  0.46906667
   0.41666633  0.08333267  0.46906667
   0.24999933  0.74999967  0.46906667
   0.41666633  0.58333267  0.46906667
   0.74999933  0.24999967  0.46906667
   0.91666633  0.08333267  0.46906667
   0.74999933  0.74999967  0.46906667
   0.91666633  0.58333267  0.46906667
Direct configuration=     2
   0.67005561 -0.00000014  0.10002627
   0.32994354 -0.00000016  0.10002635
   0.00000014  0.32994339  0.10002627
   0.00000016  0.67005546  0.10002635
   0.32994322  0.32994317  0.10002636
   0.67005583  0.67005578  0.10002636
   0.66666608  0.33333292  0.09925023
   0.33333255  0.66666645  0.10080911
   0.24999511  0.24999493  0.46903978
   0.41666300  0.08333419  0.46903923
   0.24999892  0.75000008  0.46903883
   0.41666706  0.58333194  0.46903947
   0.75000220  0.24999680  0.46903960
   0.91666736  0.08333164  0.46904014
   0.75000407  0.75000389  0.46903978
   0.91666481  0.58333600  0.46903923
Direct configuration=     3
   0.66951385 -0.00000008  0.10001409
   0.33048523 -0.00000009  0.10001413
   0.00000008  0.33048515  0.10001409
   0.00000009  0.66951377  0.10001413
   0.33048506  0.33048503  0.10001414
   0.66951397  0.66951394  0.10001414
   0.66666604  0.33333296  0.09923709
   0.33333276  0.66666624  0.10079474
   0.24999707  0.24999713  0.46905224
   0.41666455  0.08333349  0.46905195
   0.24999911  0.74999989  0.46905173
   0.41666672  0.58333228  0.46905208
   0.75000087  0.24999813  0.46905215
   0.91666688  0.08333212  0.46905243
   0.75000187  0.75000193  0.46905224
   0.91666551  0.58333445  0.46905195
Direct configuration=     4
   0.66951773 -0.00000008  0.10001418
   0.33048135 -0.00000009  0.10001422
   0.00000008  0.33048127  0.10001418
   0.00000009  0.66951765  0.10001422
   0.33048118  0.33048115  0.10001423
   0.66951785  0.66951782  0.10001423
   0.66666604  0.33333296  0.09923718
   0.33333276  0.66666624  0.10079484
   0.24999706  0.24999711  0.46905215
   0.41666454  0.08333349  0.46905185
   0.24999911  0.74999989  0.46905164
   0.41666673  0.58333227  0.46905199
   0.75000088  0.24999812  0.46905206
   0.91666689  0.08333211  0.46905235
   0.75000189  0.75000194  0.46905215
   0.91666551  0.58333446  0.46905185
Direct configuration=     5
   0.66951790 -0.00000010  0.10003852
   0.33048134 -0.00000006  0.10003862
   0.00000010  0.33048110  0.10003852
   0.00000006  0.66951766  0.10003862
   0.33048119  0.33048114  0.10003864
   0.66951786  0.66951781  0.10003864
   0.66666602  0.33333298  0.09926528
   0.33333273  0.66666627  0.10082084
   0.24999997  0.25000116  0.46902729
   0.41666741  0.08333184  0.46902661
   0.24999901  0.74999999  0.46902614
   0.41666644  0.58333256  0.46902691
   0.74999819  0.25000081  0.46902708
   0.91666646  0.08333254  0.46902773
   0.74999784  0.74999903  0.46902729
   0.91666716  0.58333159  0.46902661
