<?xml version="1.0" encoding="ISO-8859-1"?>
<modeling>
 <generator>
  <i name="program" type="string">vasp </i>
  <i name="version" type="string">6.3.2  </i>
  <i name="subversion" type="string">27Jun22 (build Dec 22 2022 13:13:19) complex                          parallel </i>
  <i name="platform" type="string">LinuxIFC </i>
  <i name="date" type="string">2023 08 24 </i>
  <i name="time" type="string">18:23:29 </i>
 </generator>
 <incar>
  <i type="string" name="SYSTEM">Lattice</i>
  <i type="int" name="ISTART">     0</i>
  <i type="string" name="PREC">Accurate</i>
  <i type="string" name="ALGO">Normal</i>
  <i type="int" name="ISPIN">     2</i>
  <i type="int" name="ICHARG">     2</i>
  <i type="int" name="NELM">    64</i>
  <i type="int" name="IBRION">     2</i>
  <i name="EDIFF">      0.00000100</i>
  <i name="EDIFFG">     -0.00100000</i>
  <i type="int" name="NSW">   128</i>
  <i type="int" name="ISIF">     2</i>
  <i name="ENCUT">    450.00000000</i>
  <i name="POTIM">      0.50000000</i>
  <i type="int" name="ISMEAR">     0</i>
  <i name="SIGMA">      0.10000000</i>
  <i type="logical" name="LWAVE"> F  </i>
  <i type="logical" name="LCHARG"> F  </i>
  <i type="string" name="GGA">PE</i>
  <i type="int" name="IVDW">    12</i>
 </incar>
 <primitive_cell>
  <structure name="primitive_cell" >
   <crystal>
    <varray name="basis" >
     <v>       4.22187384       2.43750000       0.00000000 </v>
     <v>      -4.22187384       2.43750000       0.00000000 </v>
     <v>       0.00000000       0.00000000      15.00000000 </v>
    </varray>
    <i name="volume">    308.72452480 </i>
    <varray name="rec_basis" >
     <v>       0.11843082       0.20512821       0.00000000 </v>
     <v>      -0.11843082       0.20512821       0.00000000 </v>
     <v>       0.00000000       0.00000000       0.06666667 </v>
    </varray>
   </crystal>
   <varray name="positions" >
    <v>       0.00415361       0.00267210       0.12034134 </v>
    <v>       0.35695335       0.00285503       0.09748893 </v>
    <v>       0.00423858       0.35550699       0.09749256 </v>
    <v>       0.65142295       0.65006557       0.09747688 </v>
    <v>       0.32808646       0.32671938       0.10030508 </v>
    <v>       0.68027775       0.00278085       0.10027562 </v>
    <v>       0.00416530       0.67883808       0.10026559 </v>
    <v>       0.11111044       0.38888856       0.33726667 </v>
    <v>       0.27777744       0.22222156       0.33726667 </v>
    <v>       0.11111044       0.88888856       0.33726667 </v>
    <v>       0.27777744       0.72222156       0.33726667 </v>
    <v>       0.61111044       0.38888856       0.33726667 </v>
    <v>       0.77777744       0.22222156       0.33726667 </v>
    <v>       0.61111044       0.88888856       0.33726667 </v>
    <v>       0.77777744       0.72222156       0.33726667 </v>
   </varray>
  </structure>
  <varray name="primitive_index" >
   <v type="int" >        1 </v>
   <v type="int" >        2 </v>
   <v type="int" >        3 </v>
   <v type="int" >        4 </v>
   <v type="int" >        5 </v>
   <v type="int" >        6 </v>
   <v type="int" >        7 </v>
   <v type="int" >        8 </v>
   <v type="int" >        9 </v>
   <v type="int" >       10 </v>
   <v type="int" >       11 </v>
   <v type="int" >       12 </v>
   <v type="int" >       13 </v>
   <v type="int" >       14 </v>
   <v type="int" >       15 </v>
  </varray>
 </primitive_cell>
 <kpoints>
  <generation param="Gamma">
   <v type="int" name="divisions">      12       12        1 </v>
   <v name="usershift">      0.00000000       0.00000000       0.00000000 </v>
   <v name="genvec1">      0.08333333       0.00000000       0.00000000 </v>
   <v name="genvec2">      0.00000000       0.08333333       0.00000000 </v>
   <v name="genvec3">      0.00000000       0.00000000       1.00000000 </v>
   <v name="shift">      0.00000000       0.00000000       0.00000000 </v>
  </generation>
  <varray name="kpointlist" >
   <v>       0.00000000       0.00000000       0.00000000 </v>
   <v>       0.08333333      -0.00000000       0.00000000 </v>
   <v>      -0.00000000       0.08333333       0.00000000 </v>
   <v>      -0.08333333       0.08333333       0.00000000 </v>
   <v>       0.16666667       0.00000000       0.00000000 </v>
   <v>      -0.00000000       0.16666667       0.00000000 </v>
   <v>      -0.16666667       0.16666667       0.00000000 </v>
   <v>       0.25000000      -0.00000000       0.00000000 </v>
   <v>      -0.00000000       0.25000000       0.00000000 </v>
   <v>      -0.25000000       0.25000000       0.00000000 </v>
   <v>       0.33333333      -0.00000000       0.00000000 </v>
   <v>       0.00000000       0.33333333       0.00000000 </v>
   <v>      -0.33333333       0.33333333       0.00000000 </v>
   <v>       0.41666667      -0.00000000       0.00000000 </v>
   <v>      -0.00000000       0.41666667       0.00000000 </v>
   <v>      -0.41666667       0.41666667       0.00000000 </v>
   <v>       0.50000000      -0.00000000       0.00000000 </v>
   <v>      -0.00000000       0.50000000       0.00000000 </v>
   <v>       0.50000000       0.50000000       0.00000000 </v>
   <v>       0.08333333       0.08333333       0.00000000 </v>
   <v>      -0.08333333       0.16666667       0.00000000 </v>
   <v>      -0.16666667       0.08333333       0.00000000 </v>
   <v>       0.16666667       0.08333333       0.00000000 </v>
   <v>      -0.08333333       0.25000000       0.00000000 </v>
   <v>      -0.25000000       0.16666667       0.00000000 </v>
   <v>      -0.16666667       0.25000000       0.00000000 </v>
   <v>       0.08333333       0.16666667       0.00000000 </v>
   <v>       0.25000000      -0.08333333       0.00000000 </v>
   <v>       0.25000000       0.08333333       0.00000000 </v>
   <v>      -0.08333333       0.33333333       0.00000000 </v>
   <v>      -0.33333333       0.25000000       0.00000000 </v>
   <v>      -0.25000000       0.33333333       0.00000000 </v>
   <v>       0.08333333       0.25000000       0.00000000 </v>
   <v>       0.33333333      -0.08333333       0.00000000 </v>
   <v>       0.33333333       0.08333333       0.00000000 </v>
   <v>      -0.08333333       0.41666667       0.00000000 </v>
   <v>      -0.41666667       0.33333333       0.00000000 </v>
   <v>      -0.33333333       0.41666667       0.00000000 </v>
   <v>       0.08333333       0.33333333       0.00000000 </v>
   <v>       0.41666667      -0.08333333       0.00000000 </v>
   <v>       0.41666667       0.08333333       0.00000000 </v>
   <v>      -0.08333333       0.50000000       0.00000000 </v>
   <v>       0.50000000       0.41666667       0.00000000 </v>
   <v>      -0.41666667       0.50000000       0.00000000 </v>
   <v>       0.08333333       0.41666667       0.00000000 </v>
   <v>       0.50000000      -0.08333333       0.00000000 </v>
   <v>       0.16666667       0.16666667       0.00000000 </v>
   <v>      -0.16666667       0.33333333       0.00000000 </v>
   <v>      -0.33333333       0.16666667       0.00000000 </v>
   <v>       0.25000000       0.16666667       0.00000000 </v>
   <v>      -0.16666667       0.41666667       0.00000000 </v>
   <v>      -0.41666667       0.25000000       0.00000000 </v>
   <v>      -0.25000000       0.41666667       0.00000000 </v>
   <v>       0.16666667       0.25000000       0.00000000 </v>
   <v>       0.41666667      -0.16666667       0.00000000 </v>
   <v>       0.33333333       0.16666667       0.00000000 </v>
   <v>      -0.16666667       0.50000000       0.00000000 </v>
   <v>       0.50000000       0.33333333       0.00000000 </v>
   <v>      -0.33333333       0.50000000       0.00000000 </v>
   <v>       0.16666667       0.33333333       0.00000000 </v>
   <v>       0.50000000      -0.16666667       0.00000000 </v>
   <v>       0.41666667       0.16666667       0.00000000 </v>
   <v>      -0.16666667      -0.41666667       0.00000000 </v>
   <v>       0.41666667       0.41666667       0.00000000 </v>
   <v>       0.25000000       0.25000000       0.00000000 </v>
   <v>      -0.25000000       0.50000000       0.00000000 </v>
   <v>       0.50000000       0.25000000       0.00000000 </v>
   <v>       0.33333333       0.25000000       0.00000000 </v>
   <v>      -0.25000000      -0.41666667       0.00000000 </v>
   <v>       0.41666667       0.33333333       0.00000000 </v>
   <v>      -0.33333333      -0.41666667       0.00000000 </v>
   <v>       0.25000000       0.33333333       0.00000000 </v>
   <v>      -0.41666667      -0.25000000       0.00000000 </v>
   <v>       0.33333333       0.33333333       0.00000000 </v>
  </varray>
  <varray name="weights" >
   <v>       0.00694444 </v>
   <v>       0.01388889 </v>
   <v>       0.01388889 </v>
   <v>       0.01388889 </v>
   <v>       0.01388889 </v>
   <v>       0.01388889 </v>
   <v>       0.01388889 </v>
   <v>       0.01388889 </v>
   <v>       0.01388889 </v>
   <v>       0.01388889 </v>
   <v>       0.01388889 </v>
   <v>       0.01388889 </v>
   <v>       0.01388889 </v>
   <v>       0.01388889 </v>
   <v>       0.01388889 </v>
   <v>       0.01388889 </v>
   <v>       0.00694444 </v>
   <v>       0.00694444 </v>
   <v>       0.00694444 </v>
   <v>       0.01388889 </v>
   <v>       0.01388889 </v>
   <v>       0.01388889 </v>
   <v>       0.01388889 </v>
   <v>       0.01388889 </v>
   <v>       0.01388889 </v>
   <v>       0.01388889 </v>
   <v>       0.01388889 </v>
   <v>       0.01388889 </v>
   <v>       0.01388889 </v>
   <v>       0.01388889 </v>
   <v>       0.01388889 </v>
   <v>       0.01388889 </v>
   <v>       0.01388889 </v>
   <v>       0.01388889 </v>
   <v>       0.01388889 </v>
   <v>       0.01388889 </v>
   <v>       0.01388889 </v>
   <v>       0.01388889 </v>
   <v>       0.01388889 </v>
   <v>       0.01388889 </v>
   <v>       0.01388889 </v>
   <v>       0.01388889 </v>
   <v>       0.01388889 </v>
   <v>       0.01388889 </v>
   <v>       0.01388889 </v>
   <v>       0.01388889 </v>
   <v>       0.01388889 </v>
   <v>       0.01388889 </v>
   <v>       0.01388889 </v>
   <v>       0.01388889 </v>
   <v>       0.01388889 </v>
   <v>       0.01388889 </v>
   <v>       0.01388889 </v>
   <v>       0.01388889 </v>
   <v>       0.01388889 </v>
   <v>       0.01388889 </v>
   <v>       0.01388889 </v>
   <v>       0.01388889 </v>
   <v>       0.01388889 </v>
   <v>       0.01388889 </v>
   <v>       0.01388889 </v>
   <v>       0.01388889 </v>
   <v>       0.01388889 </v>
   <v>       0.01388889 </v>
   <v>       0.01388889 </v>
   <v>       0.01388889 </v>
   <v>       0.01388889 </v>
   <v>       0.01388889 </v>
   <v>       0.01388889 </v>
   <v>       0.01388889 </v>
   <v>       0.01388889 </v>
   <v>       0.01388889 </v>
   <v>       0.01388889 </v>
   <v>       0.01388889 </v>
  </varray>
 </kpoints>
 <parameters>
  <separator name="general" >
   <i type="string" name="SYSTEM">Lattice</i>
   <i type="logical" name="LCOMPAT"> F  </i>
  </separator>
  <separator name="electronic" >
   <i type="string" name="PREC">accura</i>
   <i name="ENMAX">    450.00000000</i>
   <i name="ENAUG">    644.87300000</i>
   <i name="EDIFF">      0.00000100</i>
   <i type="int" name="IALGO">    38</i>
   <i type="int" name="IWAVPR">    11</i>
   <i type="int" name="NBANDS">    48</i>
   <i type="int" name="NBANDSLOW">    -1</i>
   <i type="int" name="NBANDSHIGH">    -1</i>
   <i name="NELECT">     56.00000000</i>
   <i type="int" name="TURBO">     0</i>
   <i type="int" name="IRESTART">     0</i>
   <i type="int" name="NREBOOT">     0</i>
   <i type="int" name="NMIN">     0</i>
   <i name="EREF">      0.00000000</i>
   <separator name="electronic smearing" >
    <i type="int" name="ISMEAR">     0</i>
    <i name="SIGMA">      0.10000000</i>
    <i name="KSPACING">      0.50000000</i>
    <i type="logical" name="KGAMMA"> T  </i>
    <i type="logical" name="KBLOWUP"> T  </i>
   </separator>
   <separator name="electronic projectors" >
    <i type="logical" name="LREAL"> F  </i>
    <v name="ROPT">      0.00000000      0.00000000</v>
    <i type="int" name="LMAXPAW">  -100</i>
    <i type="int" name="LMAXMIX">     2</i>
    <i type="logical" name="NLSPLINE"> F  </i>
   </separator>
   <separator name="electronic startup" >
    <i type="int" name="ISTART">     0</i>
    <i type="int" name="ICHARG">     2</i>
    <i type="int" name="INIWAV">     1</i>
   </separator>
   <separator name="electronic spin" >
    <i type="int" name="ISPIN">     2</i>
    <i type="logical" name="LNONCOLLINEAR"> F  </i>
    <v name="MAGMOM">      1.00000000      1.00000000      1.00000000      1.00000000      1.00000000      1.00000000      1.00000000      1.00000000      1.00000000      1.00000000      1.00000000      1.00000000      1.00000000      1.00000000      1.00000000</v>
    <i name="NUPDOWN">     -1.00000000</i>
    <i type="logical" name="LSORBIT"> F  </i>
    <v name="SAXIS">      0.00000000      0.00000000      1.00000000</v>
    <i type="logical" name="LSPIRAL"> F  </i>
    <v name="QSPIRAL">      0.00000000      0.00000000      0.00000000</v>
    <i type="logical" name="LZEROZ"> F  </i>
   </separator>
   <separator name="electronic exchange-correlation" >
    <i type="logical" name="LASPH"> F  </i>
    <i type="logical" name="LMETAGGA"> F  </i>
   </separator>
   <separator name="electronic convergence" >
    <i type="int" name="NELM">    64</i>
    <i type="int" name="NELMDL">    -5</i>
    <i type="int" name="NELMIN">     2</i>
    <i name="ENINI">    450.00000000</i>
    <separator name="electronic convergence detail" >
     <i type="logical" name="LDIAG"> T  </i>
     <i type="logical" name="LSUBROT"> F  </i>
     <i name="WEIMIN">      0.00100000</i>
     <i name="EBREAK">      0.00000001</i>
     <i name="DEPER">      0.30000000</i>
     <i type="int" name="NRMM">     4</i>
     <i name="TIME">      0.40000000</i>
    </separator>
   </separator>
   <separator name="electronic mixer" >
    <i name="AMIX">      0.40000000</i>
    <i name="BMIX">      1.00000000</i>
    <i name="AMIN">      0.10000000</i>
    <i name="AMIX_MAG">      1.60000000</i>
    <i name="BMIX_MAG">      1.00000000</i>
    <separator name="electronic mixer details" >
     <i type="int" name="IMIX">     4</i>
     <i type="logical" name="MIXFIRST"> F  </i>
     <i type="int" name="MAXMIX">   -45</i>
     <i name="WC">    100.00000000</i>
     <i type="int" name="INIMIX">     1</i>
     <i type="int" name="MIXPRE">     1</i>
     <i type="int" name="MREMOVE">     5</i>
    </separator>
   </separator>
   <separator name="electronic dipolcorrection" >
    <i type="logical" name="LDIPOL"> F  </i>
    <i type="logical" name="LMONO"> F  </i>
    <i type="int" name="IDIPOL">     0</i>
    <i name="EPSILON">      1.00000000</i>
    <v name="DIPOL">   -100.00000000   -100.00000000   -100.00000000</v>
    <i name="EFIELD">      0.00000000</i>
   </separator>
  </separator>
  <separator name="grids" >
   <i type="int" name="NGX">    36</i>
   <i type="int" name="NGY">    36</i>
   <i type="int" name="NGZ">   108</i>
   <i type="int" name="NGXF">    72</i>
   <i type="int" name="NGYF">    72</i>
   <i type="int" name="NGZF">   216</i>
   <i type="logical" name="ADDGRID"> F  </i>
  </separator>
  <separator name="ionic" >
   <i type="int" name="NSW">   128</i>
   <i type="int" name="IBRION">     2</i>
   <i type="int" name="MDALGO">     0</i>
   <i type="int" name="ISIF">     2</i>
   <i name="PSTRESS">      0.00000000</i>
   <i name="EDIFFG">     -0.00100000</i>
   <i type="int" name="NFREE">     1</i>
   <i name="POTIM">      0.50000000</i>
   <i name="SMASS">     -3.00000000</i>
   <i name="SCALEE">      1.00000000</i>
  </separator>
  <separator name="ionic md" >
   <i name="TEBEG">      0.00010000</i>
   <i name="TEEND">      0.00010000</i>
   <i type="int" name="NBLOCK">     1</i>
   <i type="int" name="KBLOCK">   128</i>
   <i type="int" name="NPACO">   256</i>
   <i name="APACO">     10.00000000</i>
  </separator>
  <separator name="symmetry" >
   <i type="int" name="ISYM">     2</i>
   <i name="SYMPREC">      0.00001000</i>
  </separator>
  <separator name="dos" >
   <i type="int" name="LORBIT">     0</i>
   <v name="RWIGS">     -1.00000000     -1.00000000</v>
   <i type="int" name="NEDOS">   301</i>
   <i name="EMIN">     10.00000000</i>
   <i name="EMAX">    -10.00000000</i>
   <i name="EFERMI">      0.00000000</i>
  </separator>
  <separator name="writing" >
   <i type="int" name="NWRITE">     2</i>
   <i type="logical" name="LWAVE"> F  </i>
   <i type="logical" name="LDOWNSAMPLE"> F  </i>
   <i type="logical" name="LCHARG"> F  </i>
   <i type="logical" name="LPARD"> F  </i>
   <i type="logical" name="LVTOT"> F  </i>
   <i type="logical" name="LVHAR"> F  </i>
   <i type="logical" name="LELF"> F  </i>
   <i type="logical" name="LOPTICS"> F  </i>
   <v name="STM">      0.00000000      0.00000000      0.00000000      0.00000000      0.00000000      0.00000000      0.00000000</v>
  </separator>
  <separator name="performance" >
   <i type="int" name="NPAR">    48</i>
   <i type="int" name="NSIM">     4</i>
   <i type="int" name="NBLK">    -1</i>
   <i type="logical" name="LPLANE"> T  </i>
   <i type="logical" name="LSCALAPACK"> T  </i>
   <i type="logical" name="LSCAAWARE"> F  </i>
   <i type="logical" name="LSCALU"> F  </i>
   <i type="logical" name="LASYNC"> F  </i>
   <i type="logical" name="LORBITALREAL"> F  </i>
  </separator>
  <separator name="miscellaneous" >
   <i type="int" name="IDIOT">     3</i>
   <i type="int" name="PHON_NSTRUCT">    -1</i>
   <i type="logical" name="LMUSIC"> F  </i>
   <v name="POMASS">     10.81100000     12.01100000</v>
   <v name="DARWINR">      0.00000000      0.00000000</v>
   <v name="DARWINV">      1.00000000      1.00000000</v>
   <i type="logical" name="LCORR"> T  </i>
  </separator>
  <i type="logical" name="GGA_COMPAT"> T  </i>
  <i type="logical" name="LBERRY"> F  </i>
  <i type="int" name="ICORELEVEL">     0</i>
  <i type="logical" name="LDAU"> F  </i>
  <i type="int" name="I_CONSTRAINED_M">     0</i>
  <separator name="electronic exchange-correlation" >
   <i type="string" name="GGA">PE</i>
   <i type="int" name="VOSKOWN">     0</i>
   <i type="logical" name="LHFCALC"> F  </i>
   <i type="string" name="PRECFOCK"></i>
   <i type="logical" name="LSYMGRAD"> F  </i>
   <i type="logical" name="LHFONE"> F  </i>
   <i type="logical" name="LRHFCALC"> F  </i>
   <i type="logical" name="LTHOMAS"> F  </i>
   <i type="logical" name="LMODELHF"> F  </i>
   <i type="logical" name="LFOCKACE"> F  </i>
   <i name="ENCUT4O">     -1.00000000</i>
   <i type="int" name="EXXOEP">     0</i>
   <i type="int" name="FOURORBIT">     0</i>
   <i name="AEXX">      0.00000000</i>
   <i name="HFALPHA">      0.00000000</i>
   <i name="MCALPHA">      0.00000000</i>
   <i name="ALDAX">      1.00000000</i>
   <i name="AGGAX">      1.00000000</i>
   <i name="ALDAC">      1.00000000</i>
   <i name="AGGAC">      1.00000000</i>
   <i type="int" name="NKREDX">     1</i>
   <i type="int" name="NKREDY">     1</i>
   <i type="int" name="NKREDZ">     1</i>
   <i type="logical" name="SHIFTRED"> F  </i>
   <i type="logical" name="ODDONLY"> F  </i>
   <i type="logical" name="EVENONLY"> F  </i>
   <i type="int" name="LMAXFOCK">     0</i>
   <i type="int" name="NMAXFOCKAE">     0</i>
   <i type="logical" name="LFOCKAEDFT"> F  </i>
   <i name="HFSCREEN">      0.00000000</i>
   <i name="HFSCREENC">      0.00000000</i>
   <i type="int" name="NBANDSGWLOW">     0</i>
  </separator>
  <separator name="vdW DFT" >
   <i type="logical" name="LUSE_VDW"> F  </i>
   <i name="Zab_VDW">     -0.84910000</i>
   <i name="PARAM1">      0.12340000</i>
   <i name="PARAM2">      1.00000000</i>
   <i name="PARAM3">      0.00000000</i>
  </separator>
  <separator name="model GW" >
   <i type="int" name="MODEL_GW">     0</i>
   <i name="MODEL_EPS0">     12.34898099</i>
   <i name="MODEL_ALPHA">      1.00000000</i>
  </separator>
  <separator name="linear response parameters" >
   <i type="logical" name="LEPSILON"> F  </i>
   <i type="logical" name="LRPA"> F  </i>
   <i type="logical" name="LNABLA"> F  </i>
   <i type="logical" name="LVEL"> F  </i>
   <i name="CSHIFT">      0.10000000</i>
   <i name="OMEGAMAX">     -1.00000000</i>
   <i name="DEG_THRESHOLD">      0.00200000</i>
   <i name="RTIME">     -0.10000000</i>
   <i name="WPLASMAI">      0.00000000</i>
   <v name="DFIELD">      0.00000000      0.00000000      0.00000000</v>
   <v name="WPLASMA">      0.00000000      0.00000000      0.00000000      0.00000000      0.00000000      0.00000000      0.00000000      0.00000000      0.00000000</v>
  </separator>
  <separator name="orbital magnetization" >
   <i type="logical" name="NUCIND"> F  </i>
   <v name="MAGPOS">      0.00000000      0.00000000      0.00000000</v>
   <i type="logical" name="LNICSALL"> T  </i>
   <i type="logical" name="ORBITALMAG"> F  </i>
   <i type="logical" name="LMAGBLOCH"> F  </i>
   <i type="logical" name="LCHIMAG"> F  </i>
   <i type="logical" name="LGAUGE"> T  </i>
   <i type="int" name="MAGATOM">     0</i>
   <v name="MAGDIPOL">      0.00000000      0.00000000      0.00000000</v>
   <v name="AVECCONST">      0.00000000      0.00000000      0.00000000</v>
  </separator>
  <separator name="response functions" >
   <i type="logical" name="LFINITE_TEMPERATURE"> F  </i>
   <i type="logical" name="LADDER"> F  </i>
   <i type="logical" name="LRPAFORCE"> F  </i>
   <i type="logical" name="LFXC"> F  </i>
   <i type="logical" name="LHARTREE"> T  </i>
   <i type="int" name="IBSE">     0</i>
   <v type="int" name="KPOINT">    -1     0     0     0</v>
   <i type="logical" name="LTCTC"> F  </i>
   <i type="logical" name="LTCTE"> F  </i>
   <i type="logical" name="LTETE"> F  </i>
   <i type="logical" name="LTRIPLET"> F  </i>
   <i type="logical" name="LFXCEPS"> F  </i>
   <i type="logical" name="LFXHEG"> F  </i>
   <i type="int" name="NATURALO">     2</i>
   <i type="logical" name="LHOLEGF"> F  </i>
   <i type="logical" name="L2ORDER"> F  </i>
   <i type="logical" name="LDMP1"> F  </i>
   <i type="logical" name="LMP2LT"> F  </i>
   <i type="logical" name="LSMP2LT"> F  </i>
   <i type="logical" name="LGWLF"> F  </i>
   <i name="ENCUTGW">     -2.00000000</i>
   <i name="ENCUTGWSOFT">     -2.00000000</i>
   <i name="ENCUTLF">     -1.00000000</i>
   <i type="logical" name="LESF_SPLINES"> F  </i>
   <i type="int" name="LMAXMP2">    -1</i>
   <i name="SCISSOR">      0.00000000</i>
   <i type="int" name="NOMEGA">     0</i>
   <i type="int" name="NOMEGAR">     0</i>
   <i type="int" name="NBANDSGW">    -1</i>
   <i type="int" name="NBANDSO">    -1</i>
   <i type="int" name="NBANDSV">    -1</i>
   <i type="int" name="NELMGW">     1</i>
   <i type="int" name="NELMHF">     1</i>
   <i type="int" name="DIM">     3</i>
   <i type="int" name="IESPILON">     4</i>
   <i type="int" name="ANTIRES">     0</i>
   <i name="OMEGAMAX">    -30.00000000</i>
   <i name="OMEGAMIN">    -30.00000000</i>
   <i name="OMEGATL">   -200.00000000</i>
   <i type="int" name="OMEGAGRID">     0</i>
   <i name="CSHIFT">     -0.10000000</i>
   <i type="logical" name="LSELFENERGY"> F  </i>
   <i type="logical" name="LSPECTRAL"> F  </i>
   <i type="logical" name="LSPECTRALGW"> F  </i>
   <i type="logical" name="LSINGLES"> F  </i>
   <i type="logical" name="LFERMIGW"> F  </i>
   <i type="logical" name="ODDONLYGW"> F  </i>
   <i type="logical" name="EVENONLYGW"> F  </i>
   <i type="int" name="NKREDLFX">     1</i>
   <i type="int" name="NKREDLFY">     1</i>
   <i type="int" name="NKREDLFZ">     1</i>
   <i type="int" name="MAXMEM">  2800</i>
   <i type="int" name="TELESCOPE">     0</i>
   <i type="int" name="NTAUPAR">    -1</i>
   <i type="int" name="NOMEGAPAR">    -1</i>
   <i name="DAMP_NEWTON">      0.80000001</i>
   <i name="LAMBDA">      1.00000000</i>
  </separator>
  <separator name="External order field" >
   <i name="OFIELD_KAPPA">      0.00000000</i>
   <v name="OFIELD_K">      0.00000000      0.00000000      0.00000000</v>
   <i name="OFIELD_Q6_NEAR">      0.00000000</i>
   <i name="OFIELD_Q6_FAR">      0.00000000</i>
   <i name="OFIELD_A">      0.00000000</i>
  </separator>
  <separator name="optional k-points parameters" >
   <i type="int" name="KPOINTS_OPT_MODE">     1</i>
   <i type="logical" name="LKPOINTS_OPT"> F  </i>
  </separator>
  <separator name="solvation model" >
   <i type="logical" name="LSOL"> F  </i>
  </separator>
 </parameters>
 <atominfo>
  <atoms>      15 </atoms>
  <types>       2 </types>
  <array name="atoms" >
   <dimension dim="1">ion</dimension>
   <field type="string">element</field>
   <field type="int">atomtype</field>
   <set>
    <rc><c>B </c><c>   1</c></rc>
    <rc><c>B </c><c>   1</c></rc>
    <rc><c>B </c><c>   1</c></rc>
    <rc><c>B </c><c>   1</c></rc>
    <rc><c>C </c><c>   2</c></rc>
    <rc><c>C </c><c>   2</c></rc>
    <rc><c>C </c><c>   2</c></rc>
    <rc><c>C </c><c>   2</c></rc>
    <rc><c>C </c><c>   2</c></rc>
    <rc><c>C </c><c>   2</c></rc>
    <rc><c>C </c><c>   2</c></rc>
    <rc><c>C </c><c>   2</c></rc>
    <rc><c>C </c><c>   2</c></rc>
    <rc><c>C </c><c>   2</c></rc>
    <rc><c>C </c><c>   2</c></rc>
   </set>
  </array>
  <array name="atomtypes" >
   <dimension dim="1">type</dimension>
   <field type="int">atomspertype</field>
   <field type="string">element</field>
   <field>mass</field>
   <field>valence</field>
   <field type="string">pseudopotential</field>
   <set>
    <rc><c>   4</c><c>B </c><c>     10.81100000</c><c>      3.00000000</c><c>  PAW_PBE B 06Sep2000                   </c></rc>
    <rc><c>  11</c><c>C </c><c>     12.01100000</c><c>      4.00000000</c><c>  PAW_PBE C 08Apr2002                   </c></rc>
   </set>
  </array>
 </atominfo>
 <structure name="initialpos" >
  <crystal>
   <varray name="basis" >
    <v>       4.22187384       2.43750000       0.00000000 </v>
    <v>      -4.22187384       2.43750000       0.00000000 </v>
    <v>       0.00000000       0.00000000      15.00000000 </v>
   </varray>
   <i name="volume">    308.72452480 </i>
   <varray name="rec_basis" >
    <v>       0.11843082       0.20512821       0.00000000 </v>
    <v>      -0.11843082       0.20512821       0.00000000 </v>
    <v>       0.00000000       0.00000000       0.06666667 </v>
   </varray>
  </crystal>
  <varray name="positions" >
   <v>       0.00415361       0.00267210       0.12034134 </v>
   <v>       0.35695335       0.00285503       0.09748893 </v>
   <v>       0.00423858       0.35550699       0.09749256 </v>
   <v>       0.65142295       0.65006557       0.09747688 </v>
   <v>       0.32808646       0.32671938       0.10030508 </v>
   <v>       0.68027775       0.00278085       0.10027562 </v>
   <v>       0.00416530       0.67883808       0.10026559 </v>
   <v>       0.11111044       0.38888856       0.33726667 </v>
   <v>       0.27777744       0.22222156       0.33726667 </v>
   <v>       0.11111044       0.88888856       0.33726667 </v>
   <v>       0.27777744       0.72222156       0.33726667 </v>
   <v>       0.61111044       0.38888856       0.33726667 </v>
   <v>       0.77777744       0.22222156       0.33726667 </v>
   <v>       0.61111044       0.88888856       0.33726667 </v>
   <v>       0.77777744       0.72222156       0.33726667 </v>
  </varray>
 </structure>
 <calculation>
  <scstep>
   <time name="dav">    5.49    5.53</time>
   <time name="total">    5.54    5.58</time>
   <energy>
    <i name="alphaZ">     57.61542544 </i>
    <i name="ewald">   4609.65288558 </i>
    <i name="hartreedc">  -6170.36831036 </i>
    <i name="XCdc">    174.53200278 </i>
    <i name="pawpsdc">   1365.87943566 </i>
    <i name="pawaedc">  -1368.52100941 </i>
    <i name="eentropy">     -0.01377837 </i>
    <i name="bandstr">   -371.18857880 </i>
    <i name="atom">   1903.26342058 </i>
    <i name="e_fr_energy">    200.85149310 </i>
    <i name="e_wo_entrp">    200.86527147 </i>
    <i name="e_0_energy">    200.85838228 </i>
   </energy>
  </scstep>
  <scstep>
   <time name="dav">    8.05    8.10</time>
   <time name="total">    8.05    8.10</time>
   <energy>
    <i name="e_fr_energy">   -116.18242355 </i>
    <i name="e_wo_entrp">   -116.18153124 </i>
    <i name="e_0_energy">   -116.18197739 </i>
   </energy>
  </scstep>
  <scstep>
   <time name="dav">   11.54   11.63</time>
   <time name="total">   11.54   11.63</time>
   <energy>
    <i name="e_fr_energy">   -128.88275742 </i>
    <i name="e_wo_entrp">   -128.87940563 </i>
    <i name="e_0_energy">   -128.88108153 </i>
   </energy>
  </scstep>
  <scstep>
   <time name="dav">    7.95    8.03</time>
   <time name="total">    7.96    8.03</time>
   <energy>
    <i name="e_fr_energy">   -128.90163145 </i>
    <i name="e_wo_entrp">   -128.89838329 </i>
    <i name="e_0_energy">   -128.90000737 </i>
   </energy>
  </scstep>
  <scstep>
   <time name="dav">   11.02   11.09</time>
   <time name="total">   11.28   11.36</time>
   <energy>
    <i name="e_fr_energy">   -128.90169263 </i>
    <i name="e_wo_entrp">   -128.89844440 </i>
    <i name="e_0_energy">   -128.90006852 </i>
   </energy>
  </scstep>
  <scstep>
   <time name="dav">   10.52   10.60</time>
   <time name="total">   10.82   10.91</time>
   <energy>
    <i name="e_fr_energy">    -91.81877401 </i>
    <i name="e_wo_entrp">    -91.81158782 </i>
    <i name="e_0_energy">    -91.81518091 </i>
   </energy>
  </scstep>
  <scstep>
   <time name="dav">    9.03    9.09</time>
   <time name="total">    9.32    9.40</time>
   <energy>
    <i name="e_fr_energy">   -100.22363576 </i>
    <i name="e_wo_entrp">   -100.21770636 </i>
    <i name="e_0_energy">   -100.22067106 </i>
   </energy>
  </scstep>
  <scstep>
   <time name="dav">    9.83   10.01</time>
   <time name="total">   10.12   10.32</time>
   <energy>
    <i name="e_fr_energy">   -110.42418716 </i>
    <i name="e_wo_entrp">   -110.42416075 </i>
    <i name="e_0_energy">   -110.42417395 </i>
   </energy>
  </scstep>
  <scstep>
   <time name="dav">    8.15    8.22</time>
   <time name="total">    8.44    8.52</time>
   <energy>
    <i name="e_fr_energy">   -117.12080351 </i>
    <i name="e_wo_entrp">   -117.12079919 </i>
    <i name="e_0_energy">   -117.12080135 </i>
   </energy>
  </scstep>
  <scstep>
   <time name="dav">    9.50    9.56</time>
   <time name="total">    9.79    9.87</time>
   <energy>
    <i name="e_fr_energy">   -123.43018949 </i>
    <i name="e_wo_entrp">   -123.42958388 </i>
    <i name="e_0_energy">   -123.42988669 </i>
   </energy>
  </scstep>
  <scstep>
   <time name="dav">   10.40   10.49</time>
   <time name="total">   10.69   10.79</time>
   <energy>
    <i name="e_fr_energy">   -125.24992129 </i>
    <i name="e_wo_entrp">   -125.24872172 </i>
    <i name="e_0_energy">   -125.24932151 </i>
   </energy>
  </scstep>
  <scstep>
   <time name="dav">    7.71    7.77</time>
   <time name="total">    8.00    8.07</time>
   <energy>
    <i name="e_fr_energy">   -125.39565520 </i>
    <i name="e_wo_entrp">   -125.39417096 </i>
    <i name="e_0_energy">   -125.39491308 </i>
   </energy>
  </scstep>
  <scstep>
   <time name="dav">    7.44    7.49</time>
   <time name="total">    7.73    7.80</time>
   <energy>
    <i name="e_fr_energy">   -125.42152949 </i>
    <i name="e_wo_entrp">   -125.41997056 </i>
    <i name="e_0_energy">   -125.42075002 </i>
   </energy>
  </scstep>
  <scstep>
   <time name="dav">    8.04    8.10</time>
   <time name="total">    8.33    8.40</time>
   <energy>
    <i name="e_fr_energy">   -125.44479829 </i>
    <i name="e_wo_entrp">   -125.44323427 </i>
    <i name="e_0_energy">   -125.44401628 </i>
   </energy>
  </scstep>
  <scstep>
   <time name="dav">    8.16    8.22</time>
   <time name="total">    8.45    8.52</time>
   <energy>
    <i name="e_fr_energy">   -125.45244923 </i>
    <i name="e_wo_entrp">   -125.45088450 </i>
    <i name="e_0_energy">   -125.45166686 </i>
   </energy>
  </scstep>
  <scstep>
   <time name="dav">    6.36    6.41</time>
   <time name="total">    6.65    6.71</time>
   <energy>
    <i name="e_fr_energy">   -125.45442160 </i>
    <i name="e_wo_entrp">   -125.45285684 </i>
    <i name="e_0_energy">   -125.45363922 </i>
   </energy>
  </scstep>
  <scstep>
   <time name="dav">    5.95    5.99</time>
   <time name="total">    6.24    6.29</time>
   <energy>
    <i name="e_fr_energy">   -125.45566298 </i>
    <i name="e_wo_entrp">   -125.45409824 </i>
    <i name="e_0_energy">   -125.45488061 </i>
   </energy>
  </scstep>
  <scstep>
   <time name="dav">    6.71    6.77</time>
   <time name="total">    7.01    7.08</time>
   <energy>
    <i name="e_fr_energy">   -125.45635651 </i>
    <i name="e_wo_entrp">   -125.45479178 </i>
    <i name="e_0_energy">   -125.45557415 </i>
   </energy>
  </scstep>
  <scstep>
   <time name="dav">    8.21    8.26</time>
   <time name="total">    8.50    8.57</time>
   <energy>
    <i name="e_fr_energy">   -125.45678936 </i>
    <i name="e_wo_entrp">   -125.45522461 </i>
    <i name="e_0_energy">   -125.45600699 </i>
   </energy>
  </scstep>
  <scstep>
   <time name="dav">    9.32    9.38</time>
   <time name="total">    9.60    9.67</time>
   <energy>
    <i name="e_fr_energy">   -125.45684289 </i>
    <i name="e_wo_entrp">   -125.45527814 </i>
    <i name="e_0_energy">   -125.45606052 </i>
   </energy>
  </scstep>
  <scstep>
   <time name="dav">    8.22    8.28</time>
   <time name="total">    8.51    8.58</time>
   <energy>
    <i name="e_fr_energy">   -125.45686125 </i>
    <i name="e_wo_entrp">   -125.45529650 </i>
    <i name="e_0_energy">   -125.45607887 </i>
   </energy>
  </scstep>
  <scstep>
   <time name="dav">    9.14    9.21</time>
   <time name="total">    9.43    9.50</time>
   <energy>
    <i name="e_fr_energy">   -125.45688235 </i>
    <i name="e_wo_entrp">   -125.45531760 </i>
    <i name="e_0_energy">   -125.45609997 </i>
   </energy>
  </scstep>
  <scstep>
   <time name="dav">    8.51    8.57</time>
   <time name="total">    8.80    8.87</time>
   <energy>
    <i name="e_fr_energy">   -125.45689769 </i>
    <i name="e_wo_entrp">   -125.45533294 </i>
    <i name="e_0_energy">   -125.45611532 </i>
   </energy>
  </scstep>
  <scstep>
   <time name="dav">    9.62    9.68</time>
   <time name="total">    9.91    9.98</time>
   <energy>
    <i name="e_fr_energy">   -125.45690077 </i>
    <i name="e_wo_entrp">   -125.45533602 </i>
    <i name="e_0_energy">   -125.45611840 </i>
   </energy>
  </scstep>
  <scstep>
   <time name="dav">    9.08    9.15</time>
   <time name="total">    9.11    9.18</time>
   <energy>
    <i name="alphaZ">     57.61542544 </i>
    <i name="ewald">   4609.65288558 </i>
    <i name="hartreedc">  -6366.00342648 </i>
    <i name="XCdc">    179.74763900 </i>
    <i name="pawpsdc">   5576.73362462 </i>
    <i name="pawaedc">  -5581.08089528 </i>
    <i name="eentropy">     -0.00156475 </i>
    <i name="bandstr">   -505.38401041 </i>
    <i name="atom">   1903.26342058 </i>
    <i name="e_fr_energy">   -125.45690171 </i>
    <i name="e_wo_entrp">   -125.45533696 </i>
    <i name="e_0_energy">   -125.45611933 </i>
   </energy>
  </scstep>
  <structure>
   <crystal>
    <varray name="basis" >
     <v>       4.22187384       2.43750000       0.00000000 </v>
     <v>      -4.22187384       2.43750000       0.00000000 </v>
     <v>       0.00000000       0.00000000      15.00000000 </v>
    </varray>
    <i name="volume">    308.72452480 </i>
    <varray name="rec_basis" >
     <v>       0.11843082       0.20512821       0.00000000 </v>
     <v>      -0.11843082       0.20512821       0.00000000 </v>
     <v>       0.00000000       0.00000000       0.06666667 </v>
    </varray>
   </crystal>
   <varray name="positions" >
    <v>       0.00415361       0.00267210       0.12034134 </v>
    <v>       0.35695335       0.00285503       0.09748893 </v>
    <v>       0.00423858       0.35550699       0.09749256 </v>
    <v>       0.65142295       0.65006557       0.09747688 </v>
    <v>       0.32808646       0.32671938       0.10030508 </v>
    <v>       0.68027775       0.00278085       0.10027562 </v>
    <v>       0.00416530       0.67883808       0.10026559 </v>
    <v>       0.11111044       0.38888856       0.33726667 </v>
    <v>       0.27777744       0.22222156       0.33726667 </v>
    <v>       0.11111044       0.88888856       0.33726667 </v>
    <v>       0.27777744       0.72222156       0.33726667 </v>
    <v>       0.61111044       0.38888856       0.33726667 </v>
    <v>       0.77777744       0.22222156       0.33726667 </v>
    <v>       0.61111044       0.88888856       0.33726667 </v>
    <v>       0.77777744       0.72222156       0.33726667 </v>
   </varray>
  </structure>
  <varray name="forces" >
   <v>      -0.00049333       0.00149003      -0.45601827 </v>
   <v>      -0.11848212      -0.07447146       0.11891599 </v>
   <v>       0.09929141      -0.06204651       0.13565434 </v>
   <v>       0.00947472       0.12615402       0.13127798 </v>
   <v>       0.01416022      -0.39878049       0.00329127 </v>
   <v>       0.36082243       0.20963727       0.01712304 </v>
   <v>      -0.33488905       0.19927777       0.00615552 </v>
   <v>      -0.01534319       0.00141883       0.00477675 </v>
   <v>       0.00137995       0.01251230       0.02833173 </v>
   <v>       0.00429679       0.01638638       0.00875753 </v>
   <v>       0.01706005       0.00960935      -0.01850852 </v>
   <v>       0.00127134      -0.00447209      -0.02008097 </v>
   <v>      -0.00775636       0.00063227       0.00763999 </v>
   <v>      -0.01144550      -0.01206531       0.02450032 </v>
   <v>      -0.01934737      -0.02528237       0.00818330 </v>
  </varray>
  <varray name="stress" >
   <v>     -35.58508199       0.07748852      -0.54849876 </v>
   <v>       0.07748853     -35.71090561      -0.02149305 </v>
   <v>      -0.54849877      -0.02149304      -2.10162500 </v>
  </varray>
  <energy>
   <i name="e_fr_energy">   -127.03882761 </i>
   <i name="e_wo_entrp">   -127.03726285 </i>
   <i name="e_0_energy">   -127.03804523 </i>
  </energy>
  <time name="totalsc">  224.58  226.49</time>
 </calculation>
 <calculation>
  <scstep>
   <time name="dav">    5.49    5.54</time>
   <time name="total">    5.78    5.84</time>
   <energy>
    <i name="alphaZ">     57.61542544 </i>
    <i name="ewald">   4613.60709188 </i>
    <i name="hartreedc">  -6368.38586160 </i>
    <i name="XCdc">    179.83935577 </i>
    <i name="pawpsdc">   5576.76190961 </i>
    <i name="pawaedc">  -5581.10917835 </i>
    <i name="eentropy">     -0.00156387 </i>
    <i name="bandstr">   -507.06206167 </i>
    <i name="atom">   1903.26342058 </i>
    <i name="e_fr_energy">   -125.47146221 </i>
    <i name="e_wo_entrp">   -125.46989834 </i>
    <i name="e_0_energy">   -125.47068027 </i>
   </energy>
  </scstep>
  <scstep>
   <time name="dav">   11.05   11.12</time>
   <time name="total">   11.33   11.42</time>
   <energy>
    <i name="e_fr_energy">   -125.46082444 </i>
    <i name="e_wo_entrp">   -125.45926046 </i>
    <i name="e_0_energy">   -125.46004245 </i>
   </energy>
  </scstep>
  <scstep>
   <time name="dav">    7.58    7.63</time>
   <time name="total">    7.86    7.93</time>
   <energy>
    <i name="e_fr_energy">   -125.45964277 </i>
    <i name="e_wo_entrp">   -125.45807875 </i>
    <i name="e_0_energy">   -125.45886076 </i>
   </energy>
  </scstep>
  <scstep>
   <time name="dav">   11.50   11.58</time>
   <time name="total">   11.79   11.88</time>
   <energy>
    <i name="e_fr_energy">   -125.45959373 </i>
    <i name="e_wo_entrp">   -125.45802970 </i>
    <i name="e_0_energy">   -125.45881172 </i>
   </energy>
  </scstep>
  <scstep>
   <time name="dav">    9.70    9.77</time>
   <time name="total">    9.99   10.07</time>
   <energy>
    <i name="e_fr_energy">   -125.45959789 </i>
    <i name="e_wo_entrp">   -125.45803386 </i>
    <i name="e_0_energy">   -125.45881588 </i>
   </energy>
  </scstep>
  <scstep>
   <time name="dav">    9.72    9.79</time>
   <time name="total">    9.75    9.82</time>
   <energy>
    <i name="alphaZ">     57.61542544 </i>
    <i name="ewald">   4613.60709188 </i>
    <i name="hartreedc">  -6369.21113912 </i>
    <i name="XCdc">    179.85790617 </i>
    <i name="pawpsdc">   5606.11892943 </i>
    <i name="pawaedc">  -5610.47590221 </i>
    <i name="eentropy">     -0.00156403 </i>
    <i name="bandstr">   -506.23376600 </i>
    <i name="atom">   1903.26342058 </i>
    <i name="e_fr_energy">   -125.45959786 </i>
    <i name="e_wo_entrp">   -125.45803383 </i>
    <i name="e_0_energy">   -125.45881585 </i>
   </energy>
  </scstep>
  <structure>
   <crystal>
    <varray name="basis" >
     <v>       4.22187384       2.43750000       0.00000000 </v>
     <v>      -4.22187384       2.43750000       0.00000000 </v>
     <v>       0.00000000       0.00000000      15.00000000 </v>
    </varray>
    <i name="volume">    308.72452480 </i>
    <varray name="rec_basis" >
     <v>       0.11843082       0.20512821       0.00000000 </v>
     <v>      -0.11843082       0.20512821       0.00000000 </v>
     <v>       0.00000000       0.00000000       0.06666667 </v>
    </varray>
   </crystal>
   <varray name="positions" >
    <v>       0.00416553       0.00268967       0.11887470 </v>
    <v>       0.35553945       0.00279500       0.09787139 </v>
    <v>       0.00419186       0.35432569       0.09792885 </v>
    <v>       0.65272550       0.65125985       0.09789909 </v>
    <v>       0.32422106       0.32269217       0.10031566 </v>
    <v>       0.68441383       0.00279388       0.10033069 </v>
    <v>       0.00422398       0.68272348       0.10028538 </v>
    <v>       0.11103682       0.38899026       0.33728203 </v>
    <v>       0.27790915       0.22233749       0.33735779 </v>
    <v>       0.11129715       0.88902616       0.33729483 </v>
    <v>       0.27797001       0.72221918       0.33720714 </v>
    <v>       0.61107345       0.38883704       0.33720208 </v>
    <v>       0.77773939       0.22227213       0.33729124 </v>
    <v>       0.61092565       0.88883455       0.33734546 </v>
    <v>       0.77741671       0.72208190       0.33729299 </v>
   </varray>
  </structure>
  <varray name="forces" >
   <v>      -0.00346022       0.00253703      -0.20731581 </v>
   <v>       0.26286803       0.14710823       0.06633308 </v>
   <v>      -0.22567798       0.13682875       0.07810090 </v>
   <v>       0.01094524      -0.27642715       0.07461645 </v>
   <v>       0.00268292       0.59332937      -0.02171332 </v>
   <v>      -0.52849159      -0.30806464      -0.01381161 </v>
   <v>       0.51055023      -0.29407545      -0.01991866 </v>
   <v>       0.03782793      -0.00591392       0.00546386 </v>
   <v>      -0.02682371      -0.03929232       0.00935390 </v>
   <v>      -0.02968909      -0.05852151       0.00860904 </v>
   <v>      -0.07427008      -0.03229315      -0.00005122 </v>
   <v>      -0.01475343       0.01260268       0.00147140 </v>
   <v>       0.01088604      -0.00581446       0.00407446 </v>
   <v>       0.02086063       0.04347190       0.00915272 </v>
   <v>       0.04654507       0.08452463       0.00563481 </v>
  </varray>
  <varray name="stress" >
   <v>     -32.68301472       0.11821168      -0.55680781 </v>
   <v>       0.11821165     -32.76042937      -0.01924555 </v>
   <v>      -0.55680781      -0.01924556      -1.65468522 </v>
  </varray>
  <energy>
   <i name="e_fr_energy">   -127.04076091 </i>
   <i name="e_wo_entrp">   -127.03919689 </i>
   <i name="e_0_energy">   -127.03997890 </i>
  </energy>
  <time name="totalsc">   61.24   61.73</time>
 </calculation>
 <calculation>
  <scstep>
   <time name="dav">    5.50    5.54</time>
   <time name="total">    5.79    5.84</time>
   <energy>
    <i name="alphaZ">     57.61542544 </i>
    <i name="ewald">   4611.68526009 </i>
    <i name="hartreedc">  -6368.04438407 </i>
    <i name="XCdc">    179.81300370 </i>
    <i name="pawpsdc">   5606.12997991 </i>
    <i name="pawaedc">  -5610.48693481 </i>
    <i name="eentropy">     -0.00156447 </i>
    <i name="bandstr">   -505.44433343 </i>
    <i name="atom">   1903.26342058 </i>
    <i name="e_fr_energy">   -125.47012706 </i>
    <i name="e_wo_entrp">   -125.46856259 </i>
    <i name="e_0_energy">   -125.46934482 </i>
   </energy>
  </scstep>
  <scstep>
   <time name="dav">   10.66   10.73</time>
   <time name="total">   10.95   11.04</time>
   <energy>
    <i name="e_fr_energy">   -125.46767313 </i>
    <i name="e_wo_entrp">   -125.46610871 </i>
    <i name="e_0_energy">   -125.46689092 </i>
   </energy>
  </scstep>
  <scstep>
   <time name="dav">    9.44    9.50</time>
   <time name="total">    9.73    9.80</time>
   <energy>
    <i name="e_fr_energy">   -125.46741820 </i>
    <i name="e_wo_entrp">   -125.46585380 </i>
    <i name="e_0_energy">   -125.46663600 </i>
   </energy>
  </scstep>
  <scstep>
   <time name="dav">    9.91    9.98</time>
   <time name="total">   10.20   10.28</time>
   <energy>
    <i name="e_fr_energy">   -125.46740716 </i>
    <i name="e_wo_entrp">   -125.46584276 </i>
    <i name="e_0_energy">   -125.46662496 </i>
   </energy>
  </scstep>
  <scstep>
   <time name="dav">    9.07    9.13</time>
   <time name="total">    9.11    9.17</time>
   <energy>
    <i name="alphaZ">     57.61542544 </i>
    <i name="ewald">   4611.68526009 </i>
    <i name="hartreedc">  -6367.67772304 </i>
    <i name="XCdc">    179.80428144 </i>
    <i name="pawpsdc">   5591.51947044 </i>
    <i name="pawaedc">  -5595.87146756 </i>
    <i name="eentropy">     -0.00156440 </i>
    <i name="bandstr">   -505.80451097 </i>
    <i name="atom">   1903.26342058 </i>
    <i name="e_fr_energy">   -125.46740798 </i>
    <i name="e_wo_entrp">   -125.46584358 </i>
    <i name="e_0_energy">   -125.46662578 </i>
   </energy>
  </scstep>
  <structure>
   <crystal>
    <varray name="basis" >
     <v>       4.22187384       2.43750000       0.00000000 </v>
     <v>      -4.22187384       2.43750000       0.00000000 </v>
     <v>       0.00000000       0.00000000      15.00000000 </v>
    </varray>
    <i name="volume">    308.72452480 </i>
    <varray name="rec_basis" >
     <v>       0.11843082       0.20512821       0.00000000 </v>
     <v>      -0.11843082       0.20512821       0.00000000 </v>
     <v>       0.00000000       0.00000000       0.06666667 </v>
    </varray>
   </crystal>
   <varray name="positions" >
    <v>       0.00415988       0.00268134       0.11956994 </v>
    <v>       0.35620969       0.00282346       0.09769009 </v>
    <v>       0.00421401       0.35488567       0.09772204 </v>
    <v>       0.65210805       0.65069372       0.09769895 </v>
    <v>       0.32605340       0.32460120       0.10031065 </v>
    <v>       0.68245318       0.00278770       0.10030459 </v>
    <v>       0.00419616       0.68088166       0.10027600 </v>
    <v>       0.11107172       0.38894205       0.33727475 </v>
    <v>       0.27784672       0.22228253       0.33731459 </v>
    <v>       0.11120865       0.88896093       0.33728148 </v>
    <v>       0.27787873       0.72222030       0.33723536 </v>
    <v>       0.61109099       0.38886146       0.33723270 </v>
    <v>       0.77775743       0.22224815       0.33727959 </v>
    <v>       0.61101325       0.88886015       0.33730811 </v>
    <v>       0.77758771       0.72214810       0.33728051 </v>
   </varray>
  </structure>
  <varray name="forces" >
   <v>      -0.00260995       0.00193266      -0.32371402 </v>
   <v>       0.08674310       0.04472078       0.09107824 </v>
   <v>      -0.07559747       0.04461593       0.10515618 </v>
   <v>       0.01029017      -0.09035382       0.10127440 </v>
   <v>       0.00845292       0.12126802      -0.01007719 </v>
   <v>      -0.10576210      -0.06186826       0.00069988 </v>
   <v>       0.10814489      -0.05902943      -0.00782917 </v>
   <v>       0.01259538      -0.00244814       0.00509098 </v>
   <v>      -0.01337463      -0.01476841       0.01836475 </v>
   <v>      -0.01364615      -0.02297688       0.00868895 </v>
   <v>      -0.03089811      -0.01231351      -0.00886196 </v>
   <v>      -0.00718473       0.00447588      -0.00880827 </v>
   <v>       0.00201262      -0.00271052       0.00571894 </v>
   <v>       0.00556117       0.01697821       0.01640079 </v>
   <v>       0.01527290       0.03247747       0.00681750 </v>
  </varray>
  <varray name="stress" >
   <v>     -34.21641362       0.09379495      -0.55314439 </v>
   <v>       0.09379497     -34.31810279      -0.01981037 </v>
   <v>      -0.55314440      -0.01981038      -1.84953589 </v>
  </varray>
  <energy>
   <i name="e_fr_energy">   -127.04892387 </i>
   <i name="e_wo_entrp">   -127.04735947 </i>
   <i name="e_0_energy">   -127.04814167 </i>
  </energy>
  <time name="totalsc">   50.49   50.88</time>
 </calculation>
 <calculation>
  <scstep>
   <time name="dav">    5.48    5.52</time>
   <time name="total">    5.77    5.82</time>
   <energy>
    <i name="alphaZ">     57.61542544 </i>
    <i name="ewald">   4611.72360231 </i>
    <i name="hartreedc">  -6367.44543014 </i>
    <i name="XCdc">    179.82422179 </i>
    <i name="pawpsdc">   5591.47147921 </i>
    <i name="pawaedc">  -5595.82348282 </i>
    <i name="eentropy">     -0.00156627 </i>
    <i name="bandstr">   -506.10334155 </i>
    <i name="atom">   1903.26342058 </i>
    <i name="e_fr_energy">   -125.47567146 </i>
    <i name="e_wo_entrp">   -125.47410519 </i>
    <i name="e_0_energy">   -125.47488833 </i>
   </energy>
  </scstep>
  <scstep>
   <time name="dav">   11.55   11.62</time>
   <time name="total">   11.83   11.93</time>
   <energy>
    <i name="e_fr_energy">   -125.47576318 </i>
    <i name="e_wo_entrp">   -125.47419697 </i>
    <i name="e_0_energy">   -125.47498007 </i>
   </energy>
  </scstep>
  <scstep>
   <time name="dav">    8.27    8.32</time>
   <time name="total">    8.56    8.62</time>
   <energy>
    <i name="e_fr_energy">   -125.47576282 </i>
    <i name="e_wo_entrp">   -125.47419668 </i>
    <i name="e_0_energy">   -125.47497975 </i>
   </energy>
  </scstep>
  <scstep>
   <time name="dav">   11.03   11.10</time>
   <time name="total">   11.32   11.41</time>
   <energy>
    <i name="e_fr_energy">   -125.47576415 </i>
    <i name="e_wo_entrp">   -125.47419801 </i>
    <i name="e_0_energy">   -125.47498108 </i>
   </energy>
  </scstep>
  <scstep>
   <time name="dav">    8.49    8.55</time>
   <time name="total">    8.52    8.58</time>
   <energy>
    <i name="alphaZ">     57.61542544 </i>
    <i name="ewald">   4611.72360231 </i>
    <i name="hartreedc">  -6367.42769091 </i>
    <i name="XCdc">    179.82281166 </i>
    <i name="pawpsdc">   5597.07202268 </i>
    <i name="pawaedc">  -5601.42596524 </i>
    <i name="eentropy">     -0.00156614 </i>
    <i name="bandstr">   -506.11782486 </i>
    <i name="atom">   1903.26342058 </i>
    <i name="e_fr_energy">   -125.47576450 </i>
    <i name="e_wo_entrp">   -125.47419835 </i>
    <i name="e_0_energy">   -125.47498142 </i>
   </energy>
  </scstep>
  <structure>
   <crystal>
    <varray name="basis" >
     <v>       4.22187384       2.43750000       0.00000000 </v>
     <v>      -4.22187384       2.43750000       0.00000000 </v>
     <v>       0.00000000       0.00000000      15.00000000 </v>
    </varray>
    <i name="volume">    308.72452480 </i>
    <varray name="rec_basis" >
     <v>       0.11843082       0.20512821       0.00000000 </v>
     <v>      -0.11843082       0.20512821       0.00000000 </v>
     <v>       0.00000000       0.00000000       0.06666667 </v>
    </varray>
   </crystal>
   <varray name="positions" >
    <v>       0.00416651       0.00271630       0.11828107 </v>
    <v>       0.35672490       0.00276126       0.09804559 </v>
    <v>       0.00421166       0.35539724       0.09813124 </v>
    <v>       0.65165959       0.65011325       0.09809352 </v>
    <v>       0.32627030       0.32469245       0.10028381 </v>
    <v>       0.68232906       0.00278356       0.10031963 </v>
    <v>       0.00424055       0.68071142       0.10025788 </v>
    <v>       0.11109754       0.38887900       0.33729320 </v>
    <v>       0.27767637       0.22224680       0.33738958 </v>
    <v>       0.11097636       0.88885819       0.33731343 </v>
    <v>       0.27765412       0.72226924       0.33719550 </v>
    <v>       0.61108519       0.38892654       0.33719180 </v>
    <v>       0.77773457       0.22222541       0.33730204 </v>
    <v>       0.61115045       0.88897072       0.33737447 </v>
    <v>       0.77787241       0.72232705       0.33730657 </v>
   </varray>
  </structure>
  <varray name="forces" >
   <v>       0.00075481       0.00097762      -0.29277488 </v>
   <v>       0.06386051       0.03394386       0.05467342 </v>
   <v>      -0.04726311       0.03206541       0.06149875 </v>
   <v>       0.00637445      -0.06294248       0.05951728 </v>
   <v>       0.00284800       0.11077350       0.02281953 </v>
   <v>      -0.09550251      -0.05933621       0.02885348 </v>
   <v>       0.09661293      -0.05430995       0.02446825 </v>
   <v>      -0.04102032       0.00528495       0.00445033 </v>
   <v>       0.02588614       0.02303491       0.00431090 </v>
   <v>       0.01123588       0.05314812       0.00674356 </v>
   <v>       0.05227722       0.02543638       0.00608915 </v>
   <v>      -0.00284019      -0.00815504       0.00700539 </v>
   <v>      -0.01324311       0.00911148       0.00356351 </v>
   <v>      -0.02028652      -0.04044828       0.00409957 </v>
   <v>      -0.03969417      -0.06858426       0.00468176 </v>
  </varray>
  <varray name="stress" >
   <v>     -33.77709365       0.09343573      -0.51360615 </v>
   <v>       0.09343575     -33.98883866      -0.02136769 </v>
   <v>      -0.51360616      -0.02136771      -1.82270649 </v>
  </varray>
  <energy>
   <i name="e_fr_energy">   -127.05708667 </i>
   <i name="e_wo_entrp">   -127.05552053 </i>
   <i name="e_0_energy">   -127.05630360 </i>
  </energy>
  <time name="totalsc">   50.73   51.12</time>
 </calculation>
 <calculation>
  <scstep>
   <time name="dav">    5.55    5.60</time>
   <time name="total">    5.84    5.90</time>
   <energy>
    <i name="alphaZ">     57.61542544 </i>
    <i name="ewald">   4611.20226808 </i>
    <i name="hartreedc">  -6366.24113713 </i>
    <i name="XCdc">    179.87204730 </i>
    <i name="pawpsdc">   5597.11052566 </i>
    <i name="pawaedc">  -5601.46448506 </i>
    <i name="eentropy">     -0.00156496 </i>
    <i name="bandstr">   -506.84469924 </i>
    <i name="atom">   1903.26342058 </i>
    <i name="e_fr_energy">   -125.48819934 </i>
    <i name="e_wo_entrp">   -125.48663437 </i>
    <i name="e_0_energy">   -125.48741686 </i>
   </energy>
  </scstep>
  <scstep>
   <time name="dav">   11.56   11.63</time>
   <time name="total">   11.84   11.93</time>
   <energy>
    <i name="e_fr_energy">   -125.48920637 </i>
    <i name="e_wo_entrp">   -125.48764115 </i>
    <i name="e_0_energy">   -125.48842376 </i>
   </energy>
  </scstep>
  <scstep>
   <time name="dav">    8.53    8.58</time>
   <time name="total">    8.82    8.89</time>
   <energy>
    <i name="e_fr_energy">   -125.48919276 </i>
    <i name="e_wo_entrp">   -125.48762731 </i>
    <i name="e_0_energy">   -125.48841003 </i>
   </energy>
  </scstep>
  <scstep>
   <time name="dav">   11.76   11.83</time>
   <time name="total">   12.04   12.13</time>
   <energy>
    <i name="e_fr_energy">   -125.48920719 </i>
    <i name="e_wo_entrp">   -125.48764170 </i>
    <i name="e_0_energy">   -125.48842444 </i>
   </energy>
  </scstep>
  <scstep>
   <time name="dav">    8.75    8.82</time>
   <time name="total">    9.04    9.12</time>
   <energy>
    <i name="e_fr_energy">   -125.48921097 </i>
    <i name="e_wo_entrp">   -125.48764549 </i>
    <i name="e_0_energy">   -125.48842823 </i>
   </energy>
  </scstep>
  <scstep>
   <time name="dav">   10.41   10.47</time>
   <time name="total">   10.44   10.51</time>
   <energy>
    <i name="alphaZ">     57.61542544 </i>
    <i name="ewald">   4611.20226808 </i>
    <i name="hartreedc">  -6366.16925087 </i>
    <i name="XCdc">    179.86741261 </i>
    <i name="pawpsdc">   5610.91536634 </i>
    <i name="pawaedc">  -5615.27426149 </i>
    <i name="eentropy">     -0.00156547 </i>
    <i name="bandstr">   -506.90802653 </i>
    <i name="atom">   1903.26342058 </i>
    <i name="e_fr_energy">   -125.48921131 </i>
    <i name="e_wo_entrp">   -125.48764584 </i>
    <i name="e_0_energy">   -125.48842857 </i>
   </energy>
  </scstep>
  <structure>
   <crystal>
    <varray name="basis" >
     <v>       4.22187384       2.43750000       0.00000000 </v>
     <v>      -4.22187384       2.43750000       0.00000000 </v>
     <v>       0.00000000       0.00000000      15.00000000 </v>
    </varray>
    <i name="volume">    308.72452480 </i>
    <varray name="rec_basis" >
     <v>       0.11843082       0.20512821       0.00000000 </v>
     <v>      -0.11843082       0.20512821       0.00000000 </v>
     <v>       0.00000000       0.00000000       0.06666667 </v>
    </varray>
   </crystal>
   <varray name="positions" >
    <v>       0.00418641       0.00282118       0.11441445 </v>
    <v>       0.35827053       0.00257467       0.09911208 </v>
    <v>       0.00420461       0.35693197       0.09935883 </v>
    <v>       0.65031423       0.64837186       0.09927724 </v>
    <v>       0.32692099       0.32496618       0.10020330 </v>
    <v>       0.68195668       0.00277112       0.10036477 </v>
    <v>       0.00437372       0.68020071       0.10020353 </v>
    <v>       0.11117500       0.38868987       0.33734855 </v>
    <v>       0.27716532       0.22213960       0.33761455 </v>
    <v>       0.11027949       0.88854998       0.33740928 </v>
    <v>       0.27698029       0.72241604       0.33707591 </v>
    <v>       0.61106778       0.38912178       0.33706910 </v>
    <v>       0.77766598       0.22215719       0.33736941 </v>
    <v>       0.61156203       0.88930242       0.33757355 </v>
    <v>       0.77872650       0.72286389       0.33738477 </v>
   </varray>
  </structure>
  <varray name="forces" >
   <v>       0.01153022      -0.00243415      -0.23249124 </v>
   <v>      -0.02669857      -0.01110329      -0.04444459 </v>
   <v>       0.05796323      -0.01883553      -0.05827619 </v>
   <v>      -0.00464419       0.04364324      -0.05485682 </v>
   <v>      -0.01224730       0.05940828       0.12148556 </v>
   <v>      -0.04666445      -0.04048865       0.11409276 </v>
   <v>       0.04355559      -0.02926894       0.12130189 </v>
   <v>      -0.20273258       0.02912288       0.00233887 </v>
   <v>       0.14358403       0.13766830      -0.03777440 </v>
   <v>       0.08919027       0.28581029       0.00062085 </v>
   <v>       0.30148937       0.13664220       0.05112019 </v>
   <v>       0.01031046      -0.04609166       0.05458891 </v>
   <v>      -0.05944680       0.04392288      -0.00283743 </v>
   <v>      -0.09759245      -0.21050253      -0.03286555 </v>
   <v>      -0.20759684      -0.37749331      -0.00200280 </v>
  </varray>
  <varray name="stress" >
   <v>     -32.56377509       0.12526243      -0.41314048 </v>
   <v>       0.12526247     -33.09075634      -0.02424106 </v>
   <v>      -0.41314047      -0.02424105      -1.78440367 </v>
  </varray>
  <energy>
   <i name="e_fr_energy">   -127.06996056 </i>
   <i name="e_wo_entrp">   -127.06839509 </i>
   <i name="e_0_energy">   -127.06917783 </i>
  </energy>
  <time name="totalsc">   62.75   63.23</time>
 </calculation>
 <calculation>
  <scstep>
   <time name="dav">    5.48    5.52</time>
   <time name="total">    5.77    5.82</time>
   <energy>
    <i name="alphaZ">     57.61542544 </i>
    <i name="ewald">   4611.15942873 </i>
    <i name="hartreedc">  -6366.04550616 </i>
    <i name="XCdc">    179.87263655 </i>
    <i name="pawpsdc">   5610.91302381 </i>
    <i name="pawaedc">  -5615.27191622 </i>
    <i name="eentropy">     -0.00156697 </i>
    <i name="bandstr">   -506.99796475 </i>
    <i name="atom">   1903.26342058 </i>
    <i name="e_fr_energy">   -125.49301901 </i>
    <i name="e_wo_entrp">   -125.49145204 </i>
    <i name="e_0_energy">   -125.49223553 </i>
   </energy>
  </scstep>
  <scstep>
   <time name="dav">   11.61   11.69</time>
   <time name="total">   11.90   11.99</time>
   <energy>
    <i name="e_fr_energy">   -125.49302067 </i>
    <i name="e_wo_entrp">   -125.49145370 </i>
    <i name="e_0_energy">   -125.49223719 </i>
   </energy>
  </scstep>
  <scstep>
   <time name="dav">    8.58    8.63</time>
   <time name="total">    8.87    8.94</time>
   <energy>
    <i name="e_fr_energy">   -125.49300678 </i>
    <i name="e_wo_entrp">   -125.49143979 </i>
    <i name="e_0_energy">   -125.49222329 </i>
   </energy>
  </scstep>
  <scstep>
   <time name="dav">   10.93   11.00</time>
   <time name="total">   11.22   11.30</time>
   <energy>
    <i name="e_fr_energy">   -125.49300718 </i>
    <i name="e_wo_entrp">   -125.49144020 </i>
    <i name="e_0_energy">   -125.49222369 </i>
   </energy>
  </scstep>
  <scstep>
   <time name="dav">   10.52   10.58</time>
   <time name="total">   10.55   10.62</time>
   <energy>
    <i name="alphaZ">     57.61542544 </i>
    <i name="ewald">   4611.15942873 </i>
    <i name="hartreedc">  -6366.04353210 </i>
    <i name="XCdc">    179.87182474 </i>
    <i name="pawpsdc">   5612.28699323 </i>
    <i name="pawaedc">  -5616.64644552 </i>
    <i name="eentropy">     -0.00156698 </i>
    <i name="bandstr">   -506.99855596 </i>
    <i name="atom">   1903.26342058 </i>
    <i name="e_fr_energy">   -125.49300784 </i>
    <i name="e_wo_entrp">   -125.49144086 </i>
    <i name="e_0_energy">   -125.49222435 </i>
   </energy>
  </scstep>
  <structure>
   <crystal>
    <varray name="basis" >
     <v>       4.22187384       2.43750000       0.00000000 </v>
     <v>      -4.22187384       2.43750000       0.00000000 </v>
     <v>       0.00000000       0.00000000      15.00000000 </v>
    </varray>
    <i name="volume">    308.72452480 </i>
    <varray name="rec_basis" >
     <v>       0.11843082       0.20512821       0.00000000 </v>
     <v>      -0.11843082       0.20512821       0.00000000 </v>
     <v>       0.00000000       0.00000000       0.06666667 </v>
    </varray>
   </crystal>
   <varray name="positions" >
    <v>       0.00419380       0.00282435       0.11382865 </v>
    <v>       0.35843996       0.00255549       0.09923339 </v>
    <v>       0.00422040       0.35707056       0.09949582 </v>
    <v>       0.65018717       0.64819975       0.09940983 </v>
    <v>       0.32706479       0.32507742       0.10023796 </v>
    <v>       0.68183160       0.00275405       0.10041293 </v>
    <v>       0.00438622       0.68007262       0.10024151 </v>
    <v>       0.11108465       0.38883226       0.33735657 </v>
    <v>       0.27735103       0.22218826       0.33762960 </v>
    <v>       0.11057443       0.88877759       0.33742189 </v>
    <v>       0.27724785       0.72239230       0.33707943 </v>
    <v>       0.61101972       0.38908761       0.33707350 </v>
    <v>       0.77766808       0.22223767       0.33737706 </v>
    <v>       0.61131065       0.88916933       0.33758709 </v>
    <v>       0.77826921       0.72263920       0.33739413 </v>
   </varray>
  </structure>
  <varray name="forces" >
   <v>       0.01299296      -0.00266540      -0.22107014 </v>
   <v>      -0.03648275      -0.01637305      -0.04733371 </v>
   <v>       0.06401097      -0.02266702      -0.06314003 </v>
   <v>      -0.00586702       0.05236579      -0.05919862 </v>
   <v>      -0.01247146       0.04019364       0.12280020 </v>
   <v>      -0.02852275      -0.02971438       0.11393942 </v>
   <v>       0.02864088      -0.02027396       0.12210909 </v>
   <v>      -0.11579955       0.01686540       0.00214609 </v>
   <v>       0.07239536       0.09364297      -0.03914777 </v>
   <v>       0.06012993       0.16125018      -0.00037487 </v>
   <v>       0.18087907       0.08535146       0.05265748 </v>
   <v>       0.01429223      -0.03184810       0.05578317 </v>
   <v>      -0.04148999       0.02127889      -0.00293445 </v>
   <v>      -0.06284100      -0.12437709      -0.03415973 </v>
   <v>      -0.12986688      -0.22302933      -0.00207613 </v>
  </varray>
  <varray name="stress" >
   <v>     -32.58059776       0.06691911      -0.40045510 </v>
   <v>       0.06691912     -32.89207272      -0.02130944 </v>
   <v>      -0.40045508      -0.02130941      -1.77079127 </v>
  </varray>
  <energy>
   <i name="e_fr_energy">   -127.07366853 </i>
   <i name="e_wo_entrp">   -127.07210155 </i>
   <i name="e_0_energy">   -127.07288504 </i>
  </energy>
  <time name="totalsc">   53.03   53.42</time>
 </calculation>
 <calculation>
  <scstep>
   <time name="dav">    5.49    5.54</time>
   <time name="total">    5.78    5.84</time>
   <energy>
    <i name="alphaZ">     57.61542544 </i>
    <i name="ewald">   4610.95331538 </i>
    <i name="hartreedc">  -6365.64189420 </i>
    <i name="XCdc">    179.88530564 </i>
    <i name="pawpsdc">   5612.38976638 </i>
    <i name="pawaedc">  -5616.74922095 </i>
    <i name="eentropy">     -0.00155291 </i>
    <i name="bandstr">   -507.21243998 </i>
    <i name="atom">   1903.26342058 </i>
    <i name="e_fr_energy">   -125.49787463 </i>
    <i name="e_wo_entrp">   -125.49632172 </i>
    <i name="e_0_energy">   -125.49709817 </i>
   </energy>
  </scstep>
  <scstep>
   <time name="dav">   11.78   11.86</time>
   <time name="total">   12.07   12.17</time>
   <energy>
    <i name="e_fr_energy">   -125.49788303 </i>
    <i name="e_wo_entrp">   -125.49632907 </i>
    <i name="e_0_energy">   -125.49710605 </i>
   </energy>
  </scstep>
  <scstep>
   <time name="dav">    8.33    8.38</time>
   <time name="total">    8.61    8.68</time>
   <energy>
    <i name="e_fr_energy">   -125.49777579 </i>
    <i name="e_wo_entrp">   -125.49622074 </i>
    <i name="e_0_energy">   -125.49699826 </i>
   </energy>
  </scstep>
  <scstep>
   <time name="dav">   11.29   11.36</time>
   <time name="total">   11.58   11.67</time>
   <energy>
    <i name="e_fr_energy">   -125.49777848 </i>
    <i name="e_wo_entrp">   -125.49622325 </i>
    <i name="e_0_energy">   -125.49700086 </i>
   </energy>
  </scstep>
  <scstep>
   <time name="dav">    8.06    8.11</time>
   <time name="total">    8.34    8.41</time>
   <energy>
    <i name="e_fr_energy">   -125.49778051 </i>
    <i name="e_wo_entrp">   -125.49622526 </i>
    <i name="e_0_energy">   -125.49700288 </i>
   </energy>
  </scstep>
  <scstep>
   <time name="dav">   11.00   11.07</time>
   <time name="total">   11.03   11.11</time>
   <energy>
    <i name="alphaZ">     57.61542544 </i>
    <i name="ewald">   4610.95331538 </i>
    <i name="hartreedc">  -6365.70541390 </i>
    <i name="XCdc">    179.88393911 </i>
    <i name="pawpsdc">   5616.47745781 </i>
    <i name="pawaedc">  -5620.83846760 </i>
    <i name="eentropy">     -0.00155518 </i>
    <i name="bandstr">   -507.14590162 </i>
    <i name="atom">   1903.26342058 </i>
    <i name="e_fr_energy">   -125.49777999 </i>
    <i name="e_wo_entrp">   -125.49622481 </i>
    <i name="e_0_energy">   -125.49700240 </i>
   </energy>
  </scstep>
  <structure>
   <crystal>
    <varray name="basis" >
     <v>       4.22187384       2.43750000       0.00000000 </v>
     <v>      -4.22187384       2.43750000       0.00000000 </v>
     <v>       0.00000000       0.00000000      15.00000000 </v>
    </varray>
    <i name="volume">    308.72452480 </i>
    <varray name="rec_basis" >
     <v>       0.11843082       0.20512821       0.00000000 </v>
     <v>      -0.11843082       0.20512821       0.00000000 </v>
     <v>       0.00000000       0.00000000       0.06666667 </v>
    </varray>
   </crystal>
   <varray name="positions" >
    <v>       0.00421448       0.00283323       0.11218941 </v>
    <v>       0.35891407       0.00250180       0.09957283 </v>
    <v>       0.00426457       0.35745839       0.09987915 </v>
    <v>       0.64983159       0.64771812       0.09978085 </v>
    <v>       0.32746719       0.32538870       0.10033495 </v>
    <v>       0.68148162       0.00270628       0.10054767 </v>
    <v>       0.00442120       0.67971418       0.10034777 </v>
    <v>       0.11083185       0.38923071       0.33737901 </v>
    <v>       0.27787071       0.22232442       0.33767173 </v>
    <v>       0.11139975       0.88941450       0.33745719 </v>
    <v>       0.27799656       0.72232585       0.33708925 </v>
    <v>       0.61088523       0.38899198       0.33708580 </v>
    <v>       0.77767395       0.22246290       0.33739846 </v>
    <v>       0.61060720       0.88879691       0.33762495 </v>
    <v>       0.77698958       0.72201046       0.33742032 </v>
   </varray>
  </structure>
  <varray name="forces" >
   <v>       0.01700864      -0.00333948      -0.19342224 </v>
   <v>      -0.06773236      -0.03320554      -0.05457846 </v>
   <v>       0.08453008      -0.03562680      -0.07587862 </v>
   <v>      -0.00921214       0.08101932      -0.07045761 </v>
   <v>      -0.01287110      -0.01714701       0.12699353 </v>
   <v>       0.02545288       0.00241659       0.11419652 </v>
   <v>      -0.01625299       0.00651266       0.12497861 </v>
   <v>       0.12329572      -0.01740061       0.00173611 </v>
   <v>      -0.12349183      -0.03001628      -0.04304576 </v>
   <v>      -0.01572720      -0.17579186      -0.00348731 </v>
   <v>      -0.15632879      -0.06146234       0.05698359 </v>
   <v>       0.02601853       0.00874053       0.05921093 </v>
   <v>       0.00764762      -0.04041418      -0.00314670 </v>
   <v>       0.03721798       0.11857304      -0.03774762 </v>
   <v>       0.08044495       0.19714197      -0.00233498 </v>
  </varray>
  <varray name="stress" >
   <v>     -32.59124528      -0.05025539      -0.36542862 </v>
   <v>      -0.05025538     -32.29003303      -0.01290210 </v>
   <v>      -0.36542860      -0.01290211      -1.77487804 </v>
  </varray>
  <energy>
   <i name="e_fr_energy">   -127.07815789 </i>
   <i name="e_wo_entrp">   -127.07660270 </i>
   <i name="e_0_energy">   -127.07738029 </i>
  </energy>
  <time name="totalsc">   62.17   62.65</time>
 </calculation>
 <calculation>
  <scstep>
   <time name="dav">    5.48    5.52</time>
   <time name="total">    5.77    5.82</time>
   <energy>
    <i name="alphaZ">     57.61542544 </i>
    <i name="ewald">   4611.11923400 </i>
    <i name="hartreedc">  -6365.76390040 </i>
    <i name="XCdc">    179.89100322 </i>
    <i name="pawpsdc">   5616.53727847 </i>
    <i name="pawaedc">  -5620.89828605 </i>
    <i name="eentropy">     -0.00156135 </i>
    <i name="bandstr">   -507.26289247 </i>
    <i name="atom">   1903.26342058 </i>
    <i name="e_fr_energy">   -125.50027856 </i>
    <i name="e_wo_entrp">   -125.49871721 </i>
    <i name="e_0_energy">   -125.49949788 </i>
   </energy>
  </scstep>
  <scstep>
   <time name="dav">    9.85    9.92</time>
   <time name="total">   10.14   10.22</time>
   <energy>
    <i name="e_fr_energy">   -125.50030100 </i>
    <i name="e_wo_entrp">   -125.49873985 </i>
    <i name="e_0_energy">   -125.49952042 </i>
   </energy>
  </scstep>
  <scstep>
   <time name="dav">    8.47    8.54</time>
   <time name="total">    8.76    8.83</time>
   <energy>
    <i name="e_fr_energy">   -125.50029735 </i>
    <i name="e_wo_entrp">   -125.49873647 </i>
    <i name="e_0_energy">   -125.49951691 </i>
   </energy>
  </scstep>
  <scstep>
   <time name="dav">   10.47   10.54</time>
   <time name="total">   10.50   10.58</time>
   <energy>
    <i name="alphaZ">     57.61542544 </i>
    <i name="ewald">   4611.11923400 </i>
    <i name="hartreedc">  -6365.85337864 </i>
    <i name="XCdc">    179.89054717 </i>
    <i name="pawpsdc">   5618.68028558 </i>
    <i name="pawaedc">  -5623.04210424 </i>
    <i name="eentropy">     -0.00156089 </i>
    <i name="bandstr">   -507.17216633 </i>
    <i name="atom">   1903.26342058 </i>
    <i name="e_fr_energy">   -125.50029733 </i>
    <i name="e_wo_entrp">   -125.49873644 </i>
    <i name="e_0_energy">   -125.49951688 </i>
   </energy>
  </scstep>
  <structure>
   <crystal>
    <varray name="basis" >
     <v>       4.22187384       2.43750000       0.00000000 </v>
     <v>      -4.22187384       2.43750000       0.00000000 </v>
     <v>       0.00000000       0.00000000      15.00000000 </v>
    </varray>
    <i name="volume">    308.72452480 </i>
    <varray name="rec_basis" >
     <v>       0.11843082       0.20512821       0.00000000 </v>
     <v>      -0.11843082       0.20512821       0.00000000 </v>
     <v>       0.00000000       0.00000000       0.06666667 </v>
    </varray>
   </crystal>
   <varray name="positions" >
    <v>       0.00423377       0.00281314       0.11146288 </v>
    <v>       0.35896312       0.00249217       0.09966853 </v>
    <v>       0.00430459       0.35745351       0.09997898 </v>
    <v>       0.64983302       0.64769122       0.09987920 </v>
    <v>       0.32757432       0.32548812       0.10044479 </v>
    <v>       0.68138085       0.00266652       0.10066426 </v>
    <v>       0.00442921       0.67960809       0.10045991 </v>
    <v>       0.11083280       0.38922243       0.33738842 </v>
    <v>       0.27788521       0.22244896       0.33766262 </v>
    <v>       0.11138012       0.88935656       0.33746841 </v>
    <v>       0.27800722       0.72235220       0.33712590 </v>
    <v>       0.61087710       0.38894494       0.33712467 </v>
    <v>       0.77761207       0.22246755       0.33740467 </v>
    <v>       0.61059276       0.88883010       0.33761731 </v>
    <v>       0.77694339       0.72204296       0.33742879 </v>
   </varray>
  </structure>
  <varray name="forces" >
   <v>       0.01679563      -0.00296804      -0.17165314 </v>
   <v>      -0.05800860      -0.02787519      -0.04261316 </v>
   <v>       0.06857721      -0.02884082      -0.06463163 </v>
   <v>      -0.00960326       0.06659047      -0.05883729 </v>
   <v>      -0.01057719      -0.02299778       0.10861322 </v>
   <v>       0.03062040       0.00815542       0.09490610 </v>
   <v>      -0.01742127       0.00849587       0.10652442 </v>
   <v>       0.10409853      -0.01632547       0.00163583 </v>
   <v>      -0.08877908      -0.06349165      -0.03773440 </v>
   <v>      -0.04456719      -0.15615961      -0.00351077 </v>
   <v>      -0.15630634      -0.07144985       0.05146783 </v>
   <v>      -0.00293577       0.02245964       0.05255524 </v>
   <v>       0.02569344      -0.02880957      -0.00173990 </v>
   <v>       0.04089454       0.11587739      -0.03349620 </v>
   <v>       0.10151895       0.19733920      -0.00148615 </v>
  </varray>
  <varray name="stress" >
   <v>     -32.35533507      -0.01595618      -0.35450673 </v>
   <v>      -0.01595617     -32.22728230      -0.01289587 </v>
   <v>      -0.35450671      -0.01289589      -1.75250974 </v>
  </varray>
  <energy>
   <i name="e_fr_energy">   -127.08050513 </i>
   <i name="e_wo_entrp">   -127.07894424 </i>
   <i name="e_0_energy">   -127.07972469 </i>
  </energy>
  <time name="totalsc">   39.91   40.21</time>
 </calculation>
 <calculation>
  <scstep>
   <time name="dav">    5.49    5.54</time>
   <time name="total">    5.78    5.84</time>
   <energy>
    <i name="alphaZ">     57.61542544 </i>
    <i name="ewald">   4611.41288014 </i>
    <i name="hartreedc">  -6365.88144177 </i>
    <i name="XCdc">    179.90846900 </i>
    <i name="pawpsdc">   5618.77073345 </i>
    <i name="pawaedc">  -5623.13254854 </i>
    <i name="eentropy">     -0.00156629 </i>
    <i name="bandstr">   -507.46099966 </i>
    <i name="atom">   1903.26342058 </i>
    <i name="e_fr_energy">   -125.50562765 </i>
    <i name="e_wo_entrp">   -125.50406136 </i>
    <i name="e_0_energy">   -125.50484451 </i>
   </energy>
  </scstep>
  <scstep>
   <time name="dav">   11.81   11.89</time>
   <time name="total">   12.10   12.19</time>
   <energy>
    <i name="e_fr_energy">   -125.50585760 </i>
    <i name="e_wo_entrp">   -125.50429115 </i>
    <i name="e_0_energy">   -125.50507438 </i>
   </energy>
  </scstep>
  <scstep>
   <time name="dav">    8.42    8.48</time>
   <time name="total">    8.72    8.79</time>
   <energy>
    <i name="e_fr_energy">   -125.50582352 </i>
    <i name="e_wo_entrp">   -125.50425688 </i>
    <i name="e_0_energy">   -125.50504020 </i>
   </energy>
  </scstep>
  <scstep>
   <time name="dav">   10.34   10.42</time>
   <time name="total">   10.63   10.72</time>
   <energy>
    <i name="e_fr_energy">   -125.50582195 </i>
    <i name="e_wo_entrp">   -125.50425531 </i>
    <i name="e_0_energy">   -125.50503863 </i>
   </energy>
  </scstep>
  <scstep>
   <time name="dav">    8.98    9.04</time>
   <time name="total">    9.27    9.34</time>
   <energy>
    <i name="e_fr_energy">   -125.50581951 </i>
    <i name="e_wo_entrp">   -125.50425289 </i>
    <i name="e_0_energy">   -125.50503620 </i>
   </energy>
  </scstep>
  <scstep>
   <time name="dav">   10.35   10.42</time>
   <time name="total">   10.39   10.46</time>
   <energy>
    <i name="alphaZ">     57.61542544 </i>
    <i name="ewald">   4611.41288014 </i>
    <i name="hartreedc">  -6366.20615634 </i>
    <i name="XCdc">    179.90700247 </i>
    <i name="pawpsdc">   5624.55261778 </i>
    <i name="pawaedc">  -5628.91647385 </i>
    <i name="eentropy">     -0.00156663 </i>
    <i name="bandstr">   -507.13296834 </i>
    <i name="atom">   1903.26342058 </i>
    <i name="e_fr_energy">   -125.50581874 </i>
    <i name="e_wo_entrp">   -125.50425211 </i>
    <i name="e_0_energy">   -125.50503543 </i>
   </energy>
  </scstep>
  <structure>
   <crystal>
    <varray name="basis" >
     <v>       4.22187384       2.43750000       0.00000000 </v>
     <v>      -4.22187384       2.43750000       0.00000000 </v>
     <v>       0.00000000       0.00000000      15.00000000 </v>
    </varray>
    <i name="volume">    308.72452480 </i>
    <varray name="rec_basis" >
     <v>       0.11843082       0.20512821       0.00000000 </v>
     <v>      -0.11843082       0.20512821       0.00000000 </v>
     <v>       0.00000000       0.00000000       0.06666667 </v>
    </varray>
   </crystal>
   <varray name="positions" >
    <v>       0.00429163       0.00275285       0.10928328 </v>
    <v>       0.35911026       0.00246328       0.09995563 </v>
    <v>       0.00442465       0.35743887       0.10027848 </v>
    <v>       0.64983732       0.64761053       0.10017425 </v>
    <v>       0.32789571       0.32578638       0.10077429 </v>
    <v>       0.68107855       0.00254722       0.10101402 </v>
    <v>       0.00445322       0.67928979       0.10079635 </v>
    <v>       0.11083565       0.38919756       0.33741668 </v>
    <v>       0.27792873       0.22282258       0.33763530 </v>
    <v>       0.11132123       0.88918271       0.33750206 </v>
    <v>       0.27803919       0.72243122       0.33723586 </v>
    <v>       0.61085272       0.38880383       0.33724127 </v>
    <v>       0.77742642       0.22248150       0.33742329 </v>
    <v>       0.61054945       0.88892964       0.33759438 </v>
    <v>       0.77680481       0.72214048       0.33745420 </v>
   </varray>
  </structure>
  <varray name="forces" >
   <v>       0.01628586      -0.00177233      -0.11388751 </v>
   <v>      -0.03584627      -0.01605540      -0.00547073 </v>
   <v>       0.02787482      -0.01229037      -0.02950832 </v>
   <v>      -0.01086759       0.03166017      -0.02269086 </v>
   <v>      -0.00407363      -0.04799377       0.05520134 </v>
   <v>       0.05279034       0.02878570       0.03889278 </v>
   <v>      -0.02735317       0.01820047       0.05296450 </v>
   <v>       0.04742274      -0.01277789       0.00105222 </v>
   <v>       0.01406332      -0.16237111      -0.02211287 </v>
   <v>      -0.12989674      -0.09934167      -0.00370147 </v>
   <v>      -0.15692605      -0.10129828       0.03482689 </v>
   <v>      -0.08934428       0.06299153       0.03241430 </v>
[...]
       <r>     2.6859     0.7340    30.9145 </r>
       <r>     2.7919     0.6196    30.9802 </r>
       <r>     2.8980     1.1450    31.1016 </r>
       <r>     3.0040     1.4713    31.2575 </r>
       <r>     3.1100     1.2831    31.3936 </r>
       <r>     3.2160     1.2743    31.5287 </r>
       <r>     3.3221     1.3792    31.6749 </r>
       <r>     3.4281     1.7207    31.8574 </r>
       <r>     3.5341     2.8620    32.1608 </r>
       <r>     3.6401     3.4314    32.5246 </r>
       <r>     3.7462     3.0490    32.8479 </r>
       <r>     3.8522     2.9148    33.1570 </r>
       <r>     3.9582     3.1470    33.4906 </r>
       <r>     4.0642     3.2817    33.8386 </r>
       <r>     4.1703     2.8665    34.1425 </r>
       <r>     4.2763     2.8099    34.4404 </r>
       <r>     4.3823     2.8395    34.7415 </r>
       <r>     4.4883     2.6729    35.0249 </r>
       <r>     4.5944     2.8148    35.3233 </r>
       <r>     4.7004     3.5952    35.7045 </r>
       <r>     4.8064     3.0684    36.0298 </r>
       <r>     4.9125     2.4497    36.2896 </r>
       <r>     5.0185     3.3971    36.6498 </r>
       <r>     5.1245     3.9410    37.0676 </r>
       <r>     5.2305     3.0403    37.3900 </r>
       <r>     5.3366     2.4278    37.6474 </r>
       <r>     5.4426     2.9606    37.9613 </r>
       <r>     5.5486     3.0282    38.2824 </r>
       <r>     5.6546     2.7733    38.5764 </r>
       <r>     5.7607     3.1311    38.9084 </r>
       <r>     5.8667     2.6334    39.1876 </r>
       <r>     5.9727     2.4702    39.4495 </r>
       <r>     6.0787     2.0914    39.6712 </r>
       <r>     6.1848     2.6319    39.9503 </r>
       <r>     6.2908     2.6150    40.2276 </r>
       <r>     6.3968     3.1083    40.5571 </r>
       <r>     6.5029     3.7614    40.9559 </r>
       <r>     6.6089     3.8531    41.3645 </r>
       <r>     6.7149     3.8394    41.7715 </r>
       <r>     6.8209     3.0022    42.0899 </r>
       <r>     6.9270     3.4528    42.4559 </r>
       <r>     7.0330     3.0796    42.7825 </r>
       <r>     7.1390     2.8093    43.0803 </r>
       <r>     7.2450     2.5349    43.3491 </r>
       <r>     7.3511     2.5965    43.6244 </r>
       <r>     7.4571     3.3836    43.9831 </r>
       <r>     7.5631     3.5427    44.3588 </r>
       <r>     7.6691     4.3599    44.8210 </r>
       <r>     7.7752     3.5831    45.2009 </r>
       <r>     7.8812     3.2132    45.5416 </r>
       <r>     7.9872     4.5458    46.0236 </r>
       <r>     8.0933     5.1440    46.5690 </r>
       <r>     8.1993     4.6839    47.0656 </r>
       <r>     8.3053     3.9899    47.4886 </r>
       <r>     8.4113     2.5228    47.7561 </r>
       <r>     8.5174     1.1767    47.8809 </r>
       <r>     8.6234     0.4627    47.9300 </r>
       <r>     8.7294     0.3375    47.9657 </r>
       <r>     8.8354     0.2560    47.9929 </r>
       <r>     8.9415     0.0644    47.9997 </r>
       <r>     9.0475     0.0027    48.0000 </r>
       <r>     9.1535     0.0000    48.0000 </r>
       <r>     9.2595     0.0000    48.0000 </r>
       <r>     9.3656     0.0000    48.0000 </r>
       <r>     9.4716     0.0000    48.0000 </r>
       <r>     9.5776     0.0000    48.0000 </r>
       <r>     9.6837     0.0000    48.0000 </r>
       <r>     9.7897     0.0000    48.0000 </r>
       <r>     9.8957     0.0000    48.0000 </r>
       <r>    10.0017     0.0000    48.0000 </r>
       <r>    10.1078     0.0000    48.0000 </r>
       <r>    10.2138     0.0000    48.0000 </r>
      </set>
      <set comment="spin 2">
       <r>   -21.5942     0.0000     0.0000 </r>
       <r>   -21.4882     0.0000     0.0000 </r>
       <r>   -21.3821     0.0000     0.0000 </r>
       <r>   -21.2761     0.0000     0.0000 </r>
       <r>   -21.1701     0.0000     0.0000 </r>
       <r>   -21.0641     0.0000     0.0000 </r>
       <r>   -20.9580     0.0000     0.0000 </r>
       <r>   -20.8520     0.0000     0.0000 </r>
       <r>   -20.7460     0.0000     0.0000 </r>
       <r>   -20.6400     0.0000     0.0000 </r>
       <r>   -20.5339     0.0000     0.0000 </r>
       <r>   -20.4279     0.0000     0.0000 </r>
       <r>   -20.3219     0.0009     0.0001 </r>
       <r>   -20.2158     0.0356     0.0039 </r>
       <r>   -20.1098     0.2553     0.0309 </r>
       <r>   -20.0038     0.5354     0.0877 </r>
       <r>   -19.8978     0.5850     0.1497 </r>
       <r>   -19.7917     0.6362     0.2172 </r>
       <r>   -19.6857     0.5394     0.2744 </r>
       <r>   -19.5797     0.6946     0.3480 </r>
       <r>   -19.4737     0.5417     0.4055 </r>
       <r>   -19.3676     0.5574     0.4646 </r>
       <r>   -19.2616     0.7723     0.5464 </r>
       <r>   -19.1556     0.4859     0.5980 </r>
       <r>   -19.0496     0.5136     0.6524 </r>
       <r>   -18.9435     0.7905     0.7362 </r>
       <r>   -18.8375     0.6629     0.8065 </r>
       <r>   -18.7315     0.3767     0.8465 </r>
       <r>   -18.6254     0.5907     0.9091 </r>
       <r>   -18.5194     0.8850     1.0029 </r>
       <r>   -18.4134     0.5785     1.0643 </r>
       <r>   -18.3074     0.4830     1.1155 </r>
       <r>   -18.2013     0.4002     1.1579 </r>
       <r>   -18.0953     0.8810     1.2513 </r>
       <r>   -17.9893     0.8277     1.3391 </r>
       <r>   -17.8833     0.4376     1.3855 </r>
       <r>   -17.7772     0.4393     1.4320 </r>
       <r>   -17.6712     0.5394     1.4892 </r>
       <r>   -17.5652     0.8309     1.5773 </r>
       <r>   -17.4592     0.8640     1.6689 </r>
       <r>   -17.3531     0.8071     1.7545 </r>
       <r>   -17.2471     0.9872     1.8592 </r>
       <r>   -17.1411     1.4312     2.0109 </r>
       <r>   -17.0350     1.9570     2.2184 </r>
       <r>   -16.9290     2.1013     2.4412 </r>
       <r>   -16.8230     2.4485     2.7008 </r>
       <r>   -16.7170     2.7204     2.9893 </r>
       <r>   -16.6109     1.5189     3.1503 </r>
       <r>   -16.5049     0.4495     3.1980 </r>
       <r>   -16.3989     1.0163     3.3057 </r>
       <r>   -16.2929     0.9736     3.4089 </r>
       <r>   -16.1868     0.5781     3.4702 </r>
       <r>   -16.0808     0.5239     3.5258 </r>
       <r>   -15.9748     0.5152     3.5804 </r>
       <r>   -15.8688     0.4599     3.6292 </r>
       <r>   -15.7627     0.5504     3.6875 </r>
       <r>   -15.6567     1.1216     3.8064 </r>
       <r>   -15.5507     0.9372     3.9058 </r>
       <r>   -15.4446     0.4883     3.9576 </r>
       <r>   -15.3386     0.4936     4.0099 </r>
       <r>   -15.2326     0.4646     4.0592 </r>
       <r>   -15.1266     0.6279     4.1258 </r>
       <r>   -15.0205     0.9020     4.2214 </r>
       <r>   -14.9145     1.6956     4.4012 </r>
       <r>   -14.8085     2.3322     4.6484 </r>
       <r>   -14.7025     2.4357     4.9067 </r>
       <r>   -14.5964     2.0275     5.1217 </r>
       <r>   -14.4904     1.1409     5.2426 </r>
       <r>   -14.3844     1.2110     5.3710 </r>
       <r>   -14.2784     2.1235     5.5962 </r>
       <r>   -14.1723     1.7864     5.7856 </r>
       <r>   -14.0663     1.4459     5.9389 </r>
       <r>   -13.9603     1.3713     6.0843 </r>
       <r>   -13.8543     1.9423     6.2902 </r>
       <r>   -13.7482     2.5724     6.5630 </r>
       <r>   -13.6422     2.3898     6.8163 </r>
       <r>   -13.5362     2.0924     7.0382 </r>
       <r>   -13.4301     1.0361     7.1481 </r>
       <r>   -13.3241     0.7432     7.2269 </r>
       <r>   -13.2181     0.4448     7.2740 </r>
       <r>   -13.1121     0.5729     7.3348 </r>
       <r>   -13.0060     0.9347     7.4339 </r>
       <r>   -12.9000     0.8342     7.5223 </r>
       <r>   -12.7940     0.6428     7.5905 </r>
       <r>   -12.6880     0.9750     7.6938 </r>
       <r>   -12.5819     0.8619     7.7852 </r>
       <r>   -12.4759     0.7059     7.8601 </r>
       <r>   -12.3699     0.6715     7.9313 </r>
       <r>   -12.2639     0.4099     7.9747 </r>
       <r>   -12.1578     0.9478     8.0752 </r>
       <r>   -12.0518     0.9648     8.1775 </r>
       <r>   -11.9458     0.3557     8.2152 </r>
       <r>   -11.8397     0.4477     8.2627 </r>
       <r>   -11.7337     0.4732     8.3129 </r>
       <r>   -11.6277     0.8835     8.4065 </r>
       <r>   -11.5217     0.7742     8.4886 </r>
       <r>   -11.4156     0.3998     8.5310 </r>
       <r>   -11.3096     0.2972     8.5625 </r>
       <r>   -11.2036     0.6198     8.6282 </r>
       <r>   -11.0976     0.7410     8.7068 </r>
       <r>   -10.9915     0.6429     8.7750 </r>
       <r>   -10.8855     0.9308     8.8737 </r>
       <r>   -10.7795     0.7556     8.9538 </r>
       <r>   -10.6735     0.3874     8.9948 </r>
       <r>   -10.5674     1.1232     9.1139 </r>
       <r>   -10.4614     1.8447     9.3095 </r>
       <r>   -10.3554     1.9343     9.5146 </r>
       <r>   -10.2493     1.7182     9.6968 </r>
       <r>   -10.1433     1.9924     9.9080 </r>
       <r>   -10.0373     2.4753    10.1705 </r>
       <r>    -9.9313     2.2288    10.4068 </r>
       <r>    -9.8252     1.1705    10.5309 </r>
       <r>    -9.7192     1.0868    10.6461 </r>
       <r>    -9.6132     1.8982    10.8474 </r>
       <r>    -9.5072     1.8334    11.0418 </r>
       <r>    -9.4011     2.1359    11.2682 </r>
       <r>    -9.2951     2.0751    11.4882 </r>
       <r>    -9.1891     1.7348    11.6722 </r>
       <r>    -9.0831     1.2572    11.8055 </r>
       <r>    -8.9770     1.1973    11.9324 </r>
       <r>    -8.8710     2.1470    12.1601 </r>
       <r>    -8.7650     2.4349    12.4182 </r>
       <r>    -8.6589     1.6942    12.5979 </r>
       <r>    -8.5529     1.0213    12.7061 </r>
       <r>    -8.4469     1.7644    12.8932 </r>
       <r>    -8.3409     2.5252    13.1610 </r>
       <r>    -8.2348     1.8894    13.3613 </r>
       <r>    -8.1288     1.6445    13.5356 </r>
       <r>    -8.0228     2.3434    13.7841 </r>
       <r>    -7.9168     3.2023    14.1236 </r>
       <r>    -7.8107     3.3113    14.4747 </r>
       <r>    -7.7047     2.0408    14.6911 </r>
       <r>    -7.5987     1.2720    14.8260 </r>
       <r>    -7.4927     1.2203    14.9553 </r>
       <r>    -7.3866     2.2946    15.1986 </r>
       <r>    -7.2806     2.3126    15.4438 </r>
       <r>    -7.1746     1.6634    15.6202 </r>
       <r>    -7.0685     1.3038    15.7584 </r>
       <r>    -6.9625     2.0189    15.9725 </r>
       <r>    -6.8565     2.5065    16.2382 </r>
       <r>    -6.7505     2.7991    16.5350 </r>
       <r>    -6.6444     2.6853    16.8197 </r>
       <r>    -6.5384     2.0510    17.0372 </r>
       <r>    -6.4324     2.6336    17.3164 </r>
       <r>    -6.3264     2.4513    17.5763 </r>
       <r>    -6.2203     2.6731    17.8597 </r>
       <r>    -6.1143     3.4426    18.2248 </r>
       <r>    -6.0083     2.8377    18.5256 </r>
       <r>    -5.9023     3.9532    18.9448 </r>
       <r>    -5.7962     3.7300    19.3402 </r>
       <r>    -5.6902     2.3003    19.5841 </r>
       <r>    -5.5842     2.4924    19.8484 </r>
       <r>    -5.4782     4.3480    20.3094 </r>
       <r>    -5.3721     4.6613    20.8036 </r>
       <r>    -5.2661     2.6067    21.0800 </r>
       <r>    -5.1601     1.8339    21.2745 </r>
       <r>    -5.0540     1.4196    21.4250 </r>
       <r>    -4.9480     1.7281    21.6082 </r>
       <r>    -4.8420     1.7049    21.7890 </r>
       <r>    -4.7360     1.1109    21.9067 </r>
       <r>    -4.6299     0.8762    21.9996 </r>
       <r>    -4.5239     1.3960    22.1477 </r>
       <r>    -4.4179     2.6603    22.4297 </r>
       <r>    -4.3119     2.8606    22.7330 </r>
       <r>    -4.2058     2.6307    23.0120 </r>
       <r>    -4.0998     2.1913    23.2443 </r>
       <r>    -3.9938     2.6410    23.5243 </r>
       <r>    -3.8878     2.8448    23.8259 </r>
       <r>    -3.7817     2.3468    24.0748 </r>
       <r>    -3.6757     2.5386    24.3439 </r>
       <r>    -3.5697     2.6187    24.6216 </r>
       <r>    -3.4636     2.0274    24.8365 </r>
       <r>    -3.3576     1.6192    25.0082 </r>
       <r>    -3.2516     1.5188    25.1692 </r>
       <r>    -3.1456     2.2663    25.4095 </r>
       <r>    -3.0395     2.3272    25.6563 </r>
       <r>    -2.9335     1.5122    25.8166 </r>
       <r>    -2.8275     1.5571    25.9817 </r>
       <r>    -2.7215     1.0165    26.0895 </r>
       <r>    -2.6154     1.2453    26.2215 </r>
       <r>    -2.5094     2.3284    26.4684 </r>
       <r>    -2.4034     2.0570    26.6865 </r>
       <r>    -2.2974     0.5925    26.7493 </r>
       <r>    -2.1913     0.7295    26.8266 </r>
       <r>    -2.0853     1.4185    26.9770 </r>
       <r>    -1.9793     1.2424    27.1088 </r>
       <r>    -1.8732     1.4333    27.2607 </r>
       <r>    -1.7672     1.4171    27.4110 </r>
       <r>    -1.6612     1.2657    27.5452 </r>
       <r>    -1.5552     0.9302    27.6438 </r>
       <r>    -1.4491     0.4982    27.6966 </r>
       <r>    -1.3431     0.5548    27.7555 </r>
       <r>    -1.2371     0.5087    27.8094 </r>
       <r>    -1.1311     0.4896    27.8613 </r>
       <r>    -1.0250     0.7343    27.9392 </r>
       <r>    -0.9190     0.3672    27.9781 </r>
       <r>    -0.8130     0.0694    27.9855 </r>
       <r>    -0.7070     0.0060    27.9861 </r>
       <r>    -0.6009     0.0003    27.9861 </r>
       <r>    -0.4949     0.0105    27.9872 </r>
       <r>    -0.3889     0.0948    27.9973 </r>
       <r>    -0.2828     0.1287    28.0109 </r>
       <r>    -0.1768     0.0270    28.0138 </r>
       <r>    -0.0708     0.0008    28.0139 </r>
       <r>     0.0352     0.0001    28.0139 </r>
       <r>     0.1413     0.0079    28.0147 </r>
       <r>     0.2473     0.1535    28.0310 </r>
       <r>     0.3533     0.4285    28.0764 </r>
       <r>     0.4593     0.1976    28.0974 </r>
       <r>     0.5654     0.1717    28.1156 </r>
       <r>     0.6714     0.4921    28.1678 </r>
       <r>     0.7774     0.7153    28.2436 </r>
       <r>     0.8834     1.3994    28.3920 </r>
       <r>     0.9895     3.2763    28.7394 </r>
       <r>     1.0955     2.4012    28.9940 </r>
       <r>     1.2015     0.6759    29.0656 </r>
       <r>     1.3076     0.5459    29.1235 </r>
       <r>     1.4136     1.1461    29.2450 </r>
       <r>     1.5196     1.9859    29.4556 </r>
       <r>     1.6256     2.5453    29.7254 </r>
       <r>     1.7317     1.6232    29.8976 </r>
       <r>     1.8377     0.7645    29.9786 </r>
       <r>     1.9437     1.0788    30.0930 </r>
       <r>     2.0497     1.2411    30.2246 </r>
       <r>     2.1558     0.8968    30.3197 </r>
       <r>     2.2618     1.1284    30.4393 </r>
       <r>     2.3678     0.8767    30.5323 </r>
       <r>     2.4738     1.5173    30.6931 </r>
       <r>     2.5799     1.3535    30.8366 </r>
       <r>     2.6859     0.7340    30.9145 </r>
       <r>     2.7919     0.6196    30.9802 </r>
       <r>     2.8980     1.1450    31.1016 </r>
       <r>     3.0040     1.4713    31.2576 </r>
       <r>     3.1100     1.2830    31.3936 </r>
       <r>     3.2160     1.2743    31.5287 </r>
       <r>     3.3221     1.3792    31.6749 </r>
       <r>     3.4281     1.7207    31.8574 </r>
       <r>     3.5341     2.8621    32.1608 </r>
       <r>     3.6401     3.4314    32.5246 </r>
       <r>     3.7462     3.0489    32.8479 </r>
       <r>     3.8522     2.9149    33.1570 </r>
       <r>     3.9582     3.1470    33.4906 </r>
       <r>     4.0642     3.2816    33.8386 </r>
       <r>     4.1703     2.8665    34.1425 </r>
       <r>     4.2763     2.8099    34.4404 </r>
       <r>     4.3823     2.8396    34.7415 </r>
       <r>     4.4883     2.6730    35.0249 </r>
       <r>     4.5944     2.8152    35.3234 </r>
       <r>     4.7004     3.5954    35.7046 </r>
       <r>     4.8064     3.0685    36.0299 </r>
       <r>     4.9125     2.4496    36.2897 </r>
       <r>     5.0185     3.3976    36.6499 </r>
       <r>     5.1245     3.9409    37.0677 </r>
       <r>     5.2305     3.0400    37.3900 </r>
       <r>     5.3366     2.4279    37.6475 </r>
       <r>     5.4426     2.9604    37.9614 </r>
       <r>     5.5486     3.0281    38.2824 </r>
       <r>     5.6546     2.7740    38.5765 </r>
       <r>     5.7607     3.1304    38.9084 </r>
       <r>     5.8667     2.6332    39.1876 </r>
       <r>     5.9727     2.4703    39.4495 </r>
       <r>     6.0787     2.0918    39.6713 </r>
       <r>     6.1848     2.6324    39.9504 </r>
       <r>     6.2908     2.6147    40.2277 </r>
       <r>     6.3968     3.1082    40.5572 </r>
       <r>     6.5029     3.7613    40.9560 </r>
       <r>     6.6089     3.8533    41.3646 </r>
       <r>     6.7149     3.8393    41.7716 </r>
       <r>     6.8209     3.0022    42.0899 </r>
       <r>     6.9270     3.4528    42.4560 </r>
       <r>     7.0330     3.0793    42.7825 </r>
       <r>     7.1390     2.8090    43.0803 </r>
       <r>     7.2450     2.5350    43.3491 </r>
       <r>     7.3511     2.5980    43.6246 </r>
       <r>     7.4571     3.3834    43.9833 </r>
       <r>     7.5631     3.5429    44.3590 </r>
       <r>     7.6691     4.3608    44.8213 </r>
       <r>     7.7752     3.5828    45.2012 </r>
       <r>     7.8812     3.2124    45.5418 </r>
       <r>     7.9872     4.5460    46.0238 </r>
       <r>     8.0933     5.1428    46.5691 </r>
       <r>     8.1993     4.6838    47.0657 </r>
       <r>     8.3053     3.9900    47.4887 </r>
       <r>     8.4113     2.5223    47.7561 </r>
       <r>     8.5174     1.1765    47.8809 </r>
       <r>     8.6234     0.4628    47.9299 </r>
       <r>     8.7294     0.3374    47.9657 </r>
       <r>     8.8354     0.2560    47.9929 </r>
       <r>     8.9415     0.0646    47.9997 </r>
       <r>     9.0475     0.0027    48.0000 </r>
       <r>     9.1535     0.0000    48.0000 </r>
       <r>     9.2595     0.0000    48.0000 </r>
       <r>     9.3656     0.0000    48.0000 </r>
       <r>     9.4716     0.0000    48.0000 </r>
       <r>     9.5776     0.0000    48.0000 </r>
       <r>     9.6837     0.0000    48.0000 </r>
       <r>     9.7897     0.0000    48.0000 </r>
       <r>     9.8957     0.0000    48.0000 </r>
       <r>    10.0017     0.0000    48.0000 </r>
       <r>    10.1078     0.0000    48.0000 </r>
       <r>    10.2138     0.0000    48.0000 </r>
      </set>
     </set>
    </array>
   </total>
  </dos>
 </calculation>
 <structure name="finalpos" >
  <crystal>
   <varray name="basis" >
    <v>       4.22187384       2.43750000       0.00000000 </v>
    <v>      -4.22187384       2.43750000       0.00000000 </v>
    <v>       0.00000000       0.00000000      15.00000000 </v>
   </varray>
   <i name="volume">    308.72452480 </i>
   <varray name="rec_basis" >
    <v>       0.11843082       0.20512821       0.00000000 </v>
    <v>      -0.11843082       0.20512821       0.00000000 </v>
    <v>       0.00000000       0.00000000       0.06666667 </v>
   </varray>
  </crystal>
  <varray name="positions" >
   <v>       0.05148667      -0.03911583       0.09944196 </v>
   <v>       0.40650002      -0.03914374       0.09957342 </v>
   <v>       0.05138280       0.31558143       0.09955276 </v>
   <v>       0.69685321       0.60555798       0.09956552 </v>
   <v>       0.37494709       0.28379093       0.09952129 </v>
   <v>       0.72836694      -0.03916570       0.09954716 </v>
   <v>       0.05133236       0.63735193       0.09954589 </v>
   <v>       0.06968591       0.42575311       0.33936595 </v>
   <v>       0.23630908       0.25902809       0.33944050 </v>
   <v>       0.06973325       0.92578874       0.33938042 </v>
   <v>       0.23638096       0.75900158       0.33937818 </v>
   <v>       0.56971382       0.42573180       0.33937781 </v>
   <v>       0.73629428       0.25902590       0.33929194 </v>
   <v>       0.56964585       0.92571861       0.33940464 </v>
   <v>       0.73621732       0.75897361       0.33939189 </v>
  </varray>
 </structure>
</modeling>
