       N       E                     dE             d eps       ncg     rms          rms(c)
DAV:   1     0.259806616103E+03    0.25981E+03   -0.28554E+04 14208   0.964E+02
DAV:   2    -0.129338649766E+03   -0.38915E+03   -0.38872E+03 21792   0.179E+02
DAV:   3    -0.145345988500E+03   -0.16007E+02   -0.15975E+02 25104   0.502E+01
DAV:   4    -0.145407066569E+03   -0.61078E-01   -0.61052E-01 21552   0.278E+00
DAV:   5    -0.145407154332E+03   -0.87763E-04   -0.87762E-04 23520   0.117E-01    0.248E+01
DAV:   6    -0.106962207801E+03    0.38445E+02   -0.68554E+01 24384   0.266E+01    0.144E+01
DAV:   7    -0.113706330441E+03   -0.67441E+01   -0.95654E+00 22896   0.107E+01    0.851E+00
DAV:   8    -0.123522254971E+03   -0.98159E+01   -0.86196E+00 24336   0.928E+00    0.453E+00
DAV:   9    -0.131163275130E+03   -0.76410E+01   -0.41927E+00 17136   0.704E+00    0.299E+00
DAV:  10    -0.138366140700E+03   -0.72029E+01   -0.92076E+00 22224   0.782E+00    0.167E+00
DAV:  11    -0.139976830011E+03   -0.16107E+01   -0.18661E+00 21888   0.372E+00    0.111E+00
DAV:  12    -0.140303443469E+03   -0.32661E+00   -0.34052E-01 20160   0.183E+00    0.425E-01
DAV:  13    -0.140355348088E+03   -0.51905E-01   -0.37656E-02 17520   0.803E-01    0.177E-01
DAV:  14    -0.140372101279E+03   -0.16753E-01   -0.64196E-03 19392   0.319E-01    0.862E-02
DAV:  15    -0.140379033718E+03   -0.69324E-02   -0.36594E-03 18912   0.175E-01    0.427E-02
DAV:  16    -0.140380308271E+03   -0.12746E-02   -0.42550E-04 15504   0.904E-02    0.246E-02
DAV:  17    -0.140381924229E+03   -0.16160E-02   -0.25524E-04 15456   0.657E-02    0.169E-02
DAV:  18    -0.140382819636E+03   -0.89541E-03   -0.95484E-05 16848   0.451E-02    0.119E-02
DAV:  19    -0.140383304295E+03   -0.48466E-03   -0.59262E-05 19152   0.355E-02    0.768E-03
DAV:  20    -0.140383380819E+03   -0.76524E-04   -0.22372E-05 16416   0.230E-02    0.425E-03
DAV:  21    -0.140383430931E+03   -0.50113E-04   -0.81904E-06 20016   0.133E-02    0.236E-03
DAV:  22    -0.140383435912E+03   -0.49803E-05   -0.28390E-06 23088   0.775E-03    0.171E-03
DAV:  23    -0.140383440032E+03   -0.41204E-05   -0.10700E-06 21264   0.458E-03    0.799E-04
DAV:  24    -0.140383443069E+03   -0.30366E-05   -0.36308E-07 20352   0.235E-03    0.458E-04
DAV:  25    -0.140383444326E+03   -0.12573E-05   -0.84196E-08 20400   0.115E-03    0.239E-04
DAV:  26    -0.140383445093E+03   -0.76712E-06   -0.52161E-08 18624   0.802E-04
   1 F= -.14224721E+03 E0= -.14224634E+03  d E =-.142247E+03  mag=     0.0000
       N       E                     dE             d eps       ncg     rms          rms(c)
DAV:   1    -0.140354836715E+03    0.28608E-01   -0.10931E+01 14208   0.115E+01    0.931E-01
DAV:   2    -0.140330074357E+03    0.24762E-01   -0.18965E-01 25776   0.158E+00    0.454E-01
DAV:   3    -0.140327551668E+03    0.25227E-02   -0.26072E-02 21840   0.517E-01    0.192E-01
DAV:   4    -0.140327528813E+03    0.22855E-04   -0.31013E-03 18576   0.174E-01    0.772E-02
DAV:   5    -0.140327532033E+03   -0.32204E-05   -0.21182E-04 18528   0.558E-02    0.190E-02
DAV:   6    -0.140327536577E+03   -0.45436E-05   -0.22581E-05 22560   0.178E-02    0.109E-02
DAV:   7    -0.140327542574E+03   -0.59972E-05   -0.92954E-06 20400   0.101E-02    0.306E-03
DAV:   8    -0.140327550221E+03   -0.76468E-05   -0.16513E-06 20784   0.429E-03    0.133E-03
DAV:   9    -0.140327558704E+03   -0.84831E-05   -0.68665E-07 18576   0.189E-03    0.913E-04
DAV:  10    -0.140327564583E+03   -0.58786E-05   -0.44645E-07 19776   0.124E-03    0.557E-04
DAV:  11    -0.140327568828E+03   -0.42454E-05   -0.36969E-07 17184   0.106E-03    0.306E-04
DAV:  12    -0.140327570674E+03   -0.18458E-05   -0.16802E-07 16464   0.633E-04    0.192E-04
DAV:  13    -0.140327571120E+03   -0.44621E-06   -0.27180E-08 17712   0.287E-04
   2 F= -.14219477E+03 E0= -.14219356E+03  d E =0.524472E-01  mag=    -0.0000
       N       E                     dE             d eps       ncg     rms          rms(c)
DAV:   1    -0.140405562691E+03   -0.77992E-01   -0.56138E+00 14208   0.823E+00    0.668E-01
DAV:   2    -0.140393454456E+03    0.12108E-01   -0.95657E-02 23760   0.114E+00    0.326E-01
DAV:   3    -0.140392016122E+03    0.14383E-02   -0.15944E-02 24384   0.392E-01    0.131E-01
DAV:   4    -0.140391954208E+03    0.61913E-04   -0.17810E-03 18528   0.133E-01    0.590E-02
DAV:   5    -0.140391945961E+03    0.82477E-05   -0.14968E-04 15312   0.478E-02    0.988E-03
DAV:   6    -0.140391943501E+03    0.24594E-05   -0.27959E-05 26352   0.194E-02    0.552E-03
DAV:   7    -0.140391945068E+03   -0.15665E-05   -0.28126E-06 18960   0.649E-03    0.146E-03
DAV:   8    -0.140391947394E+03   -0.23262E-05   -0.47795E-07 22080   0.247E-03    0.129E-03
DAV:   9    -0.140391951818E+03   -0.44238E-05   -0.25997E-07 17088   0.133E-03    0.687E-04
DAV:  10    -0.140391956097E+03   -0.42797E-05   -0.29647E-07 17760   0.124E-03    0.423E-04
DAV:  11    -0.140391959415E+03   -0.33176E-05   -0.20666E-07 14400   0.810E-04    0.224E-04
DAV:  12    -0.140391960141E+03   -0.72572E-06   -0.26578E-08 21840   0.276E-04
   3 F= -.14225688E+03 E0= -.14225592E+03  d E =-.966198E-02  mag=    -0.0000
       N       E                     dE             d eps       ncg     rms          rms(c)
DAV:   1    -0.140392263472E+03   -0.30406E-03   -0.31527E-02 14304   0.754E-01    0.329E-02
DAV:   2    -0.140392271280E+03   -0.78076E-05   -0.21161E-04 26496   0.642E-02    0.214E-02
DAV:   3    -0.140392273076E+03   -0.17960E-05   -0.24203E-05 16032   0.190E-02    0.469E-03
DAV:   4    -0.140392273156E+03   -0.80519E-07   -0.39517E-06 21504   0.741E-03
   4 F= -.14225714E+03 E0= -.14225620E+03  d E =-.263222E-03  mag=     0.0000
       N       E                     dE             d eps       ncg     rms          rms(c)
DAV:   1    -0.140392304907E+03   -0.31831E-04   -0.32792E-03 14688   0.243E-01    0.108E-02
DAV:   2    -0.140392305564E+03   -0.65710E-06   -0.22230E-05 25344   0.208E-02    0.710E-03
DAV:   3    -0.140392306075E+03   -0.51091E-06   -0.24766E-06 16224   0.615E-03
   5 F= -.14225716E+03 E0= -.14225622E+03  d E =-.280098E-03  mag=    -0.0000
       N       E                     dE             d eps       ncg     rms          rms(c)
DAV:   1    -0.140392323666E+03   -0.18102E-04   -0.15987E-02 15552   0.531E-01    0.293E-02
DAV:   2    -0.140392318981E+03    0.46855E-05   -0.25546E-04 16416   0.664E-02    0.174E-02
DAV:   3    -0.140392318967E+03    0.13696E-07   -0.32714E-05 17616   0.212E-02    0.845E-03
DAV:   4    -0.140392319110E+03   -0.14353E-06   -0.86384E-06 20496   0.902E-03
   6 F= -.14225713E+03 E0= -.14225620E+03  d E =0.224976E-04  mag=     0.0000
       N       E                     dE             d eps       ncg     rms          rms(c)
DAV:   1    -0.140392349818E+03   -0.30851E-04   -0.52623E-03 17088   0.304E-01    0.173E-02
DAV:   2    -0.140392347549E+03    0.22681E-05   -0.87643E-05 14304   0.388E-02    0.100E-02
DAV:   3    -0.140392347664E+03   -0.11448E-06   -0.11318E-05 16464   0.126E-02    0.488E-03
DAV:   4    -0.140392347820E+03   -0.15638E-06   -0.25219E-06 16128   0.497E-03
   7 F= -.14225718E+03 E0= -.14225625E+03  d E =-.265561E-04  mag=     0.0000
       N       E                     dE             d eps       ncg     rms          rms(c)
DAV:   1    -0.140392347493E+03    0.17076E-06   -0.25346E-06 14880   0.694E-03    0.107E-03
DAV:   2    -0.140392347539E+03   -0.45953E-07   -0.32158E-08 20496   0.692E-04
   8 F= -.14225718E+03 E0= -.14225625E+03  d E =-.267746E-04  mag=     0.0000
       N       E                     dE             d eps       ncg     rms          rms(c)
DAV:   1    -0.140392388118E+03   -0.40625E-04   -0.84858E-04 14304   0.124E-01    0.615E-03
DAV:   2    -0.140392387996E+03    0.12205E-06   -0.83787E-06 15360   0.116E-02
   9 F= -.14225719E+03 E0= -.14225625E+03  d E =-.448275E-05  mag=    -0.0000
       N       E                     dE             d eps       ncg     rms          rms(c)
DAV:   1    -0.140392386124E+03    0.19940E-05   -0.69083E-06 22656   0.106E-02    0.806E-04
DAV:   2    -0.140392386140E+03   -0.16455E-07   -0.26532E-07 15504   0.181E-03
  10 F= -.14225719E+03 E0= -.14225625E+03  d E =-.500055E-05  mag=    -0.0000
       N       E                     dE             d eps       ncg     rms          rms(c)
DAV:   1    -0.140392411491E+03   -0.25367E-04   -0.21439E-04 15360   0.624E-02    0.303E-03
DAV:   2    -0.140392411341E+03    0.14962E-06   -0.19385E-06 14496   0.589E-03
  11 F= -.14225719E+03 E0= -.14225625E+03  d E =-.264052E-05  mag=    -0.0000
       N       E                     dE             d eps       ncg     rms          rms(c)
DAV:   1    -0.140392432206E+03   -0.20715E-04   -0.16196E-04 19296   0.547E-02    0.292E-03
DAV:   2    -0.140392432029E+03    0.17639E-06   -0.11953E-06 15312   0.466E-03
  12 F= -.14225719E+03 E0= -.14225626E+03  d E =-.338260E-05  mag=    -0.0000
       N       E                     dE             d eps       ncg     rms          rms(c)
DAV:   1    -0.140392443025E+03   -0.10820E-04   -0.80556E-06 14496   0.118E-02    0.670E-04
DAV:   2    -0.140392443020E+03    0.56170E-08   -0.80269E-08 24864   0.124E-03
  13 F= -.14225719E+03 E0= -.14225626E+03  d E =-.542158E-06  mag=    -0.0000
       N       E                     dE             d eps       ncg     rms          rms(c)
DAV:   1    -0.140392475134E+03   -0.32109E-04   -0.78964E-05 14928   0.364E-02    0.208E-03
DAV:   2    -0.140392475073E+03    0.60827E-07   -0.94222E-07 15072   0.408E-03
  14 F= -.14225719E+03 E0= -.14225626E+03  d E =-.125076E-05  mag=     0.0000
       N       E                     dE             d eps       ncg     rms          rms(c)
DAV:   1    -0.140392538408E+03   -0.63274E-04   -0.31153E-04 14496   0.725E-02    0.410E-03
DAV:   2    -0.140392538251E+03    0.15787E-06   -0.37381E-06 14880   0.817E-03
  15 F= -.14225719E+03 E0= -.14225626E+03  d E =-.174181E-05  mag=    -0.0000
       N       E                     dE             d eps       ncg     rms          rms(c)
DAV:   1    -0.140392542220E+03   -0.38121E-05   -0.89377E-07 22320   0.432E-03    0.825E-04
DAV:   2    -0.140392542226E+03   -0.51950E-08   -0.35783E-08 17424   0.671E-04
  16 F= -.14225719E+03 E0= -.14225626E+03  d E =-.198837E-06  mag=     0.0000
       N       E                     dE             d eps       ncg     rms          rms(c)
DAV:   1    -0.140392553886E+03   -0.11665E-04   -0.93671E-06 16032   0.122E-02    0.801E-04
DAV:   2    -0.140392553876E+03    0.93742E-08   -0.10719E-07 19200   0.138E-03
  17 F= -.14225719E+03 E0= -.14225626E+03  d E =-.520476E-06  mag=     0.0000
       N       E                     dE             d eps       ncg     rms          rms(c)
DAV:   1    -0.140392577145E+03   -0.23259E-04   -0.36104E-05 16128   0.242E-02    0.145E-03
DAV:   2    -0.140392577110E+03    0.34815E-07   -0.39871E-07 15744   0.263E-03
  18 F= -.14225719E+03 E0= -.14225626E+03  d E =-.109744E-05  mag=     0.0000
       N       E                     dE             d eps       ncg     rms          rms(c)
DAV:   1    -0.140392623198E+03   -0.46053E-04   -0.14403E-04 14304   0.484E-02    0.279E-03
DAV:   2    -0.140392623098E+03    0.99959E-07   -0.16558E-06 14304   0.541E-03
  19 F= -.14225719E+03 E0= -.14225626E+03  d E =-.170400E-05  mag=     0.0000
       N       E                     dE             d eps       ncg     rms          rms(c)
DAV:   1    -0.140392715545E+03   -0.92346E-04   -0.57592E-04 14304   0.968E-02    0.553E-03
DAV:   2    -0.140392715264E+03    0.28011E-06   -0.66106E-06 14208   0.108E-02
  20 F= -.14225720E+03 E0= -.14225626E+03  d E =-.325313E-05  mag=    -0.0000
       N       E                     dE             d eps       ncg     rms          rms(c)
DAV:   1    -0.140392898464E+03   -0.18292E-03   -0.23036E-03 14208   0.194E-01    0.110E-02
DAV:   2    -0.140392897689E+03    0.77547E-06   -0.26439E-05 15744   0.216E-02    0.664E-03
DAV:   3    -0.140392897895E+03   -0.20673E-06   -0.39074E-06 22560   0.709E-03
  21 F= -.14225720E+03 E0= -.14225626E+03  d E =-.468854E-05  mag=    -0.0000
       N       E                     dE             d eps       ncg     rms          rms(c)
DAV:   1    -0.140392974457E+03   -0.76769E-04   -0.42154E-04 14208   0.828E-02    0.487E-03
DAV:   2    -0.140392974267E+03    0.19024E-06   -0.50395E-06 14880   0.952E-03
  22 F= -.14225720E+03 E0= -.14225626E+03  d E =-.173976E-05  mag=    -0.0000
       N       E                     dE             d eps       ncg     rms          rms(c)
DAV:   1    -0.140393200542E+03   -0.22609E-03   -0.35912E-03 14208   0.244E-01    0.133E-02
DAV:   2    -0.140393199346E+03    0.11961E-05   -0.43455E-05 14400   0.276E-02    0.810E-03
DAV:   3    -0.140393199498E+03   -0.15154E-06   -0.63862E-06 22368   0.921E-03
  23 F= -.14225720E+03 E0= -.14225626E+03  d E =-.311720E-05  mag=     0.0000
       N       E                     dE             d eps       ncg     rms          rms(c)
DAV:   1    -0.140393109793E+03    0.89553E-04   -0.56835E-04 14400   0.970E-02    0.456E-03
DAV:   2    -0.140393109725E+03    0.68180E-07   -0.76618E-06 14496   0.114E-02
  24 F= -.14225720E+03 E0= -.14225626E+03  d E =-.349574E-05  mag=     0.0000
       N       E                     dE             d eps       ncg     rms          rms(c)
DAV:   1    -0.140393210217E+03   -0.10042E-03   -0.77150E-04 14208   0.111E-01    0.530E-03
DAV:   2    -0.140393209842E+03    0.37505E-06   -0.90918E-06 14208   0.126E-02
  25 F= -.14225720E+03 E0= -.14225626E+03  d E =-.277756E-05  mag=     0.0000
       N       E                     dE             d eps       ncg     rms          rms(c)
DAV:   1    -0.140393510341E+03   -0.30012E-03   -0.65928E-03 14208   0.330E-01    0.174E-02
DAV:   2    -0.140393507457E+03    0.28841E-05   -0.73473E-05 14208   0.359E-02    0.105E-02
DAV:   3    -0.140393507893E+03   -0.43566E-06   -0.10787E-05 16704   0.120E-02    0.247E-03
DAV:   4    -0.140393508129E+03   -0.23656E-06   -0.19959E-06 14976   0.489E-03
  26 F= -.14225721E+03 E0= -.14225627E+03  d E =-.912547E-05  mag=     0.0000
       N       E                     dE             d eps       ncg     rms          rms(c)
DAV:   1    -0.140394104091E+03   -0.59620E-03   -0.26778E-02 14208   0.663E-01    0.343E-02
DAV:   2    -0.140394094125E+03    0.99660E-05   -0.29434E-04 14208   0.720E-02    0.203E-02
DAV:   3    -0.140394093192E+03    0.93281E-06   -0.44177E-05 21024   0.240E-02    0.475E-03
DAV:   4    -0.140394093864E+03   -0.67127E-06   -0.68725E-06 14640   0.921E-03
  27 F= -.14225721E+03 E0= -.14225626E+03  d E =-.111388E-04  mag=     0.0000
       N       E                     dE             d eps       ncg     rms          rms(c)
DAV:   1    -0.140393936224E+03    0.15697E-03   -0.19943E-03 14208   0.181E-01    0.916E-03
DAV:   2    -0.140393935330E+03    0.89404E-06   -0.22813E-05 14688   0.201E-02    0.547E-03
DAV:   3    -0.140393935408E+03   -0.77749E-07   -0.33137E-06 17664   0.658E-03
  28 F= -.14225721E+03 E0= -.14225626E+03  d E =-.120785E-04  mag=    -0.0000
       N       E                     dE             d eps       ncg     rms          rms(c)
DAV:   1    -0.140394017295E+03   -0.81965E-04   -0.51389E-04 14688   0.919E-02    0.440E-03
DAV:   2    -0.140394017061E+03    0.23400E-06   -0.64042E-06 14208   0.104E-02
  29 F= -.14225721E+03 E0= -.14225626E+03  d E =-.120279E-04  mag=    -0.0000
       N       E                     dE             d eps       ncg     rms          rms(c)
DAV:   1    -0.140394116017E+03   -0.98722E-04   -0.72450E-04 14208   0.110E-01    0.622E-03
DAV:   2    -0.140394115557E+03    0.45956E-06   -0.80055E-06 14208   0.120E-02
  30 F= -.14225721E+03 E0= -.14225626E+03  d E =-.143144E-05  mag=    -0.0000
       N       E                     dE             d eps       ncg     rms          rms(c)
DAV:   1    -0.140394411789E+03   -0.29577E-03   -0.66496E-03 14208   0.331E-01    0.176E-02
DAV:   2    -0.140394408823E+03    0.29660E-05   -0.72508E-05 14208   0.360E-02    0.106E-02
DAV:   3    -0.140394409277E+03   -0.45421E-06   -0.10735E-05 14976   0.120E-02    0.261E-03
DAV:   4    -0.140394409532E+03   -0.25535E-06   -0.20167E-06 15552   0.493E-03
  31 F= -.14225722E+03 E0= -.14225626E+03  d E =-.429017E-05  mag=    -0.0000
       N       E                     dE             d eps       ncg     rms          rms(c)
DAV:   1    -0.140394474956E+03   -0.65680E-04   -0.33920E-04 14208   0.745E-02    0.418E-03
DAV:   2    -0.140394474760E+03    0.19638E-06   -0.39953E-06 14976   0.851E-03
  32 F= -.14225722E+03 E0= -.14225626E+03  d E =-.448891E-05  mag=    -0.0000
       N       E                     dE             d eps       ncg     rms          rms(c)
DAV:   1    -0.140394605142E+03   -0.13019E-03   -0.13171E-03 14208   0.148E-01    0.795E-03
DAV:   2    -0.140394604511E+03    0.63042E-06   -0.14763E-05 14208   0.162E-02    0.485E-03
DAV:   3    -0.140394604748E+03   -0.23687E-06   -0.21278E-06 14976   0.541E-03
  33 F= -.14225722E+03 E0= -.14225626E+03  d E =-.436870E-05  mag=     0.0000
       N       E                     dE             d eps       ncg     rms          rms(c)
DAV:   1    -0.140394511475E+03    0.93036E-04   -0.68451E-04 14208   0.106E-01    0.512E-03
DAV:   2    -0.140394511266E+03    0.20946E-06   -0.85461E-06 14592   0.120E-02
  34 F= -.14225722E+03 E0= -.14225626E+03  d E =-.471975E-05  mag=     0.0000
       N       E                     dE             d eps       ncg     rms          rms(c)
DAV:   1    -0.140394496248E+03    0.15227E-04   -0.14383E-05 20592   0.166E-02    0.157E-03
DAV:   2    -0.140394496234E+03    0.13692E-07   -0.79809E-08 23376   0.121E-03
  35 F= -.14225722E+03 E0= -.14225626E+03  d E =-.474090E-05  mag=     0.0000
       N       E                     dE             d eps       ncg     rms          rms(c)
DAV:   1    -0.140394513015E+03   -0.16767E-04   -0.40010E-05 14208   0.268E-02    0.105E-03
DAV:   2    -0.140394513031E+03   -0.15708E-07   -0.42148E-07 14208   0.280E-03
  36 F= -.14225722E+03 E0= -.14225627E+03  d E =-.145772E-05  mag=     0.0000
       N       E                     dE             d eps       ncg     rms          rms(c)
DAV:   1    -0.140394561391E+03   -0.48376E-04   -0.35565E-04 14208   0.801E-02    0.379E-03
DAV:   2    -0.140394561255E+03    0.13643E-06   -0.33370E-06 14400   0.792E-03
  37 F= -.14225722E+03 E0= -.14225627E+03  d E =-.360158E-05  mag=     0.0000
       N       E                     dE             d eps       ncg     rms          rms(c)
DAV:   1    -0.140394576887E+03   -0.15496E-04   -0.36795E-05 14208   0.263E-02    0.159E-03
DAV:   2    -0.140394576875E+03    0.11946E-07   -0.28384E-07 18048   0.236E-03
  38 F= -.14225722E+03 E0= -.14225627E+03  d E =-.378644E-05  mag=     0.0000
       N       E                     dE             d eps       ncg     rms          rms(c)
DAV:   1    -0.140394596149E+03   -0.19262E-04   -0.74345E-05 14208   0.372E-02    0.173E-03
DAV:   2    -0.140394596127E+03    0.22056E-07   -0.69933E-07 20496   0.363E-03
  39 F= -.14225722E+03 E0= -.14225627E+03  d E =-.120982E-05  mag=    -0.0000
       N       E                     dE             d eps       ncg     rms          rms(c)
DAV:   1    -0.140394617110E+03   -0.20961E-04   -0.95123E-05 14208   0.421E-02    0.213E-03
DAV:   2    -0.140394617063E+03    0.46880E-07   -0.83656E-07 16032   0.402E-03
  40 F= -.14225722E+03 E0= -.14225627E+03  d E =-.161309E-05  mag=    -0.0000
       N       E                     dE             d eps       ncg     rms          rms(c)
DAV:   1    -0.140394622834E+03   -0.57236E-05   -0.70773E-06 14208   0.114E-02    0.883E-04
DAV:   2    -0.140394622836E+03   -0.20718E-08   -0.10235E-07 17952   0.139E-03
  41 F= -.14225722E+03 E0= -.14225627E+03  d E =-.257219E-06  mag=     0.0000
       N       E                     dE             d eps       ncg     rms          rms(c)
DAV:   1    -0.140394627307E+03   -0.44737E-05   -0.46698E-06 18144   0.917E-03    0.766E-04
DAV:   2    -0.140394627304E+03    0.35916E-08   -0.56422E-08 20544   0.102E-03
  42 F= -.14225722E+03 E0= -.14225627E+03  d E =-.312728E-06  mag=    -0.0000
       N       E                     dE             d eps       ncg     rms          rms(c)
DAV:   1    -0.140394630383E+03   -0.30751E-05   -0.12482E-06 15408   0.479E-03    0.349E-04
DAV:   2    -0.140394630383E+03   -0.65847E-09   -0.14877E-08 19296   0.531E-04
  43 F= -.14225722E+03 E0= -.14225627E+03  d E =-.466979E-07  mag=    -0.0000
