   8   8   0   4
  0.4338553E+02  0.5169000E-09  0.5169000E-09  0.1500000E-08  0.5000000E-15
  1.000000000000000E-004
  CAR 
 Lattice                                 
      6.53545589    -21.14287443  301     -3.47652773      1.00000000
    -21.143  0.0000E+00  0.0000E+00
    -21.051  0.0000E+00  0.0000E+00
    -20.958  0.0000E+00  0.0000E+00
    -20.866  0.0000E+00  0.0000E+00
    -20.774  0.0000E+00  0.0000E+00
    -20.682  0.0000E+00  0.0000E+00
    -20.589  0.0000E+00  0.0000E+00
    -20.497  0.0000E+00  0.0000E+00
    -20.405  0.1396E-15  0.1288E-16
    -20.313  0.1266E-11  0.1168E-12
    -20.220  0.2260E-08  0.2086E-09
    -20.128  0.8216E-06  0.7601E-07
    -20.036  0.6455E-04  0.6032E-05
    -19.943  0.1211E-02  0.1177E-03
    -19.851  0.6425E-02  0.7105E-03
    -19.759  0.1299E-01  0.1909E-02
    -19.667  0.1590E-01  0.3376E-02
    -19.574  0.1759E-01  0.4999E-02
    -19.482  0.2035E-01  0.6876E-02
    -19.390  0.2645E-01  0.9316E-02
    -19.298  0.3388E-01  0.1244E-01
    -19.205  0.2583E-01  0.1482E-01
    -19.113  0.7885E-02  0.1555E-01
    -19.021  0.7703E-03  0.1562E-01
    -18.929  0.2013E-04  0.1562E-01
    -18.836  0.1223E-06  0.1562E-01
    -18.744  0.1579E-09  0.1562E-01
    -18.652  0.4109E-13  0.1562E-01
    -18.560  0.1727E-17  0.1562E-01
    -18.467  0.0000E+00  0.1562E-01
    -18.375  0.0000E+00  0.1562E-01
    -18.283  0.0000E+00  0.1562E-01
    -18.191  0.3971E-18  0.1562E-01
    -18.098  0.9952E-14  0.1563E-01
    -18.006  0.4648E-10  0.1563E-01
    -17.914  0.4325E-07  0.1563E-01
    -17.821  0.8375E-05  0.1563E-01
    -17.729  0.3631E-03  0.1566E-01
    -17.637  0.3999E-02  0.1603E-01
    -17.545  0.1396E-01  0.1732E-01
    -17.452  0.2275E-01  0.1942E-01
    -17.360  0.2520E-01  0.2174E-01
    -17.268  0.2009E-01  0.2359E-01
    -17.176  0.1516E-01  0.2499E-01
    -17.083  0.1440E-01  0.2632E-01
    -16.991  0.1484E-01  0.2769E-01
    -16.899  0.1549E-01  0.2912E-01
    -16.807  0.1636E-01  0.3063E-01
    -16.714  0.1759E-01  0.3225E-01
    -16.622  0.1959E-01  0.3406E-01
    -16.530  0.2344E-01  0.3622E-01
    -16.438  0.2781E-01  0.3879E-01
    -16.345  0.2575E-01  0.4116E-01
    -16.253  0.2001E-01  0.4301E-01
    -16.161  0.1623E-01  0.4451E-01
    -16.069  0.1346E-01  0.4575E-01
    -15.976  0.8920E-02  0.4657E-01
    -15.884  0.2953E-02  0.4684E-01
    -15.792  0.3247E-03  0.4687E-01
    -15.699  0.9330E-05  0.4687E-01
    -15.607  0.6104E-07  0.4687E-01
    -15.515  0.8393E-10  0.4687E-01
    -15.423  0.2314E-13  0.4687E-01
    -15.330  0.1174E-17  0.4687E-01
    -15.238  0.0000E+00  0.4687E-01
    -15.146  0.0000E+00  0.4687E-01
    -15.054  0.0000E+00  0.4687E-01
    -14.961  0.0000E+00  0.4687E-01
    -14.869  0.0000E+00  0.4687E-01
    -14.777  0.5180E-19  0.4687E-01
    -14.685  0.1566E-14  0.4687E-01
    -14.592  0.9461E-11  0.4688E-01
    -14.500  0.1140E-07  0.4688E-01
    -14.408  0.2844E-05  0.4688E-01
    -14.316  0.1566E-03  0.4689E-01
    -14.223  0.2129E-02  0.4709E-01
    -14.131  0.8692E-02  0.4789E-01
    -14.039  0.1499E-01  0.4927E-01
    -13.947  0.1770E-01  0.5090E-01
    -13.854  0.2037E-01  0.5278E-01
    -13.762  0.2515E-01  0.5510E-01
    -13.670  0.2742E-01  0.5763E-01
    -13.577  0.2063E-01  0.5954E-01
    -13.485  0.1431E-01  0.6086E-01
    -13.393  0.1236E-01  0.6200E-01
    -13.301  0.1140E-01  0.6305E-01
    -13.208  0.1099E-01  0.6406E-01
    -13.116  0.1051E-01  0.6503E-01
    -13.024  0.1019E-01  0.6597E-01
    -12.932  0.9926E-02  0.6689E-01
    -12.839  0.1002E-01  0.6781E-01
    -12.747  0.1175E-01  0.6890E-01
    -12.655  0.1477E-01  0.7026E-01
    -12.563  0.1559E-01  0.7170E-01
    -12.470  0.1490E-01  0.7307E-01
    -12.378  0.1381E-01  0.7435E-01
    -12.286  0.1294E-01  0.7554E-01
    -12.194  0.1213E-01  0.7666E-01
    -12.101  0.1145E-01  0.7772E-01
    -12.009  0.1089E-01  0.7872E-01
    -11.917  0.9883E-02  0.7963E-01
    -11.825  0.7320E-02  0.8031E-01
    -11.732  0.4390E-02  0.8071E-01
    -11.640  0.3626E-02  0.8105E-01
    -11.548  0.3401E-02  0.8136E-01
    -11.455  0.3895E-02  0.8172E-01
    -11.363  0.3467E-02  0.8204E-01
    -11.271  0.4622E-02  0.8247E-01
    -11.179  0.5275E-02  0.8296E-01
    -11.086  0.6396E-02  0.8355E-01
    -10.994  0.7172E-02  0.8421E-01
    -10.902  0.7453E-02  0.8489E-01
    -10.810  0.1084E-01  0.8589E-01
    -10.717  0.1156E-01  0.8696E-01
    -10.625  0.1273E-01  0.8814E-01
    -10.533  0.1397E-01  0.8943E-01
    -10.441  0.1400E-01  0.9072E-01
    -10.348  0.1682E-01  0.9227E-01
    -10.256  0.1805E-01  0.9393E-01
    -10.164  0.1638E-01  0.9544E-01
    -10.072  0.1230E-01  0.9658E-01
     -9.979  0.1005E-01  0.9751E-01
     -9.887  0.1321E-01  0.9872E-01
     -9.795  0.2005E-01  0.1006E+00
     -9.702  0.2165E-01  0.1026E+00
     -9.610  0.1811E-01  0.1042E+00
     -9.518  0.1664E-01  0.1058E+00
     -9.426  0.1531E-01  0.1072E+00
     -9.333  0.1413E-01  0.1085E+00
     -9.241  0.1527E-01  0.1099E+00
     -9.149  0.1526E-01  0.1113E+00
     -9.057  0.1734E-01  0.1129E+00
     -8.964  0.1920E-01  0.1147E+00
     -8.872  0.2028E-01  0.1166E+00
     -8.780  0.1982E-01  0.1184E+00
     -8.688  0.1970E-01  0.1202E+00
     -8.595  0.2271E-01  0.1223E+00
     -8.503  0.2340E-01  0.1245E+00
     -8.411  0.2043E-01  0.1263E+00
     -8.319  0.1742E-01  0.1279E+00
     -8.226  0.1579E-01  0.1294E+00
     -8.134  0.1572E-01  0.1309E+00
     -8.042  0.1922E-01  0.1326E+00
     -7.950  0.2400E-01  0.1348E+00
     -7.857  0.2982E-01  0.1376E+00
     -7.765  0.3415E-01  0.1407E+00
     -7.673  0.3414E-01  0.1439E+00
     -7.580  0.3332E-01  0.1470E+00
     -7.488  0.2689E-01  0.1494E+00
     -7.396  0.1764E-01  0.1511E+00
     -7.304  0.1324E-01  0.1523E+00
     -7.211  0.1596E-01  0.1538E+00
     -7.119  0.1644E-01  0.1553E+00
     -7.027  0.1394E-01  0.1566E+00
     -6.935  0.1271E-01  0.1577E+00
     -6.842  0.1261E-01  0.1589E+00
     -6.750  0.1326E-01  0.1601E+00
     -6.658  0.1669E-01  0.1617E+00
     -6.566  0.2463E-01  0.1639E+00
     -6.473  0.3707E-01  0.1674E+00
     -6.381  0.5651E-01  0.1726E+00
     -6.289  0.6187E-01  0.1783E+00
     -6.197  0.4615E-01  0.1825E+00
     -6.104  0.3269E-01  0.1856E+00
     -6.012  0.2284E-01  0.1877E+00
     -5.920  0.1858E-01  0.1894E+00
     -5.828  0.1821E-01  0.1911E+00
     -5.735  0.1874E-01  0.1928E+00
     -5.643  0.1917E-01  0.1946E+00
     -5.551  0.2005E-01  0.1964E+00
     -5.458  0.2069E-01  0.1983E+00
     -5.366  0.2188E-01  0.2003E+00
     -5.274  0.2305E-01  0.2025E+00
     -5.182  0.2499E-01  0.2048E+00
     -5.089  0.2784E-01  0.2073E+00
     -4.997  0.3163E-01  0.2103E+00
     -4.905  0.3333E-01  0.2133E+00
     -4.813  0.3510E-01  0.2166E+00
     -4.720  0.3752E-01  0.2200E+00
     -4.628  0.3516E-01  0.2233E+00
     -4.536  0.3012E-01  0.2261E+00
     -4.444  0.2171E-01  0.2281E+00
     -4.351  0.1300E-01  0.2293E+00
     -4.259  0.1009E-01  0.2302E+00
     -4.167  0.9523E-02  0.2311E+00
     -4.075  0.9222E-02  0.2319E+00
     -3.982  0.8925E-02  0.2327E+00
     -3.890  0.8443E-02  0.2335E+00
     -3.798  0.6418E-02  0.2341E+00
     -3.706  0.2507E-02  0.2343E+00
     -3.613  0.3330E-03  0.2344E+00
     -3.521  0.1174E-04  0.2344E+00
     -3.429  0.2136E-06  0.2344E+00
     -3.336  0.1447E-04  0.2344E+00
     -3.244  0.4141E-03  0.2344E+00
     -3.152  0.3161E-02  0.2347E+00
     -3.060  0.8303E-02  0.2355E+00
     -2.967  0.1143E-01  0.2365E+00
     -2.875  0.1302E-01  0.2377E+00
     -2.783  0.1483E-01  0.2391E+00
     -2.691  0.1849E-01  0.2408E+00
     -2.598  0.2105E-01  0.2427E+00
     -2.506  0.1848E-01  0.2444E+00
     -2.414  0.1324E-01  0.2457E+00
     -2.322  0.1068E-01  0.2467E+00
     -2.229  0.8474E-02  0.2474E+00
     -2.137  0.7302E-02  0.2481E+00
     -2.045  0.5919E-02  0.2487E+00
     -1.953  0.4636E-02  0.2491E+00
     -1.860  0.3198E-02  0.2494E+00
     -1.768  0.2285E-02  0.2496E+00
     -1.676  0.1818E-02  0.2498E+00
     -1.584  0.1248E-02  0.2499E+00
     -1.491  0.8698E-03  0.2500E+00
     -1.399  0.3906E-03  0.2500E+00
     -1.307  0.3480E-03  0.2500E+00
     -1.214  0.5333E-03  0.2501E+00
     -1.122  0.1078E-02  0.2502E+00
     -1.030  0.1442E-02  0.2503E+00
     -0.938  0.2096E-02  0.2505E+00
     -0.845  0.2453E-02  0.2507E+00
     -0.753  0.3255E-02  0.2510E+00
     -0.661  0.3657E-02  0.2514E+00
     -0.569  0.4645E-02  0.2518E+00
     -0.476  0.5331E-02  0.2523E+00
     -0.384  0.6562E-02  0.2529E+00
     -0.292  0.8900E-02  0.2537E+00
     -0.200  0.1488E-01  0.2551E+00
     -0.107  0.2350E-01  0.2572E+00
     -0.015  0.2204E-01  0.2593E+00
      0.077  0.1714E-01  0.2609E+00
      0.169  0.1313E-01  0.2621E+00
      0.262  0.1188E-01  0.2632E+00
      0.354  0.1069E-01  0.2642E+00
      0.446  0.1080E-01  0.2652E+00
      0.538  0.1196E-01  0.2663E+00
      0.631  0.1134E-01  0.2673E+00
      0.723  0.1013E-01  0.2682E+00
      0.815  0.8672E-02  0.2690E+00
      0.908  0.1116E-01  0.2701E+00
      1.000  0.1389E-01  0.2713E+00
      1.092  0.1461E-01  0.2727E+00
      1.184  0.1504E-01  0.2741E+00
      1.277  0.1557E-01  0.2755E+00
      1.369  0.1615E-01  0.2770E+00
      1.461  0.1694E-01  0.2786E+00
      1.553  0.1853E-01  0.2803E+00
      1.646  0.1900E-01  0.2820E+00
      1.738  0.1817E-01  0.2837E+00
      1.830  0.1922E-01  0.2855E+00
      1.922  0.2141E-01  0.2875E+00
      2.015  0.2334E-01  0.2896E+00
      2.107  0.2375E-01  0.2918E+00
      2.199  0.2339E-01  0.2940E+00
      2.291  0.2602E-01  0.2964E+00
      2.384  0.2949E-01  0.2991E+00
      2.476  0.2958E-01  0.3018E+00
      2.568  0.3080E-01  0.3047E+00
      2.660  0.3001E-01  0.3074E+00
      2.753  0.2975E-01  0.3102E+00
      2.845  0.3037E-01  0.3130E+00
      2.937  0.2971E-01  0.3157E+00
      3.030  0.2963E-01  0.3184E+00
      3.122  0.3011E-01  0.3212E+00
      3.214  0.2944E-01  0.3239E+00
      3.306  0.2967E-01  0.3267E+00
      3.399  0.2991E-01  0.3294E+00
      3.491  0.2933E-01  0.3321E+00
      3.583  0.2992E-01  0.3349E+00
      3.675  0.2925E-01  0.3376E+00
      3.768  0.2972E-01  0.3403E+00
      3.860  0.3060E-01  0.3432E+00
      3.952  0.3079E-01  0.3460E+00
      4.044  0.3204E-01  0.3490E+00
      4.137  0.2766E-01  0.3515E+00
      4.229  0.2333E-01  0.3537E+00
      4.321  0.2579E-01  0.3560E+00
      4.413  0.3050E-01  0.3589E+00
      4.506  0.2930E-01  0.3616E+00
      4.598  0.2378E-01  0.3638E+00
      4.690  0.1941E-01  0.3655E+00
      4.782  0.1785E-01  0.3672E+00
      4.875  0.1906E-01  0.3690E+00
      4.967  0.2169E-01  0.3710E+00
      5.059  0.1865E-01  0.3727E+00
      5.152  0.1242E-01  0.3738E+00
      5.244  0.8229E-02  0.3746E+00
      5.336  0.3733E-02  0.3749E+00
      5.428  0.7507E-03  0.3750E+00
      5.521  0.4924E-04  0.3750E+00
      5.613  0.8027E-06  0.3750E+00
      5.705  0.2772E-08  0.3750E+00
      5.797  0.1887E-11  0.3750E+00
      5.890  0.2451E-15  0.3750E+00
      5.982  0.0000E+00  0.3750E+00
      6.074  0.0000E+00  0.3750E+00
      6.166  0.0000E+00  0.3750E+00
      6.259  0.0000E+00  0.3750E+00
      6.351  0.0000E+00  0.3750E+00
      6.443  0.0000E+00  0.3750E+00
      6.535  0.0000E+00  0.3750E+00
