Lattice                                 
           1
     4.476485    2.584500    0.000000
    -4.476485    2.584500    0.000000
     0.000000    0.000000   15.000000
   B    C 
     2     6
Direct configuration=     1
   0.33835568  0.66919338  0.25000000
   0.67168550  0.33578412  0.25000000
   0.16393418  0.32096121  0.25000000
   0.32344383  0.16194918  0.25000000
   0.16445142  0.84350783  0.25000000
   0.84555675  0.16147694  0.25000000
   0.68650730  0.84304996  0.25000000
   0.84606136  0.68407339  0.25000000
Direct configuration=     2
   0.33826096  0.66913789  0.25000000
   0.67167031  0.33589161  0.25000000
   0.16281405  0.31804965  0.25000000
   0.32052422  0.16045115  0.25000000
   0.16295927  0.84489271  0.25000000
   0.84701506  0.16013924  0.25000000
   0.68957093  0.84455662  0.25000000
   0.84718120  0.68687713  0.25000000
Direct configuration=     3
   0.33832471  0.66917523  0.25000000
   0.67168053  0.33581927  0.25000000
   0.16356790  0.32000915  0.25000000
   0.32248913  0.16145933  0.25000000
   0.16396349  0.84396068  0.25000000
   0.84603360  0.16103952  0.25000000
   0.68750909  0.84354263  0.25000000
   0.84642754  0.68499019  0.25000000
Direct configuration=     4
   0.33832473  0.66917525  0.25000000
   0.67168053  0.33581924  0.25000000
   0.16356814  0.32000976  0.25000000
   0.32248975  0.16145965  0.25000000
   0.16396381  0.84396038  0.25000000
   0.84603330  0.16103980  0.25000000
   0.68750844  0.84354231  0.25000000
   0.84642730  0.68498960  0.25000000
Direct configuration=     5
   0.33835319  0.66917134  0.25000000
   0.67163668  0.33583227  0.25000000
   0.16358214  0.31999692  0.25000000
   0.32253782  0.16135883  0.25000000
   0.16380862  0.84385576  0.25000000
   0.84619372  0.16114556  0.25000000
   0.68746195  0.84363685  0.25000000
   0.84642189  0.68499847  0.25000000
Direct configuration=     6
   0.33834035  0.66917310  0.25000000
   0.67165646  0.33582639  0.25000000
   0.16357582  0.32000272  0.25000000
   0.32251613  0.16140431  0.25000000
   0.16387863  0.84390296  0.25000000
   0.84612135  0.16109785  0.25000000
   0.68748292  0.84359420  0.25000000
   0.84642433  0.68499447  0.25000000
Direct configuration=     7
   0.33833493  0.66916867  0.25000000
   0.67165612  0.33583401  0.25000000
   0.16365874  0.32000116  0.25000000
   0.32250893  0.16133294  0.25000000
   0.16382056  0.84383226  0.25000000
   0.84618097  0.16116849  0.25000000
   0.68749100  0.84366326  0.25000000
   0.84634475  0.68499522  0.25000000
Direct configuration=     8
   0.33832880  0.66916367  0.25000000
   0.67165573  0.33584263  0.25000000
   0.16375255  0.31999939  0.25000000
   0.32250078  0.16125220  0.25000000
   0.16375487  0.84375228  0.25000000
   0.84624843  0.16124839  0.25000000
   0.68750013  0.84374138  0.25000000
   0.84625472  0.68499607  0.25000000
Direct configuration=     9
   0.33833421  0.66916509  0.25000000
   0.67166631  0.33583189  0.25000000
   0.16374616  0.31999993  0.25000000
   0.32249992  0.16125038  0.25000000
   0.16375436  0.84374888  0.25000000
   0.84624410  0.16125088  0.25000000
   0.68749958  0.84375000  0.25000000
   0.84625136  0.68499895  0.25000000
