   8   8   0   0
  0.4338553E+02  0.5169000E-09  0.5169000E-09  0.1500000E-08  0.5000000E-15
  1.000000000000000E-004
  CAR 
 BC3                                     
      9.53049797    -21.28560400  301     -3.47775973      1.00000000
    -21.286  0.0000E+00  0.0000E+00
    -21.183  0.0000E+00  0.0000E+00
    -21.080  0.0000E+00  0.0000E+00
    -20.977  0.0000E+00  0.0000E+00
    -20.875  0.0000E+00  0.0000E+00
    -20.772  0.0000E+00  0.0000E+00
    -20.669  0.0000E+00  0.0000E+00
    -20.567  0.0000E+00  0.0000E+00
    -20.464  0.1501E-18  0.1542E-19
    -20.361  0.1485E-13  0.1526E-14
    -20.258  0.1442E-09  0.1482E-10
    -20.156  0.1912E-06  0.1965E-07
    -20.053  0.3711E-04  0.3831E-05
    -19.950  0.1199E-02  0.1270E-03
    -19.848  0.8108E-02  0.9598E-03
    -19.745  0.1714E-01  0.2720E-02
    -19.642  0.2080E-01  0.4856E-02
    -19.539  0.2343E-01  0.7263E-02
    -19.437  0.2879E-01  0.1022E-01
    -19.334  0.3995E-01  0.1432E-01
    -19.231  0.3924E-01  0.1835E-01
    -19.128  0.1455E-01  0.1985E-01
    -19.026  0.1435E-02  0.2000E-01
    -18.923  0.2900E-04  0.2000E-01
    -18.820  0.9764E-07  0.2000E-01
    -18.718  0.4808E-10  0.2000E-01
    -18.615  0.3226E-14  0.2000E-01
    -18.512  0.0000E+00  0.2000E-01
    -18.409  0.0000E+00  0.2000E-01
    -18.307  0.0000E+00  0.2000E-01
    -18.204  0.5629E-19  0.2000E-01
    -18.101  0.8503E-14  0.2000E-01
    -17.999  0.9892E-10  0.2000E-01
    -17.896  0.1566E-06  0.2000E-01
    -17.793  0.3604E-04  0.2000E-01
    -17.690  0.1363E-02  0.2014E-01
    -17.588  0.1060E-01  0.2123E-01
    -17.485  0.2529E-01  0.2383E-01
    -17.382  0.3226E-01  0.2714E-01
    -17.280  0.2728E-01  0.2995E-01
    -17.177  0.1970E-01  0.3197E-01
    -17.074  0.1847E-01  0.3387E-01
    -16.971  0.1910E-01  0.3583E-01
    -16.869  0.2011E-01  0.3789E-01
    -16.766  0.2151E-01  0.4010E-01
    -16.663  0.2359E-01  0.4253E-01
    -16.560  0.2775E-01  0.4538E-01
    -16.458  0.3449E-01  0.4892E-01
    -16.355  0.3392E-01  0.5240E-01
    -16.252  0.2596E-01  0.5507E-01
    -16.150  0.2055E-01  0.5718E-01
    -16.047  0.1642E-01  0.5887E-01
    -15.944  0.9072E-02  0.5980E-01
    -15.841  0.1850E-02  0.5999E-01
    -15.739  0.8685E-04  0.6000E-01
    -15.636  0.7158E-06  0.6000E-01
    -15.533  0.8949E-09  0.6000E-01
    -15.431  0.1567E-12  0.6000E-01
    -15.328  0.3415E-17  0.6000E-01
    -15.225  0.0000E+00  0.6000E-01
    -15.122  0.0000E+00  0.6000E-01
    -15.020  0.0000E+00  0.6000E-01
    -14.917  0.0000E+00  0.6000E-01
    -14.814  0.0000E+00  0.6000E-01
    -14.712  0.1223E-15  0.6000E-01
    -14.609  0.2875E-11  0.6000E-01
    -14.506  0.9106E-08  0.6000E-01
    -14.403  0.4156E-05  0.6000E-01
    -14.301  0.3034E-03  0.6003E-01
    -14.198  0.4155E-02  0.6046E-01
    -14.095  0.1427E-01  0.6192E-01
    -13.992  0.2112E-01  0.6409E-01
    -13.890  0.2417E-01  0.6658E-01
    -13.787  0.3024E-01  0.6968E-01
    -13.684  0.3494E-01  0.7327E-01
    -13.582  0.2801E-01  0.7615E-01
    -13.479  0.1779E-01  0.7798E-01
    -13.376  0.1620E-01  0.7964E-01
    -13.273  0.1390E-01  0.8107E-01
    -13.171  0.1433E-01  0.8254E-01
    -13.068  0.1281E-01  0.8386E-01
    -12.965  0.1327E-01  0.8522E-01
    -12.863  0.1218E-01  0.8647E-01
    -12.760  0.1501E-01  0.8801E-01
    -12.657  0.1793E-01  0.8985E-01
    -12.554  0.2061E-01  0.9197E-01
    -12.452  0.1830E-01  0.9385E-01
    -12.349  0.1779E-01  0.9568E-01
    -12.246  0.1586E-01  0.9731E-01
    -12.143  0.1533E-01  0.9888E-01
    -12.041  0.1406E-01  0.1003E+00
    -11.938  0.1313E-01  0.1017E+00
    -11.835  0.1044E-01  0.1027E+00
    -11.733  0.5070E-02  0.1033E+00
    -11.630  0.5417E-02  0.1038E+00
    -11.527  0.4243E-02  0.1043E+00
    -11.424  0.3963E-02  0.1047E+00
    -11.322  0.6470E-02  0.1053E+00
    -11.219  0.5340E-02  0.1059E+00
    -11.116  0.7077E-02  0.1066E+00
    -11.014  0.1052E-01  0.1077E+00
    -10.911  0.8947E-02  0.1086E+00
    -10.808  0.1166E-01  0.1098E+00
    -10.705  0.1795E-01  0.1116E+00
    -10.603  0.1517E-01  0.1132E+00
    -10.500  0.1685E-01  0.1149E+00
    -10.397  0.2092E-01  0.1171E+00
    -10.295  0.2216E-01  0.1194E+00
    -10.192  0.2201E-01  0.1216E+00
    -10.089  0.1652E-01  0.1233E+00
     -9.986  0.1417E-01  0.1248E+00
     -9.884  0.1671E-01  0.1265E+00
     -9.781  0.2459E-01  0.1290E+00
     -9.678  0.2858E-01  0.1320E+00
     -9.575  0.2215E-01  0.1342E+00
     -9.473  0.1983E-01  0.1363E+00
     -9.370  0.1864E-01  0.1382E+00
     -9.267  0.1996E-01  0.1402E+00
     -9.165  0.1847E-01  0.1421E+00
     -9.062  0.2231E-01  0.1444E+00
     -8.959  0.2424E-01  0.1469E+00
     -8.856  0.2645E-01  0.1496E+00
     -8.754  0.2495E-01  0.1522E+00
     -8.651  0.2570E-01  0.1548E+00
     -8.548  0.3110E-01  0.1580E+00
     -8.446  0.2750E-01  0.1608E+00
     -8.343  0.2333E-01  0.1632E+00
     -8.240  0.2076E-01  0.1654E+00
     -8.137  0.1993E-01  0.1674E+00
     -8.035  0.2459E-01  0.1699E+00
     -7.932  0.3202E-01  0.1732E+00
     -7.829  0.3942E-01  0.1773E+00
     -7.727  0.4462E-01  0.1819E+00
     -7.624  0.4310E-01  0.1863E+00
     -7.521  0.3895E-01  0.1903E+00
     -7.418  0.2585E-01  0.1930E+00
     -7.316  0.1728E-01  0.1947E+00
     -7.213  0.2009E-01  0.1968E+00
     -7.110  0.2083E-01  0.1989E+00
     -7.007  0.1764E-01  0.2007E+00
     -6.905  0.1596E-01  0.2024E+00
     -6.802  0.1641E-01  0.2041E+00
     -6.699  0.1857E-01  0.2060E+00
     -6.597  0.2674E-01  0.2087E+00
     -6.494  0.4259E-01  0.2131E+00
     -6.391  0.6778E-01  0.2201E+00
     -6.288  0.7971E-01  0.2283E+00
     -6.186  0.5773E-01  0.2342E+00
     -6.083  0.3931E-01  0.2382E+00
     -5.980  0.2720E-01  0.2410E+00
     -5.878  0.2287E-01  0.2434E+00
     -5.775  0.2409E-01  0.2458E+00
     -5.672  0.2408E-01  0.2483E+00
     -5.569  0.2530E-01  0.2509E+00
     -5.467  0.2653E-01  0.2536E+00
     -5.364  0.2794E-01  0.2565E+00
     -5.261  0.2939E-01  0.2595E+00
     -5.159  0.3306E-01  0.2629E+00
     -5.056  0.3679E-01  0.2667E+00
     -4.953  0.4182E-01  0.2710E+00
     -4.850  0.4380E-01  0.2755E+00
     -4.748  0.4692E-01  0.2803E+00
     -4.645  0.4649E-01  0.2851E+00
     -4.542  0.3939E-01  0.2891E+00
     -4.439  0.2780E-01  0.2920E+00
     -4.337  0.1621E-01  0.2937E+00
     -4.234  0.1255E-01  0.2949E+00
     -4.131  0.1213E-01  0.2962E+00
     -4.029  0.1161E-01  0.2974E+00
     -3.926  0.1117E-01  0.2985E+00
     -3.823  0.9412E-02  0.2995E+00
     -3.720  0.4284E-02  0.2999E+00
     -3.618  0.5860E-03  0.3000E+00
     -3.515  0.1641E-04  0.3000E+00
     -3.412  0.4799E-06  0.3000E+00
     -3.310  0.5302E-04  0.3000E+00
     -3.207  0.1270E-02  0.3001E+00
     -3.104  0.7141E-02  0.3009E+00
     -3.001  0.1314E-01  0.3022E+00
     -2.899  0.1641E-01  0.3039E+00
     -2.796  0.1805E-01  0.3058E+00
     -2.693  0.2336E-01  0.3082E+00
     -2.591  0.2726E-01  0.3110E+00
     -2.488  0.2165E-01  0.3132E+00
     -2.385  0.1725E-01  0.3150E+00
     -2.282  0.1137E-01  0.3161E+00
     -2.180  0.1065E-01  0.3172E+00
     -2.077  0.8404E-02  0.3181E+00
     -1.974  0.5916E-02  0.3187E+00
     -1.871  0.4900E-02  0.3192E+00
     -1.769  0.2817E-02  0.3195E+00
     -1.666  0.2076E-02  0.3197E+00
     -1.563  0.1931E-02  0.3199E+00
     -1.461  0.5304E-03  0.3199E+00
     -1.358  0.6523E-03  0.3200E+00
     -1.255  0.5448E-03  0.3201E+00
     -1.152  0.7996E-03  0.3201E+00
     -1.050  0.2226E-02  0.3204E+00
     -0.947  0.2039E-02  0.3206E+00
     -0.844  0.3348E-02  0.3209E+00
     -0.742  0.4488E-02  0.3214E+00
     -0.639  0.4178E-02  0.3218E+00
     -0.536  0.6820E-02  0.3225E+00
     -0.433  0.7607E-02  0.3233E+00
     -0.331  0.8235E-02  0.3241E+00
     -0.228  0.1769E-01  0.3260E+00
     -0.125  0.2613E-01  0.3286E+00
     -0.022  0.2940E-01  0.3317E+00
      0.080  0.2313E-01  0.3340E+00
      0.183  0.1523E-01  0.3356E+00
      0.286  0.1524E-01  0.3372E+00
      0.388  0.1460E-01  0.3387E+00
      0.491  0.1271E-01  0.3400E+00
      0.594  0.1643E-01  0.3417E+00
      0.697  0.1337E-01  0.3430E+00
      0.799  0.1081E-01  0.3442E+00
      0.902  0.1439E-01  0.3456E+00
      1.005  0.1741E-01  0.3474E+00
      1.107  0.1913E-01  0.3494E+00
      1.210  0.1886E-01  0.3513E+00
      1.313  0.2078E-01  0.3535E+00
      1.416  0.2047E-01  0.3556E+00
      1.518  0.2358E-01  0.3580E+00
      1.621  0.2314E-01  0.3604E+00
      1.724  0.2491E-01  0.3629E+00
      1.826  0.2352E-01  0.3653E+00
      1.929  0.2724E-01  0.3681E+00
      2.032  0.3102E-01  0.3713E+00
      2.135  0.3001E-01  0.3744E+00
      2.237  0.3077E-01  0.3776E+00
      2.340  0.3765E-01  0.3814E+00
      2.443  0.3864E-01  0.3854E+00
      2.546  0.3847E-01  0.3893E+00
      2.648  0.3768E-01  0.3932E+00
      2.751  0.4006E-01  0.3973E+00
      2.854  0.3846E-01  0.4013E+00
      2.956  0.3569E-01  0.4049E+00
      3.059  0.4073E-01  0.4091E+00
      3.162  0.3796E-01  0.4130E+00
      3.265  0.3598E-01  0.4167E+00
      3.367  0.3954E-01  0.4208E+00
      3.470  0.3868E-01  0.4248E+00
      3.573  0.3526E-01  0.4284E+00
      3.675  0.4031E-01  0.4325E+00
      3.778  0.3785E-01  0.4364E+00
      3.881  0.3633E-01  0.4401E+00
      3.984  0.4355E-01  0.4446E+00
      4.086  0.3858E-01  0.4486E+00
      4.189  0.3035E-01  0.4517E+00
      4.292  0.3431E-01  0.4552E+00
      4.394  0.4414E-01  0.4598E+00
      4.497  0.4842E-01  0.4647E+00
      4.600  0.4646E-01  0.4695E+00
      4.703  0.4955E-01  0.4746E+00
      4.805  0.5107E-01  0.4798E+00
      4.908  0.5208E-01  0.4852E+00
      5.011  0.5854E-01  0.4912E+00
      5.114  0.6470E-01  0.4979E+00
      5.216  0.6531E-01  0.5046E+00
      5.319  0.6720E-01  0.5115E+00
      5.422  0.7845E-01  0.5195E+00
      5.524  0.8341E-01  0.5281E+00
      5.627  0.7043E-01  0.5353E+00
      5.730  0.6099E-01  0.5416E+00
      5.833  0.6875E-01  0.5487E+00
      5.935  0.7859E-01  0.5567E+00
      6.038  0.7599E-01  0.5645E+00
      6.141  0.7461E-01  0.5722E+00
      6.243  0.6683E-01  0.5791E+00
      6.346  0.7245E-01  0.5865E+00
      6.449  0.7331E-01  0.5940E+00
      6.552  0.7135E-01  0.6014E+00
      6.654  0.6487E-01  0.6080E+00
      6.757  0.6156E-01  0.6143E+00
      6.860  0.6892E-01  0.6214E+00
      6.962  0.6213E-01  0.6278E+00
      7.065  0.4497E-01  0.6324E+00
      7.168  0.2457E-01  0.6350E+00
      7.271  0.1532E-01  0.6365E+00
      7.373  0.1114E-01  0.6377E+00
      7.476  0.5599E-02  0.6382E+00
      7.579  0.5528E-02  0.6388E+00
      7.682  0.3767E-02  0.6392E+00
      7.784  0.1650E-02  0.6394E+00
      7.887  0.2362E-02  0.6396E+00
      7.990  0.1383E-02  0.6398E+00
      8.092  0.1392E-02  0.6399E+00
      8.195  0.8663E-03  0.6400E+00
      8.298  0.1206E-03  0.6400E+00
      8.401  0.3801E-05  0.6400E+00
      8.503  0.2331E-07  0.6400E+00
      8.606  0.2195E-10  0.6400E+00
      8.709  0.2780E-14  0.6400E+00
      8.811  0.3753E-19  0.6400E+00
      8.914  0.0000E+00  0.6400E+00
      9.017  0.0000E+00  0.6400E+00
      9.120  0.0000E+00  0.6400E+00
      9.222  0.0000E+00  0.6400E+00
      9.325  0.0000E+00  0.6400E+00
      9.428  0.0000E+00  0.6400E+00
      9.530  0.0000E+00  0.6400E+00
