   7   7   0  16
  0.4358035E+02  0.4846000E-09  0.4846000E-09  0.1500000E-08  0.5000000E-15
  1.000000000000000E-004
  CAR 
 SC                                      
     80.70207093    -24.27528833  301     -2.53622685      1.00000000
    -24.275  0.0000E+00  0.0000E+00
    -23.925  0.0000E+00  0.0000E+00
    -23.575  0.0000E+00  0.0000E+00
    -23.226  0.0000E+00  0.0000E+00
    -22.876  0.0000E+00  0.0000E+00
    -22.526  0.0000E+00  0.0000E+00
    -22.176  0.0000E+00  0.0000E+00
    -21.826  0.0000E+00  0.0000E+00
    -21.476  0.0000E+00  0.0000E+00
    -21.126  0.0000E+00  0.0000E+00
    -20.776  0.0000E+00  0.0000E+00
    -20.426  0.0000E+00  0.0000E+00
    -20.076  0.1208E-16  0.4226E-17
    -19.726  0.7931E-04  0.2775E-04
    -19.376  0.6689E+00  0.2341E+00
    -19.026  0.2347E+01  0.1055E+01
    -18.676  0.2692E+01  0.1997E+01
    -18.327  0.7617E-02  0.2000E+01
    -17.977  0.0000E+00  0.2000E+01
    -17.627  0.8234E-15  0.2000E+01
    -17.277  0.6409E-03  0.2000E+01
    -16.927  0.1352E+01  0.2473E+01
    -16.577  0.2496E+01  0.3347E+01
    -16.227  0.2036E+01  0.4059E+01
    -15.877  0.3390E+01  0.5246E+01
    -15.527  0.2134E+01  0.5992E+01
    -15.177  0.2181E-01  0.6000E+01
    -14.827  0.7916E-11  0.6000E+01
    -14.477  0.0000E+00  0.6000E+01
    -14.127  0.0000E+00  0.6000E+01
    -13.778  0.0000E+00  0.6000E+01
    -13.428  0.0000E+00  0.6000E+01
    -13.078  0.2040E-06  0.6000E+01
    -12.728  0.2081E+00  0.6073E+01
    -12.378  0.2059E+01  0.6793E+01
    -12.028  0.2461E+01  0.7655E+01
    -11.678  0.1945E+01  0.8335E+01
    -11.328  0.1793E+01  0.8963E+01
    -10.978  0.2029E+01  0.9673E+01
    -10.628  0.1823E+01  0.1031E+02
    -10.278  0.1662E+01  0.1089E+02
     -9.928  0.2406E+01  0.1173E+02
     -9.578  0.8738E+00  0.1204E+02
     -9.229  0.2509E+00  0.1213E+02
     -8.879  0.5627E+00  0.1233E+02
     -8.529  0.1490E+01  0.1285E+02
     -8.179  0.2519E+01  0.1373E+02
     -7.829  0.4069E+01  0.1515E+02
     -7.479  0.4598E+01  0.1676E+02
     -7.129  0.1537E+01  0.1730E+02
     -6.779  0.3656E+00  0.1743E+02
     -6.429  0.1265E+01  0.1787E+02
     -6.079  0.3571E+01  0.1912E+02
     -5.729  0.2854E+01  0.2012E+02
     -5.379  0.2153E+01  0.2087E+02
     -5.029  0.1818E+01  0.2151E+02
     -4.680  0.1307E+01  0.2196E+02
     -4.330  0.1368E+01  0.2244E+02
     -3.980  0.1939E+01  0.2312E+02
     -3.630  0.1268E+01  0.2357E+02
     -3.280  0.7631E+00  0.2383E+02
     -2.930  0.4644E+00  0.2399E+02
     -2.580  0.1487E-01  0.2400E+02
     -2.230  0.4077E-09  0.2400E+02
     -1.880  0.2884E-12  0.2400E+02
     -1.530  0.4523E-02  0.2400E+02
     -1.180  0.1197E+01  0.2442E+02
     -0.830  0.2357E+01  0.2525E+02
     -0.480  0.1138E+01  0.2564E+02
     -0.130  0.1128E+01  0.2604E+02
      0.219  0.1149E+01  0.2644E+02
      0.569  0.9102E+00  0.2676E+02
      0.919  0.1173E+01  0.2717E+02
      1.269  0.1998E+01  0.2787E+02
      1.619  0.2431E+01  0.2872E+02
      1.969  0.5314E+01  0.3058E+02
      2.319  0.5517E+01  0.3251E+02
      2.669  0.5538E+01  0.3445E+02
      3.019  0.5857E+01  0.3650E+02
      3.369  0.5210E+01  0.3832E+02
      3.719  0.4364E+01  0.3985E+02
      4.069  0.4885E+01  0.4156E+02
      4.419  0.5574E+01  0.4351E+02
      4.768  0.7698E+01  0.4620E+02
      5.118  0.5696E+01  0.4819E+02
      5.468  0.4070E+01  0.4962E+02
      5.818  0.6970E+01  0.5206E+02
      6.168  0.5836E+01  0.5410E+02
      6.518  0.5714E+01  0.5610E+02
      6.868  0.7130E+01  0.5859E+02
      7.218  0.6488E+01  0.6086E+02
      7.568  0.6628E+01  0.6318E+02
      7.918  0.6283E+01  0.6538E+02
      8.268  0.6125E+01  0.6752E+02
      8.618  0.6629E+01  0.6984E+02
      8.968  0.6884E+01  0.7225E+02
      9.317  0.4800E+01  0.7393E+02
      9.667  0.7087E+01  0.7641E+02
     10.017  0.7530E+01  0.7905E+02
     10.367  0.7588E+01  0.8170E+02
     10.717  0.8386E+01  0.8464E+02
     11.067  0.6992E+01  0.8708E+02
     11.417  0.7082E+01  0.8956E+02
     11.767  0.7228E+01  0.9209E+02
     12.117  0.8477E+01  0.9506E+02
     12.467  0.7707E+01  0.9775E+02
     12.817  0.8790E+01  0.1008E+03
     13.167  0.8144E+01  0.1037E+03
     13.517  0.6185E+01  0.1058E+03
     13.866  0.8084E+01  0.1087E+03
     14.216  0.8156E+01  0.1115E+03
     14.566  0.8982E+01  0.1147E+03
     14.916  0.9093E+01  0.1179E+03
     15.266  0.9651E+01  0.1212E+03
     15.616  0.9191E+01  0.1244E+03
     15.966  0.1031E+02  0.1281E+03
     16.316  0.1017E+02  0.1316E+03
     16.666  0.8206E+01  0.1345E+03
     17.016  0.8099E+01  0.1373E+03
     17.366  0.9477E+01  0.1406E+03
     17.716  0.1047E+02  0.1443E+03
     18.066  0.1109E+02  0.1482E+03
     18.416  0.8786E+01  0.1512E+03
     18.765  0.9621E+01  0.1546E+03
     19.115  0.1122E+02  0.1585E+03
     19.465  0.9429E+01  0.1618E+03
     19.815  0.1095E+02  0.1657E+03
     20.165  0.1029E+02  0.1693E+03
     20.515  0.1104E+02  0.1731E+03
     20.865  0.9121E+01  0.1763E+03
     21.215  0.9943E+01  0.1798E+03
     21.565  0.1002E+02  0.1833E+03
     21.915  0.1027E+02  0.1869E+03
     22.265  0.9045E+01  0.1901E+03
     22.615  0.1055E+02  0.1938E+03
     22.965  0.1022E+02  0.1973E+03
     23.314  0.1052E+02  0.2010E+03
     23.664  0.1145E+02  0.2050E+03
     24.014  0.1082E+02  0.2088E+03
     24.364  0.9179E+01  0.2120E+03
     24.714  0.8721E+01  0.2151E+03
     25.064  0.1039E+02  0.2187E+03
     25.414  0.9664E+01  0.2221E+03
     25.764  0.9995E+01  0.2256E+03
     26.114  0.9887E+01  0.2291E+03
     26.464  0.1248E+02  0.2334E+03
     26.814  0.1090E+02  0.2372E+03
     27.164  0.1023E+02  0.2408E+03
     27.514  0.1045E+02  0.2445E+03
     27.863  0.1074E+02  0.2482E+03
     28.213  0.1116E+02  0.2521E+03
     28.563  0.9331E+01  0.2554E+03
     28.913  0.1139E+02  0.2594E+03
     29.263  0.1144E+02  0.2634E+03
     29.613  0.9977E+01  0.2669E+03
     29.963  0.1219E+02  0.2711E+03
     30.313  0.1109E+02  0.2750E+03
     30.663  0.1351E+02  0.2798E+03
     31.013  0.1361E+02  0.2845E+03
     31.363  0.1422E+02  0.2895E+03
     31.713  0.1294E+02  0.2940E+03
     32.063  0.1351E+02  0.2987E+03
     32.412  0.1253E+02  0.3031E+03
     32.762  0.1098E+02  0.3070E+03
     33.112  0.1235E+02  0.3113E+03
     33.462  0.1198E+02  0.3155E+03
     33.812  0.1133E+02  0.3194E+03
     34.162  0.1213E+02  0.3237E+03
     34.512  0.1283E+02  0.3282E+03
     34.862  0.1234E+02  0.3325E+03
     35.212  0.1199E+02  0.3367E+03
     35.562  0.1266E+02  0.3411E+03
     35.912  0.1205E+02  0.3453E+03
     36.262  0.1271E+02  0.3498E+03
     36.612  0.1515E+02  0.3551E+03
     36.962  0.1097E+02  0.3589E+03
     37.311  0.1272E+02  0.3634E+03
     37.661  0.1305E+02  0.3679E+03
     38.011  0.1291E+02  0.3725E+03
     38.361  0.1275E+02  0.3769E+03
     38.711  0.1330E+02  0.3816E+03
     39.061  0.1304E+02  0.3861E+03
     39.411  0.1310E+02  0.3907E+03
     39.761  0.1328E+02  0.3954E+03
     40.111  0.1288E+02  0.3999E+03
     40.461  0.1516E+02  0.4052E+03
     40.811  0.1382E+02  0.4100E+03
     41.161  0.1426E+02  0.4150E+03
     41.511  0.1471E+02  0.4202E+03
     41.860  0.1413E+02  0.4251E+03
     42.210  0.1461E+02  0.4302E+03
     42.560  0.1325E+02  0.4348E+03
     42.910  0.1469E+02  0.4400E+03
     43.260  0.1520E+02  0.4453E+03
     43.610  0.1382E+02  0.4501E+03
     43.960  0.1500E+02  0.4554E+03
     44.310  0.1380E+02  0.4602E+03
     44.660  0.1498E+02  0.4655E+03
     45.010  0.1395E+02  0.4703E+03
     45.360  0.1577E+02  0.4759E+03
     45.710  0.1500E+02  0.4811E+03
     46.060  0.1269E+02  0.4856E+03
     46.409  0.1499E+02  0.4908E+03
     46.759  0.1403E+02  0.4957E+03
     47.109  0.1420E+02  0.5007E+03
     47.459  0.1527E+02  0.5060E+03
     47.809  0.1408E+02  0.5109E+03
     48.159  0.1566E+02  0.5164E+03
     48.509  0.1494E+02  0.5217E+03
     48.859  0.1323E+02  0.5263E+03
     49.209  0.1422E+02  0.5313E+03
     49.559  0.1525E+02  0.5366E+03
     49.909  0.1370E+02  0.5414E+03
     50.259  0.1548E+02  0.5468E+03
     50.609  0.1423E+02  0.5518E+03
     50.958  0.1357E+02  0.5565E+03
     51.308  0.1607E+02  0.5622E+03
     51.658  0.1544E+02  0.5676E+03
     52.008  0.1504E+02  0.5728E+03
     52.358  0.1651E+02  0.5786E+03
     52.708  0.1492E+02  0.5838E+03
     53.058  0.1476E+02  0.5890E+03
     53.408  0.1686E+02  0.5949E+03
     53.758  0.1509E+02  0.6002E+03
     54.108  0.1577E+02  0.6057E+03
     54.458  0.1627E+02  0.6114E+03
     54.808  0.1585E+02  0.6169E+03
     55.158  0.1549E+02  0.6223E+03
     55.508  0.1541E+02  0.6277E+03
     55.857  0.1771E+02  0.6339E+03
     56.207  0.1679E+02  0.6398E+03
     56.557  0.1643E+02  0.6456E+03
     56.907  0.1539E+02  0.6509E+03
     57.257  0.1577E+02  0.6565E+03
     57.607  0.1624E+02  0.6621E+03
     57.957  0.1506E+02  0.6674E+03
     58.307  0.1781E+02  0.6736E+03
     58.657  0.1568E+02  0.6791E+03
     59.007  0.1622E+02  0.6848E+03
     59.357  0.1670E+02  0.6906E+03
     59.707  0.1545E+02  0.6961E+03
     60.057  0.1773E+02  0.7023E+03
     60.406  0.1662E+02  0.7081E+03
     60.756  0.1718E+02  0.7141E+03
     61.106  0.1524E+02  0.7194E+03
     61.456  0.1571E+02  0.7249E+03
     61.806  0.1656E+02  0.7307E+03
     62.156  0.1720E+02  0.7367E+03
     62.506  0.1729E+02  0.7428E+03
     62.856  0.1619E+02  0.7484E+03
     63.206  0.1743E+02  0.7545E+03
     63.556  0.1636E+02  0.7603E+03
     63.906  0.1609E+02  0.7659E+03
     64.256  0.1597E+02  0.7715E+03
     64.606  0.1750E+02  0.7776E+03
     64.955  0.1741E+02  0.7837E+03
     65.305  0.1750E+02  0.7898E+03
     65.655  0.1686E+02  0.7957E+03
     66.005  0.1733E+02  0.8018E+03
     66.355  0.1690E+02  0.8077E+03
     66.705  0.1727E+02  0.8138E+03
     67.055  0.1945E+02  0.8206E+03
     67.405  0.1748E+02  0.8267E+03
     67.755  0.1865E+02  0.8332E+03
     68.105  0.1691E+02  0.8391E+03
     68.455  0.1685E+02  0.8450E+03
     68.805  0.1747E+02  0.8511E+03
     69.155  0.1785E+02  0.8574E+03
     69.504  0.1844E+02  0.8638E+03
     69.854  0.1798E+02  0.8701E+03
     70.204  0.1706E+02  0.8761E+03
     70.554  0.1830E+02  0.8825E+03
     70.904  0.1771E+02  0.8887E+03
     71.254  0.1772E+02  0.8949E+03
     71.604  0.1773E+02  0.9011E+03
     71.954  0.1880E+02  0.9077E+03
     72.304  0.1857E+02  0.9142E+03
     72.654  0.1752E+02  0.9203E+03
     73.004  0.1798E+02  0.9266E+03
     73.354  0.1896E+02  0.9332E+03
     73.704  0.1667E+02  0.9391E+03
     74.054  0.1631E+02  0.9448E+03
     74.403  0.1393E+02  0.9496E+03
     74.753  0.1220E+02  0.9539E+03
     75.103  0.1053E+02  0.9576E+03
     75.453  0.4896E+01  0.9593E+03
     75.803  0.1606E+01  0.9599E+03
     76.153  0.3498E+00  0.9600E+03
     76.503  0.1580E-03  0.9600E+03
     76.853  0.0000E+00  0.9600E+03
     77.203  0.0000E+00  0.9600E+03
     77.553  0.0000E+00  0.9600E+03
     77.903  0.0000E+00  0.9600E+03
     78.253  0.0000E+00  0.9600E+03
     78.603  0.0000E+00  0.9600E+03
     78.952  0.0000E+00  0.9600E+03
     79.302  0.0000E+00  0.9600E+03
     79.652  0.0000E+00  0.9600E+03
     80.002  0.0000E+00  0.9600E+03
     80.352  0.0000E+00  0.9600E+03
     80.702  0.0000E+00  0.9600E+03
