    8    8  128    1
  0.4338553E+02  0.5169000E-09  0.5169000E-09  0.1500000E-08  0.5000000E-15
  1.000000000000000E-004
  CAR 
 Lattice                                 
     30    421     24
 
  0.0000000E+00  0.0000000E+00  0.0000000E+00  0.1189061E-02
      1        -19.884828   1.000000
      2        -15.983236   1.000000
      3        -15.983058   1.000000
      4        -13.641848   1.000000
      5        -13.641794   1.000000
      6        -12.573342   1.000000
      7        -11.250047   1.000000
      8         -8.688723   1.000000
      9         -8.456704   1.000000
     10         -6.304379   1.000000
     11         -6.304195   1.000000
     12         -4.480789   1.000000
     13         -4.480700   1.000000
     14         -3.791986   0.999996
     15         -3.791809   0.999996
     16         -1.963908   0.000000
     17         -0.227793   0.000000
     18         -0.227764   0.000000
     19          0.431687   0.000000
     20          0.840556   0.000000
     21          1.842848   0.000000
     22          2.261569   0.000000
     23          4.228406   0.000000
     24          4.855330   0.000000
 
  0.3448276E-01  0.1760112E-17  0.0000000E+00  0.2378121E-02
      1        -19.880146   1.000000
      2        -16.007051   1.000000
      3        -15.990840   1.000000
      4        -13.648142   1.000000
      5        -13.624492   1.000000
      6        -12.550170   1.000000
      7        -11.221733   1.000000
      8         -8.681642   1.000000
      9         -8.466394   1.000000
     10         -6.325717   1.000000
     11         -6.308599   1.000000
     12         -4.502493   1.000000
     13         -4.484407   1.000000
     14         -3.816621   0.999999
     15         -3.803974   0.999998
     16         -2.005659   0.000000
     17         -0.217406   0.000000
     18         -0.165944   0.000000
     19          0.451169   0.000000
     20          0.849438   0.000000
     21          1.852464   0.000000
     22          2.270497   0.000000
     23          4.237173   0.000000
     24          4.864917   0.000000
 
  0.1760112E-17  0.3448276E-01  0.0000000E+00  0.2378121E-02
      1        -19.880146   1.000000
      2        -16.007017   1.000000
      3        -15.990874   1.000000
      4        -13.648167   1.000000
      5        -13.624467   1.000000
      6        -12.550169   1.000000
      7        -11.221734   1.000000
      8         -8.681642   1.000000
      9         -8.466395   1.000000
     10         -6.325693   1.000000
     11         -6.308622   1.000000
     12         -4.502466   1.000000
     13         -4.484434   1.000000
     14         -3.816644   0.999999
     15         -3.803951   0.999998
     16         -2.005659   0.000000
     17         -0.217382   0.000000
     18         -0.165967   0.000000
     19          0.451169   0.000000
     20          0.849438   0.000000
     21          1.852464   0.000000
     22          2.270497   0.000000
     23          4.237173   0.000000
     24          4.864917   0.000000
 
 -0.3448276E-01  0.3448276E-01  0.0000000E+00  0.2378121E-02
      1        -19.880146   1.000000
      2        -16.007163   1.000000
      3        -15.990728   1.000000
      4        -13.648119   1.000000
      5        -13.624512   1.000000
      6        -12.550173   1.000000
      7        -11.221732   1.000000
      8         -8.681642   1.000000
      9         -8.466395   1.000000
     10         -6.325841   1.000000
     11         -6.308474   1.000000
     12         -4.502542   1.000000
     13         -4.484358   1.000000
     14         -3.816763   0.999999
     15         -3.803833   0.999998
     16         -2.005662   0.000000
     17         -0.217399   0.000000
     18         -0.165944   0.000000
     19          0.451165   0.000000
     20          0.849438   0.000000
     21          1.852464   0.000000
     22          2.270497   0.000000
     23          4.237173   0.000000
     24          4.864916   0.000000
 
  0.6896552E-01  0.3520225E-17  0.0000000E+00  0.2378121E-02
      1        -19.866155   1.000000
      2        -16.075957   1.000000
      3        -16.012991   1.000000
      4        -13.668044   1.000000
      5        -13.573438   1.000000
      6        -12.480586   1.000000
      7        -11.138914   1.000000
      8         -8.660418   1.000000
      9         -8.495929   1.000000
     10         -6.389325   1.000000
     11         -6.320391   1.000000
     12         -4.567003   1.000000
     13         -4.495128   1.000000
     14         -3.890230   1.000000
     15         -3.839585   1.000000
     16         -2.113164   0.000000
     17         -0.186786   0.000000
     18         -0.003108   0.000000
     19          0.513023   0.000000
     20          0.876063   0.000000
     21          1.881410   0.000000
     22          2.297267   0.000000
     23          4.263472   0.000000
     24          4.892759   0.000000
 
  0.3520225E-17  0.6896552E-01  0.0000000E+00  0.2378121E-02
      1        -19.866155   1.000000
      2        -16.075924   1.000000
      3        -16.013024   1.000000
      4        -13.668069   1.000000
      5        -13.573414   1.000000
      6        -12.480584   1.000000
      7        -11.138916   1.000000
      8         -8.660418   1.000000
      9         -8.495929   1.000000
     10         -6.389301   1.000000
     11         -6.320414   1.000000
     12         -4.566976   1.000000
     13         -4.495155   1.000000
     14         -3.890253   1.000000
     15         -3.839562   1.000000
     16         -2.113165   0.000000
     17         -0.186763   0.000000
     18         -0.003129   0.000000
     19          0.513023   0.000000
     20          0.876063   0.000000
     21          1.881411   0.000000
     22          2.297267   0.000000
     23          4.263472   0.000000
     24          4.892760   0.000000
 
 -0.6896552E-01  0.6896552E-01  0.0000000E+00  0.2378121E-02
      1        -19.866154   1.000000
      2        -16.076068   1.000000
      3        -16.012880   1.000000
      4        -13.668017   1.000000
      5        -13.573456   1.000000
      6        -12.480597   1.000000
      7        -11.138910   1.000000
      8         -8.660417   1.000000
      9         -8.495930   1.000000
     10         -6.389450   1.000000
     11         -6.320265   1.000000
     12         -4.567050   1.000000
     13         -4.495078   1.000000
     14         -3.890370   1.000000
     15         -3.839445   1.000000
     16         -2.113174   0.000000
     17         -0.186779   0.000000
     18         -0.003087   0.000000
     19          0.513005   0.000000
     20          0.876063   0.000000
     21          1.881410   0.000000
     22          2.297267   0.000000
     23          4.263472   0.000000
     24          4.892756   0.000000
 
  0.1034483E+00 -0.9570455E-18  0.0000000E+00  0.2378121E-02
      1        -19.843041   1.000000
      2        -16.182361   1.000000
      3        -16.047313   1.000000
      4        -13.702497   1.000000
      5        -13.491238   1.000000
      6        -12.365878   1.000000
      7        -11.006941   1.000000
      8         -8.625124   1.000000
      9         -8.546300   1.000000
     10         -6.492738   1.000000
     11         -6.336541   1.000000
     12         -4.671332   1.000000
     13         -4.512160   1.000000
     14         -4.010692   1.000000
     15         -3.897431   1.000000
     16         -2.253140   0.000000
     17         -0.136929   0.000000
     18          0.209397   0.000000
     19          0.631834   0.000000
     20          0.920380   0.000000
     21          1.930043   0.000000
     22          2.341850   0.000000
     23          4.307290   0.000000
     24          4.936935   0.000000
 
  0.1374731E-16  0.1034483E+00  0.0000000E+00  0.2378121E-02
      1        -19.843042   1.000000
      2        -16.182329   1.000000
      3        -16.047345   1.000000
      4        -13.702521   1.000000
      5        -13.491215   1.000000
      6        -12.365874   1.000000
      7        -11.006944   1.000000
      8         -8.625124   1.000000
      9         -8.546301   1.000000
     10         -6.492715   1.000000
     11         -6.336562   1.000000
     12         -4.671306   1.000000
     13         -4.512187   1.000000
     14         -4.010713   1.000000
     15         -3.897409   1.000000
     16         -2.253142   0.000000
     17         -0.136906   0.000000
     18          0.209380   0.000000
     19          0.631832   0.000000
     20          0.920380   0.000000
     21          1.930043   0.000000
     22          2.341850   0.000000
     23          4.307290   0.000000
     24          4.936935   0.000000
 
 -0.1034483E+00  0.1034483E+00  0.0000000E+00  0.2378121E-02
      1        -19.843040   1.000000
      2        -16.182470   1.000000
      3        -16.047206   1.000000
      4        -13.702466   1.000000
      5        -13.491253   1.000000
      6        -12.365900   1.000000
      7        -11.006933   1.000000
      8         -8.625123   1.000000
      9         -8.546302   1.000000
     10         -6.492863   1.000000
     11         -6.336414   1.000000
     12         -4.671376   1.000000
     13         -4.512111   1.000000
     14         -4.010827   1.000000
     15         -3.897295   1.000000
     16         -2.253159   0.000000
     17         -0.136922   0.000000
     18          0.209453   0.000000
     19          0.631790   0.000000
     20          0.920380   0.000000
     21          1.930040   0.000000
     22          2.341850   0.000000
     23          4.307290   0.000000
     24          4.936931   0.000000
 
  0.1379310E+00  0.7040449E-17  0.0000000E+00  0.2378121E-02
      1        -19.811141   1.000000
      2        -16.316761   1.000000
      3        -16.090641   1.000000
      4        -13.749980   1.000000
      5        -13.381551   1.000000
      6        -12.210583   1.000000
      7        -10.832554   1.000000
      8         -8.618953   1.000000
      9         -8.575934   1.000000
     10         -6.632590   1.000000
     11         -6.352697   1.000000
     12         -4.810765   1.000000
     13         -4.534462   1.000000
     14         -4.174983   1.000000
     15         -3.975414   1.000000
     16         -2.400176   0.000000
     17         -0.070423   0.000000
     18          0.410760   0.000000
     19          0.835672   0.000000
     20          0.982324   0.000000
     21          1.999181   0.000000
     22          2.404208   0.000000
     23          4.368575   0.000000
     24          4.995678   0.000000
 
  0.7040449E-17  0.1379310E+00  0.0000000E+00  0.2378121E-02
      1        -19.811141   1.000000
      2        -16.316730   1.000000
      3        -16.090672   1.000000
      4        -13.750002   1.000000
      5        -13.381530   1.000000
      6        -12.210578   1.000000
      7        -10.832558   1.000000
      8         -8.618955   1.000000
      9         -8.575934   1.000000
     10         -6.632568   1.000000
     11         -6.352717   1.000000
     12         -4.810742   1.000000
     13         -4.534488   1.000000
     14         -4.175003   1.000000
     15         -3.975393   1.000000
     16         -2.400178   0.000000
     17         -0.070400   0.000000
     18          0.410749   0.000000
     19          0.835665   0.000000
     20          0.982324   0.000000
     21          1.999182   0.000000
     22          2.404208   0.000000
     23          4.368575   0.000000
     24          4.995679   0.000000
 
 -0.1379310E+00  0.1379310E+00  0.0000000E+00  0.2378121E-02
      1        -19.811139   1.000000
      2        -16.316868   1.000000
      3        -16.090537   1.000000
      4        -13.749945   1.000000
      5        -13.381562   1.000000
      6        -12.210615   1.000000
      7        -10.832541   1.000000
      8         -8.618957   1.000000
      9         -8.575933   1.000000
     10         -6.632717   1.000000
     11         -6.352568   1.000000
     12         -4.810807   1.000000
     13         -4.534414   1.000000
     14         -4.175113   1.000000
     15         -3.975283   1.000000
     16         -2.400202   0.000000
     17         -0.070415   0.000000
     18          0.410844   0.000000
     19          0.835607   0.000000
     20          0.982324   0.000000
     21          1.999177   0.000000
     22          2.404207   0.000000
     23          4.368575   0.000000
     24          4.995674   0.000000
 
  0.1724138E+00  0.2419236E-16  0.0000000E+00  0.2378121E-02
      1        -19.770977   1.000000
      2        -16.469795   1.000000
      3        -16.139580   1.000000
      4        -13.806591   1.000000
      5        -13.248492   1.000000
      6        -12.021701   1.000000
      7        -10.622386   1.000000
      8         -8.714764   1.000000
      9         -8.513187   1.000000
     10         -6.804434   1.000000
     11         -6.364124   1.000000
     12         -4.979261   1.000000
     13         -4.560742   1.000000
     14         -4.379157   1.000000
     15         -4.070684   1.000000
     16         -2.540391   0.000000
     17          0.010398   0.000000
     18          0.575874   0.000000
     19          1.061815   0.000000
     20          1.125665   0.000000
     21          2.090721   0.000000
     22          2.484296   0.000000
     23          4.447215   0.000000
     24          5.067431   0.000000
 
  0.2419236E-16  0.1724138E+00  0.0000000E+00  0.2378121E-02
      1        -19.770978   1.000000
      2        -16.469765   1.000000
      3        -16.139609   1.000000
      4        -13.806612   1.000000
      5        -13.248471   1.000000
      6        -12.021694   1.000000
      7        -10.622393   1.000000
      8         -8.714767   1.000000
      9         -8.513187   1.000000
     10         -6.804412   1.000000
     11         -6.364142   1.000000
     12         -4.979239   1.000000
     13         -4.560768   1.000000
     14         -4.379177   1.000000
     15         -4.070664   1.000000
     16         -2.540393   0.000000
     17          0.010421   0.000000
     18          0.575868   0.000000
     19          1.061815   0.000000
     20          1.125654   0.000000
     21          2.090722   0.000000
     22          2.484296   0.000000
     23          4.447215   0.000000
     24          5.067431   0.000000
 
 -0.1724138E+00  0.1724138E+00  0.0000000E+00  0.2378121E-02
      1        -19.770974   1.000000
      2        -16.469901   1.000000
      3        -16.139480   1.000000
      4        -13.806554   1.000000
      5        -13.248498   1.000000
      6        -12.021741   1.000000
      7        -10.622369   1.000000
      8         -8.714770   1.000000
      9         -8.513185   1.000000
     10         -6.804562   1.000000
     11         -6.363993   1.000000
     12         -4.979301   1.000000
     13         -4.560695   1.000000
     14         -4.379281   1.000000
     15         -4.070559   1.000000
     16         -2.540424   0.000000
     17          0.010407   0.000000
     18          0.575964   0.000000
     19          1.061815   0.000000
     20          1.125605   0.000000
     21          2.090712   0.000000
     22          2.484296   0.000000
     23          4.447215   0.000000
     24          5.067428   0.000000
 
  0.2068966E+00  0.1954568E-17  0.0000000E+00  0.2378121E-02
      1        -19.723272   1.000000
      2        -16.633292   1.000000
      3        -16.190952   1.000000
      4        -13.867717   1.000000
      5        -13.096291   1.000000
      6        -11.806645   1.000000
      7        -10.382427   1.000000
      8         -8.833718   1.000000
      9         -8.437216   1.000000
     10         -7.003226   1.000000
     11         -6.366671   1.000000
     12         -5.169859   1.000000
     13         -4.618853   1.000000
     14         -4.589495   1.000000
     15         -4.179861   1.000000
     16         -2.667529   0.000000
     17          0.102022   0.000000
     18          0.722897   0.000000
     19          1.158772   0.000000
     20          1.463394   0.000000
     21          2.209361   0.000000
     22          2.582073   0.000000
     23          4.543063   0.000000
     24          5.149814   0.000000
 
  0.1583236E-16  0.2068966E+00  0.0000000E+00  0.2378121E-02
      1        -19.723273   1.000000
      2        -16.633263   1.000000
      3        -16.190980   1.000000
      4        -13.867737   1.000000
      5        -13.096272   1.000000
      6        -11.806637   1.000000
      7        -10.382435   1.000000
      8         -8.833722   1.000000
      9         -8.437217   1.000000
     10         -7.003204   1.000000
     11         -6.366687   1.000000
     12         -5.169838   1.000000
     13         -4.618871   1.000000
     14         -4.589521   1.000000
     15         -4.179842   1.000000
     16         -2.667530   0.000000
     17          0.102044   0.000000
     18          0.722894   0.000000
     19          1.158772   0.000000
     20          1.463382   0.000000
     21          2.209362   0.000000
     22          2.582073   0.000000
     23          4.543063   0.000000
     24          5.149812   0.000000
 
 -0.2068966E+00  0.2068966E+00  0.0000000E+00  0.2378121E-02
      1        -19.723267   1.000000
      2        -16.633396   1.000000
      3        -16.190855   1.000000
      4        -13.867679   1.000000
      5        -13.096293   1.000000
      6        -11.806690   1.000000
      7        -10.382405   1.000000
      8         -8.833726   1.000000
      9         -8.437213   1.000000
     10         -7.003356   1.000000
     11         -6.366538   1.000000
     12         -5.169897   1.000000
     13         -4.618970   1.000000
     14         -4.589448   1.000000
     15         -4.179743   1.000000
     16         -2.667566   0.000000
     17          0.102032   0.000000
     18          0.722982   0.000000
     19          1.158771   0.000000
     20          1.463351   0.000000
     21          2.209343   0.000000
     22          2.582073   0.000000
     23          4.543064   0.000000
     24          5.149815   0.000000
 
  0.2413793E+00  0.2465642E-16  0.0000000E+00  0.2378121E-02
      1        -19.669065   1.000000
      2        -16.800405   1.000000
      3        -16.242028   1.000000
      4        -13.929237   1.000000
      5        -12.929164   1.000000
      6        -11.571878   1.000000
      7        -10.118136   1.000000
      8         -8.974105   1.000000
      9         -8.348640   1.000000
     10         -7.223416   1.000000
     11         -6.357532   1.000000
     12         -5.375558   1.000000
     13         -4.889185   1.000000
     14         -4.619219   1.000000
     15         -4.299397   1.000000
     16         -2.779461   0.000000
     17          0.200603   0.000000
     18          0.865314   0.000000
     19          1.273125   0.000000
     20          1.809956   0.000000
     21          2.367553   0.000000
     22          2.697504   0.000000
     23          4.655703   0.000000
     24          5.027008   0.000000
 
  0.1077863E-16  0.2413793E+00  0.0000000E+00  0.2378121E-02
      1        -19.669067   1.000000
      2        -16.800376   1.000000
      3        -16.242055   1.000000
      4        -13.929256   1.000000
      5        -12.929146   1.000000
      6        -11.571868   1.000000
      7        -10.118146   1.000000
      8         -8.974111   1.000000
      9         -8.348640   1.000000
     10         -7.223395   1.000000
     11         -6.357546   1.000000
     12         -5.375539   1.000000
     13         -4.889202   1.000000
     14         -4.619244   1.000000
     15         -4.299378   1.000000
     16         -2.779462   0.000000
     17          0.200625   0.000000
     18          0.865312   0.000000
     19          1.273125   0.000000
     20          1.809943   0.000000
     21          2.367554   0.000000
     22          2.697504   0.000000
     23          4.655704   0.000000
     24          5.027007   0.000000
 
 -0.2413793E+00  0.2413793E+00  0.0000000E+00  0.2378121E-02
      1        -19.669058   1.000000
      2        -16.800509   1.000000
      3        -16.241934   1.000000
      4        -13.929199   1.000000
      5        -12.929161   1.000000
      6        -11.571926   1.000000
      7        -10.118108   1.000000
      8         -8.974115   1.000000
      9         -8.348636   1.000000
     10         -7.223552   1.000000
     11         -6.357396   1.000000
     12         -5.375594   1.000000
     13         -4.889296   1.000000
     14         -4.619173   1.000000
     15         -4.299286   1.000000
     16         -2.779502   0.000000
     17          0.200615   0.000000
     18          0.865395   0.000000
     19          1.273125   0.000000
     20          1.809935   0.000000
     21          2.367520   0.000000
     22          2.697504   0.000000
     23          4.655706   0.000000
     24          5.027012   0.000000
 
  0.2758621E+00  0.1464328E-16  0.0000000E+00  0.2378121E-02
      1        -19.609781   1.000000
      2        -16.965315   1.000000
      3        -16.290584   1.000000
      4        -13.987919   1.000000
      5        -12.751464   1.000000
      6        -11.322583   1.000000
      7         -9.835137   1.000000
      8         -9.132494   1.000000
      9         -8.248325   1.000000
     10         -7.458754   1.000000
     11         -6.335617   1.000000
     12         -5.589592   1.000000
     13         -5.185433   1.000000
     14         -4.648580   1.000000
     15         -4.425223   1.000000
     16         -2.875924   0.000000
     17          0.301758   0.000000
     18          1.005556   0.000000
     19          1.404814   0.000000
     20          2.123343   0.000000
     21          2.593700   0.000000
     22          2.830561   0.000000
     23          4.665497   0.000000
     24          4.783840   0.000000
 
  0.1464328E-16  0.2758621E+00  0.0000000E+00  0.2378121E-02
      1        -19.609784   1.000000
      2        -16.965287   1.000000
      3        -16.290609   1.000000
      4        -13.987938   1.000000
      5        -12.751447   1.000000
      6        -11.322573   1.000000
      7         -9.835148   1.000000
      8         -9.132501   1.000000
      9         -8.248326   1.000000
     10         -7.458733   1.000000
     11         -6.335630   1.000000
     12         -5.589573   1.000000
     13         -5.185449   1.000000
     14         -4.648605   1.000000
     15         -4.425204   1.000000
     16         -2.875924   0.000000
     17          0.301780   0.000000
     18          1.005555   0.000000
     19          1.404814   0.000000
     20          2.123331   0.000000
     21          2.593700   0.000000
     22          2.830561   0.000000
     23          4.665497   0.000000
     24          4.783841   0.000000
 
 -0.2758621E+00  0.2758621E+00  0.0000000E+00  0.2378121E-02
      1        -19.609771   1.000000
      2        -16.965420   1.000000
      3        -16.290492   1.000000
      4        -13.987881   1.000000
      5        -12.751456   1.000000
      6        -11.322633   1.000000
      7         -9.835102   1.000000
      8         -9.132506   1.000000
      9         -8.248319   1.000000
     10         -7.458897   1.000000
     11         -6.335478   1.000000
     12         -5.589627   1.000000
     13         -5.185538   1.000000
     14         -4.648534   1.000000
     15         -4.425120   1.000000
     16         -2.875968   0.000000
     17          0.301771   0.000000
     18          1.005635   0.000000
     19          1.404813   0.000000
     20          2.123348   0.000000
     21          2.593647   0.000000
     22          2.830561   0.000000
     23          4.665499   0.000000
     24          4.783847   0.000000
 
  0.3103448E+00 -0.9247650E-17  0.0000000E+00  0.2378121E-02
      1        -19.547388   1.000000
      2        -17.122808   1.000000
      3        -16.334861   1.000000
      4        -14.041376   1.000000
      5        -12.567988   1.000000
      6        -11.062893   1.000000
      7         -9.540743   1.000000
      8         -9.303553   1.000000
      9         -8.137615   1.000000
     10         -7.700874   1.000000
     11         -6.301620   1.000000
     12         -5.805751   1.000000
     13         -5.502815   1.000000
     14         -4.676211   1.000000
     15         -4.552813   1.000000
     16         -2.957337   0.000000
     17          0.400964   0.000000
     18          1.141233   0.000000
     19          1.553788   0.000000
     20          2.373301   0.000000
     21          2.909638   0.000000
     22          2.981223   0.000000
     23          4.316425   0.000000
     24          4.918379   0.000000
 
  0.4956978E-16  0.3103448E+00  0.0000000E+00  0.2378121E-02
      1        -19.547391   1.000000
      2        -17.122779   1.000000
      3        -16.334885   1.000000
      4        -14.041394   1.000000
      5        -12.567971   1.000000
      6        -11.062881   1.000000
      7         -9.540756   1.000000
      8         -9.303560   1.000000
      9         -8.137616   1.000000
     10         -7.700853   1.000000
     11         -6.301632   1.000000
     12         -5.805733   1.000000
     13         -5.502829   1.000000
     14         -4.676236   1.000000
     15         -4.552795   1.000000
     16         -2.957337   0.000000
     17          0.400986   0.000000
     18          1.141233   0.000000
     19          1.553788   0.000000
     20          2.373292   0.000000
     21          2.909635   0.000000
     22          2.981223   0.000000
     23          4.316425   0.000000
     24          4.918381   0.000000
 
 -0.3103448E+00  0.3103448E+00  0.0000000E+00  0.2378121E-02
      1        -19.547375   1.000000
      2        -17.122913   1.000000
      3        -16.334771   1.000000
      4        -14.041339   1.000000
      5        -12.567975   1.000000
      6        -11.062942   1.000000
      7         -9.540696   1.000000
      8         -9.303567   1.000000
      9         -8.137607   1.000000
     10         -7.701031   1.000000
     11         -6.301478   1.000000
     12         -5.805788   1.000000
     13         -5.502915   1.000000
     14         -4.676166   1.000000
     15         -4.552719   1.000000
     16         -2.957383   0.000000
     17          0.400978   0.000000
     18          1.141313   0.000000
     19          1.553787   0.000000
     20          2.373320   0.000000
     21          2.909574   0.000000
     22          2.981223   0.000000
     23          4.316426   0.000000
     24          4.918408   0.000000
 
  0.3448276E+00  0.6004698E-16  0.0000000E+00  0.2378121E-02
      1        -19.484574   1.000000
      2        -17.267786   1.000000
      3        -16.373507   1.000000
      4        -14.087901   1.000000
      5        -12.384645   1.000000
      6        -10.796456   1.000000
      7         -9.480108   1.000000
      8         -9.248715   1.000000
      9         -8.018713   1.000000
     10         -7.934881   1.000000
     11         -6.257915   1.000000
     12         -6.017687   1.000000
     13         -5.836589   1.000000
     14         -4.701011   1.000000
     15         -4.677222   1.000000
     16         -3.024292   0.000000
     17          0.493640   0.000000
     18          1.267693   0.000000
     19          1.720000   0.000000
     20          2.582441   0.000000
     21          3.149469   0.000000
     22          3.285426   0.000000
     23          3.982335   0.000000
     24          4.856157   0.000000
 
  0.2898513E-16  0.3448276E+00  0.0000000E+00  0.2378121E-02
      1        -19.484579   1.000000
      2        -17.267757   1.000000
      3        -16.373531   1.000000
      4        -14.087918   1.000000
      5        -12.384629   1.000000
      6        -10.796444   1.000000
      7         -9.480117   1.000000
      8         -9.248730   1.000000
      9         -8.018715   1.000000
     10         -7.934860   1.000000
     11         -6.257926   1.000000
     12         -6.017669   1.000000
     13         -5.836602   1.000000
     14         -4.701035   1.000000
     15         -4.677204   1.000000
     16         -3.024291   0.000000
     17          0.493662   0.000000
     18          1.267693   0.000000
     19          1.720000   0.000000
     20          2.582434   0.000000
     21          3.149469   0.000000
     22          3.285422   0.000000
     23          3.982336   0.000000
     24          4.856157   0.000000
 
 -0.3448276E+00  0.3448276E+00  0.0000000E+00  0.2378121E-02
      1        -19.484558   1.000000
      2        -17.267894   1.000000
      3        -16.373419   1.000000
      4        -14.087864   1.000000
      5        -12.384627   1.000000
      6        -10.796503   1.000000
      7         -9.480125   1.000000
      8         -9.248649   1.000000
      9         -8.018702   1.000000
     10         -7.935060   1.000000
     11         -6.257768   1.000000
     12         -6.017725   1.000000
     13         -5.836685   1.000000
     14         -4.700966   1.000000
     15         -4.677136   1.000000
     16         -3.024339   0.000000
     17          0.493655   0.000000
     18          1.267774   0.000000
     19          1.719999   0.000000
     20          2.582461   0.000000
     21          3.149469   0.000000
     22          3.285365   0.000000
     23          3.982336   0.000000
     24          4.856200   0.000000
 
  0.3793103E+00 -0.1935510E-16  0.0000000E+00  0.2378121E-02
      1        -19.424928   1.000000
      2        -17.394929   1.000000
      3        -16.405498   1.000000
      4        -14.126286   1.000000
      5        -12.209308   1.000000
      6        -10.527148   1.000000
      7         -9.652612   1.000000