Lattice                                 
           1
     4.476485    2.584500    0.000000
    -4.476485    2.584500    0.000000
     0.000000    0.000000   15.000000
   B    C 
     2     6
Direct configuration=     1
   0.33835568  0.66919338  0.25000000
   0.67168550  0.33578412  0.25000000
   0.16393418  0.32096121  0.25000000
   0.32344383  0.16194918  0.25000000
   0.16445142  0.84350783  0.25000000
   0.84555675  0.16147694  0.25000000
   0.68650730  0.84304996  0.25000000
   0.84606136  0.68407339  0.25000000
Direct configuration=     2
   0.33826096  0.66913789  0.25000000
   0.67167031  0.33589161  0.25000000
   0.16281403  0.31804963  0.25000000
   0.32052420  0.16045114  0.25000000
   0.16295926  0.84489272  0.25000000
   0.84701507  0.16013922  0.25000000
   0.68957096  0.84455664  0.25000000
   0.84718121  0.68687716  0.25000000
Direct configuration=     3
   0.33832471  0.66917523  0.25000000
   0.67168053  0.33581927  0.25000000
   0.16356789  0.32000913  0.25000000
   0.32248912  0.16145932  0.25000000
   0.16396349  0.84396068  0.25000000
   0.84603361  0.16103951  0.25000000
   0.68750911  0.84354264  0.25000000
   0.84642755  0.68499021  0.25000000
Direct configuration=     4
   0.33832461  0.66917518  0.25000000
   0.67168052  0.33581938  0.25000000
   0.16356674  0.32000614  0.25000000
   0.32248612  0.16145778  0.25000000
   0.16396195  0.84396211  0.25000000
   0.84603511  0.16103814  0.25000000
   0.68751225  0.84354418  0.25000000
   0.84642870  0.68499309  0.25000000
Direct configuration=     5
   0.33832466  0.66917521  0.25000000
   0.67168052  0.33581932  0.25000000
   0.16356732  0.32000765  0.25000000
   0.32248763  0.16145856  0.25000000
   0.16396273  0.84396139  0.25000000
   0.84603435  0.16103883  0.25000000
   0.68751066  0.84354340  0.25000000
   0.84642812  0.68499163  0.25000000
Direct configuration=     6
   0.33832467  0.66917522  0.25000000
   0.67168053  0.33581930  0.25000000
   0.16356753  0.32000820  0.25000000
   0.32248818  0.16145884  0.25000000
   0.16396301  0.84396113  0.25000000
   0.84603408  0.16103908  0.25000000
   0.68751009  0.84354312  0.25000000
   0.84642791  0.68499111  0.25000000
Direct configuration=     7
   0.33832470  0.66917523  0.25000000
   0.67168053  0.33581928  0.25000000
   0.16356780  0.32000888  0.25000000
   0.32248886  0.16145919  0.25000000
   0.16396335  0.84396080  0.25000000
   0.84603374  0.16103939  0.25000000
   0.68750938  0.84354277  0.25000000
   0.84642764  0.68499046  0.25000000
Direct configuration=     8
   0.33835318  0.66917132  0.25000000
   0.67163664  0.33583231  0.25000000
   0.16358179  0.31999602  0.25000000
   0.32253696  0.16135826  0.25000000
   0.16380802  0.84385609  0.25000000
   0.84619432  0.16114525  0.25000000
   0.68746284  0.84363741  0.25000000
   0.84642224  0.68499934  0.25000000
Direct configuration=     9
   0.33834031  0.66917309  0.25000000
   0.67165648  0.33582642  0.25000000
   0.16357546  0.32000183  0.25000000
   0.32251522  0.16140388  0.25000000
   0.16387823  0.84390342  0.25000000
   0.84612174  0.16109740  0.25000000
   0.68748387  0.84359464  0.25000000
   0.84642468  0.68499533  0.25000000
Direct configuration=    10
   0.33833488  0.66916866  0.25000000
   0.67165616  0.33583402  0.25000000
   0.16365913  0.32000132  0.25000000
   0.32250900  0.16133279  0.25000000
   0.16382054  0.84383199  0.25000000
   0.84618101  0.16116875  0.25000000
   0.68749091  0.84366339  0.25000000
   0.84634437  0.68499507  0.25000000
Direct configuration=    11
   0.33832879  0.66916369  0.25000000
   0.67165581  0.33584256  0.25000000
   0.16375305  0.32000074  0.25000000
   0.32250202  0.16125299  0.25000000
   0.16375577  0.84375180  0.25000000
   0.84624755  0.16124885  0.25000000
   0.68749881  0.84374059  0.25000000
   0.84625421  0.68499478  0.25000000
Direct configuration=    12
   0.33833424  0.66916510  0.25000000
   0.67166629  0.33583186  0.25000000
   0.16374583  0.31999922  0.25000000
   0.32249932  0.16125004  0.25000000
   0.16375394  0.84374913  0.25000000
   0.84624451  0.16125064  0.25000000
   0.68750021  0.84375037  0.25000000
   0.84625166  0.68499963  0.25000000
