 ----------------------------------------------------
    OOO  PPPP  EEEEE N   N M   M PPPP
   O   O P   P E     NN  N MM MM P   P
   O   O PPPP  EEEEE N N N M M M PPPP   -- VERSION
   O   O P     E     N  NN M   M P
    OOO  P     EEEEE N   N M   M P
 ----------------------------------------------------
 running   48 mpi-ranks, with    1 threads/rank
 distrk:  each k-point on   48 cores,    1 groups
 distr:  one band on    1 cores,   48 groups
 vasp.6.3.2 27Jun22 (build Dec 22 2022 13:13:19) complex                        
  
 POSCAR found type information on POSCAR B C 
 POSCAR found :  2 types and      16 ions
 Reading from existing POTCAR
 -----------------------------------------------------------------------------
|                                                                             |
|           W    W    AA    RRRRR   N    N  II  N    N   GGGG   !!!           |
|           W    W   A  A   R    R  NN   N  II  NN   N  G    G  !!!           |
|           W    W  A    A  R    R  N N  N  II  N N  N  G       !!!           |
|           W WW W  AAAAAA  RRRRR   N  N N  II  N  N N  G  GGG   !            |
|           WW  WW  A    A  R   R   N   NN  II  N   NN  G    G                |
|           W    W  A    A  R    R  N    N  II  N    N   GGGG   !!!           |
|                                                                             |
|     You use a magnetic or noncollinear calculation, but did not specify     |
|     the initial magnetic moment with the MAGMOM tag. Note that a            |
|     default of 1 will be used for all atoms. This ferromagnetic setup       |
|     may break the symmetry of the crystal, in particular it may rule        |
|     out finding an antiferromagnetic solution. Thence, we recommend         |
|     setting the initial magnetic moment manually or verifying carefully     |
|     that this magnetic setup is desired.                                    |
|                                                                             |
 -----------------------------------------------------------------------------

 scaLAPACK will be used
 Reading from existing POTCAR
 LDA part: xc-table for Pade appr. of Perdew
 POSCAR found type information on POSCAR B C 
 POSCAR found :  2 types and      16 ions
 POSCAR, INCAR and KPOINTS ok, starting setup
 FFT: planning ... GRIDC
 FFT: planning ... GRID_SOFT
 FFT: planning ... GRID
 WAVECAR not read
 entering main loop
       N       E                     dE             d eps       ncg     rms          rms(c)
DAV:   1     0.186770897565E+03    0.18677E+03   -0.25353E+04  3648   0.862E+02
DAV:   2    -0.118879410557E+03   -0.30565E+03   -0.30456E+03  5904   0.158E+02
DAV:   3    -0.127950286157E+03   -0.90709E+01   -0.90473E+01  5856   0.363E+01
DAV:   4    -0.127981500705E+03   -0.31215E-01   -0.31212E-01  6000   0.186E+00
DAV:   5    -0.127981526628E+03   -0.25923E-04   -0.25923E-04  5520   0.617E-02    0.228E+01
DAV:   6    -0.946221258039E+02    0.33359E+02   -0.57138E+01  4704   0.216E+01    0.124E+01
DAV:   7    -0.105813685047E+03   -0.11192E+02   -0.14274E+01  5472   0.112E+01    0.671E+00
DAV:   8    -0.111517153778E+03   -0.57035E+01   -0.49139E+00  5232   0.638E+00    0.375E+00
DAV:   9    -0.116818310574E+03   -0.53012E+01   -0.28509E+00  4560   0.473E+00    0.252E+00
DAV:  10    -0.120948206752E+03   -0.41299E+01   -0.31714E+00  5472   0.469E+00    0.134E+00
DAV:  11    -0.122789379691E+03   -0.18412E+01   -0.14320E+00  5088   0.282E+00    0.817E-01
DAV:  12    -0.123756700419E+03   -0.96732E+00   -0.77806E-01  5808   0.192E+00    0.400E-01
DAV:  13    -0.124060824661E+03   -0.30412E+00   -0.18564E-01  5424   0.961E-01    0.193E-01
DAV:  14    -0.124116070978E+03   -0.55246E-01   -0.29982E-02  4272   0.401E-01    0.108E-01
DAV:  15    -0.124139604294E+03   -0.23533E-01   -0.14327E-02  4272   0.292E-01    0.578E-02
DAV:  16    -0.124141150182E+03   -0.15459E-02   -0.22157E-03  4272   0.179E-01    0.377E-02
DAV:  17    -0.124141736730E+03   -0.58655E-03   -0.78946E-04  4032   0.965E-02    0.151E-02
DAV:  18    -0.124141754667E+03   -0.17937E-04   -0.14617E-04  3840   0.443E-02    0.850E-03
DAV:  19    -0.124141806257E+03   -0.51590E-04   -0.39400E-05  3744   0.275E-02    0.511E-03
DAV:  20    -0.124141828516E+03   -0.22258E-04   -0.19498E-05  3936   0.181E-02    0.359E-03
DAV:  21    -0.124141878045E+03   -0.49530E-04   -0.15137E-05  3744   0.155E-02    0.235E-03
DAV:  22    -0.124141902578E+03   -0.24533E-04   -0.51954E-06  4368   0.916E-03    0.138E-03
DAV:  23    -0.124141907072E+03   -0.44937E-05   -0.16287E-06  4944   0.510E-03    0.622E-04
DAV:  24    -0.124141909956E+03   -0.28841E-05   -0.32591E-07  5136   0.217E-03    0.335E-04
DAV:  25    -0.124141911373E+03   -0.14166E-05   -0.16603E-07  4320   0.146E-03    0.176E-04
DAV:  26    -0.124141911701E+03   -0.32816E-06   -0.72007E-08  5712   0.107E-03
   1 F= -.12563202E+03 E0= -.12562899E+03  d E =-.125632E+03  mag=     0.0000
 curvature:   0.00 expect dE= 0.000E+00 dE for cont linesearch  0.000E+00
 trial: gam= 0.00000 g(F)=  0.946E-02 g(S)=  0.000E+00 ort = 0.000E+00 (trialstep = 0.100E+01)
 search vector abs. value=  0.946E-02
 bond charge predicted
       N       E                     dE             d eps       ncg     rms          rms(c)
DAV:   1    -0.124145993217E+03   -0.40818E-02   -0.70557E-01  3744   0.206E+00    0.284E-01
DAV:   2    -0.124142469115E+03    0.35241E-02   -0.17001E-02  5520   0.311E-01    0.125E-01
DAV:   3    -0.124141912832E+03    0.55628E-03   -0.26833E-03  5136   0.110E-01    0.346E-02
DAV:   4    -0.124141892669E+03    0.20163E-04   -0.21178E-04  5376   0.345E-02    0.124E-02
DAV:   5    -0.124141892237E+03    0.43222E-06   -0.11501E-05  5088   0.845E-03    0.390E-03
DAV:   6    -0.124141893464E+03   -0.12274E-05   -0.29582E-06  4080   0.393E-03    0.142E-03
DAV:   7    -0.124141894836E+03   -0.13724E-05   -0.22200E-07  4560   0.122E-03    0.706E-04
DAV:   8    -0.124141896981E+03   -0.21445E-05   -0.12851E-07  4032   0.667E-04    0.350E-04
DAV:   9    -0.124141898665E+03   -0.16840E-05   -0.11273E-07  4416   0.567E-04    0.214E-04
DAV:  10    -0.124141899345E+03   -0.67991E-06   -0.51975E-08  4320   0.432E-04
   2 F= -.12563225E+03 E0= -.12562923E+03  d E =-.233451E-03  mag=    -0.0000
 trial-energy change:   -0.000233  1 .order   -0.000275   -0.009456    0.008906
 step:   0.5116(harm=  0.5150)  dis= 0.00445  next Energy=  -125.634429 (dE=-0.241E-02)
 bond charge predicted
       N       E                     dE             d eps       ncg     rms          rms(c)
DAV:   1    -0.124145161764E+03   -0.32631E-02   -0.16803E-01  3744   0.100E+00    0.138E-01
DAV:   2    -0.124144333996E+03    0.82777E-03   -0.40745E-03  5664   0.152E-01    0.609E-02
DAV:   3    -0.124144202311E+03    0.13168E-03   -0.65156E-04  6096   0.539E-02    0.166E-02
DAV:   4    -0.124144197751E+03    0.45599E-05   -0.44877E-05  5184   0.160E-02    0.605E-03
DAV:   5    -0.124144197824E+03   -0.72918E-07   -0.26541E-06  6048   0.413E-03
   3 F= -.12563443E+03 E0= -.12563141E+03  d E =-.241293E-02  mag=     0.0000
 curvature:  -0.26 expect dE=-0.135E-04 dE for cont linesearch -0.844E-07
 ZBRENT: interpolating
 opt :   0.5146  next Energy=  -125.634428 (dE=-0.241E-02)
 bond charge predicted
       N       E                     dE             d eps       ncg     rms          rms(c)
DAV:   1    -0.124144197144E+03    0.60708E-06   -0.41146E-06  4224   0.556E-03    0.105E-03
DAV:   2    -0.124144197222E+03   -0.78159E-07   -0.18647E-07  4704   0.972E-04
   4 F= -.12563443E+03 E0= -.12563141E+03  d E =-.241308E-02  mag=     0.0000
 curvature:  -0.26 expect dE=-0.137E-04 dE for cont linesearch -0.391E-07
 ZBRENT: interpolating
 opt :   0.5134  next Energy=  -125.634428 (dE=-0.241E-02)
 bond charge predicted
       N       E                     dE             d eps       ncg     rms          rms(c)
DAV:   1    -0.124144197710E+03   -0.56546E-06   -0.13317E-06  4224   0.277E-03    0.397E-04
DAV:   2    -0.124144197788E+03   -0.78314E-07   -0.37415E-08  4848   0.547E-04
   5 F= -.12563443E+03 E0= -.12563141E+03  d E =-.241334E-02  mag=    -0.0000
 curvature:  -0.15 expect dE=-0.811E-05 dE for cont linesearch -0.137E-07
 ZBRENT: bisectioning
 opt :   0.5125  next Energy=  -125.634429 (dE=-0.241E-02)
 bond charge predicted
       N       E                     dE             d eps       ncg     rms          rms(c)
DAV:   1    -0.124144198106E+03   -0.39642E-06   -0.53074E-07  4512   0.184E-03    0.320E-04
DAV:   2    -0.124144198151E+03   -0.45159E-07   -0.15407E-08  4848   0.343E-04
   6 F= -.12563443E+03 E0= -.12563141E+03  d E =-.241348E-02  mag=     0.0000
 curvature:  -0.26 expect dE=-0.137E-04 dE for cont linesearch -0.417E-08
 ZBRENT: bisectioning
 opt :   0.5120  next Energy=  -125.634429 (dE=-0.241E-02)
 bond charge predicted
       N       E                     dE             d eps       ncg     rms          rms(c)
DAV:   1    -0.124144198317E+03   -0.21142E-06   -0.12183E-07  4512   0.914E-04    0.179E-04
DAV:   2    -0.124144198342E+03   -0.24233E-07   -0.39761E-09  5328   0.208E-04
   7 F= -.12563443E+03 E0= -.12563141E+03  d E =-.241356E-02  mag=     0.0000
 curvature:  -0.23 expect dE=-0.120E-04 dE for cont linesearch -0.132E-09
 trial: gam= 0.00581 g(F)=  0.526E-04 g(S)=  0.000E+00 ort =-0.234E-05 (trialstep = 0.902E+00)
 search vector abs. value=  0.529E-04
 bond charge predicted
       N       E                     dE             d eps       ncg     rms          rms(c)
DAV:   1    -0.124144204507E+03   -0.61896E-05   -0.42601E-03  3744   0.241E-01    0.116E-02
DAV:   2    -0.124144203550E+03    0.95743E-06   -0.49070E-05  4032   0.274E-02    0.714E-03
DAV:   3    -0.124144202905E+03    0.64512E-06   -0.63435E-06  4224   0.864E-03
   8 F= -.12563448E+03 E0= -.12563146E+03  d E =-.474422E-04  mag=    -0.0000
 ZBRENT: can't locate minimum, use default step
 trial-energy change:   -0.000047  1 .order   -0.000047   -0.000047   -0.000046
 step:   3.6096(harm= 25.2894)  dis= 0.00174  next Energy=  -125.635093 (dE=-0.664E-03)
 bond charge predicted
       N       E                     dE             d eps       ncg     rms          rms(c)
DAV:   1    -0.124144230003E+03   -0.26454E-04   -0.38478E-02  3648   0.723E-01    0.355E-02
DAV:   2    -0.124144220867E+03    0.91366E-05   -0.44129E-04  3936   0.826E-02    0.218E-02
DAV:   3    -0.124144215234E+03    0.56331E-05   -0.58320E-05  4752   0.262E-02    0.527E-03
DAV:   4    -0.124144215635E+03   -0.40100E-06   -0.69225E-06  4272   0.915E-03
   9 F= -.12563462E+03 E0= -.12563160E+03  d E =-.188890E-03  mag=    -0.0000
 curvature:  -2.67 expect dE=-0.154E-03 dE for cont linesearch -0.138E-03
 ZBRENT: increasing intervall
 opt :   9.0241  next Energy=  -125.634909 (dE=-0.480E-03)
 bond charge predicted
       N       E                     dE             d eps       ncg     rms          rms(c)
DAV:   1    -0.124144294546E+03   -0.79312E-04   -0.15347E-01  3648   0.144E+00    0.698E-02
DAV:   2    -0.124144261904E+03    0.32642E-04   -0.17684E-03  3936   0.165E-01    0.428E-02
DAV:   3    -0.124144235490E+03    0.26414E-04   -0.23020E-04  5088   0.519E-02    0.104E-02
DAV:   4    -0.124144236649E+03   -0.11584E-05   -0.25814E-05  4464   0.178E-02    0.448E-03
DAV:   5    -0.124144237317E+03   -0.66885E-06   -0.15026E-06  3840   0.457E-03
  10 F= -.12563490E+03 E0= -.12563188E+03  d E =-.468835E-03  mag=     0.0000
 curvature:  -5.64 expect dE=-0.485E-03 dE for cont linesearch -0.277E-03
 ZBRENT: increasing intervall
 opt :  19.8530  next Energy=  -125.635435 (dE=-0.101E-02)
 bond charge predicted
       N       E                     dE             d eps       ncg     rms          rms(c)
DAV:   1    -0.124144495939E+03   -0.25929E-03   -0.61375E-01  3648   0.289E+00    0.140E-01
DAV:   2    -0.124144373254E+03    0.12269E-03   -0.70960E-03  4032   0.330E-01    0.857E-02
DAV:   3    -0.124144263923E+03    0.10933E-03   -0.91810E-04  4464   0.104E-01    0.213E-02
DAV:   4    -0.124144267335E+03   -0.34126E-05   -0.10964E-04  5088   0.365E-02    0.890E-03
DAV:   5    -0.124144266877E+03    0.45853E-06   -0.60109E-06  4224   0.932E-03
  11 F= -.12563545E+03 E0= -.12563243E+03  d E =-.101858E-02  mag=    -0.0000
 curvature: -10.95 expect dE=-0.245E-02 dE for cont linesearch -0.503E-03
 ZBRENT: increasing intervall
 opt :  41.5108  next Energy=  -125.636479 (dE=-0.205E-02)
 bond charge predicted
       N       E                     dE             d eps       ncg     rms          rms(c)
DAV:   1    -0.124145210561E+03   -0.94323E-03   -0.24549E+00  3648   0.578E+00    0.279E-01
DAV:   2    -0.124144714297E+03    0.49626E-03   -0.28326E-02  3936   0.660E-01    0.171E-01
DAV:   3    -0.124144286240E+03    0.42806E-03   -0.36801E-03  4800   0.208E-01    0.417E-02
DAV:   4    -0.124144294119E+03   -0.78790E-05   -0.41054E-04  5712   0.716E-02    0.180E-02
DAV:   5    -0.124144291182E+03    0.29374E-05   -0.24423E-05  4224   0.188E-02    0.407E-03
DAV:   6    -0.124144289642E+03    0.15399E-05   -0.88871E-06  3936   0.127E-02    0.248E-03
DAV:   7    -0.124144290845E+03   -0.12027E-05   -0.32921E-06  4320   0.745E-03    0.121E-03
DAV:   8    -0.124144297186E+03   -0.63416E-05   -0.24520E-06  4608   0.624E-03    0.995E-04
DAV:   9    -0.124144301382E+03   -0.41960E-05   -0.31828E-06  4416   0.782E-03    0.554E-04
DAV:  10    -0.124144305940E+03   -0.45576E-05   -0.31835E-06  4464   0.764E-03    0.271E-04
DAV:  11    -0.124144309172E+03   -0.32327E-05   -0.11449E-06  4224   0.404E-03    0.301E-04
DAV:  12    -0.124144309768E+03   -0.59517E-06   -0.77755E-08  5328   0.943E-04
  12 F= -.12563654E+03 E0= -.12563353E+03  d E =-.211500E-02  mag=    -0.0000
 curvature: -22.46 expect dE=-0.185E-01 dE for cont linesearch -0.103E-02
 ZBRENT: increasing intervall
 opt :  84.8265  next Energy=  -125.638678 (dE=-0.425E-02)
 bond charge predicted
       N       E                     dE             d eps       ncg     rms          rms(c)
DAV:   1    -0.124147809003E+03   -0.34998E-02   -0.98102E+00  3648   0.116E+01    0.558E-01
DAV:   2    -0.124145971646E+03    0.18374E-02   -0.11382E-01  4032   0.132E+00    0.343E-01
DAV:   3    -0.124144176431E+03    0.17952E-02   -0.14918E-02  5664   0.415E-01    0.833E-02
DAV:   4    -0.124144200929E+03   -0.24498E-04   -0.15002E-03  5664   0.136E-01    0.367E-02
DAV:   5    -0.124144174022E+03    0.26907E-04   -0.69901E-05  4608   0.264E-02    0.688E-03
DAV:   6    -0.124144170330E+03    0.36923E-05   -0.15754E-05  5568   0.105E-02    0.354E-03
DAV:   7    -0.124144174634E+03   -0.43045E-05   -0.17921E-06  4656   0.402E-03    0.210E-03
DAV:   8    -0.124144181942E+03   -0.73081E-05   -0.11064E-06  4896   0.268E-03    0.177E-03
DAV:   9    -0.124144190139E+03   -0.81965E-05   -0.59861E-07  4800   0.159E-03    0.733E-04
DAV:  10    -0.124144199496E+03   -0.93571E-05   -0.96925E-07  4416   0.203E-03    0.590E-04
DAV:  11    -0.124144203680E+03   -0.41842E-05   -0.39770E-07  4416   0.178E-03    0.452E-04
DAV:  12    -0.124144206870E+03   -0.31899E-05   -0.47704E-07  4272   0.169E-03    0.126E-04
DAV:  13    -0.124144207035E+03   -0.16499E-06   -0.11368E-07  5856   0.140E-03
  13 F= -.12563860E+03 E0= -.12563558E+03  d E =-.417331E-02  mag=     0.0000
 curvature: -46.47 expect dE=-0.152E+00 dE for cont linesearch -0.183E-02
 ZBRENT: increasing intervall
 opt : 171.4577  next Energy=  -125.642248 (dE=-0.782E-02)
 bond charge predicted
       N       E                     dE             d eps       ncg     rms          rms(c)
DAV:   1    -0.124156961267E+03   -0.12754E-01   -0.39184E+01  3648   0.231E+01    0.111E+00
DAV:   2    -0.124150497389E+03    0.64639E-02   -0.46084E-01  3936   0.267E+00    0.687E-01
DAV:   3    -0.124143251898E+03    0.72455E-02   -0.59589E-02  6096   0.828E-01    0.168E-01
DAV:   4    -0.124143284574E+03   -0.32676E-04   -0.53840E-03  5616   0.263E-01    0.752E-02
DAV:   5    -0.124143190515E+03    0.94060E-04   -0.28796E-04  4992   0.523E-02    0.146E-02
DAV:   6    -0.124143178591E+03    0.11924E-04   -0.63403E-05  5568   0.212E-02    0.699E-03
DAV:   7    -0.124143197403E+03   -0.18813E-04   -0.96700E-06  4896   0.903E-03    0.410E-03
DAV:   8    -0.124143215397E+03   -0.17994E-04   -0.30534E-06  4704   0.493E-03    0.358E-03
DAV:   9    -0.124143236623E+03   -0.21226E-04   -0.22318E-06  4752   0.335E-03    0.142E-03
DAV:  10    -0.124143256140E+03   -0.19518E-04   -0.23444E-06  4848   0.353E-03    0.106E-03
DAV:  11    -0.124143264365E+03   -0.82245E-05   -0.11766E-06  4512   0.366E-03    0.739E-04
DAV:  12    -0.124143271832E+03   -0.74675E-05   -0.14363E-06  4512   0.352E-03    0.258E-04
DAV:  13    -0.124143273373E+03   -0.15401E-05   -0.49562E-07  4752   0.268E-03    0.110E-04
DAV:  14    -0.124143273405E+03   -0.32021E-07   -0.15221E-07  5856   0.166E-03
  14 F= -.12564222E+03 E0= -.12563920E+03  d E =-.778686E-02  mag=     0.0000
 curvature: -92.35 expect dE=-0.122E+01 dE for cont linesearch -0.253E-02
 ZBRENT: increasing intervall
 opt : 344.7203  next Energy=  -125.647490 (dE=-0.131E-01)
 bond charge predicted
       N       E                     dE             d eps       ncg     rms          rms(c)
DAV:   1    -0.124186017767E+03   -0.42744E-01   -0.15587E+02  3648   0.460E+01    0.221E+00
DAV:   2    -0.124167594981E+03    0.18423E-01   -0.19029E+00  4032   0.547E+00    0.138E+00
DAV:   3    -0.124138736054E+03    0.28859E-01   -0.23152E-01  6144   0.163E+00    0.354E-01
DAV:   4    -0.124138922728E+03   -0.18667E-03   -0.19938E-02  5472   0.506E-01    0.155E-01
DAV:   5    -0.124138449036E+03    0.47369E-03   -0.12704E-03  5664   0.102E-01    0.312E-02
DAV:   6    -0.124138401040E+03    0.47996E-04   -0.22131E-04  5088   0.394E-02    0.147E-02
DAV:   7    -0.124138447979E+03   -0.46940E-04   -0.34958E-05  4464   0.167E-02    0.837E-03
DAV:   8    -0.124138492212E+03   -0.44232E-04   -0.11873E-05  4704   0.810E-03    0.760E-03
DAV:   9    -0.124138548109E+03   -0.55897E-04   -0.86803E-06  4992   0.626E-03    0.279E-03
DAV:  10    -0.124138588502E+03   -0.40393E-04   -0.50163E-06  4704   0.462E-03    0.186E-03
DAV:  11    -0.124138608309E+03   -0.19807E-04   -0.19430E-06  4800   0.303E-03    0.141E-03
DAV:  12    -0.124138622624E+03   -0.14315E-04   -0.19403E-06  4608   0.272E-03    0.539E-04
DAV:  13    -0.124138627543E+03   -0.49192E-05   -0.51694E-07  4992   0.160E-03    0.202E-04
DAV:  14    -0.124138628974E+03   -0.14305E-05   -0.13797E-07  4272   0.104E-03    0.986E-05
DAV:  15    -0.124138629215E+03   -0.24111E-06   -0.33119E-08  6144   0.667E-04
  15 F= -.12564764E+03 E0= -.12564462E+03  d E =-.132117E-01  mag=    -0.0000
 curvature: ****** expect dE=-0.102E+02 dE for cont linesearch -0.217E-02
 ZBRENT: increasing intervall
 opt : 691.2454  next Energy=  -125.651357 (dE=-0.169E-01)
 bond charge predicted
       N       E                     dE             d eps       ncg     rms          rms(c)
DAV:   1    -0.124218451821E+03   -0.79823E-01   -0.60998E+02  3648   0.906E+01    0.435E+00
DAV:   2    -0.124235799078E+03   -0.17347E-01   -0.83200E+00  3936   0.117E+01    0.277E+00
DAV:   3    -0.124117386272E+03    0.11841E+00   -0.81111E-01  6240   0.308E+00    0.867E-01
DAV:   4    -0.124119405274E+03   -0.20190E-02   -0.66479E-02  5664   0.942E-01    0.317E-01
DAV:   5    -0.124117692778E+03    0.17125E-02   -0.67455E-03  5760   0.207E-01    0.559E-02
DAV:   6    -0.124117517772E+03    0.17501E-03   -0.62866E-04  5952   0.699E-02    0.280E-02
DAV:   7    -0.124117671891E+03   -0.15412E-03   -0.24541E-04  4224   0.441E-02    0.155E-02
DAV:   8    -0.124117799865E+03   -0.12797E-03   -0.40091E-05  4320   0.151E-02    0.127E-02
DAV:   9    -0.124117889734E+03   -0.89870E-04   -0.16472E-05  4992   0.101E-02    0.586E-03
DAV:  10    -0.124117957066E+03   -0.67331E-04   -0.10803E-05  5040   0.768E-03    0.396E-03
DAV:  11    -0.124118008611E+03   -0.51545E-04   -0.11090E-05  4752   0.680E-03    0.219E-03
DAV:  12    -0.124118022151E+03   -0.13540E-04   -0.19176E-06  5088   0.372E-03    0.700E-04
DAV:  13    -0.124118026488E+03   -0.43374E-05   -0.64554E-07  5472   0.324E-03    0.362E-04
DAV:  14    -0.124118029015E+03   -0.25265E-05   -0.37507E-07  4512   0.249E-03    0.180E-04
DAV:  15    -0.124118030595E+03   -0.15801E-05   -0.18338E-07  4320   0.132E-03    0.668E-05
DAV:  16    -0.124118030766E+03   -0.17088E-06   -0.17193E-08  6096   0.498E-04
  16 F= -.12565177E+03 E0= -.12564872E+03  d E =-.173413E-01  mag=    -0.0000
 curvature: ****** expect dE=-0.692E+02 dE for cont linesearch -0.467E-06
 trial: gam=******** g(F)=  0.209E+00 g(S)=  0.000E+00 ort =-0.273E-06 (trialstep = 0.875E-05)
 search vector abs. value=  0.840E+03
 bond charge predicted
       N       E                     dE             d eps       ncg     rms          rms(c)
DAV:   1    -0.124118029782E+03    0.81284E-06   -0.63751E-06  5136   0.931E-03    0.450E-04
DAV:   2    -0.124118029783E+03   -0.66302E-09   -0.71500E-08  6432   0.105E-03
  17 F= -.12565177E+03 E0= -.12564872E+03  d E =-.186863E-05  mag=    -0.0000
 ZBRENT: can't locate minimum, use default step
 trial-energy change:   -0.000002  1 .order   -0.000002   -0.000002   -0.000002
 step:   0.0000(harm=  0.0000)  dis= 0.00007  next Energy=  -125.651778 (dE=-0.733E-05)
 bond charge predicted
       N       E                     dE             d eps       ncg     rms          rms(c)
DAV:   1    -0.124118026727E+03    0.30550E-05   -0.56345E-05  4608   0.278E-02    0.139E-03
DAV:   2    -0.124118026705E+03    0.21823E-07   -0.58747E-07  5760   0.297E-03
  18 F= -.12565178E+03 E0= -.12564873E+03  d E =-.734668E-05  mag=    -0.0000
 curvature:  -0.11 expect dE=-0.222E-01 dE for cont linesearch -0.556E-05
 ZBRENT: increasing intervall
 opt :   0.0001  next Energy=  -125.651789 (dE=-0.184E-04)
 bond charge predicted
       N       E                     dE             d eps       ncg     rms          rms(c)
DAV:   1    -0.124118020618E+03    0.61097E-05   -0.22365E-04  3936   0.554E-02    0.282E-03
DAV:   2    -0.124118020536E+03    0.81793E-07   -0.24081E-06  4512   0.611E-03
  19 F= -.12565179E+03 E0= -.12564874E+03  d E =-.182902E-04  mag=    -0.0000
 curvature:  -0.21 expect dE=-0.442E-01 dE for cont linesearch -0.112E-04
 ZBRENT: increasing intervall
 opt :   0.0002  next Energy=  -125.651811 (dE=-0.405E-04)
 bond charge predicted
       N       E                     dE             d eps       ncg     rms          rms(c)
DAV:   1    -0.124118008477E+03    0.12140E-04   -0.89509E-04  3648   0.111E-01    0.564E-03
DAV:   2    -0.124118008196E+03    0.28127E-06   -0.10035E-05  4032   0.126E-02    0.349E-03
DAV:   3    -0.124118008144E+03    0.51933E-07   -0.13459E-06  4320   0.402E-03
  20 F= -.12565181E+03 E0= -.12564876E+03  d E =-.401331E-04  mag=    -0.0000
 curvature:  -0.42 expect dE=-0.880E-01 dE for cont linesearch -0.210E-04
 ZBRENT: increasing intervall
 opt :   0.0004  next Energy=  -125.651852 (dE=-0.819E-04)
 bond charge predicted
       N       E                     dE             d eps       ncg     rms          rms(c)
DAV:   1    -0.124117984751E+03    0.23445E-04   -0.36838E-03  3648   0.224E-01    0.111E-02
DAV:   2    -0.124117983670E+03    0.10814E-05   -0.42180E-05  3936   0.257E-02    0.681E-03
DAV:   3    -0.124117983273E+03    0.39639E-06   -0.55526E-06  4512   0.811E-03
  21 F= -.12565185E+03 E0= -.12564880E+03  d E =-.837718E-04  mag=     0.0000
 curvature:  -0.84 expect dE=-0.175E+00 dE for cont linesearch -0.405E-04
 ZBRENT: increasing intervall
 opt :   0.0008  next Energy=  -125.651937 (dE=-0.167E-03)
 bond charge predicted
       N       E                     dE             d eps       ncg     rms          rms(c)
DAV:   1    -0.124117939185E+03    0.44485E-04   -0.14731E-02  3648   0.448E-01    0.221E-02
DAV:   2    -0.124117935029E+03    0.41561E-05   -0.16859E-04  4224   0.513E-02    0.136E-02
DAV:   3    -0.124117933209E+03    0.18194E-05   -0.21709E-05  4416   0.160E-02    0.333E-03
DAV:   4    -0.124117933533E+03   -0.32398E-06   -0.30129E-06  3744   0.609E-03
  22 F= -.12565194E+03 E0= -.12564889E+03  d E =-.171168E-03  mag=    -0.0000
 curvature:  -1.72 expect dE=-0.361E+00 dE for cont linesearch -0.890E-04
 ZBRENT: increasing intervall
 opt :   0.0017  next Energy=  -125.652122 (dE=-0.352E-03)
 bond charge predicted
       N       E                     dE             d eps       ncg     rms          rms(c)
DAV:   1    -0.124117855920E+03    0.77289E-04   -0.58641E-02  3648   0.893E-01    0.432E-02
DAV:   2    -0.124117841400E+03    0.14520E-04   -0.67590E-04  3984   0.103E-01    0.265E-02
DAV:   3    -0.124117832344E+03    0.90564E-05   -0.88279E-05  4944   0.321E-02    0.650E-03
DAV:   4    -0.124117833341E+03   -0.99748E-06   -0.10777E-05  3936   0.122E-02    0.278E-03
DAV:   5    -0.124117834057E+03   -0.71563E-06   -0.18884E-06  3648   0.604E-03
  23 F= -.12565212E+03 E0= -.12564906E+03  d E =-.346526E-03  mag=    -0.0000
 curvature:  -3.49 expect dE=-0.736E+00 dE for cont linesearch -0.179E-03
 ZBRENT: increasing intervall
 opt :   0.0033  next Energy=  -125.652463 (dE=-0.693E-03)
 bond charge predicted
       N       E                     dE             d eps       ncg     rms          rms(c)
DAV:   1    -0.124117721061E+03    0.11228E-03   -0.23446E-01  3648   0.179E+00    0.862E-02
DAV:   2    -0.124117670460E+03    0.50601E-04   -0.26989E-03  3648   0.205E-01    0.531E-02
DAV:   3    -0.124117629944E+03    0.40516E-04   -0.36247E-04  4800   0.656E-02    0.130E-02
DAV:   4    -0.124117631803E+03   -0.18587E-05   -0.42677E-05  4848   0.233E-02    0.555E-03
DAV:   5    -0.124117633164E+03   -0.13606E-05   -0.45592E-06  3840   0.909E-03    0.139E-03
DAV:   6    -0.124117632070E+03    0.10932E-05   -0.24140E-06  4128   0.680E-03    0.769E-04
DAV:   7    -0.124117632390E+03   -0.31917E-06   -0.53788E-07  4032   0.295E-03
  24 F= -.12565247E+03 E0= -.12564941E+03  d E =-.696795E-03  mag=    -0.0000
 curvature:  -6.76 expect dE=-0.144E+01 dE for cont linesearch -0.360E-03
 ZBRENT: increasing intervall
 opt :   0.0067  next Energy=  -125.653192 (dE=-0.142E-02)
 bond charge predicted
       N       E                     dE             d eps       ncg     rms          rms(c)
DAV:   1    -0.124117590584E+03    0.41487E-04   -0.93737E-01  3648   0.357E+00    0.173E-01
DAV:   2    -0.124117385433E+03    0.20515E-03   -0.10744E-02  3648   0.409E-01    0.106E-01
DAV:   3    -0.124117219546E+03    0.16589E-03   -0.14192E-03  3744   0.131E-01    0.264E-02
DAV:   4    -0.124117226629E+03   -0.70827E-05   -0.19726E-04  5520   0.475E-02    0.108E-02
DAV:   5    -0.124117226871E+03   -0.24206E-06   -0.71308E-06  4416   0.966E-03
  25 F= -.12565317E+03 E0= -.12565012E+03  d E =-.140373E-02  mag=     0.0000
 curvature: -13.60 expect dE=-0.293E+01 dE for cont linesearch -0.673E-03
 ZBRENT: increasing intervall
 opt :   0.0134  next Energy=  -125.654491 (dE=-0.272E-02)
 bond charge predicted
       N       E                     dE             d eps       ncg     rms          rms(c)
DAV:   1    -0.124117796525E+03   -0.56990E-03   -0.37513E+00  3648   0.714E+00    0.345E-01
DAV:   2    -0.124117048358E+03    0.74817E-03   -0.43337E-02  3840   0.820E-01    0.212E-01
DAV:   3    -0.124116390902E+03    0.65746E-03   -0.57163E-03  4464   0.259E-01    0.518E-02
DAV:   4    -0.124116404147E+03   -0.13245E-04   -0.66781E-04  6000   0.900E-02    0.223E-02
DAV:   5    -0.124116399956E+03    0.41917E-05   -0.32802E-05  4320   0.212E-02    0.448E-03
DAV:   6    -0.124116400448E+03   -0.49256E-06   -0.19648E-05  4608   0.183E-02    0.262E-03
DAV:   7    -0.124116400793E+03   -0.34475E-06   -0.10729E-05  4080   0.143E-02    0.147E-03
DAV:   8    -0.124116405094E+03   -0.43014E-05   -0.38174E-06  4752   0.819E-03    0.119E-03
DAV:   9    -0.124116409752E+03   -0.46579E-05   -0.14949E-06  5136   0.512E-03    0.620E-04
DAV:  10    -0.124116414238E+03   -0.44861E-05   -0.11824E-06  4512   0.431E-03    0.390E-04
DAV:  11    -0.124116417248E+03   -0.30097E-05   -0.38739E-07  4800   0.206E-03    0.368E-04
DAV:  12    -0.124116418763E+03   -0.15146E-05   -0.10674E-07  4608   0.788E-04    0.151E-04
DAV:  13    -0.124116419527E+03   -0.76460E-06   -0.56234E-08  4704   0.438E-04
  26 F= -.12565463E+03 E0= -.12565157E+03  d E =-.285680E-02  mag=    -0.0000
 curvature: -26.63 expect dE=-0.591E+01 dE for cont linesearch -0.150E-02
 ZBRENT: increasing intervall
 opt :   0.0269  next Energy=  -125.657733 (dE=-0.596E-02)
 bond charge predicted
       N       E                     dE             d eps       ncg     rms          rms(c)
DAV:   1    -0.124120167672E+03   -0.37489E-02   -0.14985E+01  3648   0.143E+01    0.689E-01
DAV:   2    -0.124117308273E+03    0.28594E-02   -0.17435E-01  3648   0.164E+00    0.425E-01
DAV:   3    -0.124114686313E+03    0.26220E-02   -0.23398E-02  5952   0.520E-01    0.103E-01
DAV:   4    -0.124114724903E+03   -0.38590E-04   -0.21942E-03  5856   0.165E-01    0.460E-02
DAV:   5    -0.124114693060E+03    0.31843E-04   -0.10882E-04  4992   0.329E-02    0.900E-03
DAV:   6    -0.124114689301E+03    0.37589E-05   -0.23334E-05  5472   0.129E-02    0.446E-03
DAV:   7    -0.124114695627E+03   -0.63254E-05   -0.25557E-06  4032   0.464E-03    0.267E-03
DAV:   8    -0.124114704643E+03   -0.90165E-05   -0.12867E-06  4608   0.310E-03    0.217E-03
DAV:   9    -0.124114716102E+03   -0.11458E-04   -0.10764E-06  4992   0.209E-03    0.674E-04
DAV:  10    -0.124114725446E+03   -0.93440E-05   -0.98395E-07  4752   0.171E-03    0.797E-04
DAV:  11    -0.124114729916E+03   -0.44709E-05   -0.36209E-07  4656   0.119E-03    0.348E-04
DAV:  12    -0.124114731948E+03   -0.20318E-05   -0.13968E-07  4992   0.792E-04    0.122E-04
DAV:  13    -0.124114732907E+03   -0.95863E-06   -0.67573E-08  4512   0.514E-04
  27 F= -.12565761E+03 E0= -.12565454E+03  d E =-.583614E-02  mag=    -0.0000
 curvature: -55.14 expect dE=-0.129E+02 dE for cont linesearch -0.335E-02
 ZBRENT: increasing intervall
 opt :   0.0537  next Energy=  -125.663901 (dE=-0.121E-01)
 bond charge predicted
       N       E                     dE             d eps       ncg     rms          rms(c)
DAV:   1    -0.124131401614E+03   -0.16670E-01   -0.59807E+01  3648   0.285E+01    0.137E+00
DAV:   2    -0.124121545054E+03    0.98566E-02   -0.70916E-01  3840   0.333E+00    0.851E-01
DAV:   3    -0.124110992538E+03    0.10553E-01   -0.92241E-02  5856   0.103E+00    0.210E-01
DAV:   4    -0.124111097851E+03   -0.10531E-03   -0.84615E-03  5952   0.324E-01    0.946E-02
DAV:   5    -0.124110980980E+03    0.11687E-03   -0.44239E-04  5856   0.652E-02    0.195E-02
DAV:   6    -0.124110966302E+03    0.14678E-04   -0.98120E-05  5568   0.264E-02    0.843E-03
DAV:   7    -0.124110997113E+03   -0.30811E-04   -0.14409E-05  4224   0.111E-02    0.488E-03
DAV:   8    -0.124111020979E+03   -0.23866E-04   -0.26462E-06  4752   0.382E-03    0.384E-03
DAV:   9    -0.124111045552E+03   -0.24574E-04   -0.28440E-06  4704   0.346E-03    0.143E-03
DAV:  10    -0.124111064272E+03   -0.18720E-04   -0.22510E-06  5040   0.277E-03    0.122E-03
DAV:  11    -0.124111074287E+03   -0.10015E-04   -0.11122E-06  4704   0.202E-03    0.598E-04
DAV:  12    -0.124111078993E+03   -0.47062E-05   -0.44327E-07  5280   0.152E-03    0.212E-04
DAV:  13    -0.124111080141E+03   -0.11483E-05   -0.76913E-08  5184   0.926E-04    0.101E-04
DAV:  14    -0.124111081037E+03   -0.89515E-06   -0.56746E-08  4848   0.499E-04
  28 F= -.12566390E+03 E0= -.12566081E+03  d E =-.121276E-01  mag=    -0.0000
 curvature: ****** expect dE=-0.271E+02 dE for cont linesearch -0.731E-02
 ZBRENT: increasing intervall
 opt :   0.1075  next Energy=  -125.677926 (dE=-0.262E-01)
 bond charge predicted
       N       E                     dE             d eps       ncg     rms          rms(c)
DAV:   1    -0.124168082954E+03   -0.57003E-01   -0.23720E+02  3648   0.567E+01    0.272E+00
DAV:   2    -0.124145659577E+03    0.22423E-01   -0.29664E+00  3936   0.689E+00    0.171E+00
DAV:   3    -0.124102161532E+03    0.43498E-01   -0.34512E-01  5808   0.199E+00    0.465E-01
DAV:   4    -0.124103020157E+03   -0.85862E-03   -0.30036E-02  5856   0.613E-01    0.196E-01
DAV:   5    -0.124102403966E+03    0.61619E-03   -0.20811E-03  6048   0.123E-01    0.403E-02
DAV:   6    -0.124102349606E+03    0.54360E-04   -0.31697E-04  5232   0.490E-02    0.177E-02
DAV:   7    -0.124102438481E+03   -0.88874E-04   -0.73756E-05  4320   0.258E-02    0.104E-02
DAV:   8    -0.124102492306E+03   -0.53825E-04   -0.95480E-06  4704   0.839E-03    0.909E-03
DAV:   9    -0.124102555591E+03   -0.63285E-04   -0.10906E-05  4752   0.757E-03    0.328E-03
DAV:  10    -0.124102595353E+03   -0.39762E-04   -0.59406E-06  4992   0.503E-03    0.244E-03
DAV:  11    -0.124102614592E+03   -0.19239E-04   -0.21724E-06  5472   0.301E-03    0.193E-03
DAV:  12    -0.124102627221E+03   -0.12629E-04   -0.16328E-06  5616   0.250E-03    0.852E-04
DAV:  13    -0.124102631451E+03   -0.42295E-05   -0.28826E-07  4944   0.112E-03    0.273E-04
DAV:  14    -0.124102633425E+03   -0.19743E-05   -0.93102E-08  4992   0.614E-04    0.166E-04
DAV:  15    -0.124102634544E+03   -0.11183E-05   -0.60358E-08  4656   0.409E-04    0.666E-05
DAV:  16    -0.124102634914E+03   -0.37052E-06   -0.21704E-08  4944   0.243E-04
  29 F= -.12567803E+03 E0= -.12567489E+03  d E =-.262598E-01  mag=     0.0000
 curvature: ****** expect dE=-0.634E+02 dE for cont linesearch -0.190E-01
 ZBRENT: increasing intervall
 opt :   0.2150  next Energy=  -125.712796 (dE=-0.610E-01)
 bond charge predicted
       N       E                     dE             d eps       ncg     rms          rms(c)
DAV:   1    -0.124157161549E+03   -0.54527E-01   -0.91734E+02  3648   0.111E+02    0.532E+00
DAV:   2    -0.124265324777E+03   -0.10816E+00   -0.13448E+01  4416   0.150E+01    0.343E+00
DAV:   3    -0.124081567704E+03    0.18376E+00   -0.10843E+00  6240   0.356E+00    0.119E+00
DAV:   4    -0.124081417588E+03    0.15012E-03   -0.10027E-01  5904   0.117E+00    0.380E-01
DAV:   5    -0.124078960281E+03    0.24573E-02   -0.11986E-02  6048   0.278E-01    0.642E-02
DAV:   6    -0.124078782381E+03    0.17790E-03   -0.74264E-04  6336   0.804E-02    0.316E-02
DAV:   7    -0.124078992558E+03   -0.21018E-03   -0.28666E-04  4320   0.500E-02    0.180E-02
DAV:   8    -0.124079130548E+03   -0.13799E-03   -0.50234E-05  4416   0.180E-02    0.155E-02
DAV:   9    -0.124079251622E+03   -0.12107E-03   -0.33247E-05  4656   0.140E-02    0.738E-03
DAV:  10    -0.124079329873E+03   -0.78251E-04   -0.17247E-05  5184   0.993E-03    0.556E-03
DAV:  11    -0.124079371194E+03   -0.41321E-04   -0.85224E-06  4896   0.631E-03    0.362E-03
DAV:  12    -0.124079389527E+03   -0.18333E-04   -0.31681E-06  5472   0.407E-03    0.153E-03
DAV:  13    -0.124079398543E+03   -0.90155E-05   -0.93711E-07  5904   0.237E-03    0.745E-04
DAV:  14    -0.124079402252E+03   -0.37086E-05   -0.21586E-07  5664   0.107E-03    0.432E-04
DAV:  15    -0.124079404283E+03   -0.20318E-05   -0.10379E-07  4704   0.679E-04    0.154E-04
DAV:  16    -0.124079404887E+03   -0.60331E-06   -0.22564E-08  5472   0.296E-04
  30 F= -.12571287E+03 E0= -.12570954E+03  d E =-.611022E-01  mag=     0.0000
 curvature: ****** expect dE=-0.164E+03 dE for cont linesearch -0.565E-01
 ZBRENT: increasing intervall
 opt :   0.4299  next Energy=  -125.807267 (dE=-0.155E+00)
 bond charge predicted
       N       E                     dE             d eps       ncg     rms          rms(c)
DAV:   1    -0.122419536860E+03    0.16599E+01   -0.32090E+03  3648   0.199E+02    0.105E+01
DAV:   2    -0.124737306243E+03   -0.23178E+01   -0.66546E+01  3840   0.346E+01    0.677E+00
DAV:   3    -0.124115100613E+03    0.62221E+00   -0.28849E+00  6528   0.622E+00    0.375E+00
DAV:   4    -0.123961304962E+03    0.15380E+00   -0.85000E-01  6000   0.312E+00    0.695E-01
DAV:   5    -0.123959506456E+03    0.17985E-02   -0.42102E-02  5376   0.717E-01    0.257E-01
DAV:   6    -0.123956427851E+03    0.30786E-02   -0.10319E-02  6528   0.277E-01    0.762E-02
DAV:   7    -0.123956175452E+03    0.25240E-03   -0.13142E-03  4896   0.111E-01    0.378E-02
DAV:   8    -0.123956469128E+03   -0.29368E-03   -0.39808E-04  5376   0.508E-02    0.310E-02
DAV:   9    -0.123956663067E+03   -0.19394E-03   -0.12788E-04  4656   0.274E-02    0.189E-02
DAV:  10    -0.123956806168E+03   -0.14310E-03   -0.10731E-04  4896   0.281E-02    0.167E-02
DAV:  11    -0.123956854288E+03   -0.48120E-04   -0.33025E-05  4848   0.142E-02    0.529E-03
DAV:  12    -0.123956872766E+03   -0.18478E-04   -0.72913E-06  5424   0.711E-03    0.442E-03
DAV:  13    -0.123956881155E+03   -0.83888E-05   -0.10791E-06  5376   0.313E-03    0.282E-03
DAV:  14    -0.123956887845E+03   -0.66902E-05   -0.78299E-07  5424   0.242E-03    0.832E-04
DAV:  15    -0.123956890825E+03   -0.29805E-05   -0.22198E-07  5616   0.117E-03    0.349E-04
DAV:  16    -0.123956891962E+03   -0.11366E-05   -0.57834E-08  5472   0.577E-04    0.236E-04
DAV:  17    -0.123956892569E+03   -0.60666E-06   -0.28401E-08  5280   0.335E-04
  31 F= -.12577429E+03 E0= -.12577118E+03  d E =-.122519E+00  mag=     0.0000
 curvature: ****** expect dE=-0.477E+03 dE for cont linesearch -0.260E-02
 trial: gam= 1.82632 g(F)=  0.786E+00 g(S)=  0.000E+00 ort =-0.600E-01 (trialstep = 0.258E-01)
 search vector abs. value=  0.280E+04
 bond charge predicted
       N       E                     dE             d eps       ncg     rms          rms(c)
DAV:   1    -0.123966822549E+03   -0.99306E-02   -0.18225E+02  3648   0.500E+01    0.241E+00
DAV:   2    -0.123942899569E+03    0.23923E-01   -0.22777E+00  5088   0.600E+00    0.148E+00
DAV:   3    -0.123910650951E+03    0.32249E-01   -0.23505E-01  6672   0.163E+00    0.415E-01
DAV:   4    -0.123910520419E+03    0.13053E-03   -0.21729E-02  5856   0.527E-01    0.160E-01
DAV:   5    -0.123910053677E+03    0.46674E-03   -0.15289E-03  6720   0.116E-01    0.325E-02
DAV:   6    -0.123910010061E+03    0.43616E-04   -0.20222E-04  4512   0.432E-02    0.149E-02
DAV:   7    -0.123910069018E+03   -0.58957E-04   -0.80035E-05  5472   0.275E-02    0.886E-03
DAV:   8    -0.123910118911E+03   -0.49892E-04   -0.13980E-05  4800   0.104E-02    0.645E-03
DAV:   9    -0.123910155708E+03   -0.36798E-04   -0.59431E-06  5184   0.619E-03    0.321E-03
DAV:  10    -0.123910186408E+03   -0.30700E-04   -0.59487E-06  5472   0.506E-03    0.199E-03
DAV:  11    -0.123910200113E+03   -0.13705E-04   -0.22347E-06  5184   0.307E-03    0.135E-03
DAV:  12    -0.123910206007E+03   -0.58932E-05   -0.86043E-07  6240   0.196E-03    0.744E-04
DAV:  13    -0.123910207937E+03   -0.19308E-05   -0.14269E-07  5424   0.857E-04    0.335E-04
DAV:  14    -0.123910209214E+03   -0.12771E-05   -0.11399E-07  5712   0.698E-04    0.182E-04
DAV:  15    -0.123910209527E+03   -0.31270E-06   -0.12360E-08  5616   0.273E-04
  32 F= -.12578122E+03 E0= -.12577833E+03  d E =-.692786E-02  mag=     0.0000
 trial-energy change:   -0.006928  1 .order   -0.005745   -0.017431    0.005941
 step:   0.0205(harm=  0.0192)  dis= 0.07180  next Energy=  -125.781815 (dE=-0.753E-02)
 bond charge predicted
       N       E                     dE             d eps       ncg     rms          rms(c)
DAV:   1    -0.123925148329E+03   -0.14939E-01   -0.77060E+00  3648   0.103E+01    0.498E-01
DAV:   2    -0.123923400150E+03    0.17482E-02   -0.90036E-02  5376   0.119E+00    0.301E-01
DAV:   3    -0.123922091855E+03    0.13083E-02   -0.10564E-02  5184   0.347E-01    0.776E-02
DAV:   4    -0.123922113870E+03   -0.22014E-04   -0.12017E-03  5184   0.122E-01    0.317E-02
DAV:   5    -0.123922115069E+03   -0.11997E-05   -0.54933E-05  5184   0.259E-02    0.645E-03
DAV:   6    -0.123922113225E+03    0.18441E-05   -0.10060E-05  5952   0.967E-03    0.312E-03
DAV:   7    -0.123922114003E+03   -0.77756E-06   -0.11952E-06  4800   0.379E-03
  33 F= -.12578179E+03 E0= -.12577886E+03  d E =-.750524E-02  mag=     0.0000
 curvature: -38.31 expect dE=-0.285E+02 dE for cont linesearch -0.914E-06
 trial: gam=-0.02536 g(F)=  0.745E+00 g(S)=  0.000E+00 ort =-0.818E-02 (trialstep = 0.247E-01)
 search vector abs. value=  0.255E+01
 bond charge predicted
       N       E                     dE             d eps       ncg     rms          rms(c)
DAV:   1    -0.123941013302E+03   -0.18900E-01   -0.15536E-01  3648   0.154E+00    0.699E-02
DAV:   2    -0.123941017147E+03   -0.38455E-05   -0.21196E-03  6720   0.186E-01    0.456E-02
DAV:   3    -0.123940993886E+03    0.23262E-04   -0.22138E-04  4800   0.527E-02    0.169E-02
DAV:   4    -0.123940996403E+03   -0.25176E-05   -0.46995E-05  6144   0.235E-02    0.106E-02
DAV:   5    -0.123940998496E+03   -0.20923E-05   -0.17242E-06  5952   0.537E-03    0.398E-03
DAV:   6    -0.123941000459E+03   -0.19633E-05   -0.90864E-07  5856   0.318E-03    0.128E-03
DAV:   7    -0.123941001912E+03   -0.14533E-05   -0.10337E-07  6048   0.115E-03    0.649E-04
DAV:   8    -0.123941003517E+03   -0.16044E-05   -0.50941E-08  5664   0.634E-04    0.444E-04
DAV:   9    -0.123941005033E+03   -0.15160E-05   -0.42713E-08  5664   0.555E-04    0.466E-04
DAV:  10    -0.123941006542E+03   -0.15092E-05   -0.42523E-08  5088   0.393E-04    0.144E-04
DAV:  11    -0.123941007285E+03   -0.74335E-06   -0.22845E-08  5856   0.255E-04
  34 F= -.12579947E+03 E0= -.12579653E+03  d E =-.176741E-01  mag=     0.0000
 ZBRENT: can't locate minimum, use default step
 trial-energy change:   -0.017674  1 .order   -0.017659   -0.018422   -0.016896
 step:   0.0989(harm=  0.2985)  dis= 0.00968  next Energy=  -125.893032 (dE=-0.111E+00)
 bond charge predicted
       N       E                     dE             d eps       ncg     rms          rms(c)
DAV:   1    -0.123988741225E+03   -0.47735E-01   -0.13995E+00  3648   0.461E+00    0.210E-01
DAV:   2    -0.123988745224E+03   -0.39994E-05   -0.18893E-02  6720   0.552E-01    0.135E-01
DAV:   3    -0.123988522904E+03    0.22232E-03   -0.20424E-03  5376   0.159E-01    0.488E-02
DAV:   4    -0.123988520714E+03    0.21896E-05   -0.42422E-04  5232   0.712E-02    0.309E-02
DAV:   5    -0.123988522157E+03   -0.14424E-05   -0.17069E-05  5088   0.173E-02    0.114E-02
DAV:   6    -0.123988521905E+03    0.25138E-06   -0.79695E-06  6048   0.959E-03
  35 F= -.12584327E+03 E0= -.12584033E+03  d E =-.614746E-01  mag=    -0.0000
 curvature:  -0.24 expect dE=-0.796E-01 dE for cont linesearch -0.232E-01
 ZBRENT: increasing intervall
 opt :   0.2472  next Energy=  -125.889392 (dE=-0.108E+00)
 bond charge predicted
       N       E                     dE             d eps       ncg     rms          rms(c)
DAV:   1    -0.124042878033E+03   -0.54356E-01   -0.56035E+00  3648   0.922E+00    0.423E-01
DAV:   2    -0.124042900530E+03   -0.22497E-04   -0.76104E-02  6816   0.111E+00    0.272E-01
DAV:   3    -0.124041938988E+03    0.96154E-03   -0.82650E-03  5568   0.322E-01    0.986E-02
DAV:   4    -0.124041917162E+03    0.21826E-04   -0.16840E-03  4992   0.143E-01    0.624E-02
DAV:   5    -0.124041921316E+03   -0.41538E-05   -0.73922E-05  5280   0.363E-02    0.225E-02
DAV:   6    -0.124041920159E+03    0.11569E-05   -0.33129E-05  5952   0.196E-02    0.781E-03
DAV:   7    -0.124041921282E+03   -0.11228E-05   -0.29333E-06  5856   0.676E-03    0.403E-03
DAV:   8    -0.124041924339E+03   -0.30568E-05   -0.16987E-06  6144   0.447E-03    0.133E-03
DAV:   9    -0.124041927050E+03   -0.27108E-05   -0.21491E-07  5952   0.161E-03    0.140E-03
DAV:  10    -0.124041931477E+03   -0.44275E-05   -0.25967E-07  5568   0.124E-03    0.495E-04
DAV:  11    -0.124041934305E+03   -0.28277E-05   -0.12818E-07  5808   0.838E-04    0.401E-04
DAV:  12    -0.124041935578E+03   -0.12736E-05   -0.15458E-08  5568   0.279E-04    0.208E-04
DAV:  13    -0.124041937534E+03   -0.19558E-05   -0.63309E-08  5232   0.419E-04    0.927E-05
DAV:  14    -0.124041937842E+03   -0.30728E-06   -0.49555E-09  6096   0.173E-04
  36 F= -.12588902E+03 E0= -.12588607E+03  d E =-.107223E+00  mag=    -0.0000
 curvature:  -0.48 expect dE=-0.122E-01 dE for cont linesearch -0.258E-02
 ZBRENT: extrapolating
 opt :   0.2932  next Energy=  -125.891722 (dE=-0.110E+00)
 bond charge predicted
       N       E                     dE             d eps       ncg     rms          rms(c)
DAV:   1    -0.124047122524E+03   -0.51850E-02   -0.53877E-01  3648   0.286E+00    0.132E-01
DAV:   2    -0.124047113219E+03    0.93044E-05   -0.74081E-03  6048   0.346E-01    0.850E-02
DAV:   3    -0.124047031726E+03    0.81493E-04   -0.85179E-04  6144   0.104E-01    0.319E-02
DAV:   4    -0.124047029995E+03    0.17305E-05   -0.16958E-04  4896   0.455E-02    0.204E-02
DAV:   5    -0.124047031691E+03   -0.16955E-05   -0.79281E-06  5184   0.120E-02    0.686E-03
DAV:   6    -0.124047031664E+03    0.26619E-07   -0.31811E-06  5424   0.617E-03
  37 F= -.12589167E+03 E0= -.12588872E+03  d E =-.109877E+00  mag=     0.0000
 curvature:  -0.50 expect dE=-0.494E-02 dE for cont linesearch -0.111E-05
 ZBRENT: bracketing found
 ZBRENT: interpolating
 opt :   0.2923  next Energy=  -125.891673 (dE=-0.110E+00)
 bond charge predicted
       N       E                     dE             d eps       ncg     rms          rms(c)
DAV:   1    -0.124046984023E+03    0.47667E-04   -0.21025E-04  4416   0.569E-02    0.322E-03
DAV:   2    -0.124046984097E+03   -0.74057E-07   -0.31721E-06  6240   0.708E-03
  38 F= -.12589167E+03 E0= -.12588872E+03  d E =-.109879E+00  mag=     0.0000
 curvature:  -0.49 expect dE=-0.480E-02 dE for cont linesearch -0.363E-09
 trial: gam= 0.01331 g(F)=  0.985E-02 g(S)=  0.000E+00 ort =-0.436E-04 (trialstep = 0.782E-01)
 search vector abs. value=  0.103E-01
 bond charge predicted
       N       E                     dE             d eps       ncg     rms          rms(c)
DAV:   1    -0.124047791835E+03   -0.80781E-03   -0.59138E-03  3840   0.300E-01    0.150E-02
DAV:   2    -0.124047789161E+03    0.26740E-05   -0.60174E-05  6432   0.313E-02    0.832E-03
DAV:   3    -0.124047788602E+03    0.55872E-06   -0.62980E-06  3840   0.869E-03
  39 F= -.12589242E+03 E0= -.12588948E+03  d E =-.749616E-03  mag=    -0.0000
 ZBRENT: can't locate minimum, use default step
 trial-energy change:   -0.000750  1 .order   -0.000748   -0.000770   -0.000726
 step:   0.3129(harm=  1.3678)  dis= 0.00335  next Energy=  -125.898409 (dE=-0.674E-02)
 bond charge predicted
       N       E                     dE             d eps       ncg     rms          rms(c)
DAV:   1    -0.124049972705E+03   -0.21835E-02   -0.53114E-02  3648   0.899E-01    0.456E-02
DAV:   2    -0.124049949516E+03    0.23189E-04   -0.54122E-04  7104   0.939E-02    0.255E-02
DAV:   3    -0.124049941810E+03    0.77055E-05   -0.56515E-05  4128   0.260E-02    0.717E-03
DAV:   4    -0.124049942758E+03   -0.94816E-06   -0.67611E-06  5472   0.968E-03
  40 F= -.12589441E+03 E0= -.12589150E+03  d E =-.273934E-02  mag=    -0.0000
 curvature:  -0.24 expect dE=-0.154E-02 dE for cont linesearch -0.134E-02
 ZBRENT: increasing intervall
 opt :   0.7823  next Energy=  -125.897217 (dE=-0.554E-02)
 bond charge predicted
       N       E                     dE             d eps       ncg     rms          rms(c)
DAV:   1    -0.124053203571E+03   -0.32618E-02   -0.21247E-01  3648   0.180E+00    0.906E-02
DAV:   2    -0.124053117129E+03    0.86442E-04   -0.21549E-03  7104   0.188E-01    0.506E-02
DAV:   3    -0.124053079192E+03    0.37937E-04   -0.22671E-04  4800   0.519E-02    0.142E-02
DAV:   4    -0.124053082141E+03   -0.29492E-05   -0.25997E-05  6432   0.190E-02    0.573E-03
DAV:   5    -0.124053083057E+03   -0.91601E-06   -0.64393E-07  4992   0.330E-03
  41 F= -.12589723E+03 E0= -.12589437E+03  d E =-.555181E-02  mag=     0.0000
 curvature:  -0.50 expect dE=-0.279E-02 dE for cont linesearch -0.896E-03
 ZBRENT: increasing intervall
 opt :   1.7210  next Energy=  -125.898161 (dE=-0.649E-02)
 bond charge predicted
       N       E                     dE             d eps       ncg     rms          rms(c)
DAV:   1    -0.124055185599E+03   -0.21035E-02   -0.85018E-01  3648   0.360E+00    0.181E-01
DAV:   2    -0.124054833358E+03    0.35224E-03   -0.85732E-03  7296   0.374E-01    0.101E-01
DAV:   3    -0.124054673591E+03    0.15977E-03   -0.91873E-04  5088   0.104E-01    0.281E-02
DAV:   4    -0.124054680431E+03   -0.68406E-05   -0.10093E-04  6144   0.377E-02    0.115E-02
DAV:   5    -0.124054683143E+03   -0.27111E-05   -0.27404E-06  5472   0.679E-03    0.440E-03
DAV:   6    -0.124054683823E+03   -0.68084E-06   -0.95979E-07  5280   0.331E-03
  42 F= -.12589817E+03 E0= -.12589547E+03  d E =-.650121E-02  mag=     0.0000
 curvature:  -0.52 expect dE=-0.970E-02 dE for cont linesearch -0.266E-03
 ZBRENT: bracketing found
 ZBRENT: interpolating
 opt :   1.3944  next Energy=  -125.898550 (dE=-0.688E-02)
 bond charge predicted
       N       E                     dE             d eps       ncg     rms          rms(c)
DAV:   1    -0.124054893439E+03   -0.21030E-03   -0.10282E-01  3648   0.125E+00    0.631E-02
DAV:   2    -0.124054849298E+03    0.44141E-04   -0.10454E-03  7200   0.131E-01    0.352E-02
DAV:   3    -0.124054832290E+03    0.17008E-04   -0.10929E-04  5088   0.359E-02    0.981E-03
DAV:   4    -0.124054834036E+03   -0.17465E-05   -0.11900E-05  5856   0.130E-02    0.395E-03
DAV:   5    -0.124054834776E+03   -0.74030E-06   -0.34623E-07  4752   0.241E-03
  43 F= -.12589855E+03 E0= -.12589579E+03  d E =-.687813E-02  mag=    -0.0000
 curvature:  -0.73 expect dE=-0.869E-02 dE for cont linesearch -0.621E-08
 trial: gam= 1.20631 g(F)=  0.119E-01 g(S)=  0.000E+00 ort = 0.936E-05 (trialstep = 0.131E+00)
 search vector abs. value=  0.269E-01
 bond charge predicted
       N       E                     dE             d eps       ncg     rms          rms(c)
DAV:   1    -0.124056316169E+03   -0.14821E-02   -0.40953E-02  3648   0.795E-01    0.374E-02
DAV:   2    -0.124056314500E+03    0.16688E-05   -0.40408E-04  7296   0.821E-02    0.228E-02
DAV:   3    -0.124056309944E+03    0.45561E-05   -0.41482E-05  3936   0.229E-02    0.695E-03
DAV:   4    -0.124056310391E+03   -0.44773E-06   -0.75356E-06  6144   0.952E-03
  44 F= -.12589995E+03 E0= -.12589717E+03  d E =-.139933E-02  mag=    -0.0000
 ZBRENT: can't locate minimum, use default step
 trial-energy change:   -0.001399  1 .order   -0.001400   -0.001556   -0.001243
 step:   0.5229(harm=  0.6497)  dis= 0.00848  next Energy=  -125.902419 (dE=-0.387E-02)
 bond charge predicted
       N       E                     dE             d eps       ncg     rms          rms(c)
DAV:   1    -0.124058912681E+03   -0.26027E-02   -0.36889E-01  3648   0.239E+00    0.113E-01
DAV:   2    -0.124058909496E+03    0.31841E-05   -0.36119E-03  7296   0.245E-01    0.684E-02
DAV:   3    -0.124058858407E+03    0.51089E-04   -0.36828E-04  5280   0.680E-02    0.212E-02
DAV:   4    -0.124058860023E+03   -0.16164E-05   -0.63943E-05  5472   0.275E-02    0.102E-02
DAV:   5    -0.124058861880E+03   -0.18565E-05   -0.24420E-06  5088   0.659E-03    0.415E-03
DAV:   6    -0.124058862071E+03   -0.19156E-06   -0.59110E-07  5808   0.277E-03
  45 F= -.12590227E+03 E0= -.12589944E+03  d E =-.371922E-02  mag=    -0.0000
 curvature:  -0.69 expect dE=-0.249E-02 dE for cont linesearch -0.138E-03
 ZBRENT: extrapolating
 opt :   0.6496  next Energy=  -125.902418 (dE=-0.387E-02)
 bond charge predicted
       N       E                     dE             d eps       ncg     rms          rms(c)
DAV:   1    -0.124059090352E+03   -0.22847E-03   -0.38521E-02  3648   0.771E-01    0.362E-02
DAV:   2    -0.124059088849E+03    0.15030E-05   -0.37999E-04  7200   0.797E-02    0.220E-02
DAV:   3    -0.124059084432E+03    0.44171E-05   -0.38580E-05  3936   0.222E-02    0.673E-03
DAV:   4    -0.124059084882E+03   -0.44941E-06   -0.70823E-06  6240   0.925E-03
  46 F= -.12590242E+03 E0= -.12589957E+03  d E =-.386623E-02  mag=    -0.0000
 curvature:  -0.73 expect dE=-0.358E-02 dE for cont linesearch -0.935E-09
 trial: gam= 0.41355 g(F)=  0.488E-02 g(S)=  0.000E+00 ort = 0.586E-05 (trialstep = 0.234E+00)
 search vector abs. value=  0.948E-02
 bond charge predicted
       N       E                     dE             d eps       ncg     rms          rms(c)
DAV:   1    -0.124060086954E+03   -0.10025E-02   -0.32937E-02  3648   0.715E-01    0.440E-02
DAV:   2    -0.124060047497E+03    0.39458E-04   -0.47175E-04  7200   0.855E-02    0.238E-02
DAV:   3    -0.124060036276E+03    0.11221E-04   -0.67122E-05  4416   0.271E-02    0.703E-03
DAV:   4    -0.124060036313E+03   -0.37298E-07   -0.84826E-06  5376   0.105E-02
  47 F= -.12590336E+03 E0= -.12590046E+03  d E =-.941435E-03  mag=    -0.0000
 trial-energy change:   -0.000941  1 .order   -0.000943   -0.001144   -0.000741
 step:   0.6655(harm=  0.6655)  dis= 0.00346  next Energy=  -125.904041 (dE=-0.162E-02)
 bond charge predicted
       N       E                     dE             d eps       ncg     rms          rms(c)
DAV:   1    -0.124060903614E+03   -0.86734E-03   -0.11131E-01  3648   0.131E+00    0.815E-02
DAV:   2    -0.124060767472E+03    0.13614E-03   -0.15863E-03  7200   0.157E-01    0.439E-02
DAV:   3    -0.124060729418E+03    0.38054E-04   -0.22707E-04  5232   0.497E-02    0.131E-02
DAV:   4    -0.124060729035E+03    0.38249E-06   -0.27746E-05  5040   0.190E-02    0.598E-03
DAV:   5    -0.124060729421E+03   -0.38569E-06   -0.11590E-06  4800   0.456E-03
  48 F= -.12590403E+03 E0= -.12590105E+03  d E =-.161398E-02  mag=     0.0000
 curvature:  -0.65 expect dE=-0.137E-02 dE for cont linesearch -0.795E-07
 trial: gam= 0.43827 g(F)=  0.212E-02 g(S)=  0.000E+00 ort =-0.341E-04 (trialstep = 0.321E+00)
 search vector abs. value=  0.392E-02
 bond charge predicted
       N       E                     dE             d eps       ncg     rms          rms(c)
DAV:   1    -0.124061349268E+03   -0.62023E-03   -0.16465E-02  3648   0.447E-01    0.285E-02
DAV:   2    -0.124061337695E+03    0.11573E-04   -0.18193E-04  5280   0.460E-02    0.152E-02
DAV:   3    -0.124061335374E+03    0.23210E-05   -0.15729E-05  5424   0.124E-02    0.537E-03
DAV:   4    -0.124061335500E+03   -0.12555E-06   -0.22259E-06  4704   0.468E-03
  49 F= -.12590466E+03 E0= -.12590166E+03  d E =-.623530E-03  mag=     0.0000
 ZBRENT: can't locate minimum, use default step
 trial-energy change:   -0.000624  1 .order   -0.000624   -0.000677   -0.000571
 step:   1.2828(harm=  2.0560)  dis= 0.00356  next Energy=  -125.906201 (dE=-0.217E-02)
 bond charge predicted
       N       E                     dE             d eps       ncg     rms          rms(c)
DAV:   1    -0.124062642117E+03   -0.13067E-02   -0.14815E-01  3648   0.134E+00    0.856E-02
DAV:   2    -0.124062540760E+03    0.10136E-03   -0.16260E-03  6144   0.137E-01    0.453E-02
DAV:   3    -0.124062518305E+03    0.22455E-04   -0.12837E-04  5136   0.350E-02    0.160E-02
DAV:   4    -0.124062518616E+03   -0.31146E-06   -0.18767E-05  4800   0.131E-02    0.402E-03
DAV:   5    -0.124062518908E+03   -0.29184E-06   -0.84368E-07  5088   0.379E-03
  50 F= -.12590589E+03 E0= -.12590288E+03  d E =-.185932E-02  mag=    -0.0000
 curvature:  -1.53 expect dE=-0.368E-02 dE for cont linesearch -0.242E-03
 ZBRENT: increasing intervall
 opt :   3.2070  next Energy=  -125.905494 (dE=-0.146E-02)
 bond charge predicted
       N       E                     dE             d eps       ncg     rms          rms(c)
DAV:   1    -0.124062532121E+03   -0.13505E-04   -0.59334E-01  3648   0.268E+00    0.171E-01
DAV:   2    -0.124062127800E+03    0.40432E-03   -0.65219E-03  6336   0.273E-01    0.905E-02
DAV:   3    -0.124062033036E+03    0.94764E-04   -0.50715E-04  5520   0.693E-02    0.319E-02
DAV:   4    -0.124062033513E+03   -0.47749E-06   -0.73809E-05  4944   0.261E-02    0.797E-03
DAV:   5    -0.124062034379E+03   -0.86569E-06   -0.34913E-06  4608   0.804E-03
  51 F= -.12590551E+03 E0= -.12590247E+03  d E =-.147964E-02  mag=     0.0000
 curvature:   2.51 expect dE= 0.346E-01 dE for cont linesearch  0.902E-03
 ZBRENT: bracketing found
 ZBRENT: interpolating
 opt :   2.0502  next Energy=  -125.906193 (dE=-0.216E-02)
 bond charge predicted
       N       E                     dE             d eps       ncg     rms          rms(c)
DAV:   1    -0.124062961317E+03   -0.92780E-03   -0.21423E-01  3648   0.161E+00    0.103E-01
DAV:   2    -0.124062812439E+03    0.14888E-03   -0.23570E-03  5376   0.165E-01    0.543E-02
DAV:   3    -0.124062779974E+03    0.32465E-04   -0.19747E-04  5472   0.439E-02    0.191E-02
DAV:   4    -0.124062781764E+03   -0.17893E-05   -0.31115E-05  5184   0.193E-02    0.501E-03
DAV:   5    -0.124062782226E+03   -0.46173E-06   -0.54858E-06  3888   0.113E-02
  52 F= -.12590620E+03 E0= -.12590317E+03  d E =-.216444E-02  mag=    -0.0000
 curvature:  -0.84 expect dE=-0.449E-02 dE for cont linesearch -0.338E-08
 trial: gam= 2.49112 g(F)=  0.534E-02 g(S)=  0.000E+00 ort = 0.397E-05 (trialstep = 0.880E-01)
 search vector abs. value=  0.297E-01
 bond charge predicted
       N       E                     dE             d eps       ncg     rms          rms(c)
DAV:   1    -0.124063217419E+03   -0.43566E-03   -0.97405E-03  3648   0.360E-01    0.202E-02
DAV:   2    -0.124063212031E+03    0.53882E-05   -0.70962E-05  5280   0.321E-02    0.114E-02
DAV:   3    -0.124063211823E+03    0.20799E-06   -0.13399E-05  5136   0.136E-02    0.283E-03
DAV:   4    -0.124063211837E+03   -0.13937E-07   -0.63140E-06  3648   0.123E-02
  53 F= -.12590664E+03 E0= -.12590362E+03  d E =-.444743E-03  mag=    -0.0000
 ZBRENT: can't locate minimum, use default step
 trial-energy change:   -0.000445  1 .order   -0.000444   -0.000471   -0.000418
 step:   0.3520(harm=  0.7830)  dis= 0.00266  next Energy=  -125.908291 (dE=-0.209E-02)
 bond charge predicted
       N       E                     dE             d eps       ncg     rms          rms(c)
DAV:   1    -0.124064235863E+03   -0.10240E-02   -0.87743E-02  3648   0.108E+00    0.610E-02
DAV:   2    -0.124064196489E+03    0.39374E-04   -0.61777E-04  7008   0.918E-02    0.345E-02
DAV:   3    -0.124064182384E+03    0.14105E-04   -0.88906E-05  4800   0.273E-02    0.804E-03
DAV:   4    -0.124064182948E+03   -0.56403E-06   -0.85567E-06  4752   0.117E-02
  54 F= -.12590766E+03 E0= -.12590464E+03  d E =-.146137E-02  mag=    -0.0000
 curvature:  -1.34 expect dE=-0.219E-02 dE for cont linesearch -0.395E-03
 ZBRENT: increasing intervall
 opt :   0.8801  next Energy=  -125.908277 (dE=-0.208E-02)
 bond charge predicted
       N       E                     dE             d eps       ncg     rms          rms(c)
DAV:   1    -0.124064932307E+03   -0.74992E-03   -0.35077E-01  3648   0.216E+00    0.122E-01
DAV:   2    -0.124064780435E+03    0.15187E-03   -0.24254E-03  7248   0.182E-01    0.686E-02
DAV:   3    -0.124064721240E+03    0.59195E-04   -0.35164E-04  4896   0.537E-02    0.157E-02
DAV:   4    -0.124064722794E+03   -0.15545E-05   -0.31235E-05  5040   0.219E-02    0.607E-03
DAV:   5    -0.124064723524E+03   -0.72990E-06   -0.39490E-06  5328   0.985E-03
  55 F= -.12590829E+03 E0= -.12590528E+03  d E =-.209349E-02  mag=     0.0000
 curvature:  -2.10 expect dE=-0.101E-02 dE for cont linesearch -0.224E-04
 ZBRENT: bracketing found
 ZBRENT: interpolating
 opt :   0.7957  next Energy=  -125.908313 (dE=-0.212E-02)
 bond charge predicted
       N       E                     dE             d eps       ncg     rms          rms(c)
DAV:   1    -0.124064768655E+03   -0.45860E-04   -0.89326E-03  3840   0.345E-01    0.194E-02
DAV:   2    -0.124064763177E+03    0.54773E-05   -0.64003E-05  5328   0.309E-02    0.109E-02
DAV:   3    -0.124064764604E+03   -0.14270E-05   -0.13662E-05  4032   0.146E-02    0.271E-03
DAV:   4    -0.124064764462E+03    0.14204E-06   -0.82016E-06  3696   0.140E-02
  56 F= -.12590832E+03 E0= -.12590530E+03  d E =-.211975E-02  mag=     0.0000
 curvature:  -2.22 expect dE=-0.711E-03 dE for cont linesearch -0.210E-09
 trial: gam= 0.08418 g(F)=  0.320E-03 g(S)=  0.000E+00 ort = 0.168E-05 (trialstep = 0.230E+00)
 search vector abs. value=  0.530E-03
 bond charge predicted
       N       E                     dE             d eps       ncg     rms          rms(c)
DAV:   1    -0.124064784835E+03   -0.20230E-04   -0.20427E-03  4992   0.194E-01    0.933E-03
DAV:   2    -0.124064784373E+03    0.46205E-06   -0.25608E-05  5424   0.213E-02    0.507E-03
DAV:   3    -0.124064784410E+03   -0.37218E-07   -0.34704E-06  5184   0.763E-03
  57 F= -.12590836E+03 E0= -.12590535E+03  d E =-.450053E-04  mag=    -0.0000
 trial-energy change:   -0.000045  1 .order   -0.000047   -0.000073   -0.000020
 step:   0.3171(harm=  0.3171)  dis= 0.00040  next Energy=  -125.908367 (dE=-0.507E-04)
 bond charge predicted
       N       E                     dE             d eps       ncg     rms          rms(c)
DAV:   1    -0.124064779070E+03    0.53028E-05   -0.30230E-04  4128   0.744E-02    0.437E-03
DAV:   2    -0.124064779150E+03   -0.80492E-07   -0.43851E-06  5136   0.919E-03
  58 F= -.12590837E+03 E0= -.12590535E+03  d E =-.492205E-04  mag=    -0.0000
 curvature:  -0.26 expect dE=-0.721E-05 dE for cont linesearch -0.273E-07
 ZBRENT: extrapolating
 opt :   0.3251  next Energy=  -125.908365 (dE=-0.493E-04)
 bond charge predicted
       N       E                     dE             d eps       ncg     rms          rms(c)
DAV:   1    -0.124064778423E+03    0.64687E-06   -0.25222E-06  4704   0.763E-03    0.140E-03
DAV:   2    -0.124064778380E+03    0.43290E-07   -0.28982E-07  3840   0.278E-03
  59 F= -.12590837E+03 E0= -.12590535E+03  d E =-.493161E-04  mag=    -0.0000
 curvature:  -0.29 expect dE=-0.842E-05 dE for cont linesearch -0.591E-08
 trial: gam= 0.10379 g(F)=  0.294E-04 g(S)=  0.000E+00 ort =-0.330E-05 (trialstep = 0.249E+00)
 search vector abs. value=  0.344E-04
 bond charge predicted
       N       E                     dE             d eps       ncg     rms          rms(c)
DAV:   1    -0.124064758914E+03    0.19509E-04   -0.18870E-04  4944   0.539E-02    0.284E-03
DAV:   2    -0.124064758694E+03    0.21976E-06   -0.20343E-06  3840   0.635E-03
  60 F= -.12590837E+03 E0= -.12590536E+03  d E =-.650181E-05  mag=    -0.0000
 ZBRENT: can't locate minimum, use default step
 trial-energy change:   -0.000007  1 .order   -0.000007   -0.000007   -0.000006
 step:   0.9947(harm=  1.2822)  dis= 0.00023  next Energy=  -125.908384 (dE=-0.186E-04)
 bond charge predicted
       N       E                     dE             d eps       ncg     rms          rms(c)
DAV:   1    -0.124064691552E+03    0.67361E-04   -0.16828E-03  3840   0.161E-01    0.869E-03
DAV:   2    -0.124064690350E+03    0.12023E-05   -0.17403E-05  5520   0.168E-02    0.479E-03
DAV:   3    -0.124064690454E+03   -0.10404E-06   -0.16782E-06  4608   0.534E-03
  61 F= -.12590838E+03 E0= -.12590537E+03  d E =-.168531E-04  mag=     0.0000
 curvature:  -0.70 expect dE=-0.135E-04 dE for cont linesearch -0.407E-06
 ZBRENT: extrapolating
 opt :   1.1709  next Energy=  -125.908382 (dE=-0.172E-04)
 bond charge predicted
       N       E                     dE             d eps       ncg     rms          rms(c)
DAV:   1    -0.124064672581E+03    0.17769E-04   -0.95396E-05  3840   0.387E-02    0.225E-03
DAV:   2    -0.124064672413E+03    0.16777E-06   -0.15245E-06  3744   0.597E-03
  62 F= -.12590838E+03 E0= -.12590537E+03  d E =-.173785E-04  mag=     0.0000
 curvature:  -0.68 expect dE=-0.165E-04 dE for cont linesearch -0.120E-07
 trial: gam= 0.78700 g(F)=  0.244E-04 g(S)=  0.000E+00 ort = 0.780E-06 (trialstep = 0.317E+00)
 search vector abs. value=  0.469E-04
 bond charge predicted
       N       E                     dE             d eps       ncg     rms          rms(c)
DAV:   1    -0.124064622343E+03    0.50237E-04   -0.40194E-04  4464   0.782E-02    0.452E-03
DAV:   2    -0.124064621871E+03    0.47204E-06   -0.57610E-06  4224   0.103E-02
  63 F= -.12590839E+03 E0= -.12590538E+03  d E =-.650843E-05  mag=     0.0000
 trial-energy change:   -0.000007  1 .order   -0.000007   -0.000008   -0.000005
 step:   1.0148(harm=  1.0148)  dis= 0.00060  next Energy=  -125.908395 (dE=-0.127E-04)
 bond charge predicted
       N       E                     dE             d eps       ncg     rms          rms(c)
DAV:   1    -0.124064502312E+03    0.12003E-03   -0.19125E-03  3840   0.171E-01    0.987E-03
DAV:   2    -0.124064500694E+03    0.16172E-05   -0.25954E-05  5664   0.207E-02    0.561E-03
DAV:   3    -0.124064500519E+03    0.17524E-06   -0.33098E-06  5184   0.738E-03
  64 F= -.12590839E+03 E0= -.12590538E+03  d E =-.105707E-04  mag=    -0.0000
 curvature:  -0.95 expect dE=-0.396E-04 dE for cont linesearch -0.437E-06
 ZBRENT: interpolating
 opt :   0.8666  next Energy=  -125.908393 (dE=-0.109E-04)
 bond charge predicted
       N       E                     dE             d eps       ncg     rms          rms(c)
DAV:   1    -0.124064527691E+03   -0.26997E-04   -0.86779E-05  3696   0.369E-02    0.174E-03
DAV:   2    -0.124064527571E+03    0.12051E-06   -0.21439E-06  4368   0.709E-03
  65 F= -.12590839E+03 E0= -.12590538E+03  d E =-.109787E-04  mag=    -0.0000
 curvature:  -0.75 expect dE=-0.218E-04 dE for cont linesearch -0.824E-09
 trial: gam= 1.24044 g(F)=  0.291E-04 g(S)=  0.000E+00 ort =-0.227E-06 (trialstep = 0.199E+00)
 search vector abs. value=  0.101E-03
 bond charge predicted
       N       E                     dE             d eps       ncg     rms          rms(c)
DAV:   1    -0.124064470760E+03    0.56931E-04   -0.32436E-04  3648   0.683E-02    0.309E-03
DAV:   2    -0.124064470602E+03    0.15797E-06   -0.43584E-06  3648   0.925E-03
  66 F= -.12590840E+03 E0= -.12590539E+03  d E =-.550675E-05  mag=    -0.0000
 ZBRENT: can't locate minimum, use default step
 trial-energy change:   -0.000006  1 .order   -0.000006   -0.000006   -0.000006
 step:   0.7962(harm=  5.3570)  dis= 0.00090  next Energy=  -125.908471 (dE=-0.771E-04)
 bond charge predicted
       N       E                     dE             d eps       ncg     rms          rms(c)
DAV:   1    -0.124064298221E+03    0.17254E-03   -0.28327E-03  3792   0.203E-01    0.103E-02
DAV:   2    -0.124064297137E+03    0.10841E-05   -0.33355E-05  4464   0.236E-02    0.630E-03
DAV:   3    -0.124064296897E+03    0.24012E-06   -0.51181E-06  5376   0.888E-03
  67 F= -.12590841E+03 E0= -.12590540E+03  d E =-.192535E-04  mag=    -0.0000
 curvature:  -2.04 expect dE=-0.649E-04 dE for cont linesearch -0.656E-05
 ZBRENT: increasing intervall
 opt :   1.9905  next Energy=  -125.908423 (dE=-0.291E-04)
 bond charge predicted
       N       E                     dE             d eps       ncg     rms          rms(c)
DAV:   1    -0.124063941319E+03    0.35582E-03   -0.11539E-02  3648   0.408E-01    0.204E-02
DAV:   2    -0.124063937548E+03    0.37713E-05   -0.13263E-04  3744   0.471E-02    0.124E-02
DAV:   3    -0.124063936294E+03    0.12543E-05   -0.20157E-05  5376   0.168E-02    0.333E-03
DAV:   4    -0.124063936492E+03   -0.19882E-06   -0.42138E-06  3840   0.992E-03
  68 F= -.12590843E+03 E0= -.12590542E+03  d E =-.338799E-04  mag=     0.0000
 curvature:  -3.07 expect dE=-0.366E-03 dE for cont linesearch -0.701E-06
 trial: gam= 3.90850 g(F)=  0.119E-03 g(S)=  0.000E+00 ort = 0.480E-05 (trialstep = 0.331E-01)
 search vector abs. value=  0.170E-02
 bond charge predicted
       N       E                     dE             d eps       ncg     rms          rms(c)
DAV:   1    -0.124063897687E+03    0.38607E-04   -0.14977E-04  3840   0.466E-02    0.265E-03
DAV:   2    -0.124063897595E+03    0.91967E-07   -0.23873E-06  3984   0.741E-03
  69 F= -.12590843E+03 E0= -.12590542E+03  d E =-.428478E-05  mag=     0.0000
 ZBRENT: can't locate minimum, use default step
 trial-energy change:   -0.000004  1 .order   -0.000005   -0.000005   -0.000005
 step:   0.1324(harm=  0.1324)  dis= 0.00064  next Energy=  -125.908446 (dE=-0.187E-04)
 bond charge predicted
       N       E                     dE             d eps       ncg     rms          rms(c)
DAV:   1    -0.124063781906E+03    0.11578E-03   -0.13043E-03  3648   0.137E-01    0.700E-03
DAV:   2    -0.124063781505E+03    0.40041E-06   -0.15763E-05  3648   0.167E-02    0.433E-03
DAV:   3    -0.124063781508E+03   -0.26403E-08   -0.27132E-06  4128   0.726E-03
  70 F= -.12590845E+03 E0= -.12590544E+03  d E =-.177637E-04  mag=    -0.0000
 curvature:  -1.23 expect dE=-0.120E-03 dE for cont linesearch -0.118E-04
 ZBRENT: increasing intervall
 opt :   0.3311  next Energy=  -125.908468 (dE=-0.408E-04)
 bond charge predicted
       N       E                     dE             d eps       ncg     rms          rms(c)
DAV:   1    -0.124063549611E+03    0.23189E-03   -0.53001E-03  3648   0.274E-01    0.136E-02
DAV:   2    -0.124063548150E+03    0.14611E-05   -0.60391E-05  4272   0.319E-02    0.827E-03
DAV:   3    -0.124063547686E+03    0.46406E-06   -0.81553E-06  4608   0.113E-02
  71 F= -.12590847E+03 E0= -.12590547E+03  d E =-.431313E-04  mag=     0.0000
 curvature:  -2.39 expect dE=-0.176E-03 dE for cont linesearch -0.189E-04
 ZBRENT: increasing intervall
 opt :   0.7285  next Energy=  -125.908512 (dE=-0.843E-04)
 bond charge predicted
       N       E                     dE             d eps       ncg     rms          rms(c)
DAV:   1    -0.124063082268E+03    0.46588E-03   -0.21193E-02  3648   0.549E-01    0.272E-02
DAV:   2    -0.124063076304E+03    0.59637E-05   -0.23690E-04  4368   0.623E-02    0.165E-02
DAV:   3    -0.124063074237E+03    0.20678E-05   -0.29708E-05  4800   0.201E-02    0.464E-03
DAV:   4    -0.124063074458E+03   -0.22183E-06   -0.58527E-06  3936   0.114E-02
  72 F= -.12590852E+03 E0= -.12590552E+03  d E =-.886543E-04  mag=     0.0000
 curvature:  -5.21 expect dE=-0.257E-03 dE for cont linesearch -0.334E-04
 ZBRENT: increasing intervall
 opt :   1.5231  next Energy=  -125.908590 (dE=-0.162E-03)
 bond charge predicted
       N       E                     dE             d eps       ncg     rms          rms(c)
DAV:   1    -0.124062139031E+03    0.93521E-03   -0.84565E-02  3648   0.110E+00    0.539E-02
DAV:   2    -0.124062114272E+03    0.24759E-04   -0.92863E-04  4320   0.121E-01    0.323E-02
DAV:   3    -0.124062102654E+03    0.11618E-04   -0.11526E-04  5040   0.368E-02    0.841E-03
DAV:   4    -0.124062103478E+03   -0.82420E-06   -0.14662E-05  5568   0.137E-02    0.341E-03
DAV:   5    -0.124062103559E+03   -0.81244E-07   -0.95377E-07  4896   0.444E-03
  73 F= -.12590858E+03 E0= -.12590560E+03  d E =-.156535E-03  mag=    -0.0000
 curvature: -11.51 expect dE=-0.100E-02 dE for cont linesearch -0.306E-04
 ZBRENT: increasing intervall
 opt :   3.1125  next Energy=  -125.908632 (dE=-0.204E-03)
 bond charge predicted
       N       E                     dE             d eps       ncg     rms          rms(c)
DAV:   1    -0.124060214304E+03    0.18892E-02   -0.33815E-01  3648   0.219E+00    0.107E-01
DAV:   2    -0.124060119374E+03    0.94930E-04   -0.36898E-03  4992   0.240E-01    0.634E-02
DAV:   3    -0.124060066538E+03    0.52836E-04   -0.44799E-04  5376   0.715E-02    0.163E-02
DAV:   4    -0.124060067255E+03   -0.71721E-06   -0.51313E-05  6240   0.249E-02    0.637E-03
DAV:   5    -0.124060067617E+03   -0.36177E-06   -0.22511E-06  5616   0.503E-03
  74 F= -.12590863E+03 E0= -.12590569E+03  d E =-.203341E-03  mag=    -0.0000
 curvature: -17.94 expect dE=-0.931E-02 dE for cont linesearch -0.127E-05
 trial: gam= 5.47821 g(F)=  0.519E-03 g(S)=  0.000E+00 ort =-0.110E-04 (trialstep = 0.215E-01)
 search vector abs. value=  0.513E-01
 bond charge predicted
       N       E                     dE             d eps       ncg     rms          rms(c)
DAV:   1    -0.124059923420E+03    0.14383E-03   -0.18864E-03  3648   0.163E-01    0.772E-03
DAV:   2    -0.124059923645E+03   -0.22468E-06   -0.20518E-05  5472   0.182E-02    0.464E-03
DAV:   3    -0.124059923777E+03   -0.13192E-06   -0.23469E-06  5664   0.527E-03
  75 F= -.12590864E+03 E0= -.12590571E+03  d E =-.106818E-04  mag=    -0.0000
 ZBRENT: can't locate minimum, use default step
 trial-energy change:   -0.000011  1 .order   -0.000010   -0.000010   -0.000010
 step:   0.0858(harm=  0.9772)  dis= 0.00235  next Energy=  -125.908855 (dE=-0.224E-03)
 bond charge predicted
       N       E                     dE             d eps       ncg     rms          rms(c)
DAV:   1    -0.124059496749E+03    0.42690E-03   -0.16808E-02  3648   0.488E-01    0.239E-02
DAV:   2    -0.124059492339E+03    0.44099E-05   -0.17510E-04  5088   0.527E-02    0.143E-02
DAV:   3    -0.124059490629E+03    0.17102E-05   -0.22331E-05  4080   0.160E-02    0.359E-03
DAV:   4    -0.124059490943E+03   -0.31444E-06   -0.31031E-06  5136   0.626E-03
  76 F= -.12590867E+03 E0= -.12590575E+03  d E =-.424248E-04  mag=     0.0000
 curvature:  -7.11 expect dE=-0.334E-02 dE for cont linesearch -0.254E-04
 ZBRENT: increasing intervall
 opt :   0.2146  next Energy=  -125.908726 (dE=-0.950E-04)
 bond charge predicted
       N       E                     dE             d eps       ncg     rms          rms(c)
DAV:   1    -0.124058638517E+03    0.85211E-03   -0.67130E-02  3648   0.975E-01    0.474E-02
DAV:   2    -0.124058620397E+03    0.18120E-04   -0.70002E-04  4896   0.105E-01    0.284E-02
DAV:   3    -0.124058610872E+03    0.95259E-05   -0.90745E-05  4608   0.322E-02    0.692E-03
DAV:   4    -0.124058611568E+03   -0.69600E-06   -0.12050E-05  5376   0.119E-02    0.288E-03
DAV:   5    -0.124058611731E+03   -0.16339E-06   -0.44635E-07  4464   0.254E-03
  77 F= -.12590872E+03 E0= -.12590582E+03  d E =-.932624E-04  mag=    -0.0000
 curvature: -14.68 expect dE=-0.595E-02 dE for cont linesearch -0.335E-04
 ZBRENT: increasing intervall
 opt :   0.4721  next Energy=  -125.908790 (dE=-0.159E-03)
 bond charge predicted
       N       E                     dE             d eps       ncg     rms          rms(c)
DAV:   1    -0.124056922304E+03    0.16893E-02   -0.26845E-01  3648   0.195E+00    0.938E-02
DAV:   2    -0.124056853468E+03    0.68836E-04   -0.28126E-03  4992   0.210E-01    0.561E-02
DAV:   3    -0.124056812169E+03    0.41299E-04   -0.36110E-04  4944   0.638E-02    0.135E-02
DAV:   4    -0.124056813199E+03   -0.10302E-05   -0.44740E-05  6624   0.230E-02    0.544E-03
DAV:   5    -0.124056813528E+03   -0.32916E-06   -0.16365E-06  4896   0.410E-03
  78 F= -.12590879E+03 E0= -.12590594E+03  d E =-.159552E-03  mag=    -0.0000
 curvature: -28.87 expect dE=-0.875E-02 dE for cont linesearch -0.142E-04
 ZBRENT: increasing intervall
 opt :   0.9870  next Energy=  -125.908778 (dE=-0.147E-03)
 bond charge predicted
       N       E                     dE             d eps       ncg     rms          rms(c)
DAV:   1    -0.124053489593E+03    0.33236E-02   -0.10742E+00  3648   0.390E+00    0.187E-01
DAV:   2    -0.124053242588E+03    0.24700E-03   -0.11320E-02  5376   0.421E-01    0.112E-01
DAV:   3    -0.124053060710E+03    0.18188E-03   -0.14431E-03  5280   0.127E-01    0.268E-02
DAV:   4    -0.124053061689E+03   -0.97897E-06   -0.16624E-04  6720   0.449E-02    0.109E-02
DAV:   5    -0.124053061158E+03    0.53052E-06   -0.68994E-06  5760   0.835E-03
  79 F= -.12590878E+03 E0= -.12590604E+03  d E =-.152454E-03  mag=    -0.0000
 curvature:  25.81 expect dE= 0.533E-02 dE for cont linesearch  0.258E-04
 ZBRENT: bracketing found
 ZBRENT: interpolating
 opt :   0.6845  next Energy=  -125.908807 (dE=-0.176E-03)
 bond charge predicted
       N       E                     dE             d eps       ncg     rms          rms(c)
DAV:   1    -0.124055435101E+03   -0.23734E-02   -0.37003E-01  3648   0.229E+00    0.110E-01
DAV:   2    -0.124055344942E+03    0.90159E-04   -0.39421E-03  5376   0.248E-01    0.661E-02
DAV:   3    -0.124055291493E+03    0.53449E-04   -0.50046E-04  5136   0.737E-02    0.158E-02
DAV:   4    -0.124055293914E+03   -0.24214E-05   -0.54682E-05  4512   0.263E-02    0.650E-03
DAV:   5    -0.124055295372E+03   -0.14577E-05   -0.26583E-06  4320   0.566E-03    0.138E-03
DAV:   6    -0.124055295658E+03   -0.28627E-06   -0.23067E-07  5664   0.192E-03
  80 F= -.12590881E+03 E0= -.12590601E+03  d E =-.183813E-03  mag=     0.0000
 curvature: -16.90 expect dE=-0.415E-02 dE for cont linesearch -0.327E-06
 trial: gam=-0.14233 g(F)=  0.246E-03 g(S)=  0.000E+00 ort = 0.315E-04 (trialstep = 0.154E+00)
 search vector abs. value=  0.128E-02
 bond charge predicted
       N       E                     dE             d eps       ncg     rms          rms(c)
DAV:   1    -0.124055494395E+03   -0.19902E-03   -0.24786E-03  5568   0.190E-01    0.111E-02
DAV:   2    -0.124055491348E+03    0.30465E-05   -0.35088E-05  4992   0.220E-02    0.568E-03
DAV:   3    -0.124055491076E+03    0.27257E-06   -0.31221E-06  6816   0.623E-03
  81 F= -.12590885E+03 E0= -.12590603E+03  d E =-.307088E-04  mag=    -0.0000
 trial-energy change:   -0.000031  1 .order   -0.000030   -0.000037   -0.000023
 step:   0.3925(harm=  0.3925)  dis= 0.00085  next Energy=  -125.908862 (dE=-0.473E-04)
 bond charge predicted
       N       E                     dE             d eps       ncg     rms          rms(c)
DAV:   1    -0.124055771947E+03   -0.28060E-03   -0.59174E-03  4800   0.294E-01    0.174E-02
DAV:   2    -0.124055764622E+03    0.73248E-05   -0.89371E-05  4992   0.354E-02    0.921E-03
DAV:   3    -0.124055763757E+03    0.86531E-06   -0.82531E-06  7104   0.101E-02
  82 F= -.12590886E+03 E0= -.12590604E+03  d E =-.485143E-04  mag=     0.0000
 curvature:  -1.04 expect dE=-0.310E-04 dE for cont linesearch -0.262E-09
 trial: gam= 0.10584 g(F)=  0.299E-04 g(S)=  0.000E+00 ort =-0.568E-06 (trialstep = 0.202E+00)
 search vector abs. value=  0.441E-04
 bond charge predicted
       N       E                     dE             d eps       ncg     rms          rms(c)
DAV:   1    -0.124055796725E+03   -0.32103E-04   -0.15609E-04  3888   0.495E-02    0.291E-03
DAV:   2    -0.124055796671E+03    0.53887E-07   -0.17657E-06  6240   0.544E-03
  83 F= -.12590887E+03 E0= -.12590605E+03  d E =-.547778E-05  mag=     0.0000
 ZBRENT: can't locate minimum, use default step
 trial-energy change:   -0.000005  1 .order   -0.000005   -0.000006   -0.000005
 step:   0.8070(harm=  1.0363)  dis= 0.00044  next Energy=  -125.908878 (dE=-0.155E-04)
 bond charge predicted
       N       E                     dE             d eps       ncg     rms          rms(c)
DAV:   1    -0.124055887688E+03   -0.90963E-04   -0.13828E-03  3648   0.147E-01    0.747E-03
DAV:   2    -0.124055887118E+03    0.56906E-06   -0.15038E-05  4608   0.158E-02    0.463E-03
DAV:   3    -0.124055887098E+03    0.20290E-07   -0.22729E-06  5040   0.534E-03
  84 F= -.12590888E+03 E0= -.12590605E+03  d E =-.135824E-04  mag=     0.0000
 curvature:  -0.71 expect dE=-0.210E-04 dE for cont linesearch -0.968E-07
 trial: gam= 0.91265 g(F)=  0.296E-04 g(S)=  0.000E+00 ort = 0.246E-05 (trialstep = 0.201E+00)
 search vector abs. value=  0.708E-04
 bond charge predicted
       N       E                     dE             d eps       ncg     rms          rms(c)
DAV:   1    -0.124055920689E+03   -0.33571E-04   -0.21391E-04  3744   0.580E-02    0.311E-03
DAV:   2    -0.124055920602E+03    0.86954E-07   -0.19804E-06  5760   0.578E-03
  85 F= -.12590888E+03 E0= -.12590606E+03  d E =-.588909E-05  mag=     0.0000
 ZBRENT: can't locate minimum, use default step
 trial-energy change:   -0.000006  1 .order   -0.000006   -0.000006   -0.000005
 step:   0.8035(harm=  1.2968)  dis= 0.00063  next Energy=  -125.908897 (dE=-0.207E-04)
 bond charge predicted
       N       E                     dE             d eps       ncg     rms          rms(c)
DAV:   1    -0.124056014609E+03   -0.93920E-04   -0.18913E-03  3648   0.173E-01    0.858E-03
DAV:   2    -0.124056013838E+03    0.77111E-06   -0.17101E-05  5184   0.170E-02    0.516E-03
DAV:   3    -0.124056013846E+03   -0.76570E-08   -0.25886E-06  3936   0.570E-03
  86 F= -.12590889E+03 E0= -.12590607E+03  d E =-.162883E-04  mag=    -0.0000
 curvature:  -1.15 expect dE=-0.203E-04 dE for cont linesearch -0.797E-06
 ZBRENT: extrapolating
 opt :   1.0155  next Energy=  -125.908894 (dE=-0.170E-04)
 bond charge predicted
       N       E                     dE             d eps       ncg     rms          rms(c)
DAV:   1    -0.124056044222E+03   -0.30383E-04   -0.24268E-04  4128   0.617E-02    0.335E-03
DAV:   2    -0.124056044112E+03    0.10915E-06   -0.23083E-06  6240   0.640E-03
[...]
  96 F= -.12590894E+03 E0= -.12590615E+03  d E =-.553567E-05  mag=    -0.0000
 curvature:  -3.27 expect dE=-0.215E-04 dE for cont linesearch -0.242E-07
 trial: gam= 0.34258 g(F)=  0.657E-05 g(S)=  0.000E+00 ort =-0.880E-06 (trialstep = 0.403E+00)
 search vector abs. value=  0.182E-04
 bond charge predicted
       N       E                     dE             d eps       ncg     rms          rms(c)
DAV:   1    -0.124056649387E+03   -0.23385E-04   -0.16964E-04  3648   0.491E-02    0.254E-03
DAV:   2    -0.124056649274E+03    0.11260E-06   -0.20503E-06  4368   0.543E-03
  97 F= -.12590894E+03 E0= -.12590615E+03  d E =-.219871E-05  mag=    -0.0000
 ZBRENT: can't locate minimum, use default step
 trial-energy change:   -0.000002  1 .order   -0.000002   -0.000003   -0.000002
 step:   1.6112(harm=  1.6166)  dis= 0.00103  next Energy=  -125.908948 (dE=-0.507E-05)
 bond charge predicted
       N       E                     dE             d eps       ncg     rms          rms(c)
DAV:   1    -0.124056715369E+03   -0.65982E-04   -0.14702E-03  3648   0.146E-01    0.831E-03
DAV:   2    -0.124056714274E+03    0.10952E-05   -0.16375E-05  5760   0.151E-02    0.453E-03
DAV:   3    -0.124056714171E+03    0.10228E-06   -0.14672E-06  5424   0.399E-03
  98 F= -.12590895E+03 E0= -.12590616E+03  d E =-.360402E-05  mag=     0.0000
 curvature:  -2.35 expect dE=-0.432E-04 dE for cont linesearch -0.522E-06
 ZBRENT: interpolating
 opt :   1.2493  next Energy=  -125.908947 (dE=-0.397E-05)
 bond charge predicted
       N       E                     dE             d eps       ncg     rms          rms(c)
DAV:   1    -0.124056695700E+03    0.18574E-04   -0.13412E-04  3696   0.438E-02    0.218E-03
DAV:   2    -0.124056695617E+03    0.82504E-07   -0.16371E-06  4944   0.484E-03
  99 F= -.12590895E+03 E0= -.12590616E+03  d E =-.406489E-05  mag=     0.0000
 curvature:  -1.64 expect dE=-0.179E-04 dE for cont linesearch -0.124E-07
 trial: gam= 1.67631 g(F)=  0.109E-04 g(S)=  0.000E+00 ort =-0.372E-06 (trialstep = 0.171E+00)
 search vector abs. value=  0.609E-04
 bond charge predicted
       N       E                     dE             d eps       ncg     rms          rms(c)
DAV:   1    -0.124056713847E+03   -0.18147E-04   -0.96459E-05  3648   0.360E-02    0.153E-03
DAV:   2    -0.124056713846E+03    0.12424E-08   -0.79098E-07  3840   0.362E-03
 100 F= -.12590895E+03 E0= -.12590616E+03  d E =-.168850E-05  mag=     0.0000
 ZBRENT: can't locate minimum, use default step
 trial-energy change:   -0.000002  1 .order   -0.000002   -0.000002   -0.000002
 step:   0.6849(harm=  2.1291)  dis= 0.00074  next Energy=  -125.908958 (dE=-0.110E-04)
 bond charge predicted
       N       E                     dE             d eps       ncg     rms          rms(c)
DAV:   1    -0.124056767427E+03   -0.53579E-04   -0.83887E-04  3648   0.107E-01    0.550E-03
DAV:   2    -0.124056767181E+03    0.24555E-06   -0.65662E-06  4992   0.102E-02
 101 F= -.12590895E+03 E0= -.12590617E+03  d E =-.540753E-05  mag=     0.0000
 curvature:  -2.87 expect dE=-0.216E-04 dE for cont linesearch -0.187E-05
 ZBRENT: increasing intervall
 opt :   1.7123  next Energy=  -125.908955 (dE=-0.862E-05)
 bond charge predicted
       N       E                     dE             d eps       ncg     rms          rms(c)
DAV:   1    -0.124056868506E+03   -0.10108E-03   -0.33318E-03  3648   0.214E-01    0.111E-02
DAV:   2    -0.124056867693E+03    0.81301E-06   -0.25795E-05  5472   0.201E-02    0.652E-03
DAV:   3    -0.124056867569E+03    0.12472E-06   -0.34188E-06  4176   0.612E-03
 102 F= -.12590895E+03 E0= -.12590618E+03  d E =-.658087E-05  mag=     0.0000
 curvature:  -4.93 expect dE=-0.133E-03 dE for cont linesearch -0.966E-06
 ZBRENT: bracketing found
 ZBRENT: interpolating
 opt :   1.3485  next Energy=  -125.908954 (dE=-0.721E-05)
 bond charge predicted
       N       E                     dE             d eps       ncg     rms          rms(c)
DAV:   1    -0.124056833237E+03    0.34456E-04   -0.42127E-04  3744   0.757E-02    0.356E-03
DAV:   2    -0.124056833083E+03    0.15419E-06   -0.36450E-06  4896   0.759E-03
 103 F= -.12590895E+03 E0= -.12590618E+03  d E =-.722270E-05  mag=    -0.0000
 curvature:  -3.21 expect dE=-0.518E-04 dE for cont linesearch -0.370E-07
 trial: gam= 1.46233 g(F)=  0.161E-04 g(S)=  0.000E+00 ort =-0.839E-06 (trialstep = 0.172E+00)
 search vector abs. value=  0.144E-03
 bond charge predicted
       N       E                     dE             d eps       ncg     rms          rms(c)
DAV:   1    -0.124056860656E+03   -0.27419E-04   -0.21821E-04  4128   0.512E-02    0.229E-03
DAV:   2    -0.124056860635E+03    0.20848E-07   -0.17352E-06  3888   0.555E-03
 104 F= -.12590896E+03 E0= -.12590618E+03  d E =-.265142E-05  mag=    -0.0000
 ZBRENT: can't locate minimum, use default step
 trial-energy change:   -0.000003  1 .order   -0.000003   -0.000003   -0.000003
 step:   0.6884(harm=  0.6884)  dis= 0.00109  next Energy=  -125.908965 (dE=-0.112E-04)
 bond charge predicted
       N       E                     dE             d eps       ncg     rms          rms(c)
DAV:   1    -0.124056942675E+03   -0.82019E-04   -0.18597E-03  3648   0.151E-01    0.789E-03
DAV:   2    -0.124056942433E+03    0.24231E-06   -0.13582E-05  4128   0.150E-02    0.470E-03
DAV:   3    -0.124056942435E+03   -0.26093E-08   -0.23235E-06  3744   0.592E-03
 105 F= -.12590896E+03 E0= -.12590620E+03  d E =-.975899E-05  mag=     0.0000
 curvature:  -5.08 expect dE=-0.711E-04 dE for cont linesearch -0.437E-05
 ZBRENT: increasing intervall
 opt :   1.7210  next Energy=  -125.908971 (dE=-0.166E-04)
 bond charge predicted
       N       E                     dE             d eps       ncg     rms          rms(c)
DAV:   1    -0.124057101544E+03   -0.15911E-03   -0.75354E-03  3648   0.303E-01    0.156E-02
DAV:   2    -0.124057100844E+03    0.70036E-06   -0.54084E-05  4896   0.299E-02    0.927E-03
DAV:   3    -0.124057100450E+03    0.39422E-06   -0.83802E-06  3744   0.104E-02
 106 F= -.12590897E+03 E0= -.12590623E+03  d E =-.183967E-04  mag=    -0.0000
 curvature:  -7.99 expect dE=-0.285E-03 dE for cont linesearch -0.104E-05
 ZBRENT: increasing intervall
 opt :   3.7862  next Energy=  -125.908967 (dE=-0.133E-04)
 bond charge predicted
       N       E                     dE             d eps       ncg     rms          rms(c)
DAV:   1    -0.124057404154E+03   -0.30331E-03   -0.30156E-02  3648   0.607E-01    0.312E-02
DAV:   2    -0.124057401615E+03    0.25388E-05   -0.21406E-04  5376   0.591E-02    0.185E-02
DAV:   3    -0.124057399052E+03    0.25633E-05   -0.31993E-05  4128   0.193E-02    0.363E-03
DAV:   4    -0.124057399144E+03   -0.92688E-07   -0.56581E-06  4080   0.113E-02
 107 F= -.12590897E+03 E0= -.12590626E+03  d E =-.184003E-04  mag=    -0.0000
 curvature:  39.23 expect dE= 0.619E-02 dE for cont linesearch  0.119E-04
 ZBRENT: bracketing found
 ZBRENT: interpolating
 opt :   2.5390  next Energy=  -125.908974 (dE=-0.202E-04)
 bond charge predicted
       N       E                     dE             d eps       ncg     rms          rms(c)
DAV:   1    -0.124057224529E+03    0.17452E-03   -0.10950E-02  3648   0.366E-01    0.183E-02
DAV:   2    -0.124057222908E+03    0.16213E-05   -0.80449E-05  5088   0.363E-02    0.108E-02
DAV:   3    -0.124057222171E+03    0.73642E-06   -0.12796E-05  4800   0.132E-02    0.217E-03
DAV:   4    -0.124057222150E+03    0.21629E-07   -0.37798E-06  3648   0.977E-03
 108 F= -.12590898E+03 E0= -.12590624E+03  d E =-.217749E-04  mag=    -0.0000
 curvature:  -5.85 expect dE=-0.404E-03 dE for cont linesearch -0.592E-07
 trial: gam= 4.24012 g(F)=  0.690E-04 g(S)=  0.000E+00 ort = 0.121E-05 (trialstep = 0.348E-01)
 search vector abs. value=  0.267E-02
 bond charge predicted
       N       E                     dE             d eps       ncg     rms          rms(c)
DAV:   1    -0.124057245778E+03   -0.23606E-04   -0.15747E-04  4608   0.439E-02    0.212E-03
DAV:   2    -0.124057245614E+03    0.16366E-06   -0.15594E-06  4224   0.577E-03
 109 F= -.12590898E+03 E0= -.12590625E+03  d E =-.193458E-05  mag=    -0.0000
 ZBRENT: can't locate minimum, use default step
 trial-energy change:   -0.000002  1 .order   -0.000003   -0.000003   -0.000003
 step:   0.1393(harm=  5.8307)  dis= 0.00093  next Energy=  -125.909192 (dE=-0.216E-03)
 bond charge predicted
       N       E                     dE             d eps       ncg     rms          rms(c)
DAV:   1    -0.124057317651E+03   -0.71873E-04   -0.13991E-03  3648   0.130E-01    0.691E-03
DAV:   2    -0.124057317315E+03    0.33580E-06   -0.10960E-05  3744   0.138E-02    0.410E-03
DAV:   3    -0.124057317708E+03   -0.39324E-06   -0.25871E-06  3936   0.716E-03
 110 F= -.12590899E+03 E0= -.12590627E+03  d E =-.944349E-05  mag=     0.0000
 curvature:  -3.75 expect dE=-0.178E-03 dE for cont linesearch -0.507E-05
 ZBRENT: increasing intervall
 opt :   0.3484  next Energy=  -125.908995 (dE=-0.191E-04)
 bond charge predicted
       N       E                     dE             d eps       ncg     rms          rms(c)
DAV:   1    -0.124057458981E+03   -0.14167E-03   -0.56632E-03  3648   0.260E-01    0.135E-02
DAV:   2    -0.124057458303E+03    0.67802E-06   -0.41573E-05  4416   0.262E-02    0.801E-03
DAV:   3    -0.124057458453E+03   -0.15057E-06   -0.68333E-06  3792   0.104E-02
 111 F= -.12590900E+03 E0= -.12590629E+03  d E =-.210333E-04  mag=    -0.0000
 curvature:  -7.18 expect dE=-0.193E-03 dE for cont linesearch -0.458E-05
 ZBRENT: increasing intervall
 opt :   0.7664  next Energy=  -125.909006 (dE=-0.304E-04)
 bond charge predicted
       N       E                     dE             d eps       ncg     rms          rms(c)
DAV:   1    -0.124057733467E+03   -0.27516E-03   -0.22666E-02  3648   0.520E-01    0.271E-02
DAV:   2    -0.124057731099E+03    0.23678E-05   -0.16217E-04  5280   0.512E-02    0.159E-02
DAV:   3    -0.124057729786E+03    0.13129E-05   -0.23729E-05  3792   0.177E-02    0.327E-03
DAV:   4    -0.124057729942E+03   -0.15596E-06   -0.65060E-06  4032   0.127E-02
 112 F= -.12590901E+03 E0= -.12590634E+03  d E =-.342764E-04  mag=    -0.0000
 curvature: -14.73 expect dE=-0.389E-03 dE for cont linesearch -0.829E-06
 ZBRENT: extrapolating
 opt :   0.9429  next Energy=  -125.909011 (dE=-0.354E-04)
 bond charge predicted
       N       E                     dE             d eps       ncg     rms          rms(c)
DAV:   1    -0.124057839830E+03   -0.11004E-03   -0.40455E-03  3648   0.220E-01    0.115E-02
DAV:   2    -0.124057839257E+03    0.57352E-06   -0.31566E-05  4224   0.233E-02    0.687E-03
DAV:   3    -0.124057840118E+03   -0.86092E-06   -0.61795E-06  3888   0.108E-02
 113 F= -.12590901E+03 E0= -.12590635E+03  d E =-.354705E-04  mag=     0.0000
 curvature: -19.22 expect dE=-0.815E-03 dE for cont linesearch -0.188E-06
 trial: gam= 0.79696 g(F)=  0.424E-04 g(S)=  0.000E+00 ort =-0.511E-05 (trialstep = 0.216E+00)
 search vector abs. value=  0.173E-02
 bond charge predicted
       N       E                     dE             d eps       ncg     rms          rms(c)
DAV:   1    -0.124057952174E+03   -0.11292E-03   -0.39035E-03  3648   0.214E-01    0.113E-02
DAV:   2    -0.124057951443E+03    0.73083E-06   -0.28449E-05  4512   0.222E-02    0.668E-03
DAV:   3    -0.124057952990E+03   -0.15467E-05   -0.68407E-06  3936   0.115E-02    0.150E-03
DAV:   4    -0.124057951864E+03    0.11264E-05   -0.48809E-06  3648   0.108E-02    0.822E-04
DAV:   5    -0.124057950902E+03    0.96184E-06   -0.11178E-06  4512   0.506E-03
 114 F= -.12590902E+03 E0= -.12590637E+03  d E =-.675406E-05  mag=    -0.0000
 ZBRENT: can't locate minimum, use default step
 trial-energy change:   -0.000007  1 .order   -0.000008   -0.000008   -0.000007
 step:   0.8658(harm=  1.4436)  dis= 0.00453  next Energy=  -125.909039 (dE=-0.277E-04)
 bond charge predicted
       N       E                     dE             d eps       ncg     rms          rms(c)
DAV:   1    -0.124058283565E+03   -0.33170E-03   -0.35045E-02  3648   0.640E-01    0.331E-02
DAV:   2    -0.124058279246E+03    0.43185E-05   -0.22919E-04  6336   0.594E-02    0.192E-02
DAV:   3    -0.124058275348E+03    0.38986E-05   -0.32668E-05  6048   0.170E-02    0.328E-03
DAV:   4    -0.124058275536E+03   -0.18868E-06   -0.22113E-06  4608   0.562E-03
 115 F= -.12590903E+03 E0= -.12590643E+03  d E =-.194121E-04  mag=     0.0000
 curvature: -25.36 expect dE=-0.222E-03 dE for cont linesearch -0.526E-06
 ZBRENT: extrapolating
 opt :   1.0122  next Energy=  -125.909031 (dE=-0.199E-04)
 bond charge predicted
       N       E                     dE             d eps       ncg     rms          rms(c)
DAV:   1    -0.124058346660E+03   -0.71312E-04   -0.17920E-03  3648   0.145E-01    0.756E-03
DAV:   2    -0.124058346550E+03    0.10979E-06   -0.12345E-05  5664   0.139E-02    0.446E-03
DAV:   3    -0.124058346451E+03    0.99230E-07   -0.16711E-06  4656   0.406E-03
 116 F= -.12590903E+03 E0= -.12590644E+03  d E =-.200141E-04  mag=     0.0000
 curvature: -21.12 expect dE=-0.188E-03 dE for cont linesearch -0.146E-07
 trial: gam= 0.07080 g(F)=  0.889E-05 g(S)=  0.000E+00 ort =-0.109E-05 (trialstep = 0.376E+00)
 search vector abs. value=  0.174E-04
 bond charge predicted
       N       E                     dE             d eps       ncg     rms          rms(c)
DAV:   1    -0.124058356927E+03   -0.10377E-04   -0.16557E-04  4416   0.503E-02    0.253E-03
DAV:   2    -0.124058356872E+03    0.55522E-07   -0.13454E-06  4992   0.483E-03
 117 F= -.12590903E+03 E0= -.12590644E+03  d E =-.295375E-05  mag=     0.0000
 ZBRENT: can't locate minimum, use default step
 trial-energy change:   -0.000003  1 .order   -0.000003   -0.000003   -0.000003
 step:   1.5023(harm=  1.8762)  dis= 0.00041  next Energy=  -125.909040 (dE=-0.827E-05)
 bond charge predicted
       N       E                     dE             d eps       ncg     rms          rms(c)
DAV:   1    -0.124058383035E+03   -0.26107E-04   -0.14677E-03  3648   0.150E-01    0.750E-03
DAV:   2    -0.124058382520E+03    0.51518E-06   -0.12844E-05  5664   0.148E-02    0.426E-03
DAV:   3    -0.124058382526E+03   -0.61300E-08   -0.12913E-06  3696   0.415E-03
 118 F= -.12590904E+03 E0= -.12590645E+03  d E =-.623482E-05  mag=    -0.0000
 curvature:  -1.74 expect dE=-0.238E-04 dE for cont linesearch -0.560E-08
 trial: gam= 1.51756 g(F)=  0.137E-04 g(S)=  0.000E+00 ort = 0.237E-06 (trialstep = 0.192E+00)
 search vector abs. value=  0.545E-04
 bond charge predicted
       N       E                     dE             d eps       ncg     rms          rms(c)
DAV:   1    -0.124058387898E+03   -0.53784E-05   -0.13516E-04  3936   0.464E-02    0.231E-03
DAV:   2    -0.124058387853E+03    0.44571E-07   -0.12220E-06  4080   0.481E-03
 119 F= -.12590904E+03 E0= -.12590645E+03  d E =-.233617E-05  mag=    -0.0000
 trial-energy change:   -0.000002  1 .order   -0.000002   -0.000003   -0.000002
 step:   0.6951(harm=  0.6951)  dis= 0.00030  next Energy=  -125.909042 (dE=-0.488E-05)
 bond charge predicted
       N       E                     dE             d eps       ncg     rms          rms(c)
DAV:   1    -0.124058398031E+03   -0.10133E-04   -0.92765E-04  3648   0.121E-01    0.595E-03
DAV:   2    -0.124058397769E+03    0.26153E-06   -0.83486E-06  4896   0.123E-02
 120 F= -.12590904E+03 E0= -.12590646E+03  d E =-.440928E-05  mag=    -0.0000
 curvature:  -1.35 expect dE=-0.585E-05 dE for cont linesearch -0.356E-08
 trial: gam= 0.44587 g(F)=  0.434E-05 g(S)=  0.000E+00 ort =-0.379E-06 (trialstep = 0.293E+00)
 search vector abs. value=  0.148E-04
 bond charge predicted
       N       E                     dE             d eps       ncg     rms          rms(c)
DAV:   1    -0.124058396831E+03    0.11997E-05   -0.62227E-05  3888   0.315E-02    0.233E-03
DAV:   2    -0.124058396775E+03    0.56495E-07   -0.81076E-07  3840   0.407E-03
 121 F= -.12590904E+03 E0= -.12590646E+03  d E =-.908925E-06  mag=    -0.0000
 trial-energy change:   -0.000001  1 .order   -0.000001   -0.000001   -0.000001
 step:   0.6837(harm=  0.6837)  dis= 0.00009  next Energy=  -125.909043 (dE=-0.143E-05)
 bond charge predicted
       N       E                     dE             d eps       ncg     rms          rms(c)
DAV:   1    -0.124058394365E+03    0.24666E-05   -0.11451E-04  3840   0.421E-02    0.238E-03
DAV:   2    -0.124058394293E+03    0.71189E-07   -0.11694E-06  3648   0.485E-03
 122 F= -.12590904E+03 E0= -.12590646E+03  d E =-.969653E-06  mag=    -0.0000
 curvature:  -1.22 expect dE=-0.463E-05 dE for cont linesearch -0.306E-08
 trial: gam= 0.63395 g(F)=  0.381E-05 g(S)=  0.000E+00 ort = 0.193E-06 (trialstep = 0.371E+00)
 search vector abs. value=  0.100E-04
 bond charge predicted
       N       E                     dE             d eps       ncg     rms          rms(c)
DAV:   1    -0.124058389584E+03    0.47809E-05   -0.60770E-05  4128   0.275E-02    0.202E-03
DAV:   2    -0.124058389493E+03    0.90826E-07   -0.10915E-06  3648   0.412E-03
 123 F= -.12590904E+03 E0= -.12590646E+03  d E =-.125278E-05  mag=    -0.0000
 trial-energy change:   -0.000001  1 .order   -0.000001   -0.000001   -0.000001
 step:   1.4283(harm=  1.4283)  dis= 0.00020  next Energy=  -125.909046 (dE=-0.281E-05)
 bond charge predicted
       N       E                     dE             d eps       ncg     rms          rms(c)
DAV:   1    -0.124058373932E+03    0.15652E-04   -0.49326E-04  3648   0.778E-02    0.546E-03
DAV:   2    -0.124058373371E+03    0.56122E-06   -0.66828E-06  4704   0.891E-03
 124 F= -.12590905E+03 E0= -.12590647E+03  d E =-.239319E-05  mag=    -0.0000
 curvature:  -1.82 expect dE=-0.123E-04 dE for cont linesearch -0.104E-08
 trial: gam= 1.87877 g(F)=  0.677E-05 g(S)=  0.000E+00 ort =-0.757E-07 (trialstep = 0.139E+00)
 search vector abs. value=  0.418E-04
 bond charge predicted
       N       E                     dE             d eps       ncg     rms          rms(c)
DAV:   1    -0.124058368249E+03    0.56832E-05   -0.36315E-05  3840   0.233E-02    0.197E-03
DAV:   2    -0.124058368215E+03    0.33328E-07   -0.51295E-07  3696   0.338E-03
 125 F= -.12590905E+03 E0= -.12590647E+03  d E =-.736510E-06  mag=    -0.0000
 ZBRENT: can't locate minimum, use default step
 trial-energy change:   -0.000001  1 .order   -0.000001   -0.000001   -0.000001
 step:   0.5577(harm=  0.8012)  dis= 0.00017  next Energy=  -125.909048 (dE=-0.265E-05)
 bond charge predicted
       N       E                     dE             d eps       ncg     rms          rms(c)
DAV:   1    -0.124058352296E+03    0.15953E-04   -0.33478E-04  3936   0.694E-02    0.360E-03
DAV:   2    -0.124058352156E+03    0.14021E-06   -0.24612E-06  3648   0.700E-03
 126 F= -.12590905E+03 E0= -.12590647E+03  d E =-.235219E-05  mag=    -0.0000
 curvature:  -2.19 expect dE=-0.955E-05 dE for cont linesearch -0.399E-06
 ZBRENT: increasing intervall
 opt :   1.3942  next Energy=  -125.909048 (dE=-0.240E-05)
 bond charge predicted
       N       E                     dE             d eps       ncg     rms          rms(c)
DAV:   1    -0.124058316835E+03    0.35461E-04   -0.13365E-03  3648   0.139E-01    0.710E-03
DAV:   2    -0.124058316451E+03    0.38444E-06   -0.95340E-06  4608   0.133E-02
 127 F= -.12590905E+03 E0= -.12590647E+03  d E =-.199748E-05  mag=    -0.0000
 curvature:  -0.24 expect dE=-0.233E-05 dE for cont linesearch -0.360E-07
 ZBRENT: bracketing found
 ZBRENT: interpolating
 opt :   0.9945  next Energy=  -125.909048 (dE=-0.250E-05)
 bond charge predicted
       N       E                     dE             d eps       ncg     rms          rms(c)
DAV:   1    -0.124058334895E+03   -0.18060E-04   -0.33095E-04  4080   0.682E-02    0.309E-03
DAV:   2    -0.124058334363E+03    0.53238E-06   -0.44675E-06  3744   0.102E-02
 128 F= -.12590905E+03 E0= -.12590647E+03  d E =-.301948E-05  mag=    -0.0000
 curvature:  -3.31 expect dE=-0.181E-04 dE for cont linesearch -0.930E-07
 trial: gam= 0.64886 g(F)=  0.547E-05 g(S)=  0.000E+00 ort =-0.108E-05 (trialstep = 0.310E+00)
 search vector abs. value=  0.217E-04
