Lattice                                 
           1
     4.310208    2.488500    0.000000
    -4.310208    2.488500    0.000000
     0.000000    0.000000   15.000000
   B    C 
     8     8
Direct configuration=     1
   0.66888689  0.00000000  0.10000000
   0.33111211  0.00000000  0.10000000
   0.00000000  0.33111211  0.10000000
   0.00000000  0.66888689  0.10000000
   0.33111211  0.33111211  0.10000000
   0.66888689  0.66888689  0.10000000
   0.66666600  0.33333300  0.09922189
   0.33333300  0.66666600  0.10077811
   0.33333267  0.16666633  0.47060000
   0.49999967  0.99999933  0.47060000
   0.33333267  0.66666633  0.47060000
   0.49999967  0.49999933  0.47060000
   0.83333267  0.16666633  0.47060000
   0.99999967  0.99999933  0.47060000
   0.83333267  0.66666633  0.47060000
   0.99999967  0.49999933  0.47060000
Direct configuration=     2
   0.67063393  0.00000001  0.10002569
   0.32936508  0.00000001  0.10002569
  -0.00000001  0.32936507  0.10002569
  -0.00000001  0.67063392  0.10002569
   0.32936508  0.32936507  0.10002569
   0.67063393  0.67063392  0.10002569
   0.66666600  0.33333300  0.09924312
   0.33333300  0.66666600  0.10081407
   0.33332660  0.16666330  0.47057385
   0.50000087  0.00000173  0.47057332
   0.33333267  0.66666633  0.47057267
   0.50000087  0.49999813  0.47057332
   0.83333570  0.16666330  0.47057385
   0.99999967  0.99999933  0.47057445
   0.83333570  0.66667240  0.47057385
   0.99999727  0.49999813  0.47057332
Direct configuration=     3
   0.66978067  0.00000000  0.10001315
   0.33021834  0.00000000  0.10001315
  -0.00000000  0.33021833  0.10001315
  -0.00000000  0.66978066  0.10001315
   0.33021834  0.33021833  0.10001315
   0.66978067  0.66978066  0.10001315
   0.66666600  0.33333300  0.09923275
   0.33333300  0.66666600  0.10079651
   0.33332956  0.16666478  0.47058662
   0.50000028  0.00000056  0.47058635
   0.33333267  0.66666633  0.47058602
   0.50000028  0.49999872  0.47058635
   0.83333422  0.16666478  0.47058662
   0.99999967  0.99999933  0.47058693
   0.83333422  0.66666944  0.47058662
   0.99999844  0.49999872  0.47058635
Direct configuration=     4
   0.66978597  0.00000000  0.10001322
   0.33021304  0.00000000  0.10001322
  -0.00000000  0.33021303  0.10001322
  -0.00000000  0.66978596  0.10001322
   0.33021304  0.33021303  0.10001322
   0.66978597  0.66978596  0.10001322
   0.66666600  0.33333300  0.09923281
   0.33333300  0.66666600  0.10079662
   0.33332954  0.16666477  0.47058654
   0.50000028  0.00000057  0.47058627
   0.33333267  0.66666633  0.47058594
   0.50000028  0.49999872  0.47058627
   0.83333423  0.16666477  0.47058654
   0.99999967  0.99999933  0.47058685
   0.83333423  0.66666946  0.47058654
   0.99999843  0.49999872  0.47058627
Direct configuration=     5
   0.66978382  0.00000000  0.10001319
   0.33021518  0.00000000  0.10001319
  -0.00000000  0.33021518  0.10001319
  -0.00000000  0.66978382  0.10001319
   0.33021518  0.33021518  0.10001319
   0.66978382  0.66978382  0.10001319
   0.66666600  0.33333300  0.09923279
   0.33333300  0.66666600  0.10079657
   0.33332955  0.16666477  0.47058657
   0.50000028  0.00000057  0.47058630
   0.33333267  0.66666633  0.47058597
   0.50000028  0.49999872  0.47058630
   0.83333423  0.16666477  0.47058657
   0.99999967  0.99999933  0.47058688
   0.83333423  0.66666945  0.47058657
   0.99999843  0.49999872  0.47058630
Direct configuration=     6
   0.66978224  0.00000000  0.10001317
   0.33021676  0.00000000  0.10001317
  -0.00000000  0.33021676  0.10001317
  -0.00000000  0.66978224  0.10001317
   0.33021676  0.33021676  0.10001317
   0.66978224  0.66978224  0.10001317
   0.66666600  0.33333300  0.09923277
   0.33333300  0.66666600  0.10079654
   0.33332956  0.16666478  0.47058660
   0.50000028  0.00000056  0.47058633
   0.33333267  0.66666633  0.47058599
   0.50000028  0.49999872  0.47058633
   0.83333422  0.16666478  0.47058660
   0.99999967  0.99999933  0.47058691
   0.83333422  0.66666944  0.47058660
   0.99999844  0.49999872  0.47058633
Direct configuration=     7
   0.66978145  0.00000000  0.10001316
   0.33021755  0.00000000  0.10001316
  -0.00000000  0.33021755  0.10001316
  -0.00000000  0.66978145  0.10001316
   0.33021755  0.33021755  0.10001316
   0.66978145  0.66978145  0.10001316
   0.66666600  0.33333300  0.09923276
   0.33333300  0.66666600  0.10079652
   0.33332956  0.16666478  0.47058661
   0.50000028  0.00000056  0.47058634
   0.33333267  0.66666633  0.47058601
   0.50000028  0.49999872  0.47058634
   0.83333422  0.16666478  0.47058661
   0.99999967  0.99999933  0.47058692
   0.83333422  0.66666944  0.47058661
   0.99999844  0.49999872  0.47058634
Direct configuration=     8
   0.66978143 -0.00000002  0.10003658
   0.33021755 -0.00000002  0.10003658
   0.00000002  0.33021757  0.10003658
   0.00000002  0.66978145  0.10003658
   0.33021755  0.33021757  0.10003658
   0.66978143  0.66978145  0.10003658
   0.66666600  0.33333300  0.09925493
   0.33333300  0.66666600  0.10082556
   0.33333411  0.16666706  0.47056284
   0.49999936 -0.00000129  0.47056219
   0.33333267  0.66666633  0.47056143
   0.49999936  0.49999964  0.47056219
   0.83333194  0.16666706  0.47056284
   0.99999967  0.99999933  0.47056354
   0.83333194  0.66666489  0.47056284
   0.00000029  0.49999964  0.47056219
Direct configuration=     9
   0.66978136 -0.00000008  0.10010685
   0.33021756 -0.00000008  0.10010685
   0.00000008  0.33021764  0.10010685
   0.00000008  0.66978144  0.10010685
   0.33021756  0.33021764  0.10010685
   0.66978136  0.66978144  0.10010685
   0.66666600  0.33333300  0.09932143
   0.33333300  0.66666600  0.10091266
   0.33334778  0.16667389  0.47049153
   0.49999659 -0.00000683  0.47048972
   0.33333267  0.66666633  0.47048769
   0.49999659  0.50000241  0.47048972
   0.83332511  0.16667389  0.47049153
   0.99999967  0.99999933  0.47049339
   0.83332511  0.66665122  0.47049153
   0.00000583  0.50000241  0.47048972
Direct configuration=    10
   0.66978123 -0.00000019  0.10024739
   0.33021758 -0.00000019  0.10024739
   0.00000019  0.33021777  0.10024739
   0.00000019  0.66978142  0.10024739
   0.33021758  0.33021777  0.10024739
   0.66978123  0.66978142  0.10024739
   0.66666600  0.33333300  0.09945443
   0.33333300  0.66666600  0.10108688
   0.33337511  0.16668756  0.47034890
   0.49999104 -0.00001792  0.47034478
   0.33333267  0.66666633  0.47034022
   0.49999104  0.50000796  0.47034478
   0.83331144  0.16668756  0.47034890
   0.99999967  0.99999933  0.47035310
   0.83331144  0.66662389  0.47034890
   0.00001692  0.50000796  0.47034478
Direct configuration=    11
   0.66978096 -0.00000043  0.10052846
   0.33021761 -0.00000043  0.10052846
   0.00000043  0.33021804  0.10052846
   0.00000043  0.66978139  0.10052846
   0.33021761  0.33021804  0.10052846
   0.66978096  0.66978139  0.10052846
   0.66666600  0.33333300  0.09972043
   0.33333300  0.66666600  0.10143530
   0.33342978  0.16671489  0.47006364
   0.49997995 -0.00004010  0.47005492
   0.33333267  0.66666633  0.47004529
   0.49997995  0.50001905  0.47005492
   0.83328411  0.16671489  0.47006364
   0.99999967  0.99999933  0.47007251
   0.83328411  0.66656922  0.47006364
   0.00003910  0.50001905  0.47005492
Direct configuration=    12
   0.66978043 -0.00000090  0.10109062
   0.33021767 -0.00000090  0.10109062
   0.00000090  0.33021857  0.10109062
   0.00000090  0.66978133  0.10109062
   0.33021767  0.33021857  0.10109062
   0.66978043  0.66978133  0.10109062
   0.66666600  0.33333300  0.10025244
   0.33333300  0.66666600  0.10213215
   0.33353910  0.16676955  0.46949314
   0.49995777 -0.00008445  0.46947518
   0.33333267  0.66666633  0.46945541
   0.49995777  0.50004123  0.46947518
   0.83322945  0.16676955  0.46949314
   0.99999967  0.99999933  0.46951133
   0.83322945  0.66645990  0.46949314
   0.00008345  0.50004123  0.46947518
Direct configuration=    13
   0.66977935 -0.00000185  0.10221492
   0.33021780 -0.00000185  0.10221492
   0.00000185  0.33021965  0.10221492
   0.00000185  0.66978120  0.10221492
   0.33021780  0.33021965  0.10221492
   0.66977935  0.66978120  0.10221492
   0.66666600  0.33333300  0.10131647
   0.33333300  0.66666600  0.10352585
   0.33375776  0.16687888  0.46835212
   0.49991342 -0.00017316  0.46831571
   0.33333267  0.66666633  0.46827565
   0.49991342  0.50008558  0.46831571
   0.83312012  0.16687888  0.46835212
   0.99999967  0.99999933  0.46838899
   0.83312012  0.66624124  0.46835212
   0.00017216  0.50008558  0.46831571
Direct configuration=    14
   0.66977721 -0.00000374  0.10446354
   0.33021805 -0.00000374  0.10446354
   0.00000374  0.33022179  0.10446354
   0.00000374  0.66978095  0.10446354
   0.33021805  0.33022179  0.10446354
   0.66977721  0.66978095  0.10446354
   0.66666600  0.33333300  0.10344451
   0.33333300  0.66666600  0.10631325
   0.33419507  0.16709754  0.46607010
   0.49982471 -0.00035058  0.46599677
   0.33333267  0.66666633  0.46591614
   0.49982471  0.50017429  0.46599677
   0.83290146  0.16709754  0.46607010
   0.99999967  0.99999933  0.46614429
   0.83290146  0.66580393  0.46607010
   0.00034958  0.50017429  0.46599677
Direct configuration=    15
   0.66977292 -0.00000752  0.10896076
   0.33021856 -0.00000752  0.10896076
   0.00000752  0.33022608  0.10896076
   0.00000752  0.66978044  0.10896076
   0.33021856  0.33022608  0.10896076
   0.66977292  0.66978044  0.10896076
   0.66666600  0.33333300  0.10770059
   0.33333300  0.66666600  0.11188805
   0.33506970  0.16753485  0.46150604
   0.49964729 -0.00070541  0.46135888
   0.33333267  0.66666633  0.46119712
   0.49964729  0.50035171  0.46135888
   0.83246415  0.16753485  0.46150604
   0.99999967  0.99999933  0.46165489
   0.83246415  0.66492930  0.46150604
   0.00070441  0.50035171  0.46135888
Direct configuration=    16
   0.66976434 -0.00001508  0.11795521
   0.33021957 -0.00001508  0.11795521
   0.00001508  0.33023466  0.11795521
   0.00001508  0.66977943  0.11795521
   0.33021957  0.33023466  0.11795521
   0.66976434  0.66977943  0.11795521
   0.66666600  0.33333300  0.11621275
   0.33333300  0.66666600  0.12303766
   0.33681895  0.16840947  0.45237793
   0.49929246 -0.00141509  0.45208311
   0.33333267  0.66666633  0.45175908
   0.49929246  0.50070654  0.45208311
   0.83158953  0.16840947  0.45237793
   0.99999967  0.99999933  0.45267610
   0.83158953  0.66318005  0.45237793
   0.00141409  0.50070654  0.45208311
Direct configuration=    17
   0.66976434 -0.00001508  0.11795612
   0.33021957 -0.00001508  0.11795612
   0.00001508  0.33023466  0.11795612
   0.00001508  0.66977943  0.11795612
   0.33021957  0.33023466  0.11795612
   0.66976434  0.66977943  0.11795612
   0.66666600  0.33333300  0.11621361
   0.33333300  0.66666600  0.12303878
   0.33681902  0.16840951  0.45237701
   0.49929244 -0.00141511  0.45208218
   0.33333267  0.66666633  0.45175813
   0.49929244  0.50070656  0.45208218
   0.83158949  0.16840951  0.45237701
   0.99999967  0.99999933  0.45267520
   0.83158949  0.66317998  0.45237701
   0.00141411  0.50070656  0.45208218
Direct configuration=    18
   0.66976433 -0.00001509  0.11795884
   0.33021958 -0.00001509  0.11795884
   0.00001509  0.33023467  0.11795884
   0.00001509  0.66977942  0.11795884
   0.33021958  0.33023467  0.11795884
   0.66976433  0.66977942  0.11795884
   0.66666600  0.33333300  0.11621617
   0.33333300  0.66666600  0.12304214
   0.33681922  0.16840961  0.45237425
   0.49929240 -0.00141519  0.45207938
   0.33333267  0.66666633  0.45175529
   0.49929240  0.50070660  0.45207938
   0.83158939  0.16840961  0.45237425
   0.99999967  0.99999933  0.45267248
   0.83158939  0.66317978  0.45237425
   0.00141419  0.50070660  0.45207938
Direct configuration=    19
   0.66976432 -0.00001510  0.11796427
   0.33021958 -0.00001510  0.11796427
   0.00001510  0.33023468  0.11796427
   0.00001510  0.66977942  0.11796427
   0.33021958  0.33023468  0.11796427
   0.66976432  0.66977942  0.11796427
   0.66666600  0.33333300  0.11622131
   0.33333300  0.66666600  0.12304887
   0.33681962  0.16840981  0.45236873
   0.49929233 -0.00141535  0.45207378
   0.33333267  0.66666633  0.45174960
   0.49929233  0.50070667  0.45207378
   0.83158919  0.16840981  0.45236873
   0.99999967  0.99999933  0.45266705
   0.83158919  0.66317938  0.45236873
   0.00141435  0.50070667  0.45207378
Direct configuration=    20
   0.66976429 -0.00001513  0.11797514
   0.33021958 -0.00001513  0.11797514
   0.00001513  0.33023471  0.11797514
   0.00001513  0.66977942  0.11797514
   0.33021958  0.33023471  0.11797514
   0.66976429  0.66977942  0.11797514
   0.66666600  0.33333300  0.11623158
   0.33333300  0.66666600  0.12306232
   0.33682044  0.16841022  0.45235770
   0.49929217 -0.00141566  0.45206259
   0.33333267  0.66666633  0.45173823
   0.49929217  0.50070683  0.45206259
   0.83158878  0.16841022  0.45235770
   0.99999967  0.99999933  0.45265618
   0.83158878  0.66317856  0.45235770
   0.00141466  0.50070683  0.45206259
Direct configuration=    21
   0.66976423 -0.00001517  0.11799687
   0.33021959 -0.00001517  0.11799687
   0.00001517  0.33023477  0.11799687
   0.00001517  0.66977941  0.11799687
   0.33021959  0.33023477  0.11799687
   0.66976423  0.66977941  0.11799687
   0.66666600  0.33333300  0.11625211
   0.33333300  0.66666600  0.12308923
   0.33682206  0.16841103  0.45233564
   0.49929186 -0.00141629  0.45204020
   0.33333267  0.66666633  0.45171548
   0.49929186  0.50070714  0.45204020
   0.83158797  0.16841103  0.45233564
   0.99999967  0.99999933  0.45263445
   0.83158797  0.66317694  0.45233564
   0.00141529  0.50070714  0.45204020
Direct configuration=    22
   0.66976412 -0.00001527  0.11804034
   0.33021961 -0.00001527  0.11804034
   0.00001527  0.33023488  0.11804034
   0.00001527  0.66977939  0.11804034
   0.33021961  0.33023488  0.11804034
   0.66976412  0.66977939  0.11804034
   0.66666600  0.33333300  0.11629318
   0.33333300  0.66666600  0.12314305
   0.33682530  0.16841265  0.45229152
   0.49929123 -0.00141754  0.45199541
   0.33333267  0.66666633  0.45166998
   0.49929123  0.50070777  0.45199541
   0.83158635  0.16841265  0.45229152
   0.99999967  0.99999933  0.45259098
   0.83158635  0.66317370  0.45229152
   0.00141654  0.50070777  0.45199541
Direct configuration=    23
   0.66976389 -0.00001546  0.11812727
   0.33021965 -0.00001546  0.11812727
   0.00001546  0.33023511  0.11812727
   0.00001546  0.66977935  0.11812727
   0.33021965  0.33023511  0.11812727
   0.66976389  0.66977935  0.11812727
   0.66666600  0.33333300  0.11637533
   0.33333300  0.66666600  0.12325068
   0.33683179  0.16841589  0.45220327
   0.49928998 -0.00142003  0.45190584
   0.33333267  0.66666633  0.45157898
   0.49928998  0.50070902  0.45190584
   0.83158311  0.16841589  0.45220327
   0.99999967  0.99999933  0.45250404
   0.83158311  0.66316721  0.45220327
   0.00141903  0.50070902  0.45190584
Direct configuration=    24
   0.66976343 -0.00001584  0.11830115
   0.33021974 -0.00001584  0.11830115
   0.00001584  0.33023557  0.11830115
   0.00001584  0.66977926  0.11830115
   0.33021974  0.33023557  0.11830115
   0.66976343  0.66977926  0.11830115
   0.66666600  0.33333300  0.11653962
   0.33333300  0.66666600  0.12346594
   0.33684476  0.16842238  0.45202677
   0.49928748 -0.00142503  0.45172671
   0.33333267  0.66666633  0.45139699
   0.49928748  0.50071152  0.45172671
   0.83157662  0.16842238  0.45202677
   0.99999967  0.99999933  0.45233016
   0.83157662  0.66315424  0.45202677
   0.00142403  0.50071152  0.45172671
Direct configuration=    25
   0.66976250 -0.00001660  0.11864889
   0.33021990 -0.00001660  0.11864889
   0.00001660  0.33023650  0.11864889
   0.00001660  0.66977910  0.11864889
   0.33021990  0.33023650  0.11864889
   0.66976250  0.66977910  0.11864889
   0.66666600  0.33333300  0.11686820
   0.33333300  0.66666600  0.12389646
   0.33687071  0.16843536  0.45167377
   0.49928249 -0.00143502  0.45136844
   0.33333267  0.66666633  0.45103300
   0.49928249  0.50071651  0.45136844
   0.83156364  0.16843536  0.45167377
   0.99999967  0.99999933  0.45198241
   0.83156364  0.66312829  0.45167377
   0.00143402  0.50071651  0.45136844
Direct configuration=    26
   0.66976066 -0.00001812  0.11934437
   0.33022022 -0.00001812  0.11934437
   0.00001812  0.33023834  0.11934437
   0.00001812  0.66977878  0.11934437
   0.33022022  0.33023834  0.11934437
   0.66976066  0.66977878  0.11934437
   0.66666600  0.33333300  0.11752535
   0.33333300  0.66666600  0.12475749
   0.33692261  0.16846130  0.45096777
   0.49927249 -0.00145501  0.45065190
   0.33333267  0.66666633  0.45030502
   0.49927249  0.50072651  0.45065190
   0.83153770  0.16846130  0.45096777
   0.99999967  0.99999933  0.45128690
   0.83153770  0.66307639  0.45096777
   0.00145401  0.50072651  0.45065190
Direct configuration=    27
   0.66975696 -0.00002117  0.12073534
   0.33022087 -0.00002117  0.12073534
   0.00002117  0.33024204  0.12073534
   0.00002117  0.66977813  0.12073534
   0.33022087  0.33024204  0.12073534
   0.66975696  0.66977813  0.12073534
   0.66666600  0.33333300  0.11883967
   0.33333300  0.66666600  0.12647957
   0.33702640  0.16851320  0.44955578
   0.49925251 -0.00149499  0.44921881
   0.33333267  0.66666633  0.44884907
   0.49925251  0.50074649  0.44921881
   0.83148580  0.16851320  0.44955578
   0.99999967  0.99999933  0.44989588
   0.83148580  0.66297260  0.44955578
   0.00149399  0.50074649  0.44921881
Direct configuration=    28
   0.66974957 -0.00002726  0.12351728
   0.33022217 -0.00002726  0.12351728
   0.00002726  0.33024943  0.12351728
   0.00002726  0.66977683  0.12351728
   0.33022217  0.33024943  0.12351728
   0.66974957  0.66977683  0.12351728
   0.66666600  0.33333300  0.12146829
   0.33333300  0.66666600  0.12992373
   0.33723399  0.16861699  0.44673179
   0.49921253 -0.00157494  0.44635264
   0.33333267  0.66666633  0.44593717
   0.49921253  0.50078647  0.44635264
   0.83138201  0.16861699  0.44673179
   0.99999967  0.99999933  0.44711385
   0.83138201  0.66276501  0.44673179
   0.00157394  0.50078647  0.44635264
Direct configuration=    29
   0.66973480 -0.00003944  0.12908115
   0.33022476 -0.00003944  0.12908115
   0.00003944  0.33026420  0.12908115
   0.00003944  0.66977424  0.12908115
   0.33022476  0.33026420  0.12908115
   0.66973480  0.66977424  0.12908115
   0.66666600  0.33333300  0.12672554
   0.33333300  0.66666600  0.13681205
   0.33764916  0.16882458  0.44108382
   0.49913258 -0.00173485  0.44062030
   0.33333267  0.66666633  0.44011336
   0.49913258  0.50086642  0.44062030
   0.83117442  0.16882458  0.44108382
   0.99999967  0.99999933  0.44154979
   0.83117442  0.66234984  0.44108382
   0.00173385  0.50086642  0.44062030
Direct configuration=    30
   0.66970525 -0.00006380  0.14020889
   0.33022995 -0.00006380  0.14020889
   0.00006380  0.33029375  0.14020889
   0.00006380  0.66976905  0.14020889
   0.33022995  0.33029375  0.14020889
   0.66970525  0.66976905  0.14020889
   0.66666600  0.33333300  0.13724004
   0.33333300  0.66666600  0.15058869
   0.33847950  0.16923975  0.42978787
   0.49897267 -0.00205466  0.42915563
   0.33333267  0.66666633  0.42846575
   0.49897267  0.50102633  0.42915563
   0.83075925  0.16923975  0.42978787
   0.99999967  0.99999933  0.43042167
   0.83075925  0.66151950  0.42978787
   0.00205366  0.50102633  0.42915563
Direct configuration=    31
   0.66964615 -0.00011253  0.16246438
   0.33024032 -0.00011253  0.16246438
   0.00011253  0.33035285  0.16246438
   0.00011253  0.66975868  0.16246438
   0.33024032  0.33035285  0.16246438
   0.66964615  0.66975868  0.16246438
   0.66666600  0.33333300  0.15826905
   0.33333300  0.66666600  0.17814197
   0.34014019  0.17007009  0.40719598
   0.49865286 -0.00269427  0.40622628
   0.33333267  0.66666633  0.40517052
   0.49865286  0.50134614  0.40622628
   0.82992891  0.17007009  0.40719598
   0.99999967  0.99999933  0.40816543
   0.82992891  0.65985881  0.40719598
   0.00269327  0.50134614  0.40622628
Direct configuration=    32
   0.66958250 -0.00016282  0.16734315
   0.33025368 -0.00016282  0.16734315
   0.00016282  0.33041650  0.16734315
   0.00016282  0.66974532  0.16734315
   0.33025368  0.33041650  0.16734315
   0.66958250  0.66974532  0.16734315
   0.66666600  0.33333300  0.16286502
   0.33333300  0.66666600  0.18416067
   0.33989401  0.16994701  0.40224208
   0.49871358 -0.00257284  0.40121116
   0.33333267  0.66666633  0.40008604
   0.49871358  0.50128542  0.40121116
   0.83005199  0.16994701  0.40224208
   0.99999967  0.99999933  0.40326969
   0.83005199  0.66010499  0.40224208
   0.00257184  0.50128542  0.40121116
Direct configuration=    33
   0.66959553 -0.00015252  0.16634425
   0.33025094 -0.00015252  0.16634425
   0.00015252  0.33040347  0.16634425
   0.00015252  0.66974806  0.16634425
   0.33025094  0.33040347  0.16634425
   0.66959553  0.66974806  0.16634425
   0.66666600  0.33333300  0.16192402
   0.33333300  0.66666600  0.18292837
   0.33994441  0.16997221  0.40325636
   0.49870115 -0.00259770  0.40223798
   0.33333267  0.66666633  0.40112706
   0.49870115  0.50129785  0.40223798
   0.83002679  0.16997221  0.40325636
   0.99999967  0.99999933  0.40427207
   0.83002679  0.66005459  0.40325636
   0.00259670  0.50129785  0.40223798
Direct configuration=    34
   0.66954384 -0.00019289  0.16622973
   0.33026227 -0.00019289  0.16622973
   0.00019289  0.33045516  0.16622973
   0.00019289  0.66973673  0.16622973
   0.33026227  0.33045516  0.16622973
   0.66954384  0.66973673  0.16622973
   0.66666600  0.33333300  0.16180197
   0.33333300  0.66666600  0.18276513
   0.33938317  0.16969159  0.40337106
   0.49882185 -0.00235630  0.40236782
   0.33333267  0.66666633  0.40126854
   0.49882185  0.50117715  0.40236782
   0.83030741  0.16969159  0.40337106
   0.99999967  0.99999933  0.40436933
   0.83030741  0.66061583  0.40337106
   0.00235530  0.50117715  0.40236782
Direct configuration=    35
   0.66938877 -0.00031398  0.16588620
   0.33029625 -0.00031398  0.16588620
   0.00031398  0.33061023  0.16588620
   0.00031398  0.66970275  0.16588620
   0.33029625  0.33061023  0.16588620
   0.66938877  0.66970275  0.16588620
   0.66666600  0.33333300  0.16143581
   0.33333300  0.66666600  0.18227540
   0.33769945  0.16884972  0.40371515
   0.49918396 -0.00163209  0.40275734
   0.33333267  0.66666633  0.40169298
   0.49918396  0.50081504  0.40275734
   0.83114928  0.16884972  0.40371515
   0.99999967  0.99999933  0.40466111
   0.83114928  0.66229955  0.40371515
   0.00163109  0.50081504  0.40275734
Direct configuration=    36
   0.66907863 -0.00055617  0.16519914
   0.33036420 -0.00055617  0.16519914
   0.00055617  0.33092037  0.16519914
   0.00055617  0.66963480  0.16519914
   0.33036420  0.33092037  0.16519914
   0.66907863  0.66963480  0.16519914
   0.66666600  0.33333300  0.16070348
   0.33333300  0.66666600  0.18129594
   0.33433199  0.16716600  0.40440334
   0.49990817 -0.00018366  0.40353638
   0.33333267  0.66666633  0.40254188
   0.49990817  0.50009083  0.40353638
   0.83283300  0.16716600  0.40440334
   0.99999967  0.99999933  0.40524469
   0.83283300  0.66566701  0.40440334
   0.00018266  0.50009083  0.40353638
Direct configuration=    37
   0.66898250 -0.00063124  0.16498618
   0.33038526 -0.00063124  0.16498618
   0.00063124  0.33101650  0.16498618
   0.00063124  0.66961374  0.16498618
   0.33038526  0.33101650  0.16498618
   0.66898250  0.66961374  0.16498618
   0.66666600  0.33333300  0.16047649
   0.33333300  0.66666600  0.18099235
   0.33328822  0.16664411  0.40461665
   0.50013264  0.00026529  0.40377785
   0.33333267  0.66666633  0.40280500
   0.50013264  0.49986636  0.40377785
   0.83335489  0.16664411  0.40461665
   0.99999967  0.99999933  0.40542557
   0.83335489  0.66671078  0.40461665
  -0.00026629  0.49986636  0.40377785
Direct configuration=    38
   0.66898441 -0.00062975  0.16499042
   0.33038484 -0.00062975  0.16499042
   0.00062975  0.33101459  0.16499042
   0.00062975  0.66961416  0.16499042
   0.33038484  0.33101459  0.16499042
   0.66898441  0.66961416  0.16499042
   0.66666600  0.33333300  0.16048101
   0.33333300  0.66666600  0.18099839
   0.33330899  0.16665450  0.40461240
   0.50012818  0.00025635  0.40377305
   0.33333267  0.66666633  0.40279976
   0.50012818  0.49987082  0.40377305
   0.83334450  0.16665450  0.40461240
   0.99999967  0.99999933  0.40542197
   0.83334450  0.66669001  0.40461240
  -0.00025735  0.49987082  0.40377305
Direct configuration=    39
   0.66892967 -0.00064882  0.16499797
   0.33042051 -0.00064882  0.16499797
   0.00064882  0.33106933  0.16499797
   0.00064882  0.66957849  0.16499797
   0.33042051  0.33106933  0.16499797
   0.66892967  0.66957849  0.16499797
   0.66666600  0.33333300  0.16044644
   0.33333300  0.66666600  0.18095182
   0.33330183  0.16665091  0.40459924
   0.50010758  0.00021516  0.40379640
   0.33333267  0.66666633  0.40285567
   0.50010758  0.49989142  0.40379640
   0.83334809  0.16665091  0.40459924
   0.99999967  0.99999933  0.40537132
   0.83334809  0.66669717  0.40459924
  -0.00021616  0.49989142  0.40379640
Direct configuration=    40
   0.66876546 -0.00070604  0.16502062
   0.33052750 -0.00070604  0.16502062
   0.00070604  0.33123354  0.16502062
   0.00070604  0.66947150  0.16502062
   0.33052750  0.33123354  0.16502062
   0.66876546  0.66947150  0.16502062
   0.66666600  0.33333300  0.16034274
   0.33333300  0.66666600  0.18081209
   0.33328033  0.16664017  0.40455976
   0.50004579  0.00009158  0.40386645
   0.33333267  0.66666633  0.40302339
   0.50004579  0.49995321  0.40386645
   0.83335883  0.16664017  0.40455976
   0.99999967  0.99999933  0.40521939
   0.83335883  0.66671867  0.40455976
  -0.00009258  0.49995321  0.40386645
Direct configuration=    41
   0.66843704 -0.00082047  0.16506593
   0.33074149 -0.00082047  0.16506593
   0.00082047  0.33156196  0.16506593
   0.00082047  0.66925751  0.16506593
   0.33074149  0.33156196  0.16506593
   0.66843704  0.66925751  0.16506593
   0.66666600  0.33333300  0.16013533
   0.33333300  0.66666600  0.18053264
   0.33323734  0.16661867  0.40448080
   0.49992221 -0.00015557  0.40400656
   0.33333267  0.66666633  0.40335883
   0.49992221  0.50007679  0.40400656
   0.83338033  0.16661867  0.40448080
   0.99999967  0.99999933  0.40491551
   0.83338033  0.66676166  0.40448080
   0.00015457  0.50007679  0.40400656
Direct configuration=    42
   0.66778019 -0.00104934  0.16515655
   0.33116947 -0.00104934  0.16515655
   0.00104934  0.33221881  0.16515655
   0.00104934  0.66882953  0.16515655
   0.33116947  0.33221881  0.16515655
   0.66778019  0.66882953  0.16515655
   0.66666600  0.33333300  0.15972052
   0.33333300  0.66666600  0.17997374
   0.33315137  0.16657568  0.40432288
   0.49967506 -0.00064988  0.40428678
   0.33333267  0.66666633  0.40402971
   0.49967506  0.50032394  0.40428678
   0.83342332  0.16657568  0.40432288
   0.99999967  0.99999933  0.40430776
   0.83342332  0.66684763  0.40432288
   0.00064888  0.50032394  0.40428678
Direct configuration=    43
   0.66800870 -0.00096972  0.16512502
   0.33102058 -0.00096972  0.16512502
   0.00096972  0.33199030  0.16512502
   0.00096972  0.66897842  0.16512502
   0.33102058  0.33199030  0.16512502
   0.66800870  0.66897842  0.16512502
   0.66666600  0.33333300  0.15986483
   0.33333300  0.66666600  0.18016817
   0.33318128  0.16659064  0.40437782
   0.49976104 -0.00047791  0.40418929
   0.33333267  0.66666633  0.40379632
   0.49976104  0.50023796  0.40418929
   0.83340836  0.16659064  0.40437782
   0.99999967  0.99999933  0.40451919
   0.83340836  0.66681772  0.40437782
   0.00047691  0.50023796  0.40418929
Direct configuration=    44
   0.66808815 -0.00088556  0.16515537
   0.33102529 -0.00088556  0.16515537
   0.00088556  0.33191085  0.16515537
   0.00088556  0.66897371  0.16515537
   0.33102529  0.33191085  0.16515537
   0.66808815  0.66897371  0.16515537
   0.66666600  0.33333300  0.15975006
   0.33333300  0.66666600  0.18003837
   0.33325271  0.16662635  0.40434154
   0.49984916 -0.00030168  0.40424292
   0.33333267  0.66666633  0.40393759
   0.49984916  0.50014984  0.40424292
   0.83337265  0.16662635  0.40434154
   0.99999967  0.99999933  0.40438837
   0.83337265  0.66674629  0.40434154
   0.00030068  0.50014984  0.40424292
Direct configuration=    45
   0.66832649 -0.00063308  0.16524642
   0.33103944 -0.00063308  0.16524642
   0.00063308  0.33167251  0.16524642
   0.00063308  0.66895956  0.16524642
   0.33103944  0.33167251  0.16524642
   0.66832649  0.66895956  0.16524642
   0.66666600  0.33333300  0.15940575
   0.33333300  0.66666600  0.17964897
   0.33346699  0.16673350  0.40423269
   0.50011352  0.00022704  0.40440380
   0.33333267  0.66666633  0.40436140
   0.50011352  0.49988548  0.40440380
   0.83326550  0.16673350  0.40423269
   0.99999967  0.99999933  0.40399591
   0.83326550  0.66653201  0.40423269
  -0.00022804  0.49988548  0.40440380
Direct configuration=    46
   0.66840346 -0.00055153  0.16527582
   0.33104401 -0.00055153  0.16527582
   0.00055153  0.33159554  0.16527582
   0.00055153  0.66895499  0.16527582
   0.33104401  0.33159554  0.16527582
   0.66840346  0.66895499  0.16527582
   0.66666600  0.33333300  0.15929454
   0.33333300  0.66666600  0.17952320
   0.33353621  0.16676810  0.40419753
   0.50019890  0.00039781  0.40445576
   0.33333267  0.66666633  0.40449828
   0.50019890  0.49980010  0.40445576
   0.83323090  0.16676810  0.40419753
   0.99999967  0.99999933  0.40386915
   0.83323090  0.66646279  0.40419753
  -0.00039881  0.49980010  0.40445576
Direct configuration=    47
   0.66863838 -0.00047496  0.16532301
   0.33088567 -0.00047496  0.16532301
   0.00047496  0.33136062  0.16532301
   0.00047496  0.66911333  0.16532301
   0.33088567  0.33136062  0.16532301
   0.66863838  0.66911333  0.16532301
   0.66666600  0.33333300  0.15914096
   0.33333300  0.66666600  0.17936665
   0.33344476  0.16672238  0.40417721
   0.50012484  0.00024968  0.40448078
   0.33333267  0.66666633  0.40457962
   0.50012484  0.49987416  0.40448078
   0.83327662  0.16672238  0.40417721