   7   7   1  16
  0.4081967E+02  0.4690000E-09  0.4690000E-09  0.1500000E-08  0.5000000E-15
  1.000000000000000E-004
  CAR 
 BS_HSE06                                
     16.32043986    -23.90248036  301     -2.84410567      1.00000000
    -23.902  0.0000E+00  0.0000E+00
    -23.768  0.0000E+00  0.0000E+00
    -23.634  0.0000E+00  0.0000E+00
    -23.500  0.0000E+00  0.0000E+00
    -23.366  0.0000E+00  0.0000E+00
    -23.232  0.0000E+00  0.0000E+00
    -23.098  0.0000E+00  0.0000E+00
    -22.964  0.0000E+00  0.0000E+00
    -22.830  0.0000E+00  0.0000E+00
    -22.696  0.0000E+00  0.0000E+00
    -22.562  0.2881E-12  0.3863E-13
    -22.428  0.4121E-07  0.5525E-08
    -22.294  0.2031E-03  0.2724E-04
    -22.159  0.4250E-01  0.5725E-02
    -22.025  0.6089E+00  0.8737E-01
    -21.891  0.1416E+01  0.2772E+00
    -21.757  0.1647E+01  0.4981E+00
    -21.623  0.1853E+01  0.7466E+00
    -21.489  0.2291E+01  0.1054E+01
    -21.355  0.3401E+01  0.1510E+01
    -21.221  0.3043E+01  0.1918E+01
    -21.087  0.6002E+00  0.1998E+01
    -20.953  0.1312E-01  0.2000E+01
    -20.819  0.1641E-04  0.2000E+01
    -20.685  0.8036E-09  0.2000E+01
    -20.551  0.1307E-14  0.2000E+01
    -20.416  0.0000E+00  0.2000E+01
    -20.282  0.0000E+00  0.2000E+01
    -20.148  0.0000E+00  0.2000E+01
    -20.014  0.0000E+00  0.2000E+01
    -19.880  0.0000E+00  0.2000E+01
    -19.746  0.5624E-12  0.2000E+01
    -19.612  0.8075E-07  0.2000E+01
    -19.478  0.3733E-03  0.2000E+01
    -19.344  0.7055E-01  0.2010E+01
    -19.210  0.9438E+00  0.2136E+01
    -19.076  0.2210E+01  0.2432E+01
    -18.942  0.2741E+01  0.2800E+01
    -18.808  0.2081E+01  0.3079E+01
    -18.674  0.1477E+01  0.3277E+01
    -18.539  0.1449E+01  0.3471E+01
    -18.405  0.1561E+01  0.3680E+01
    -18.271  0.1635E+01  0.3900E+01
    -18.137  0.1816E+01  0.4143E+01
    -18.003  0.2145E+01  0.4431E+01
    -17.869  0.2715E+01  0.4795E+01
    -17.735  0.3350E+01  0.5244E+01
    -17.601  0.2592E+01  0.5591E+01
    -17.467  0.1970E+01  0.5855E+01
    -17.333  0.9801E+00  0.5987E+01
    -17.199  0.9717E-01  0.6000E+01
    -17.065  0.7773E-03  0.6000E+01
    -16.931  0.2933E-06  0.6000E+01
    -16.796  0.3952E-11  0.6000E+01
    -16.662  0.0000E+00  0.6000E+01
    -16.528  0.0000E+00  0.6000E+01
    -16.394  0.0000E+00  0.6000E+01
    -16.260  0.0000E+00  0.6000E+01
    -16.126  0.0000E+00  0.6000E+01
    -15.992  0.0000E+00  0.6000E+01
    -15.858  0.0000E+00  0.6000E+01
    -15.724  0.0000E+00  0.6000E+01
    -15.590  0.0000E+00  0.6000E+01
    -15.456  0.0000E+00  0.6000E+01
    -15.322  0.0000E+00  0.6000E+01
    -15.188  0.0000E+00  0.6000E+01
    -15.053  0.0000E+00  0.6000E+01
    -14.919  0.2285E-13  0.6000E+01
    -14.785  0.6192E-08  0.6000E+01
    -14.651  0.5280E-04  0.6000E+01
    -14.517  0.1718E-01  0.6002E+01
    -14.383  0.3715E+00  0.6052E+01
    -14.249  0.1282E+01  0.6224E+01
    -14.115  0.1539E+01  0.6430E+01
    -13.981  0.2168E+01  0.6721E+01
    -13.847  0.2313E+01  0.7031E+01
    -13.713  0.1903E+01  0.7286E+01
    -13.579  0.2005E+01  0.7555E+01
    -13.445  0.1202E+01  0.7716E+01
    -13.310  0.9741E+00  0.7847E+01
    -13.176  0.2508E+01  0.8183E+01
    -13.042  0.1391E+01  0.8370E+01
    -12.908  0.1119E+01  0.8520E+01
    -12.774  0.2178E+01  0.8812E+01
    -12.640  0.1042E+01  0.8952E+01
    -12.506  0.1276E+01  0.9123E+01
    -12.372  0.2539E+01  0.9463E+01
    -12.238  0.1247E+01  0.9630E+01
    -12.104  0.1395E+01  0.9817E+01
    -11.970  0.1685E+01  0.1004E+02
    -11.836  0.1720E+01  0.1027E+02
    -11.702  0.9627E+00  0.1040E+02
    -11.567  0.1721E+01  0.1063E+02
    -11.433  0.1576E+01  0.1084E+02
    -11.299  0.1020E+01  0.1098E+02
    -11.165  0.2022E+01  0.1125E+02
    -11.031  0.2354E+01  0.1157E+02
    -10.897  0.2531E+01  0.1191E+02
    -10.763  0.9679E+00  0.1204E+02
    -10.629  0.4079E+00  0.1209E+02
    -10.495  0.2520E+00  0.1213E+02
    -10.361  0.8444E-01  0.1214E+02
    -10.227  0.6074E+00  0.1222E+02
    -10.093  0.1084E+01  0.1236E+02
     -9.959  0.1082E+01  0.1251E+02
     -9.824  0.1087E+01  0.1266E+02
     -9.690  0.1472E+01  0.1285E+02
     -9.556  0.1208E+01  0.1301E+02
     -9.422  0.1290E+01  0.1319E+02
     -9.288  0.1416E+01  0.1338E+02
     -9.154  0.2448E+01  0.1371E+02
     -9.020  0.2930E+01  0.1410E+02
     -8.886  0.3867E+01  0.1462E+02
     -8.752  0.4120E+01  0.1517E+02
     -8.618  0.3218E+01  0.1560E+02
     -8.484  0.2298E+01  0.1591E+02
     -8.350  0.2662E+01  0.1627E+02
     -8.216  0.4536E+01  0.1687E+02
     -8.081  0.2031E+01  0.1715E+02
     -7.947  0.2750E+00  0.1718E+02
     -7.813  0.5584E+00  0.1726E+02
     -7.679  0.6682E+00  0.1735E+02
     -7.545  0.2787E+00  0.1738E+02
     -7.411  0.2021E+00  0.1741E+02
     -7.277  0.5890E+00  0.1749E+02
     -7.143  0.2138E+01  0.1778E+02
     -7.009  0.2616E+01  0.1813E+02
     -6.875  0.3433E+01  0.1859E+02
     -6.741  0.3451E+01  0.1905E+02
     -6.607  0.3074E+01  0.1946E+02
     -6.473  0.2528E+01  0.1980E+02
     -6.338  0.2223E+01  0.2010E+02
     -6.204  0.1732E+01  0.2033E+02
     -6.070  0.2048E+01  0.2061E+02
     -5.936  0.1399E+01  0.2079E+02
     -5.802  0.1654E+01  0.2102E+02
     -5.668  0.1746E+01  0.2125E+02
     -5.534  0.1533E+01  0.2146E+02
     -5.400  0.1484E+01  0.2165E+02
     -5.266  0.1569E+01  0.2187E+02
     -5.132  0.9464E+00  0.2199E+02
     -4.998  0.1175E+01  0.2215E+02
     -4.864  0.1493E+01  0.2235E+02
     -4.730  0.1068E+01  0.2249E+02
     -4.595  0.1956E+01  0.2276E+02
     -4.461  0.1772E+01  0.2299E+02
     -4.327  0.1427E+01  0.2318E+02
     -4.193  0.1099E+01  0.2333E+02
     -4.059  0.1021E+01  0.2347E+02
     -3.925  0.9396E+00  0.2359E+02
     -3.791  0.5881E+00  0.2367E+02
     -3.657  0.8740E+00  0.2379E+02
     -3.523  0.5162E+00  0.2386E+02
     -3.389  0.5800E+00  0.2394E+02
     -3.255  0.3857E+00  0.2399E+02
     -3.121  0.7842E-01  0.2400E+02
     -2.987  0.2234E-02  0.2400E+02
     -2.852  0.3835E-05  0.2400E+02
     -2.718  0.2359E-09  0.2400E+02
     -2.584  0.4412E-15  0.2400E+02
     -2.450  0.0000E+00  0.2400E+02
     -2.316  0.0000E+00  0.2400E+02
     -2.182  0.0000E+00  0.2400E+02
     -2.048  0.0000E+00  0.2400E+02
     -1.914  0.0000E+00  0.2400E+02
     -1.780  0.0000E+00  0.2400E+02
     -1.646  0.0000E+00  0.2400E+02
     -1.512  0.0000E+00  0.2400E+02
     -1.378  0.4222E-12  0.2400E+02
     -1.244  0.5870E-07  0.2400E+02
     -1.109  0.2665E-03  0.2400E+02
     -0.975  0.4732E-01  0.2401E+02
     -0.841  0.5530E+00  0.2408E+02
     -0.707  0.1585E+01  0.2429E+02
     -0.573  0.2263E+01  0.2460E+02
     -0.439  0.2023E+01  0.2487E+02
     -0.305  0.2052E+01  0.2514E+02
     -0.171  0.2052E+01  0.2542E+02
     -0.037  0.6107E+00  0.2550E+02
      0.097  0.1041E+01  0.2564E+02
      0.231  0.1937E+01  0.2590E+02
      0.365  0.9745E+00  0.2603E+02
      0.499  0.8859E+00  0.2615E+02
      0.634  0.9969E+00  0.2628E+02
      0.768  0.1781E+01  0.2652E+02
      0.902  0.9276E+00  0.2665E+02
      1.036  0.1070E+01  0.2679E+02
      1.170  0.1419E+01  0.2698E+02
      1.304  0.1058E+01  0.2712E+02
      1.438  0.1405E+01  0.2731E+02
      1.572  0.1511E+01  0.2751E+02
      1.706  0.1591E+01  0.2773E+02
      1.840  0.1928E+01  0.2798E+02
      1.974  0.1950E+01  0.2825E+02
      2.108  0.2635E+01  0.2860E+02
      2.242  0.2985E+01  0.2900E+02
      2.376  0.2866E+01  0.2938E+02
      2.511  0.3861E+01  0.2990E+02
      2.645  0.2983E+01  0.3030E+02
      2.779  0.3335E+01  0.3075E+02
      2.913  0.2694E+01  0.3111E+02
      3.047  0.3181E+01  0.3154E+02
      3.181  0.3002E+01  0.3194E+02
      3.315  0.4075E+01  0.3248E+02
      3.449  0.5153E+01  0.3318E+02
      3.583  0.5771E+01  0.3395E+02
      3.717  0.5963E+01  0.3475E+02
      3.851  0.4928E+01  0.3541E+02
      3.985  0.5176E+01  0.3610E+02
      4.119  0.5123E+01  0.3679E+02
      4.254  0.4548E+01  0.3740E+02
      4.388  0.5749E+01  0.3817E+02
      4.522  0.4609E+01  0.3879E+02
      4.656  0.4759E+01  0.3943E+02
      4.790  0.5860E+01  0.4021E+02
      4.924  0.5484E+01  0.4095E+02
      5.058  0.6109E+01  0.4177E+02
      5.192  0.7162E+01  0.4273E+02
      5.326  0.5935E+01  0.4352E+02
      5.460  0.6688E+01  0.4442E+02
      5.594  0.6280E+01  0.4526E+02
      5.728  0.5397E+01  0.4598E+02
      5.862  0.4850E+01  0.4664E+02
      5.997  0.4545E+01  0.4724E+02
      6.131  0.4859E+01  0.4790E+02
      6.265  0.5890E+01  0.4869E+02
      6.399  0.5284E+01  0.4939E+02
      6.533  0.6529E+01  0.5027E+02
      6.667  0.7644E+01  0.5129E+02
      6.801  0.5391E+01  0.5202E+02
      6.935  0.5972E+01  0.5282E+02
      7.069  0.5977E+01  0.5362E+02
      7.203  0.5329E+01  0.5433E+02
      7.337  0.7806E+01  0.5538E+02
      7.471  0.6178E+01  0.5621E+02
      7.605  0.5055E+01  0.5689E+02
      7.740  0.6145E+01  0.5771E+02
      7.874  0.6403E+01  0.5857E+02
      8.008  0.7025E+01  0.5951E+02
      8.142  0.5911E+01  0.6030E+02
      8.276  0.5471E+01  0.6104E+02
      8.410  0.5251E+01  0.6174E+02
      8.544  0.5246E+01  0.6244E+02
      8.678  0.5711E+01  0.6321E+02
      8.812  0.5655E+01  0.6397E+02
      8.946  0.5222E+01  0.6467E+02
      9.080  0.5306E+01  0.6538E+02
      9.214  0.6654E+01  0.6627E+02
      9.348  0.8443E+01  0.6740E+02
      9.483  0.8813E+01  0.6859E+02
      9.617  0.8402E+01  0.6971E+02
      9.751  0.8405E+01  0.7084E+02
      9.885  0.6444E+01  0.7170E+02
     10.019  0.6238E+01  0.7254E+02
     10.153  0.6749E+01  0.7344E+02
     10.287  0.6895E+01  0.7437E+02
     10.421  0.9243E+01  0.7561E+02
     10.555  0.7118E+01  0.7656E+02
     10.689  0.4901E+01  0.7722E+02
     10.823  0.6400E+01  0.7808E+02
     10.957  0.7014E+01  0.7902E+02
     11.091  0.6988E+01  0.7995E+02
     11.226  0.6691E+01  0.8085E+02
     11.360  0.7888E+01  0.8191E+02
     11.494  0.7156E+01  0.8287E+02
     11.628  0.5468E+01  0.8360E+02
     11.762  0.6921E+01  0.8453E+02
     11.896  0.7562E+01  0.8554E+02
     12.030  0.6247E+01  0.8638E+02
     12.164  0.6041E+01  0.8719E+02
     12.298  0.5372E+01  0.8791E+02
     12.432  0.7985E+01  0.8898E+02
     12.566  0.7088E+01  0.8993E+02
     12.700  0.7288E+01  0.9091E+02
     12.834  0.6597E+01  0.9179E+02
     12.969  0.4601E+01  0.9241E+02
     13.103  0.3988E+01  0.9295E+02
     13.237  0.3620E+01  0.9343E+02
     13.371  0.3869E+01  0.9395E+02
     13.505  0.3482E+01  0.9442E+02
     13.639  0.3860E+01  0.9493E+02
     13.773  0.3851E+01  0.9545E+02
     13.907  0.2145E+01  0.9574E+02
     14.041  0.8780E+00  0.9586E+02
     14.175  0.5299E+00  0.9593E+02
     14.309  0.2959E+00  0.9597E+02
     14.443  0.9414E-01  0.9598E+02
     14.577  0.1329E+00  0.9600E+02
     14.712  0.2330E-01  0.9600E+02
     14.846  0.1979E-03  0.9600E+02
     14.980  0.5953E-07  0.9600E+02
     15.114  0.5560E-12  0.9600E+02
     15.248  0.0000E+00  0.9600E+02
     15.382  0.0000E+00  0.9600E+02
     15.516  0.0000E+00  0.9600E+02
     15.650  0.0000E+00  0.9600E+02
     15.784  0.0000E+00  0.9600E+02
     15.918  0.0000E+00  0.9600E+02
     16.052  0.0000E+00  0.9600E+02
     16.186  0.0000E+00  0.9600E+02
     16.320  0.0000E+00  0.9600E+02
     16.32043986    -23.90248036  301     -2.84410567      1.00000000
    -23.902  0.0000E+00  0.0000E+00  0.0000E+00  0.0000E+00  0.0000E+00  0.0000E+00  0.0000E+00  0.0000E+00  0.0000E+00
    -23.768  0.0000E+00  0.0000E+00  0.0000E+00  0.0000E+00  0.0000E+00  0.0000E+00  0.0000E+00  0.0000E+00  0.0000E+00
    -23.634  0.0000E+00  0.0000E+00  0.0000E+00  0.0000E+00  0.0000E+00  0.0000E+00  0.0000E+00  0.0000E+00  0.0000E+00
    -23.500  0.0000E+00  0.0000E+00  0.0000E+00  0.0000E+00  0.0000E+00  0.0000E+00  0.0000E+00  0.0000E+00  0.0000E+00
    -23.366  0.0000E+00  0.0000E+00  0.0000E+00  0.0000E+00  0.0000E+00  0.0000E+00  0.0000E+00  0.0000E+00  0.0000E+00
    -23.232  0.0000E+00  0.0000E+00  0.0000E+00  0.0000E+00  0.0000E+00  0.0000E+00  0.0000E+00  0.0000E+00  0.0000E+00
    -23.098  0.0000E+00  0.0000E+00  0.0000E+00  0.0000E+00  0.0000E+00  0.0000E+00  0.0000E+00  0.0000E+00  0.0000E+00
    -22.964  0.0000E+00  0.0000E+00  0.0000E+00  0.0000E+00  0.0000E+00  0.0000E+00  0.0000E+00  0.0000E+00  0.0000E+00
    -22.830  0.0000E+00  0.0000E+00  0.0000E+00  0.0000E+00  0.0000E+00  0.0000E+00  0.0000E+00  0.0000E+00  0.0000E+00
    -22.696  0.0000E+00  0.0000E+00  0.0000E+00  0.0000E+00  0.0000E+00  0.0000E+00  0.0000E+00  0.0000E+00  0.0000E+00
    -22.562  0.5484E-13  0.9019E-17  0.1887E-14  0.8863E-17  0.0000E+00  0.0000E+00  0.0000E+00  0.0000E+00  0.0000E+00
    -22.428  0.7848E-08  0.1753E-11  0.2701E-09  0.1689E-11  0.0000E+00  0.0000E+00  0.0000E+00  0.0000E+00  0.0000E+00
    -22.294  0.3873E-04  0.1255E-07  0.1333E-05  0.1172E-07  0.0000E+00  0.0000E+00  0.0000E+00  0.0000E+00  0.0000E+00
    -22.159  0.8122E-02  0.4302E-05  0.2799E-03  0.3903E-05  0.0000E+00  0.0000E+00  0.0000E+00  0.0000E+00  0.0000E+00
    -22.025  0.1170E+00  0.1166E-03  0.4043E-02  0.1045E-03  0.0000E+00  0.0000E+00  0.0000E+00  0.0000E+00  0.0000E+00
    -21.891  0.2764E+00  0.5614E-03  0.9603E-02  0.4976E-03  0.0000E+00  0.0000E+00  0.0000E+00  0.0000E+00  0.0000E+00
    -21.757  0.3313E+00  0.1116E-02  0.1163E-01  0.9860E-03  0.0000E+00  0.0000E+00  0.0000E+00  0.0000E+00  0.0000E+00
    -21.623  0.3875E+00  0.1562E-02  0.1375E-01  0.1371E-02  0.0000E+00  0.0000E+00  0.0000E+00  0.0000E+00  0.0000E+00
    -21.489  0.5031E+00  0.1792E-02  0.1805E-01  0.1576E-02  0.0000E+00  0.0000E+00  0.0000E+00  0.0000E+00  0.0000E+00
    -21.355  0.7901E+00  0.1574E-02  0.2866E-01  0.1381E-02  0.0000E+00  0.0000E+00  0.0000E+00  0.0000E+00  0.0000E+00
    -21.221  0.7322E+00  0.6830E-03  0.2673E-01  0.6062E-03  0.0000E+00  0.0000E+00  0.0000E+00  0.0000E+00  0.0000E+00
    -21.087  0.1472E+00  0.7470E-04  0.5393E-02  0.6703E-04  0.0000E+00  0.0000E+00  0.0000E+00  0.0000E+00  0.0000E+00
    -20.953  0.3250E-02  0.1002E-05  0.1193E-03  0.8971E-06  0.0000E+00  0.0000E+00  0.0000E+00  0.0000E+00  0.0000E+00
    -20.819  0.4084E-05  0.8439E-09  0.1500E-06  0.7563E-09  0.0000E+00  0.0000E+00  0.0000E+00  0.0000E+00  0.0000E+00
    -20.685  0.2005E-09  0.2925E-13  0.7365E-11  0.2653E-13  0.0000E+00  0.0000E+00  0.0000E+00  0.0000E+00  0.0000E+00
    -20.551  0.3264E-15  0.3436E-19  0.1200E-16  0.3210E-19  0.0000E+00  0.0000E+00  0.0000E+00  0.0000E+00  0.0000E+00
    -20.416  0.0000E+00  0.0000E+00  0.0000E+00  0.0000E+00  0.0000E+00  0.0000E+00  0.0000E+00  0.0000E+00  0.0000E+00
    -20.282  0.0000E+00  0.0000E+00  0.0000E+00  0.0000E+00  0.0000E+00  0.0000E+00  0.0000E+00  0.0000E+00  0.0000E+00
    -20.148  0.0000E+00  0.0000E+00  0.0000E+00  0.0000E+00  0.0000E+00  0.0000E+00  0.0000E+00  0.0000E+00  0.0000E+00
    -20.014  0.0000E+00  0.0000E+00  0.0000E+00  0.0000E+00  0.0000E+00  0.0000E+00  0.0000E+00  0.0000E+00  0.0000E+00
    -19.880  0.0000E+00  0.0000E+00  0.0000E+00  0.0000E+00  0.0000E+00  0.0000E+00  0.0000E+00  0.0000E+00  0.0000E+00
    -19.746  0.2733E-15  0.2655E-13  0.1163E-16  0.2659E-13  0.0000E+00  0.0000E+00  0.0000E+00  0.0000E+00  0.0000E+00
    -19.612  0.4236E-10  0.3816E-08  0.1803E-11  0.3814E-08  0.0000E+00  0.0000E+00  0.0000E+00  0.0000E+00  0.0000E+00
    -19.478  0.2369E-06  0.1771E-04  0.1009E-07  0.1758E-04  0.0000E+00  0.0000E+00  0.0000E+00  0.0000E+00  0.0000E+00
    -19.344  0.7045E-04  0.3391E-02  0.3006E-05  0.3292E-02  0.0000E+00  0.0000E+00  0.0000E+00  0.0000E+00  0.0000E+00
    -19.210  0.1821E-02  0.4644E-01  0.7793E-04  0.4344E-01  0.0000E+00  0.0000E+00  0.0000E+00  0.0000E+00  0.0000E+00
    -19.076  0.9180E-02  0.1120E+00  0.3952E-03  0.1015E+00  0.0000E+00  0.0000E+00  0.0000E+00  0.0000E+00  0.0000E+00
    -18.942  0.2071E-01  0.1443E+00  0.8986E-03  0.1266E+00  0.0000E+00  0.0000E+00  0.0000E+00  0.0000E+00  0.0000E+00
    -18.808  0.2586E-01  0.1120E+00  0.1130E-02  0.9839E-01  0.0000E+00  0.0000E+00  0.0000E+00  0.0000E+00  0.0000E+00
    -18.674  0.2436E-01  0.8140E-01  0.1073E-02  0.7364E-01  0.0000E+00  0.0000E+00  0.0000E+00  0.0000E+00  0.0000E+00
    -18.539  0.2313E-01  0.8061E-01  0.1028E-02  0.7777E-01  0.0000E+00  0.0000E+00  0.0000E+00  0.0000E+00  0.0000E+00
    -18.405  0.2014E-01  0.8877E-01  0.9021E-03  0.8852E-01  0.0000E+00  0.0000E+00  0.0000E+00  0.0000E+00  0.0000E+00
    -18.271  0.2013E-01  0.9621E-01  0.9103E-03  0.9795E-01  0.0000E+00  0.0000E+00  0.0000E+00  0.0000E+00  0.0000E+00
    -18.137  0.1603E-01  0.1092E+00  0.7326E-03  0.1155E+00  0.0000E+00  0.0000E+00  0.0000E+00  0.0000E+00  0.0000E+00
    -18.003  0.1643E-01  0.1362E+00  0.7602E-03  0.1436E+00  0.0000E+00  0.0000E+00  0.0000E+00  0.0000E+00  0.0000E+00
    -17.869  0.1263E-01  0.1786E+00  0.5985E-03  0.1951E+00  0.0000E+00  0.0000E+00  0.0000E+00  0.0000E+00  0.0000E+00
    -17.735  0.1132E-01  0.2326E+00  0.5468E-03  0.2500E+00  0.0000E+00  0.0000E+00  0.0000E+00  0.0000E+00  0.0000E+00
    -17.601  0.6074E-02  0.1897E+00  0.2934E-03  0.2040E+00  0.0000E+00  0.0000E+00  0.0000E+00  0.0000E+00  0.0000E+00
    -17.467  0.2889E-02  0.1531E+00  0.1379E-03  0.1639E+00  0.0000E+00  0.0000E+00  0.0000E+00  0.0000E+00  0.0000E+00
    -17.333  0.6681E-03  0.7932E-01  0.3180E-04  0.8471E-01  0.0000E+00  0.0000E+00  0.0000E+00  0.0000E+00  0.0000E+00
    -17.199  0.3276E-04  0.8087E-02  0.1556E-05  0.8439E-02  0.0000E+00  0.0000E+00  0.0000E+00  0.0000E+00  0.0000E+00
    -17.065  0.7991E-07  0.6600E-04  0.3801E-08  0.6722E-04  0.0000E+00  0.0000E+00  0.0000E+00  0.0000E+00  0.0000E+00
    -16.931  0.6762E-11  0.2516E-07  0.3247E-12  0.2528E-07  0.0000E+00  0.0000E+00  0.0000E+00  0.0000E+00  0.0000E+00
    -16.796  0.1966E-16  0.3406E-12  0.9749E-18  0.3402E-12  0.0000E+00  0.0000E+00  0.0000E+00  0.0000E+00  0.0000E+00
    -16.662  0.0000E+00  0.0000E+00  0.0000E+00  0.0000E+00  0.0000E+00  0.0000E+00  0.0000E+00  0.0000E+00  0.0000E+00
    -16.528  0.0000E+00  0.0000E+00  0.0000E+00  0.0000E+00  0.0000E+00  0.0000E+00  0.0000E+00  0.0000E+00  0.0000E+00
    -16.394  0.0000E+00  0.0000E+00  0.0000E+00  0.0000E+00  0.0000E+00  0.0000E+00  0.0000E+00  0.0000E+00  0.0000E+00
    -16.260  0.0000E+00  0.0000E+00  0.0000E+00  0.0000E+00  0.0000E+00  0.0000E+00  0.0000E+00  0.0000E+00  0.0000E+00
    -16.126  0.0000E+00  0.0000E+00  0.0000E+00  0.0000E+00  0.0000E+00  0.0000E+00  0.0000E+00  0.0000E+00  0.0000E+00
    -15.992  0.0000E+00  0.0000E+00  0.0000E+00  0.0000E+00  0.0000E+00  0.0000E+00  0.0000E+00  0.0000E+00  0.0000E+00
    -15.858  0.0000E+00  0.0000E+00  0.0000E+00  0.0000E+00  0.0000E+00  0.0000E+00  0.0000E+00  0.0000E+00  0.0000E+00
    -15.724  0.0000E+00  0.0000E+00  0.0000E+00  0.0000E+00  0.0000E+00  0.0000E+00  0.0000E+00  0.0000E+00  0.0000E+00
    -15.590  0.0000E+00  0.0000E+00  0.0000E+00  0.0000E+00  0.0000E+00  0.0000E+00  0.0000E+00  0.0000E+00  0.0000E+00
    -15.456  0.0000E+00  0.0000E+00  0.0000E+00  0.0000E+00  0.0000E+00  0.0000E+00  0.0000E+00  0.0000E+00  0.0000E+00
    -15.322  0.0000E+00  0.0000E+00  0.0000E+00  0.0000E+00  0.0000E+00  0.0000E+00  0.0000E+00  0.0000E+00  0.0000E+00
    -15.188  0.0000E+00  0.0000E+00  0.0000E+00  0.0000E+00  0.0000E+00  0.0000E+00  0.0000E+00  0.0000E+00  0.0000E+00
    -15.053  0.0000E+00  0.0000E+00  0.0000E+00  0.0000E+00  0.0000E+00  0.0000E+00  0.0000E+00  0.0000E+00  0.0000E+00
    -14.919  0.8122E-15  0.3314E-15  0.4114E-16  0.3317E-15  0.0000E+00  0.0000E+00  0.0000E+00  0.0000E+00  0.0000E+00
    -14.785  0.2201E-09  0.8979E-10  0.1115E-10  0.8986E-10  0.0000E+00  0.0000E+00  0.0000E+00  0.0000E+00  0.0000E+00
    -14.651  0.1877E-05  0.7659E-06  0.9501E-07  0.7664E-06  0.0000E+00  0.0000E+00  0.0000E+00  0.0000E+00  0.0000E+00
    -14.517  0.6096E-03  0.2505E-03  0.3085E-04  0.2513E-03  0.0000E+00  0.0000E+00  0.0000E+00  0.0000E+00  0.0000E+00
    -14.383  0.1307E-01  0.5566E-02  0.6602E-03  0.5691E-02  0.0000E+00  0.0000E+00  0.0000E+00  0.0000E+00  0.0000E+00
    -14.249  0.4694E-01  0.1953E-01  0.2349E-02  0.2080E-01  0.0000E+00  0.0000E+00  0.0000E+00  0.0000E+00  0.0000E+00
    -14.115  0.7699E-01  0.2162E-01  0.3717E-02  0.2375E-01  0.0000E+00  0.0000E+00  0.0000E+00  0.0000E+00  0.0000E+00
    -13.981  0.1190E+00  0.3418E-01  0.5641E-02  0.3784E-01  0.0000E+00  0.0000E+00  0.0000E+00  0.0000E+00  0.0000E+00
    -13.847  0.1405E+00  0.3564E-01  0.6536E-02  0.3894E-01  0.0000E+00  0.0000E+00  0.0000E+00  0.0000E+00  0.0000E+00
    -13.713  0.1119E+00  0.3400E-01  0.5142E-02  0.3674E-01  0.0000E+00  0.0000E+00  0.0000E+00  0.0000E+00  0.0000E+00
    -13.579  0.6575E-01  0.5387E-01  0.3062E-02  0.5982E-01  0.0000E+00  0.0000E+00  0.0000E+00  0.0000E+00  0.0000E+00
    -13.445  0.2488E-01  0.3488E-01  0.1148E-02  0.4068E-01  0.0000E+00  0.0000E+00  0.0000E+00  0.0000E+00  0.0000E+00
    -13.310  0.1177E-01  0.3128E-01  0.5117E-03  0.3666E-01  0.0000E+00  0.0000E+00  0.0000E+00  0.0000E+00  0.0000E+00
    -13.176  0.6391E-01  0.8015E-01  0.2718E-02  0.8647E-01  0.0000E+00  0.0000E+00  0.0000E+00  0.0000E+00  0.0000E+00
    -13.042  0.3690E-01  0.3902E-01  0.1535E-02  0.4084E-01  0.0000E+00  0.0000E+00  0.0000E+00  0.0000E+00  0.0000E+00
    -12.908  0.3044E-01  0.3776E-01  0.1213E-02  0.3927E-01  0.0000E+00  0.0000E+00  0.0000E+00  0.0000E+00  0.0000E+00
    -12.774  0.7637E-01  0.7841E-01  0.3076E-02  0.7534E-01  0.0000E+00  0.0000E+00  0.0000E+00  0.0000E+00  0.0000E+00
    -12.640  0.2323E-01  0.3445E-01  0.9471E-03  0.3137E-01  0.0000E+00  0.0000E+00  0.0000E+00  0.0000E+00  0.0000E+00
    -12.506  0.2712E-01  0.5293E-01  0.1046E-02  0.4788E-01  0.0000E+00  0.0000E+00  0.0000E+00  0.0000E+00  0.0000E+00
    -12.372  0.6506E-01  0.1195E+00  0.2470E-02  0.1093E+00  0.0000E+00  0.0000E+00  0.0000E+00  0.0000E+00  0.0000E+00
    -12.238  0.2090E-01  0.5973E-01  0.7360E-03  0.5411E-01  0.0000E+00  0.0000E+00  0.0000E+00  0.0000E+00  0.0000E+00
    -12.104  0.1190E-01  0.7487E-01  0.3865E-03  0.6754E-01  0.0000E+00  0.0000E+00  0.0000E+00  0.0000E+00  0.0000E+00
    -11.970  0.3027E-01  0.1032E+00  0.9416E-03  0.9514E-01  0.0000E+00  0.0000E+00  0.0000E+00  0.0000E+00  0.0000E+00
    -11.836  0.1848E-01  0.9451E-01  0.4950E-03  0.8743E-01  0.0000E+00  0.0000E+00  0.0000E+00  0.0000E+00  0.0000E+00
    -11.702  0.5752E-02  0.6486E-01  0.1313E-03  0.6069E-01  0.0000E+00  0.0000E+00  0.0000E+00  0.0000E+00  0.0000E+00
    -11.567  0.1267E-01  0.1216E+00  0.2507E-03  0.1103E+00  0.0000E+00  0.0000E+00  0.0000E+00  0.0000E+00  0.0000E+00
    -11.433  0.1141E-01  0.9623E-01  0.2861E-03  0.8995E-01  0.0000E+00  0.0000E+00  0.0000E+00  0.0000E+00  0.0000E+00
    -11.299  0.2094E-01  0.4685E-01  0.7570E-03  0.4413E-01  0.0000E+00  0.0000E+00  0.0000E+00  0.0000E+00  0.0000E+00
    -11.165  0.4078E-01  0.8136E-01  0.1346E-02  0.7354E-01  0.0000E+00  0.0000E+00  0.0000E+00  0.0000E+00  0.0000E+00
    -11.031  0.4818E-01  0.9444E-01  0.1539E-02  0.8565E-01  0.0000E+00  0.0000E+00  0.0000E+00  0.0000E+00  0.0000E+00
    -10.897  0.5037E-01  0.9665E-01  0.1362E-02  0.8996E-01  0.0000E+00  0.0000E+00  0.0000E+00  0.0000E+00  0.0000E+00
    -10.763  0.2221E-01  0.2964E-01  0.3969E-03  0.2941E-01  0.0000E+00  0.0000E+00  0.0000E+00  0.0000E+00  0.0000E+00
    -10.629  0.3678E-02  0.4824E-02  0.4928E-04  0.4934E-02  0.0000E+00  0.0000E+00  0.0000E+00  0.0000E+00  0.0000E+00
    -10.495  0.5794E-04  0.6534E-03  0.5964E-05  0.6787E-03  0.0000E+00  0.0000E+00  0.0000E+00  0.0000E+00  0.0000E+00
    -10.361  0.1212E-03  0.2029E-03  0.1147E-02  0.2171E-03  0.0000E+00  0.0000E+00  0.0000E+00  0.0000E+00  0.0000E+00
    -10.227  0.2686E-02  0.1106E-02  0.2551E-01  0.1252E-02  0.0000E+00  0.0000E+00  0.0000E+00  0.0000E+00  0.0000E+00
    -10.093  0.7894E-02  0.1092E-02  0.7550E-01  0.1190E-02  0.0000E+00  0.0000E+00  0.0000E+00  0.0000E+00  0.0000E+00
     -9.959  0.9186E-02  0.7906E-03  0.8870E-01  0.7982E-03  0.0000E+00  0.0000E+00  0.0000E+00  0.0000E+00  0.0000E+00
     -9.824  0.9655E-02  0.7157E-03  0.9401E-01  0.8534E-03  0.0000E+00  0.0000E+00  0.0000E+00  0.0000E+00  0.0000E+00
     -9.690  0.1010E-01  0.2404E-02  0.9777E-01  0.2788E-02  0.0000E+00  0.0000E+00  0.0000E+00  0.0000E+00  0.0000E+00
     -9.556  0.1029E-01  0.1426E-02  0.9843E-01  0.1550E-02  0.0000E+00  0.0000E+00  0.0000E+00  0.0000E+00  0.0000E+00
     -9.422  0.1264E-01  0.1353E-02  0.1173E+00  0.1364E-02  0.0000E+00  0.0000E+00  0.0000E+00  0.0000E+00  0.0000E+00
     -9.288  0.1242E-01  0.2677E-02  0.1096E+00  0.2921E-02  0.0000E+00  0.0000E+00  0.0000E+00  0.0000E+00  0.0000E+00
     -9.154  0.1845E-01  0.7518E-02  0.1449E+00  0.7743E-02  0.0000E+00  0.0000E+00  0.0000E+00  0.0000E+00  0.0000E+00
     -9.020  0.2854E-01  0.1546E-01  0.1531E+00  0.1469E-01  0.0000E+00  0.0000E+00  0.0000E+00  0.0000E+00  0.0000E+00
     -8.886  0.4527E-01  0.2725E-01  0.2033E+00  0.2501E-01  0.0000E+00  0.0000E+00  0.0000E+00  0.0000E+00  0.0000E+00
     -8.752  0.3933E-01  0.2580E-01  0.2595E+00  0.2538E-01  0.0000E+00  0.0000E+00  0.0000E+00  0.0000E+00  0.0000E+00
     -8.618  0.3269E-01  0.1750E-01  0.2153E+00  0.1767E-01  0.0000E+00  0.0000E+00  0.0000E+00  0.0000E+00  0.0000E+00
     -8.484  0.1630E-01  0.2286E-01  0.1013E+00  0.2476E-01  0.0000E+00  0.0000E+00  0.0000E+00  0.0000E+00  0.0000E+00
     -8.350  0.1158E-01  0.4018E-01  0.1939E-01  0.4528E-01  0.0000E+00  0.0000E+00  0.0000E+00  0.0000E+00  0.0000E+00
     -8.216  0.3607E-01  0.6842E-01  0.1263E-01  0.7534E-01  0.0000E+00  0.0000E+00  0.0000E+00  0.0000E+00  0.0000E+00
     -8.081  0.2070E-01  0.2812E-01  0.6771E-02  0.3057E-01  0.0000E+00  0.0000E+00  0.0000E+00  0.0000E+00  0.0000E+00
     -7.947  0.2370E-02  0.3439E-02  0.4005E-03  0.3452E-02  0.0000E+00  0.0000E+00  0.0000E+00  0.0000E+00  0.0000E+00
     -7.813  0.4428E-02  0.6886E-02  0.1277E-03  0.6529E-02  0.0000E+00  0.0000E+00  0.0000E+00  0.0000E+00  0.0000E+00
     -7.679  0.6606E-02  0.7877E-02  0.1853E-03  0.6961E-02  0.0000E+00  0.0000E+00  0.0000E+00  0.0000E+00  0.0000E+00
     -7.545  0.2314E-02  0.3584E-02  0.5273E-04  0.3266E-02  0.0000E+00  0.0000E+00  0.0000E+00  0.0000E+00  0.0000E+00
     -7.411  0.9766E-03  0.2908E-02  0.5259E-05  0.2891E-02  0.0000E+00  0.0000E+00  0.0000E+00  0.0000E+00  0.0000E+00
     -7.277  0.2449E-02  0.5018E-02  0.3435E-04  0.4797E-02  0.0000E+00  0.0000E+00  0.0000E+00  0.0000E+00  0.0000E+00
     -7.143  0.8399E-02  0.1238E-01  0.1375E-03  0.1193E-01  0.0000E+00  0.0000E+00  0.0000E+00  0.0000E+00  0.0000E+00
     -7.009  0.8836E-02  0.1363E-01  0.1118E-03  0.1422E-01  0.0000E+00  0.0000E+00  0.0000E+00  0.0000E+00  0.0000E+00
     -6.875  0.6294E-02  0.2003E-01  0.7350E-03  0.2205E-01  0.0000E+00  0.0000E+00  0.0000E+00  0.0000E+00  0.0000E+00
     -6.741  0.4983E-02  0.1842E-01  0.3866E-02  0.1984E-01  0.0000E+00  0.0000E+00  0.0000E+00  0.0000E+00  0.0000E+00
     -6.607  0.5956E-02  0.2206E-01  0.7830E-02  0.2272E-01  0.0000E+00  0.0000E+00  0.0000E+00  0.0000E+00  0.0000E+00
     -6.473  0.5150E-02  0.1545E-01  0.1398E-01  0.1569E-01  0.0000E+00  0.0000E+00  0.0000E+00  0.0000E+00  0.0000E+00
     -6.338  0.4358E-02  0.1365E-01  0.1850E-01  0.1450E-01  0.0000E+00  0.0000E+00  0.0000E+00  0.0000E+00  0.0000E+00
     -6.204  0.4323E-02  0.1257E-01  0.1868E-01  0.1294E-01  0.0000E+00  0.0000E+00  0.0000E+00  0.0000E+00  0.0000E+00
     -6.070  0.4743E-02  0.1634E-01  0.2091E-01  0.1679E-01  0.0000E+00  0.0000E+00  0.0000E+00  0.0000E+00  0.0000E+00
     -5.936  0.2735E-02  0.9929E-02  0.1410E-01  0.1055E-01  0.0000E+00  0.0000E+00  0.0000E+00  0.0000E+00  0.0000E+00
     -5.802  0.3958E-02  0.1007E-01  0.2357E-01  0.1048E-01  0.0000E+00  0.0000E+00  0.0000E+00  0.0000E+00  0.0000E+00
     -5.668  0.2662E-02  0.1141E-01  0.1416E-01  0.1144E-01  0.0000E+00  0.0000E+00  0.0000E+00  0.0000E+00  0.0000E+00
     -5.534  0.2724E-02  0.8388E-02  0.1756E-01  0.8613E-02  0.0000E+00  0.0000E+00  0.0000E+00  0.0000E+00  0.0000E+00
     -5.400  0.2958E-02  0.7800E-02  0.1850E-01  0.8159E-02  0.0000E+00  0.0000E+00  0.0000E+00  0.0000E+00  0.0000E+00
     -5.266  0.2884E-02  0.5274E-02  0.1647E-01  0.5373E-02  0.0000E+00  0.0000E+00  0.0000E+00  0.0000E+00  0.0000E+00
     -5.132  0.2094E-02  0.1830E-02  0.1341E-01  0.1893E-02  0.0000E+00  0.0000E+00  0.0000E+00  0.0000E+00  0.0000E+00
     -4.998  0.2921E-02  0.2636E-02  0.1699E-01  0.2748E-02  0.0000E+00  0.0000E+00  0.0000E+00  0.0000E+00  0.0000E+00
     -4.864  0.3258E-02  0.3687E-02  0.1802E-01  0.3994E-02  0.0000E+00  0.0000E+00  0.0000E+00  0.0000E+00  0.0000E+00
     -4.730  0.1554E-02  0.2999E-02  0.7657E-02  0.3299E-02  0.0000E+00  0.0000E+00  0.0000E+00  0.0000E+00  0.0000E+00
     -4.595  0.3238E-02  0.6394E-02  0.1720E-01  0.6757E-02  0.0000E+00  0.0000E+00  0.0000E+00  0.0000E+00  0.0000E+00
     -4.461  0.2668E-02  0.6631E-02  0.1311E-01  0.6883E-02  0.0000E+00  0.0000E+00  0.0000E+00  0.0000E+00  0.0000E+00
     -4.327  0.1660E-02  0.5266E-02  0.8363E-02  0.5612E-02  0.0000E+00  0.0000E+00  0.0000E+00  0.0000E+00  0.0000E+00
     -4.193  0.1186E-02  0.4256E-02  0.6105E-02  0.4534E-02  0.0000E+00  0.0000E+00  0.0000E+00  0.0000E+00  0.0000E+00
     -4.059  0.1823E-02  0.4438E-02  0.1021E-01  0.4474E-02  0.0000E+00  0.0000E+00  0.0000E+00  0.0000E+00  0.0000E+00
     -3.925  0.8059E-03  0.4104E-02  0.4261E-02  0.4415E-02  0.0000E+00  0.0000E+00  0.0000E+00  0.0000E+00  0.0000E+00
     -3.791  0.6035E-03  0.3032E-02  0.3306E-02  0.3184E-02  0.0000E+00  0.0000E+00  0.0000E+00  0.0000E+00  0.0000E+00
     -3.657  0.8205E-03  0.4924E-02  0.4520E-02  0.4973E-02  0.0000E+00  0.0000E+00  0.0000E+00  0.0000E+00  0.0000E+00
     -3.523  0.3796E-03  0.3324E-02  0.2083E-02  0.3351E-02  0.0000E+00  0.0000E+00  0.0000E+00  0.0000E+00  0.0000E+00
     -3.389  0.2087E-03  0.4099E-02  0.1127E-02  0.4396E-02  0.0000E+00  0.0000E+00  0.0000E+00  0.0000E+00  0.0000E+00
     -3.255  0.1130E-03  0.3112E-02  0.6156E-03  0.3147E-02  0.0000E+00  0.0000E+00  0.0000E+00  0.0000E+00  0.0000E+00
     -3.121  0.4137E-05  0.6732E-03  0.2228E-04  0.6740E-03  0.0000E+00  0.0000E+00  0.0000E+00  0.0000E+00  0.0000E+00
     -2.987  0.7417E-08  0.1981E-04  0.3779E-07  0.1986E-04  0.0000E+00  0.0000E+00  0.0000E+00  0.0000E+00  0.0000E+00