       N       E                     dE             d eps       ncg     rms          ort
DAV:   1     0.378830755028E+02    0.37883E+02   -0.95808E+03  3888   0.397E+02
DAV:   2    -0.196506812618E+03   -0.23439E+03   -0.23203E+03  3888   0.110E+02
DAV:   3    -0.213458508537E+03   -0.16952E+02   -0.16880E+02  3888   0.381E+01
DAV:   4    -0.214355878284E+03   -0.89737E+00   -0.89737E+00  3888   0.840E+00
DAV:   5    -0.657285443030E+02    0.14863E+03   -0.40577E+00  3888   0.592E+00
SDA:   6    -0.528226991964E+02    0.12906E+02   -0.72359E+01  3888   0.181E+02 0.000E+00
DMP:   7    -0.573838969739E+02   -0.45612E+01   -0.18307E+01  3888   0.261E+01 0.514E+01
DMP:   8    -0.582775085611E+02   -0.89361E+00   -0.61186E+00  3888   0.146E+01 0.183E+00
DMP:   9    -0.586981369931E+02   -0.42063E+00   -0.38843E+00  3888   0.738E+00 0.610E+00
DMP:  10    -0.589751590038E+02   -0.27702E+00   -0.17030E+00  3888   0.268E+00 0.412E+00
DMP:  11    -0.590958173414E+02   -0.12066E+00   -0.68517E-01  3888   0.104E+00 0.175E+00
DMP:  12    -0.591443482078E+02   -0.48531E-01   -0.26674E-01  3888   0.398E-01 0.705E-01
DMP:  13    -0.591627279034E+02   -0.18380E-01   -0.92355E-02  3888   0.136E-01 0.250E-01
DMP:  14    -0.591689426382E+02   -0.62147E-02   -0.30591E-02  3888   0.461E-02 0.794E-02
DMP:  15    -0.591709855461E+02   -0.20429E-02   -0.10387E-02  3888   0.162E-02 0.257E-02
DMP:  16    -0.591716799221E+02   -0.69438E-03   -0.37148E-03  3888   0.594E-03 0.876E-03
DMP:  17    -0.591719334574E+02   -0.25354E-03   -0.14776E-03  3888   0.240E-03 0.340E-03
DMP:  18    -0.591720374424E+02   -0.10399E-03   -0.64155E-04  3888   0.103E-03 0.151E-03
DMP:  19    -0.591720841503E+02   -0.46708E-04   -0.29307E-04  3888   0.452E-04 0.735E-04
DMP:  20    -0.591721061715E+02   -0.22021E-04   -0.13663E-04  3888   0.200E-04 0.370E-04
DMP:  21    -0.591721167283E+02   -0.10557E-04   -0.65154E-05  3888   0.915E-05 0.187E-04
DMP:  22    -0.591721218823E+02   -0.51540E-05   -0.31535E-05  3888   0.427E-05 0.947E-05
DMP:  23    -0.591721244149E+02   -0.25326E-05   -0.15365E-05  3888   0.203E-05 0.475E-05
DMP:  24    -0.591721256703E+02   -0.12554E-05   -0.77919E-06  3888   0.102E-05 0.242E-05
DMP:  25    -0.591721263268E+02   -0.65653E-06   -0.43004E-06  3888   0.572E-06 0.132E-05
   1 F= -.59172126E+02 E0= -.59172126E+02  d E =-.117388E-12
       N       E                     dE             ncg
DAV:   1    -0.520527773541E+04   -0.40935E+05    11616
DAV:   2    -0.207715857759E+05   -0.15566E+05    15552
DAV:   3    -0.224406188602E+05   -0.16690E+04    15552
DAV:   4    -0.225541155877E+05   -0.11350E+03    15552
DAV:   5    -0.225636071102E+05   -0.94915E+01    15552
DAV:   6    -0.225645364331E+05   -0.92932E+00    15552
DAV:   7    -0.225646367253E+05   -0.10029E+00    15552
DAV:   8    -0.225646484394E+05   -0.11714E-01    15552
DAV:   9    -0.225646498870E+05   -0.14475E-02    15552
DAV:  10    -0.225646500741E+05   -0.18707E-03    15552
DAV:  11    -0.225646500991E+05   -0.25056E-04    15552
DAV:  12    -0.225646501026E+05   -0.34501E-05    15552
DAV:  13    -0.225646501030E+05   -0.48524E-06    15552
       N       E                     dE             ncg
DAV:   1     0.660991685955E+04   -0.26020E+05     9072
DAV:   2    -0.515277400224E+04   -0.11763E+05    12096
DAV:   3    -0.647319238488E+04   -0.13204E+04    12096
DAV:   4    -0.656841850643E+04   -0.95226E+02    12096
DAV:   5    -0.657682783121E+04   -0.84093E+01    12096
DAV:   6    -0.657769231382E+04   -0.86448E+00    12096
DAV:   7    -0.657778972813E+04   -0.97414E-01    12096
DAV:   8    -0.657780154841E+04   -0.11820E-01    12096
DAV:   9    -0.657780305891E+04   -0.15105E-02    12096
DAV:  10    -0.657780325999E+04   -0.20108E-03    12096
DAV:  11    -0.657780328764E+04   -0.27642E-04    12096
DAV:  12    -0.657780329153E+04   -0.38979E-05    12096
DAV:  13    -0.657780329209E+04   -0.55968E-06    12096
