PROCAR lm decomposed
# of k-points:   81         # of bands:   48         # of ions:    7

 k-point     1 :    0.00000000 0.00000000 0.00000000     weight = 0.00346021

band     1 # energy  -22.07416580 # occ.  2.00000000
 
ion      s     py     pz     px    dxy    dyz    dz2    dxz  x2-y2    tot
    1  0.190  0.000  0.007  0.000  0.000  0.000  0.000  0.000  0.000  0.197
    2  0.073  0.002  0.000  0.005  0.000  0.000  0.000  0.000  0.000  0.080
    3  0.073  0.002  0.000  0.005  0.000  0.000  0.000  0.000  0.000  0.080
    4  0.073  0.007  0.000  0.000  0.000  0.000  0.000  0.000  0.000  0.080
    5  0.096  0.007  0.000  0.000  0.000  0.000  0.000  0.000  0.000  0.102
    6  0.096  0.002  0.000  0.005  0.000  0.000  0.000  0.000  0.000  0.102
    7  0.096  0.002  0.000  0.005  0.000  0.000  0.000  0.000  0.000  0.102
tot    0.696  0.020  0.008  0.020  0.000  0.000  0.000  0.000  0.000  0.743
 
band     2 # energy  -17.39559410 # occ.  2.00000000
 
ion      s     py     pz     px    dxy    dyz    dz2    dxz  x2-y2    tot
    1  0.000  0.001  0.000  0.172  0.000  0.000  0.000  0.000  0.000  0.173
    2  0.023  0.039  0.000  0.031  0.000  0.000  0.000  0.000  0.000  0.094
    3  0.020  0.043  0.000  0.022  0.000  0.000  0.000  0.000  0.000  0.085
    4  0.000  0.000  0.000  0.036  0.000  0.000  0.000  0.000  0.000  0.036
    5  0.001  0.000  0.000  0.008  0.000  0.000  0.000  0.000  0.000  0.010
    6  0.198  0.009  0.000  0.007  0.000  0.000  0.000  0.000  0.000  0.215
    7  0.167  0.010  0.000  0.005  0.000  0.000  0.000  0.000  0.000  0.183
tot    0.410  0.103  0.001  0.281  0.000  0.000  0.000  0.000  0.000  0.795
 
band     3 # energy  -17.39551365 # occ.  2.00000000
 
ion      s     py     pz     px    dxy    dyz    dz2    dxz  x2-y2    tot
    1  0.000  0.172  0.000  0.001  0.000  0.000  0.000  0.000  0.000  0.173
    2  0.005  0.007  0.000  0.036  0.000  0.000  0.000  0.000  0.000  0.049
    3  0.009  0.003  0.000  0.046  0.000  0.000  0.000  0.000  0.000  0.058
    4  0.029  0.078  0.000  0.000  0.000  0.000  0.000  0.000  0.000  0.107
    5  0.243  0.018  0.000  0.000  0.000  0.000  0.000  0.000  0.000  0.262
    6  0.046  0.002  0.000  0.009  0.000  0.000  0.000  0.000  0.000  0.057
    7  0.077  0.001  0.000  0.011  0.000  0.000  0.000  0.000  0.000  0.089
tot    0.410  0.281  0.001  0.103  0.000  0.000  0.000  0.000  0.000  0.795
 
band     4 # energy  -14.19118257 # occ.  2.00000000
 
ion      s     py     pz     px    dxy    dyz    dz2    dxz  x2-y2    tot
    1  0.154  0.000  0.007  0.000  0.000  0.000  0.000  0.000  0.000  0.161
    2  0.019  0.019  0.000  0.058  0.000  0.000  0.000  0.000  0.000  0.096
    3  0.019  0.019  0.000  0.058  0.000  0.000  0.000  0.000  0.000  0.096
    4  0.019  0.077  0.000  0.000  0.000  0.000  0.000  0.000  0.000  0.096
    5  0.014  0.079  0.000  0.000  0.000  0.000  0.000  0.000  0.000  0.093
    6  0.014  0.020  0.000  0.059  0.000  0.000  0.000  0.000  0.000  0.093
    7  0.014  0.020  0.000  0.059  0.000  0.000  0.000  0.000  0.000  0.093
tot    0.252  0.234  0.009  0.234  0.000  0.000  0.000  0.000  0.000  0.728
 
band     5 # energy  -12.86404483 # occ.  2.00000000
 
ion      s     py     pz     px    dxy    dyz    dz2    dxz  x2-y2    tot
    1  0.000  0.014  0.000  0.027  0.000  0.000  0.000  0.000  0.000  0.041
    2  0.237  0.001  0.001  0.005  0.000  0.000  0.000  0.000  0.000  0.243
    3  0.041  0.015  0.000  0.001  0.000  0.000  0.000  0.000  0.000  0.057
    4  0.080  0.002  0.000  0.012  0.000  0.000  0.000  0.000  0.000  0.094
    5  0.023  0.024  0.000  0.043  0.000  0.000  0.000  0.000  0.000  0.090
    6  0.068  0.013  0.000  0.059  0.000  0.000  0.000  0.000  0.000  0.139
    7  0.012  0.065  0.000  0.000  0.000  0.000  0.000  0.000  0.000  0.078
tot    0.461  0.133  0.002  0.147  0.000  0.000  0.000  0.000  0.000  0.742
 
band     6 # energy  -12.86398375 # occ.  2.00000000
 
ion      s     py     pz     px    dxy    dyz    dz2    dxz  x2-y2    tot
    1  0.000  0.027  0.000  0.014  0.000  0.000  0.000  0.000  0.000  0.041
    2  0.002  0.014  0.000  0.004  0.000  0.000  0.000  0.000  0.000  0.020
    3  0.197  0.000  0.001  0.007  0.000  0.000  0.000  0.000  0.000  0.206
    4  0.159  0.003  0.001  0.006  0.000  0.000  0.000  0.000  0.000  0.169
    5  0.045  0.047  0.000  0.022  0.000  0.000  0.000  0.000  0.000  0.114
    6  0.001  0.054  0.000  0.011  0.000  0.000  0.000  0.000  0.000  0.065
    7  0.056  0.001  0.000  0.069  0.000  0.000  0.000  0.000  0.000  0.127
tot    0.461  0.147  0.002  0.133  0.000  0.000  0.000  0.000  0.000  0.742
 
band     7 # energy  -11.14836254 # occ.  2.00000000
 
ion      s     py     pz     px    dxy    dyz    dz2    dxz  x2-y2    tot
    1  0.000  0.000  0.000  0.000  0.000  0.000  0.000  0.000  0.000  0.000
    2  0.000  0.082  0.000  0.027  0.000  0.000  0.000  0.000  0.000  0.109
    3  0.000  0.082  0.000  0.027  0.000  0.000  0.000  0.000  0.000  0.109
    4  0.000  0.000  0.000  0.109  0.000  0.000  0.000  0.000  0.000  0.109
    5  0.000  0.000  0.000  0.096  0.000  0.000  0.000  0.000  0.000  0.096
    6  0.000  0.072  0.000  0.024  0.000  0.000  0.000  0.000  0.000  0.096
    7  0.000  0.072  0.000  0.024  0.000  0.000  0.000  0.000  0.000  0.096
tot    0.000  0.308  0.000  0.308  0.000  0.000  0.000  0.000  0.000  0.616
 
band     8 # energy  -10.25046666 # occ.  2.00000000
 
ion      s     py     pz     px    dxy    dyz    dz2    dxz  x2-y2    tot
    1  0.010  0.000  0.098  0.000  0.000  0.000  0.000  0.000  0.000  0.108
    2  0.000  0.000  0.050  0.001  0.000  0.000  0.000  0.000  0.000  0.052
    3  0.000  0.000  0.050  0.001  0.000  0.000  0.000  0.000  0.000  0.052
    4  0.000  0.001  0.050  0.000  0.000  0.000  0.000  0.000  0.000  0.052
    5  0.000  0.001  0.060  0.000  0.000  0.000  0.000  0.000  0.000  0.061
    6  0.000  0.000  0.060  0.001  0.000  0.000  0.000  0.000  0.000  0.061
    7  0.000  0.000  0.060  0.001  0.000  0.000  0.000  0.000  0.000  0.061
tot    0.012  0.003  0.427  0.003  0.000  0.000  0.000  0.000  0.000  0.445
 
band     9 # energy   -5.33615848 # occ.  2.00000000
 
ion      s     py     pz     px    dxy    dyz    dz2    dxz  x2-y2    tot
    1  0.000  0.001  0.000  0.020  0.000  0.000  0.000  0.000  0.000  0.021
    2  0.000  0.000  0.000  0.093  0.000  0.000  0.000  0.000  0.000  0.093
    3  0.000  0.012  0.000  0.107  0.000  0.000  0.000  0.000  0.000  0.119
    4  0.000  0.006  0.000  0.051  0.000  0.000  0.000  0.000  0.000  0.057
    5  0.000  0.008  0.000  0.133  0.000  0.000  0.000  0.000  0.000  0.141
    6  0.000  0.005  0.005  0.149  0.000  0.000  0.000  0.000  0.000  0.159
    7  0.000  0.009  0.009  0.153  0.000  0.000  0.000  0.000  0.000  0.171
tot    0.001  0.039  0.014  0.706  0.000  0.000  0.000  0.000  0.000  0.761
 
band    10 # energy   -5.33575331 # occ.  2.00000000
 
ion      s     py     pz     px    dxy    dyz    dz2    dxz  x2-y2    tot
    1  0.000  0.020  0.000  0.001  0.000  0.000  0.000  0.000  0.000  0.021
    2  0.000  0.072  0.000  0.014  0.000  0.000  0.000  0.000  0.000  0.086
    3  0.000  0.060  0.000  0.000  0.000  0.000  0.000  0.000  0.000  0.060
    4  0.000  0.119  0.000  0.002  0.000  0.000  0.000  0.000  0.000  0.122
    5  0.000  0.157  0.009  0.006  0.000  0.000  0.000  0.000  0.000  0.173
    6  0.000  0.141  0.004  0.010  0.000  0.000  0.000  0.000  0.000  0.155
    7  0.000  0.137  0.001  0.005  0.000  0.000  0.000  0.000  0.000  0.143
tot    0.001  0.706  0.014  0.039  0.000  0.000  0.000  0.000  0.000  0.761
 
band    11 # energy   -3.26712181 # occ.  2.00000000
 
ion      s     py     pz     px    dxy    dyz    dz2    dxz  x2-y2    tot
    1  0.000  0.017  0.000  0.001  0.000  0.000  0.000  0.000  0.000  0.018
    2  0.002  0.008  0.002  0.000  0.000  0.000  0.000  0.000  0.000  0.012
    3  0.000  0.010  0.000  0.002  0.000  0.000  0.000  0.000  0.000  0.013
    4  0.004  0.004  0.003  0.001  0.000  0.000  0.000  0.000  0.000  0.012
    5  0.001  0.009  0.258  0.000  0.000  0.000  0.000  0.000  0.000  0.268
    6  0.001  0.003  0.129  0.002  0.000  0.000  0.000  0.000  0.000  0.135
    7  0.000  0.002  0.022  0.000  0.000  0.000  0.000  0.000  0.000  0.024
tot    0.009  0.054  0.414  0.005  0.000  0.000  0.000  0.000  0.000  0.481
 
band    12 # energy   -3.26693671 # occ.  2.00000000
 
ion      s     py     pz     px    dxy    dyz    dz2    dxz  x2-y2    tot
    1  0.000  0.001  0.000  0.017  0.000  0.000  0.000  0.000  0.000  0.018
    2  0.002  0.002  0.002  0.006  0.000  0.000  0.000  0.000  0.000  0.012
    3  0.004  0.000  0.003  0.004  0.000  0.000  0.000  0.000  0.000  0.012
    4  0.000  0.000  0.000  0.012  0.000  0.000  0.000  0.000  0.000  0.013
    5  0.000  0.001  0.015  0.001  0.000  0.000  0.000  0.000  0.000  0.017
    6  0.001  0.000  0.143  0.005  0.000  0.000  0.000  0.000  0.000  0.150
    7  0.001  0.001  0.250  0.007  0.000  0.000  0.000  0.000  0.000  0.260
tot    0.009  0.005  0.414  0.054  0.000  0.000  0.000  0.000  0.000  0.481
 
band    13 # energy   -0.35048033 # occ.  0.00000000
 
ion      s     py     pz     px    dxy    dyz    dz2    dxz  x2-y2    tot
    1  0.000  0.000  0.000  0.021  0.000  0.000  0.000  0.000  0.000  0.021
    2  0.005  0.000  0.229  0.001  0.000  0.000  0.000  0.000  0.000  0.235
    3  0.005  0.000  0.213  0.001  0.000  0.000  0.000  0.000  0.000  0.219
    4  0.000  0.000  0.000  0.002  0.000  0.000  0.000  0.000  0.000  0.003
    5  0.000  0.000  0.000  0.001  0.000  0.000  0.000  0.000  0.000  0.001
    6  0.001  0.000  0.009  0.000  0.000  0.000  0.000  0.000  0.000  0.011
    7  0.001  0.000  0.008  0.000  0.000  0.000  0.000  0.000  0.000  0.010
tot    0.012  0.001  0.460  0.028  0.000  0.000  0.000  0.000  0.000  0.500
 
band    14 # energy   -0.35042132 # occ.  0.00000000
 
ion      s     py     pz     px    dxy    dyz    dz2    dxz  x2-y2    tot
    1  0.000  0.021  0.000  0.000  0.000  0.000  0.000  0.000  0.000  0.021
    2  0.001  0.002  0.066  0.000  0.000  0.000  0.000  0.000  0.000  0.070
    3  0.002  0.002  0.082  0.000  0.000  0.000  0.000  0.000  0.000  0.085
    4  0.006  0.001  0.294  0.000  0.000  0.000  0.000  0.000  0.000  0.302
    5  0.002  0.000  0.012  0.000  0.000  0.000  0.000  0.000  0.000  0.013
    6  0.000  0.001  0.003  0.000  0.000  0.000  0.000  0.000  0.000  0.004
    7  0.000  0.001  0.003  0.000  0.000  0.000  0.000  0.000  0.000  0.005
tot    0.012  0.028  0.460  0.001  0.000  0.000  0.000  0.000  0.000  0.500
 
band    15 # energy   -0.21087455 # occ.  0.00000000
 
ion      s     py     pz     px    dxy    dyz    dz2    dxz  x2-y2    tot
    1  0.017  0.000  0.233  0.000  0.000  0.000  0.000  0.000  0.000  0.250
    2  0.001  0.000  0.013  0.000  0.000  0.000  0.000  0.000  0.000  0.014
    3  0.001  0.000  0.013  0.000  0.000  0.000  0.000  0.000  0.000  0.014
    4  0.001  0.000  0.013  0.000  0.000  0.000  0.000  0.000  0.000  0.014
    5  0.005  0.000  0.006  0.000  0.000  0.000  0.000  0.000  0.000  0.011
    6  0.005  0.000  0.006  0.000  0.000  0.000  0.000  0.000  0.000  0.011
    7  0.005  0.000  0.006  0.000  0.000  0.000  0.000  0.000  0.000  0.011
tot    0.035  0.000  0.290  0.000  0.000  0.000  0.000  0.000  0.000  0.326
 
band    16 # energy    1.43635568 # occ.  0.00000000
 
ion      s     py     pz     px    dxy    dyz    dz2    dxz  x2-y2    tot
    1  0.013  0.000  0.075  0.000  0.000  0.000  0.000  0.000  0.000  0.089
    2  0.000  0.000  0.001  0.000  0.000  0.000  0.000  0.000  0.000  0.002
    3  0.000  0.000  0.001  0.000  0.000  0.000  0.000  0.000  0.000  0.002
    4  0.000  0.000  0.001  0.000  0.000  0.000  0.000  0.000  0.000  0.002
    5  0.001  0.000  0.000  0.000  0.000  0.000  0.000  0.000  0.000  0.002
    6  0.001  0.000  0.000  0.000  0.000  0.000  0.000  0.000  0.000  0.002
    7  0.001  0.000  0.000  0.000  0.000  0.000  0.000  0.000  0.000  0.002
tot    0.018  0.001  0.080  0.001  0.000  0.000  0.000  0.000  0.000  0.099
 
band    17 # energy    1.95556180 # occ.  0.00000000
 
ion      s     py     pz     px    dxy    dyz    dz2    dxz  x2-y2    tot
    1  0.001  0.000  0.004  0.000  0.000  0.000  0.000  0.000  0.000  0.005
    2  0.000  0.000  0.004  0.000  0.000  0.000  0.000  0.000  0.000  0.004
    3  0.000  0.000  0.004  0.000  0.000  0.000  0.000  0.000  0.000  0.004
    4  0.000  0.000  0.004  0.000  0.000  0.000  0.000  0.000  0.000  0.004
    5  0.000  0.000  0.007  0.000  0.000  0.000  0.000  0.000  0.000  0.008
    6  0.000  0.000  0.007  0.000  0.000  0.000  0.000  0.000  0.000  0.008
    7  0.000  0.000  0.007  0.000  0.000  0.000  0.000  0.000  0.000  0.008
tot    0.001  0.000  0.039  0.000  0.000  0.000  0.000  0.000  0.000  0.040
 
band    18 # energy    2.53782801 # occ.  0.00000000
 
ion      s     py     pz     px    dxy    dyz    dz2    dxz  x2-y2    tot
    1  0.006  0.000  0.019  0.000  0.000  0.000  0.000  0.000  0.000  0.025
    2  0.000  0.000  0.001  0.000  0.000  0.000  0.000  0.000  0.000  0.001
    3  0.000  0.000  0.001  0.000  0.000  0.000  0.000  0.000  0.000  0.001
    4  0.000  0.000  0.001  0.000  0.000  0.000  0.000  0.000  0.000  0.001
    5  0.003  0.000  0.001  0.000  0.000  0.000  0.000  0.000  0.000  0.003
    6  0.003  0.000  0.001  0.000  0.000  0.000  0.000  0.000  0.000  0.003
    7  0.003  0.000  0.001  0.000  0.000  0.000  0.000  0.000  0.000  0.003
tot    0.014  0.000  0.024  0.000  0.000  0.000  0.000  0.000  0.000  0.039
 
band    19 # energy    3.28821238 # occ.  0.00000000
 
ion      s     py     pz     px    dxy    dyz    dz2    dxz  x2-y2    tot
    1  0.000  0.172  0.000  0.017  0.000  0.000  0.000  0.000  0.000  0.189
    2  0.016  0.089  0.008  0.002  0.000  0.000  0.000  0.000  0.000  0.116
    3  0.001  0.105  0.001  0.015  0.000  0.000  0.000  0.000  0.000  0.123
    4  0.027  0.058  0.014  0.011  0.000  0.000  0.000  0.000  0.000  0.111
    5  0.007  0.012  0.005  0.002  0.000  0.000  0.000  0.000  0.000  0.026
    6  0.004  0.017  0.003  0.001  0.000  0.000  0.000  0.000  0.000  0.025
    7  0.000  0.019  0.000  0.003  0.000  0.000  0.000  0.000  0.000  0.022
tot    0.057  0.472  0.032  0.051  0.000  0.000  0.000  0.000  0.000  0.612
 
band    20 # energy    3.28828970 # occ.  0.00000000
 
ion      s     py     pz     px    dxy    dyz    dz2    dxz  x2-y2    tot
    1  0.000  0.017  0.000  0.172  0.000  0.000  0.000  0.000  0.000  0.189
    2  0.014  0.019  0.007  0.077  0.000  0.000  0.000  0.000  0.000  0.117
    3  0.029  0.003  0.015  0.064  0.000  0.000  0.000  0.000  0.000  0.111
    4  0.003  0.006  0.001  0.112  0.000  0.000  0.000  0.000  0.000  0.122
    5  0.001  0.001  0.001  0.020  0.000  0.000  0.000  0.000  0.000  0.023
    6  0.004  0.003  0.003  0.015  0.000  0.000  0.000  0.000  0.000  0.024
    7  0.008  0.001  0.006  0.013  0.000  0.000  0.000  0.000  0.000  0.027
tot    0.057  0.051  0.032  0.472  0.000  0.000  0.000  0.000  0.000  0.612
 
band    21 # energy    4.36410599 # occ.  0.00000000
 
ion      s     py     pz     px    dxy    dyz    dz2    dxz  x2-y2    tot
    1  0.000  0.000  0.000  0.000  0.000  0.000  0.000  0.000  0.000  0.000
    2  0.000  0.000  0.002  0.000  0.000  0.000  0.000  0.000  0.000  0.002
    3  0.000  0.000  0.002  0.000  0.000  0.000  0.000  0.000  0.000  0.002
    4  0.000  0.000  0.002  0.000  0.000  0.000  0.000  0.000  0.000  0.002
    5  0.000  0.000  0.011  0.000  0.000  0.000  0.000  0.000  0.000  0.011
    6  0.000  0.000  0.011  0.000  0.000  0.000  0.000  0.000  0.000  0.011
    7  0.000  0.000  0.011  0.000  0.000  0.000  0.000  0.000  0.000  0.011
tot    0.000  0.000  0.038  0.000  0.000  0.000  0.000  0.000  0.000  0.038
 
band    22 # energy    5.12277119 # occ.  0.00000000
 
ion      s     py     pz     px    dxy    dyz    dz2    dxz  x2-y2    tot
    1  0.003  0.000  0.002  0.000  0.000  0.000  0.000  0.000  0.000  0.005
    2  0.000  0.000  0.000  0.000  0.000  0.000  0.000  0.000  0.000  0.000
    3  0.000  0.000  0.000  0.000  0.000  0.000  0.000  0.000  0.000  0.000
    4  0.000  0.000  0.000  0.000  0.000  0.000  0.000  0.000  0.000  0.000
    5  0.009  0.000  0.000  0.000  0.000  0.000  0.000  0.000  0.000  0.009
    6  0.009  0.000  0.000  0.000  0.000  0.000  0.000  0.000  0.000  0.009
    7  0.009  0.000  0.000  0.000  0.000  0.000  0.000  0.000  0.000  0.009
tot    0.029  0.001  0.003  0.001  0.000  0.000  0.000  0.000  0.000  0.033
 
band    23 # energy    7.53578019 # occ.  0.00000000
 
ion      s     py     pz     px    dxy    dyz    dz2    dxz  x2-y2    tot
    1  0.000  0.000  0.000  0.000  0.000  0.000  0.000  0.000  0.000  0.000
    2  0.000  0.000  0.000  0.000  0.000  0.000  0.000  0.000  0.000  0.000
    3  0.000  0.000  0.000  0.000  0.000  0.000  0.000  0.000  0.000  0.000
    4  0.000  0.000  0.000  0.000  0.000  0.000  0.000  0.000  0.000  0.000
    5  0.000  0.000  0.000  0.000  0.000  0.000  0.000  0.000  0.000  0.000
    6  0.000  0.000  0.000  0.000  0.000  0.000  0.000  0.000  0.000  0.000
    7  0.000  0.000  0.000  0.000  0.000  0.000  0.000  0.000  0.000  0.000
tot    0.000  0.001  0.000  0.001  0.000  0.000  0.000  0.000  0.000  0.001
 
band    24 # energy    7.89488797 # occ.  0.00000000
 
ion      s     py     pz     px    dxy    dyz    dz2    dxz  x2-y2    tot
    1  0.052  0.000  0.004  0.000  0.000  0.000  0.000  0.000  0.000  0.056
    2  0.008  0.007  0.001  0.020  0.000  0.000  0.000  0.000  0.000  0.035
    3  0.008  0.007  0.001  0.020  0.000  0.000  0.000  0.000  0.000  0.036
    4  0.008  0.027  0.001  0.000  0.000  0.000  0.000  0.000  0.000  0.036
    5  0.000  0.021  0.017  0.000  0.000  0.000  0.000  0.000  0.000  0.038
    6  0.000  0.005  0.017  0.016  0.000  0.000  0.000  0.000  0.000  0.038
    7  0.000  0.005  0.017  0.016  0.000  0.000  0.000  0.000  0.000  0.038
tot    0.077  0.072  0.057  0.072  0.000  0.000  0.000  0.000  0.000  0.277
 
band    25 # energy    8.33221824 # occ.  0.00000000
 
ion      s     py     pz     px    dxy    dyz    dz2    dxz  x2-y2    tot
    1  0.033  0.000  0.005  0.000  0.000  0.000  0.000  0.000  0.000  0.037
    2  0.014  0.005  0.001  0.015  0.000  0.000  0.000  0.000  0.000  0.035
    3  0.014  0.005  0.001  0.015  0.000  0.000  0.000  0.000  0.000  0.035
    4  0.014  0.020  0.001  0.000  0.000  0.000  0.000  0.000  0.000  0.035
    5  0.006  0.010  0.028  0.000  0.000  0.000  0.000  0.000  0.000  0.044
    6  0.006  0.003  0.028  0.008  0.000  0.000  0.000  0.000  0.000  0.044
    7  0.006  0.003  0.028  0.008  0.000  0.000  0.000  0.000  0.000  0.044
tot    0.091  0.046  0.091  0.046  0.000  0.000  0.000  0.000  0.000  0.273
 
band    26 # energy    8.84572425 # occ.  0.00000000
 
ion      s     py     pz     px    dxy    dyz    dz2    dxz  x2-y2    tot
    1  0.004  0.000  0.001  0.000  0.000  0.000  0.000  0.000  0.000  0.004
    2  0.018  0.000  0.001  0.000  0.000  0.000  0.000  0.000  0.000  0.019
    3  0.018  0.000  0.001  0.000  0.000  0.000  0.000  0.000  0.000  0.019
    4  0.018  0.000  0.001  0.000  0.000  0.000  0.000  0.000  0.000  0.019
    5  0.049  0.002  0.000  0.000  0.000  0.000  0.000  0.000  0.000  0.051
    6  0.049  0.001  0.000  0.002  0.000  0.000  0.000  0.000  0.000  0.051
    7  0.049  0.001  0.000  0.002  0.000  0.000  0.000  0.000  0.000  0.051
tot    0.202  0.003  0.004  0.003  0.000  0.000  0.000  0.000  0.000  0.213
 
band    27 # energy    8.94384606 # occ.  0.00000000
 
ion      s     py     pz     px    dxy    dyz    dz2    dxz  x2-y2    tot
    1  0.000  0.001  0.000  0.000  0.000  0.000  0.000  0.000  0.000  0.001
    2  0.007  0.003  0.000  0.001  0.000  0.000  0.000  0.000  0.000  0.011
    3  0.001  0.003  0.000  0.000  0.000  0.000  0.000  0.000  0.000  0.004
    4  0.011  0.004  0.001  0.000  0.000  0.000  0.000  0.000  0.000  0.016
    5  0.000  0.029  0.000  0.012  0.000  0.000  0.000  0.000  0.000  0.042
    6  0.000  0.011  0.000  0.045  0.000  0.000  0.000  0.000  0.000  0.056
    7  0.000  0.053  0.000  0.029  0.000  0.000  0.000  0.000  0.000  0.082
tot    0.020  0.103  0.002  0.088  0.000  0.000  0.000  0.000  0.000  0.212
 
band    28 # energy    8.94394368 # occ.  0.00000000
 
ion      s     py     pz     px    dxy    dyz    dz2    dxz  x2-y2    tot
    1  0.000  0.000  0.000  0.001  0.000  0.000  0.000  0.000  0.000  0.001
    2  0.005  0.000  0.000  0.003  0.000  0.000  0.000  0.000  0.000  0.009
    3  0.012  0.001  0.001  0.003  0.000  0.000  0.000  0.000  0.000  0.017
    4  0.002  0.001  0.000  0.003  0.000  0.000  0.000  0.000  0.000  0.005
    5  0.000  0.005  0.000  0.074  0.000  0.000  0.000  0.000  0.000  0.079
    6  0.000  0.062  0.000  0.002  0.000  0.000  0.000  0.000  0.000  0.064
    7  0.000  0.020  0.000  0.017  0.000  0.000  0.000  0.000  0.000  0.038
tot    0.020  0.088  0.002  0.103  0.000  0.000  0.000  0.000  0.000  0.212
 
band    29 # energy    9.69783092 # occ.  0.00000000
 
ion      s     py     pz     px    dxy    dyz    dz2    dxz  x2-y2    tot
    1  0.000  0.001  0.000  0.002  0.000  0.000  0.000  0.000  0.000  0.003
    2  0.001  0.010  0.000  0.013  0.000  0.000  0.000  0.000  0.000  0.024
    3  0.000  0.024  0.000  0.006  0.000  0.000  0.000  0.000  0.000  0.030
    4  0.000  0.007  0.000  0.023  0.000  0.000  0.000  0.000  0.000  0.030
    5  0.000  0.002  0.000  0.003  0.000  0.000  0.000  0.000  0.000  0.005
    6  0.000  0.002  0.001  0.003  0.000  0.000  0.000  0.000  0.000  0.005
    7  0.000  0.003  0.000  0.001  0.000  0.000  0.000  0.000  0.000  0.005
tot    0.001  0.049  0.001  0.050  0.000  0.000  0.000  0.000  0.000  0.102
 
band    30 # energy    9.69788881 # occ.  0.00000000
 
ion      s     py     pz     px    dxy    dyz    dz2    dxz  x2-y2    tot
    1  0.000  0.002  0.000  0.001  0.000  0.000  0.000  0.000  0.000  0.003
    2  0.000  0.022  0.000  0.010  0.000  0.000  0.000  0.000  0.000  0.032
    3  0.001  0.008  0.000  0.018  0.000  0.000  0.000  0.000  0.000  0.026
    4  0.001  0.012  0.000  0.013  0.000  0.000  0.000  0.000  0.000  0.026
    5  0.000  0.003  0.000  0.002  0.000  0.000  0.000  0.000  0.000  0.005
    6  0.000  0.003  0.000  0.002  0.000  0.000  0.000  0.000  0.000  0.005
    7  0.000  0.001  0.000  0.003  0.000  0.000  0.000  0.000  0.000  0.005
tot    0.001  0.050  0.001  0.049  0.000  0.000  0.000  0.000  0.000  0.101
 
band    31 # energy    9.83484060 # occ.  0.00000000
 
ion      s     py     pz     px    dxy    dyz    dz2    dxz  x2-y2    tot
    1  0.007  0.000  0.001  0.000  0.000  0.000  0.000  0.000  0.000  0.008
    2  0.017  0.000  0.082  0.000  0.000  0.000  0.000  0.000  0.000  0.099
    3  0.017  0.000  0.082  0.000  0.000  0.000  0.000  0.000  0.000  0.099
    4  0.017  0.000  0.082  0.000  0.000  0.000  0.000  0.000  0.000  0.099
    5  0.011  0.001  0.055  0.000  0.000  0.000  0.000  0.000  0.000  0.068
    6  0.011  0.000  0.056  0.001  0.000  0.000  0.000  0.000  0.000  0.068
    7  0.011  0.000  0.056  0.001  0.000  0.000  0.000  0.000  0.000  0.068
tot    0.091  0.002  0.414  0.002  0.000  0.000  0.000  0.000  0.000  0.509
 
band    32 # energy    9.84508072 # occ.  0.00000000
 
ion      s     py     pz     px    dxy    dyz    dz2    dxz  x2-y2    tot
    1  0.000  0.000  0.000  0.000  0.000  0.000  0.000  0.000  0.000  0.000
    2  0.000  0.002  0.000  0.001  0.000  0.000  0.000  0.000  0.000  0.003
    3  0.000  0.003  0.000  0.001  0.000  0.000  0.000  0.000  0.000  0.003
    4  0.000  0.000  0.000  0.003  0.000  0.000  0.000  0.000  0.000  0.003
    5  0.000  0.000  0.000  0.022  0.000  0.000  0.000  0.000  0.000  0.022
    6  0.000  0.017  0.000  0.006  0.000  0.000  0.000  0.000  0.000  0.022
    7  0.000  0.017  0.000  0.006  0.000  0.000  0.000  0.000  0.000  0.022
tot    0.000  0.039  0.000  0.039  0.000  0.000  0.000  0.000  0.000  0.077
 
band    33 # energy   10.17364611 # occ.  0.00000000
 
ion      s     py     pz     px    dxy    dyz    dz2    dxz  x2-y2    tot
    1  0.080  0.000  0.057  0.000  0.000  0.000  0.000  0.000  0.000  0.137
    2  0.025  0.001  0.016  0.003  0.000  0.000  0.000  0.000  0.000  0.046
    3  0.026  0.001  0.016  0.003  0.000  0.000  0.000  0.000  0.000  0.047
    4  0.026  0.004  0.017  0.000  0.000  0.000  0.000  0.000  0.000  0.047
    5  0.046  0.006  0.023  0.000  0.000  0.000  0.000  0.000  0.000  0.075
    6  0.047  0.002  0.023  0.005  0.000  0.000  0.000  0.000  0.000  0.077
    7  0.046  0.001  0.023  0.004  0.000  0.000  0.000  0.000  0.000  0.076
tot    0.297  0.015  0.177  0.016  0.000  0.000  0.000  0.000  0.000  0.505
 
band    34 # energy   10.76344785 # occ.  0.00000000
 
ion      s     py     pz     px    dxy    dyz    dz2    dxz  x2-y2    tot
    1  0.045  0.000  0.005  0.000  0.000  0.000  0.000  0.000  0.000  0.050
    2  0.011  0.002  0.006  0.007  0.000  0.000  0.000  0.000  0.000  0.026
    3  0.011  0.003  0.006  0.008  0.000  0.000  0.000  0.000  0.000  0.027
    4  0.011  0.010  0.006  0.000  0.000  0.000  0.000  0.000  0.000  0.027
    5  0.000  0.002  0.006  0.000  0.000  0.000  0.000  0.000  0.000  0.008
    6  0.000  0.000  0.005  0.001  0.000  0.000  0.000  0.000  0.000  0.007
    7  0.000  0.000  0.006  0.002  0.000  0.000  0.000  0.000  0.000  0.009
tot    0.079  0.018  0.040  0.018  0.000  0.000  0.000  0.000  0.000  0.154
 
band    35 # energy   10.81963011 # occ.  0.00000000
 
ion      s     py     pz     px    dxy    dyz    dz2    dxz  x2-y2    tot
    1  0.000  0.000  0.000  0.000  0.000  0.000  0.000  0.000  0.000  0.000
    2  0.000  0.000  0.000  0.001  0.000  0.000  0.000  0.000  0.000  0.002
    3  0.000  0.001  0.000  0.001  0.000  0.000  0.000  0.000  0.000  0.002
    4  0.000  0.001  0.000  0.000  0.000  0.000  0.000  0.000  0.000  0.001
    5  0.000  0.000  0.017  0.000  0.000  0.000  0.000  0.000  0.000  0.018
    6  0.000  0.000  0.007  0.000  0.000  0.000  0.000  0.000  0.000  0.007
    7  0.000  0.000  0.003  0.000  0.000  0.000  0.000  0.000  0.000  0.003
tot    0.000  0.002  0.028  0.002  0.000  0.000  0.000  0.000  0.000  0.032
 
band    36 # energy   10.81970886 # occ.  0.00000000
 
ion      s     py     pz     px    dxy    dyz    dz2    dxz  x2-y2    tot
    1  0.000  0.000  0.000  0.000  0.000  0.000  0.000  0.000  0.000  0.000
    2  0.000  0.001  0.000  0.000  0.000  0.000  0.000  0.000  0.000  0.002
    3  0.000  0.001  0.000  0.000  0.000  0.000  0.000  0.000  0.000  0.001
    4  0.000  0.000  0.000  0.002  0.000  0.000  0.000  0.000  0.000  0.002
    5  0.000  0.000  0.001  0.000  0.000  0.000  0.000  0.000  0.000  0.001
    6  0.000  0.000  0.012  0.000  0.000  0.000  0.000  0.000  0.000  0.012
    7  0.000  0.000  0.015  0.000  0.000  0.000  0.000  0.000  0.000  0.015
tot    0.000  0.002  0.028  0.002  0.000  0.000  0.000  0.000  0.000  0.032
 
band    37 # energy   10.98049976 # occ.  0.00000000
 
ion      s     py     pz     px    dxy    dyz    dz2    dxz  x2-y2    tot
    1  0.000  0.000  0.000  0.000  0.000  0.000  0.000  0.000  0.000  0.000
    2  0.001  0.002  0.003  0.001  0.000  0.000  0.000  0.000  0.000  0.006
    3  0.003  0.000  0.011  0.002  0.000  0.000  0.000  0.000  0.000  0.017
    4  0.002  0.001  0.008  0.001  0.000  0.000  0.000  0.000  0.000  0.013
    5  0.001  0.003  0.000  0.004  0.000  0.000  0.000  0.000  0.000  0.007
    6  0.000  0.006  0.000  0.002  0.000  0.000  0.000  0.000  0.000  0.008
    7  0.001  0.001  0.000  0.004  0.000  0.000  0.000  0.000  0.000  0.007
tot    0.009  0.014  0.022  0.014  0.000  0.000  0.000  0.000  0.000  0.059
 
band    38 # energy   10.98064207 # occ.  0.00000000
 
ion      s     py     pz     px    dxy    dyz    dz2    dxz  x2-y2    tot
    1  0.000  0.000  0.000  0.000  0.000  0.000  0.000  0.000  0.000  0.000
    2  0.004  0.001  0.012  0.002  0.000  0.000  0.000  0.000  0.000  0.018
    3  0.001  0.002  0.004  0.000  0.000  0.000  0.000  0.000  0.000  0.007
    4  0.002  0.001  0.007  0.002  0.000  0.000  0.000  0.000  0.000  0.011
    5  0.001  0.002  0.000  0.005  0.000  0.000  0.000  0.000  0.000  0.008
    6  0.002  0.001  0.000  0.004  0.000  0.000  0.000  0.000  0.000  0.007
    7  0.000  0.007  0.000  0.001  0.000  0.000  0.000  0.000  0.000  0.008
tot    0.009  0.014  0.022  0.014  0.000  0.000  0.000  0.000  0.000  0.060
 
band    39 # energy   11.06950595 # occ.  0.00000000
 
ion      s     py     pz     px    dxy    dyz    dz2    dxz  x2-y2    tot
    1  0.004  0.000  0.018  0.000  0.000  0.000  0.000  0.000  0.000  0.022
    2  0.007  0.000  0.007  0.000  0.000  0.000  0.000  0.000  0.000  0.014
    3  0.008  0.000  0.007  0.000  0.000  0.000  0.000  0.000  0.000  0.015
    4  0.008  0.000  0.007  0.000  0.000  0.000  0.000  0.000  0.000  0.014
    5  0.003  0.000  0.001  0.000  0.000  0.000  0.000  0.000  0.000  0.005
    6  0.004  0.000  0.001  0.000  0.000  0.000  0.000  0.000  0.000  0.006
    7  0.004  0.000  0.001  0.000  0.000  0.000  0.000  0.000  0.000  0.005
tot    0.037  0.001  0.042  0.001  0.000  0.000  0.000  0.000  0.000  0.081
 
band    40 # energy   11.13676897 # occ.  0.00000000
 
ion      s     py     pz     px    dxy    dyz    dz2    dxz  x2-y2    tot
    1  0.000  0.000  0.000  0.000  0.000  0.000  0.000  0.000  0.000  0.000
    2  0.002  0.001  0.001  0.001  0.000  0.000  0.000  0.000  0.000  0.005
    3  0.005  0.001  0.002  0.003  0.000  0.000  0.000  0.000  0.000  0.010
    4  0.007  0.003  0.003  0.001  0.000  0.000  0.000  0.000  0.000  0.014
    5  0.001  0.005  0.000  0.004  0.000  0.000  0.000  0.000  0.000  0.010
    6  0.000  0.009  0.000  0.005  0.000  0.000  0.000  0.000  0.000  0.014
    7  0.001  0.003  0.000  0.008  0.000  0.000  0.000  0.000  0.000  0.012
tot    0.016  0.023  0.006  0.022  0.000  0.000  0.000  0.000  0.000  0.066
 
band    41 # energy   11.13720155 # occ.  0.00000000
 
ion      s     py     pz     px    dxy    dyz    dz2    dxz  x2-y2    tot
    1  0.000  0.000  0.000  0.000  0.000  0.000  0.000  0.000  0.000  0.000