 running   48 mpi-ranks, with    1 threads/rank, on    1 nodes
 distrk:  each k-point on   48 cores,    1 groups
 distr:  one band on    1 cores,   48 groups
 vasp.6.4.2 20Jul23 (build Aug 23 2023 19:13:21) complex                        
  
 POSCAR found type information on POSCAR B C 
 POSCAR found :  2 types and       7 ions
 Reading from existing POTCAR
 scaLAPACK will be used
 Reading from existing POTCAR
 LDA part: xc-table for Pade appr. of Perdew
 POSCAR found type information on POSCAR B C 
 POSCAR found :  2 types and       7 ions
 POSCAR, INCAR and KPOINTS ok, starting setup
 FFT: planning ... GRIDC
 FFT: planning ... GRID_SOFT
 FFT: planning ... GRID
 WAVECAR not read
 WARNING: random wavefunctions but no delay for mixing, default for NELMDL
 entering main loop
       N       E                     dE             d eps       ncg     rms          ort
DAV:   1     0.378830755028E+02    0.37883E+02   -0.95808E+03  3888   0.397E+02
DAV:   2    -0.196506812618E+03   -0.23439E+03   -0.23203E+03  3888   0.110E+02
DAV:   3    -0.213458508537E+03   -0.16952E+02   -0.16880E+02  3888   0.381E+01
DAV:   4    -0.214355878284E+03   -0.89737E+00   -0.89737E+00  3888   0.840E+00
DAV:   5    -0.657285443030E+02    0.14863E+03   -0.40577E+00  3888   0.592E+00
 gam= 0.000 g(H,U,f)=  0.122E+02 0.589E+01 0.398E-13 ort(H,U,f) = 0.000E+00 0.000E+00 0.000E+00
SDA:   6    -0.528226991964E+02    0.12906E+02   -0.72359E+01  3888   0.181E+02 0.000E+00
 gam= 0.382 g(H,U,f)=  0.867E+00 0.175E+01 0.497E-10 ort(H,U,f) = 0.183E+01 0.331E+01 0.888E-10
DMP:   7    -0.573838969739E+02   -0.45612E+01   -0.18307E+01  3888   0.261E+01 0.514E+01
 gam= 0.382 g(H,U,f)=  0.107E+01 0.393E+00 0.694E-10 ort(H,U,f) =-0.124E+01 0.142E+01 0.242E-09
DMP:   8    -0.582775085611E+02   -0.89361E+00   -0.61186E+00  3888   0.146E+01 0.183E+00
 gam= 0.382 g(H,U,f)=  0.603E+00 0.136E+00 0.358E-10 ort(H,U,f) = 0.953E-01 0.514E+00 0.153E-09
DMP:   9    -0.586981369931E+02   -0.42063E+00   -0.38843E+00  3888   0.738E+00 0.610E+00
 gam= 0.382 g(H,U,f)=  0.203E+00 0.655E-01 0.312E-12 ort(H,U,f) = 0.183E+00 0.229E+00 0.134E-11
DMP:  10    -0.589751590038E+02   -0.27702E+00   -0.17030E+00  3888   0.268E+00 0.412E+00
 gam= 0.382 g(H,U,f)=  0.725E-01 0.319E-01 0.461E-17 ort(H,U,f) = 0.659E-01 0.109E+00-0.420E-16
DMP:  11    -0.590958173414E+02   -0.12066E+00   -0.68517E-01  3888   0.104E+00 0.175E+00
 gam= 0.382 g(H,U,f)=  0.266E-01 0.131E-01 0.103E-13 ort(H,U,f) = 0.227E-01 0.477E-01 0.666E-13
DMP:  12    -0.591443482078E+02   -0.48531E-01   -0.26674E-01  3888   0.398E-01 0.705E-01
 gam= 0.382 g(H,U,f)=  0.924E-02 0.431E-02 0.261E-15 ort(H,U,f) = 0.709E-02 0.179E-01-0.877E-16
DMP:  13    -0.591627279034E+02   -0.18380E-01   -0.92355E-02  3888   0.136E-01 0.250E-01
 gam= 0.382 g(H,U,f)=  0.341E-02 0.120E-02 0.851E-14 ort(H,U,f) = 0.227E-02 0.567E-02-0.333E-13
DMP:  14    -0.591689426382E+02   -0.62147E-02   -0.30591E-02  3888   0.461E-02 0.794E-02
 gam= 0.382 g(H,U,f)=  0.129E-02 0.329E-03 0.494E-16 ort(H,U,f) = 0.970E-03 0.160E-02 0.755E-16
DMP:  15    -0.591709855461E+02   -0.20429E-02   -0.10387E-02  3888   0.162E-02 0.257E-02
 gam= 0.382 g(H,U,f)=  0.489E-03 0.105E-03 0.394E-15 ort(H,U,f) = 0.445E-03 0.431E-03 0.859E-15
DMP:  16    -0.591716799221E+02   -0.69438E-03   -0.37148E-03  3888   0.594E-03 0.876E-03
 gam= 0.382 g(H,U,f)=  0.196E-03 0.434E-04 0.772E-15 ort(H,U,f) = 0.211E-03 0.129E-03 0.129E-14
DMP:  17    -0.591719334574E+02   -0.25354E-03   -0.14776E-03  3888   0.240E-03 0.340E-03
 gam= 0.382 g(H,U,f)=  0.806E-04 0.220E-04 0.655E-14 ort(H,U,f) = 0.100E-03 0.510E-04 0.144E-13
DMP:  18    -0.591720374424E+02   -0.10399E-03   -0.64155E-04  3888   0.103E-03 0.151E-03
 gam= 0.382 g(H,U,f)=  0.332E-04 0.119E-04 0.327E-13 ort(H,U,f) = 0.470E-04 0.265E-04 0.856E-13
DMP:  19    -0.591720841503E+02   -0.46708E-04   -0.29307E-04  3888   0.452E-04 0.735E-04
 gam= 0.382 g(H,U,f)=  0.138E-04 0.626E-05 0.115E-17 ort(H,U,f) = 0.221E-04 0.150E-04 0.445E-17
DMP:  20    -0.591721061715E+02   -0.22021E-04   -0.13663E-04  3888   0.200E-04 0.370E-04
 gam= 0.382 g(H,U,f)=  0.609E-05 0.306E-05 0.169E-17 ort(H,U,f) = 0.105E-04 0.816E-05 0.681E-17
DMP:  21    -0.591721167283E+02   -0.10557E-04   -0.65154E-05  3888   0.915E-05 0.187E-04
 gam= 0.382 g(H,U,f)=  0.286E-05 0.141E-05 0.144E-17 ort(H,U,f) = 0.535E-05 0.412E-05 0.565E-17
DMP:  22    -0.591721218823E+02   -0.51540E-05   -0.31535E-05  3888   0.427E-05 0.947E-05
 gam= 0.382 g(H,U,f)=  0.140E-05 0.621E-06 0.271E-17 ort(H,U,f) = 0.280E-05 0.196E-05 0.123E-16
DMP:  23    -0.591721244149E+02   -0.25326E-05   -0.15365E-05  3888   0.203E-05 0.475E-05
 gam= 0.382 g(H,U,f)=  0.754E-06 0.270E-06 0.352E-17 ort(H,U,f) = 0.153E-05 0.888E-06 0.189E-16
DMP:  24    -0.591721256703E+02   -0.12554E-05   -0.77919E-06  3888   0.102E-05 0.242E-05
 gam= 0.382 g(H,U,f)=  0.454E-06 0.118E-06 0.293E-17 ort(H,U,f) = 0.922E-06 0.394E-06 0.202E-16
DMP:  25    -0.591721263268E+02   -0.65653E-06   -0.43004E-06  3888   0.572E-06 0.132E-05
 final diagonalization
   1 F= -.59172126E+02 E0= -.59172126E+02  d E =-.117388E-12
 Start KPOINTS_OPT (optional k-point list driver)
k-point batch [1-81\144]
       N       E                     dE             ncg
DAV:   1    -0.520527773541E+04   -0.40935E+05    11616
DAV:   2    -0.207715857759E+05   -0.15566E+05    15552
DAV:   3    -0.224406188602E+05   -0.16690E+04    15552
DAV:   4    -0.225541155877E+05   -0.11350E+03    15552
DAV:   5    -0.225636071102E+05   -0.94915E+01    15552
DAV:   6    -0.225645364331E+05   -0.92932E+00    15552
DAV:   7    -0.225646367253E+05   -0.10029E+00    15552
DAV:   8    -0.225646484394E+05   -0.11714E-01    15552
DAV:   9    -0.225646498870E+05   -0.14475E-02    15552
DAV:  10    -0.225646500741E+05   -0.18707E-03    15552
DAV:  11    -0.225646500991E+05   -0.25056E-04    15552
DAV:  12    -0.225646501026E+05   -0.34501E-05    15552
DAV:  13    -0.225646501030E+05   -0.48524E-06    15552
k-point batch [82-144\144]
       N       E                     dE             ncg
DAV:   1     0.660991685955E+04   -0.26020E+05     9072
DAV:   2    -0.515277400224E+04   -0.11763E+05    12096
DAV:   3    -0.647319238488E+04   -0.13204E+04    12096
DAV:   4    -0.656841850643E+04   -0.95226E+02    12096
DAV:   5    -0.657682783121E+04   -0.84093E+01    12096
DAV:   6    -0.657769231382E+04   -0.86448E+00    12096
DAV:   7    -0.657778972813E+04   -0.97414E-01    12096
DAV:   8    -0.657780154841E+04   -0.11820E-01    12096
DAV:   9    -0.657780305891E+04   -0.15105E-02    12096
DAV:  10    -0.657780325999E+04   -0.20108E-03    12096
DAV:  11    -0.657780328764E+04   -0.27642E-04    12096
DAV:  12    -0.657780329153E+04   -0.38979E-05    12096
DAV:  13    -0.657780329209E+04   -0.55968E-06    12096
 writing wavefunctions
