 vasp.6.3.2 27Jun22 (build Dec 22 2022 13:13:19) complex                        
  
 executed on             LinuxIFC date 2023.09.08  00:21:32
 running   48 mpi-ranks, with    1 threads/rank
 distrk:  each k-point on   48 cores,    1 groups
 distr:  one band on NCORE=   1 cores,   48 groups


--------------------------------------------------------------------------------------------------------


 INCAR:
   SYSTEM = SC
   ISTART = 0
   ICHARG = 2
   PREC = Accurate
   ENCUT = 450
   LCHARG = .TRUE.
   LWAVE = .TRUE.
   ALGO = Normal
   NELM = 64
   EDIFF = 1E-6
   EDIFFG = -1E-3
   SIGMA = 0.1
   ISMEAR = 0
   GGA = PE
   IVDW = 12

 POTCAR:    PAW_PBE C 08Apr2002                   
 POTCAR:    PAW_PBE C 08Apr2002                   
   SHA256 =  253f7b50bb8d59471dbedb8285d89021f4a42ed1a2c5d38a03a736e69125dd95 C/POTCAR              
   COPYR  = (c) Copyright 08Apr2002 Georg Kresse                                                    
   COPYR  = This file is part of the software VASP. Any use, copying, and all other rights are regul
   COPYR  = If you do not have a valid VASP license, you may not use, copy or distribute this file. 
   VRHFIN =C: s2p2                                                                                  
   LEXCH  = PE                                                                                      
   EATOM  =   147.1560 eV,   10.8157 Ry                                                             
                                                                                                    
   TITEL  = PAW_PBE C 08Apr2002                                                                     
   LULTRA =        F    use ultrasoft PP ?                                                          
   IUNSCR =        1    unscreen: 0-lin 1-nonlin 2-no                                               
   RPACOR =    1.200    partial core radius                                                         
   POMASS =   12.011; ZVAL   =    4.000    mass and valenz                                          
   RCORE  =    1.500    outmost cutoff radius                                                       
   RWIGS  =    1.630; RWIGS  =    0.863    wigner-seitz radius (au A)                               
   ENMAX  =  400.000; ENMIN  =  300.000 eV                                                          
   ICORE  =        2    local potential                                                             
   LCOR   =        T    correct aug charges                                                         
   LPAW   =        T    paw PP                                                                      
   EAUG   =  644.873                                                                                
   DEXC   =    0.000                                                                                
   RMAX   =    1.529    core radius for proj-oper                                                   
   RAUG   =    1.300    factor for augmentation sphere                                              
   RDEP   =    1.501    radius for radial grids                                                     
   RDEPT  =    1.300    core radius for aug-charge                                                  
                                                                                                    
   Atomic configuration                                                                             
    4 entries                                                                                       
     n  l   j            E        occ.                                                              
     1  0  0.50      -273.3789   2.0000                                                             
     2  0  0.50       -13.7508   2.0000                                                             
     2  1  0.50        -5.2854   2.0000                                                             
     3  2  1.50        -5.4423   0.0000                                                             
   Description                                                                                      
     l       E           TYP  RCUT    TYP  RCUT                                                     
     0    -13.7508458     23  1.200                                                                 
     0     -8.2022199     23  1.200                                                                 
     1     -5.2854383     23  1.500                                                                 
     1     34.0145650     23  1.500                                                                 
     2     -5.4423304      7  1.500                                                                 
  local pseudopotential read in
  partial core-charges read in
  partial kinetic energy density read in
  atomic valenz-charges read in
  non local Contribution for L=           0  read in
    real space projection operators read in
  non local Contribution for L=           0  read in
    real space projection operators read in
  non local Contribution for L=           1  read in
    real space projection operators read in
  non local Contribution for L=           1  read in
    real space projection operators read in
    PAW grid and wavefunctions read in
 
   number of l-projection  operators is LMAX  =           4
   number of lm-projection operators is LMMAX =           8
 
  PAW_PBE C 08Apr2002                   :
 energy of atom  1       EATOM= -147.1560
 kinetic energy error for atom=    0.0116 (will be added to EATOM!!)
 
 
 POSCAR: Graphene with lattice parameter 2.467
  positions in direct lattice
  No initial velocities read in
 exchange correlation table for  LEXCH =        8
   RHO(1)=    0.500       N(1)  =     2000
   RHO(2)=  100.500       N(2)  =     4000

 VTST: version 4.2, (08/11/21)

 CHAIN: initializing optimizer
 
 OPT: Using VASP Dynamics algorithm
 CHAIN: Read ICHAIN            0
 
 POSCAR: Graphene with lattice parameter 2.467
  positions in direct lattice
  No initial velocities read in
 


--------------------------------------------------------------------------------------------------------


 ion  position               nearest neighbor table
   1  0.333  0.667  0.100-   2 1.42   2 1.42   2 1.42
   2  0.667  0.333  0.100-   1 1.42   1 1.42   1 1.42
 
  LATTYP: Found a hexagonal cell.
 ALAT       =     2.4669998518
 C/A-ratio  =     6.0802597897
  
  Lattice vectors:
  
 A1 = (   2.1364845000,   1.2335000000,   0.0000000000)
 A2 = (  -2.1364845000,   1.2335000000,   0.0000000000)
 A3 = (   0.0000000000,   0.0000000000,  15.0000000000)


Analysis of symmetry for initial positions (statically):
=====================================================================
 Subroutine PRICEL returns:
 Original cell was already a primitive cell.
 

 Routine SETGRP: Setting up the symmetry group for a 
 hexagonal supercell.


 Subroutine GETGRP returns: Found 24 space group operations
 (whereof 12 operations were pure point group operations)
 out of a pool of 24 trial point group operations.


The static configuration has the point symmetry C_6v.
 The point group associated with its full space group is D_6h.


Analysis of symmetry for dynamics (positions and initial velocities):
=====================================================================
 Subroutine PRICEL returns:
 Original cell was already a primitive cell.
 

 Routine SETGRP: Setting up the symmetry group for a 
 hexagonal supercell.


 Subroutine GETGRP returns: Found 24 space group operations
 (whereof 12 operations were pure point group operations)
 out of a pool of 24 trial point group operations.


The dynamic configuration has the point symmetry C_6v.
 The point group associated with its full space group is D_6h.


 Subroutine INISYM returns: Found 24 space group operations
 (whereof 12 operations are pure point group operations),
 and found     1 'primitive' translations


----------------------------------------------------------------------------------------

                                     Primitive cell                                     

  volume of cell :      79.0606

  direct lattice vectors                    reciprocal lattice vectors
     2.136484500  1.233500000  0.000000000     0.234029313  0.405350628  0.000000000
    -2.136484500  1.233500000  0.000000000    -0.234029313  0.405350628  0.000000000
     0.000000000  0.000000000 15.000000000     0.000000000  0.000000000  0.066666667

  length of vectors
     2.466999852  2.466999852 15.000000000     0.468058598  0.468058598  0.066666667

  position of ions in fractional coordinates (direct lattice)
     0.333333000  0.666666000  0.100000000
     0.666666000  0.333333000  0.100000000

  ion indices of the primitive-cell ions
   primitive index   ion index
                 1           1
                 2           2

----------------------------------------------------------------------------------------

 
 
 KPOINTS: k-points                                

Automatic generation of k-mesh.
 Grid dimensions read from file:
 generate k-points for:   55   55    1

 Generating k-lattice:

  Cartesian coordinates                     Fractional coordinates (reciprocal lattice)
     0.004255078  0.007370011  0.000000000     0.018181818 -0.000000000  0.000000000
    -0.004255078  0.007370011  0.000000000    -0.000000000  0.018181818  0.000000000
     0.000000000  0.000000000  0.066666667     0.000000000  0.000000000  1.000000000

  Length of vectors
     0.008510156  0.008510156  0.066666667

  Shift w.r.t. Gamma in fractional coordinates (k-lattice)
     0.000000000  0.000000000  0.000000000

 
 Subroutine IBZKPT returns following result:
 ===========================================
 
 Found    280 irreducible k-points:
 
 Following reciprocal coordinates:
            Coordinates               Weight
  0.000000  0.000000  0.000000      1.000000
  0.018182 -0.000000  0.000000      6.000000
  0.036364 -0.000000  0.000000      6.000000
  0.054545 -0.000000  0.000000      6.000000
  0.072727 -0.000000  0.000000      6.000000
  0.090909 -0.000000  0.000000      6.000000
  0.109091 -0.000000  0.000000      6.000000
  0.127273 -0.000000  0.000000      6.000000
  0.145455 -0.000000  0.000000      6.000000
  0.163636  0.000000  0.000000      6.000000
  0.181818 -0.000000  0.000000      6.000000
  0.200000 -0.000000  0.000000      6.000000
  0.218182 -0.000000  0.000000      6.000000
  0.236364 -0.000000  0.000000      6.000000
  0.254545 -0.000000  0.000000      6.000000
  0.272727 -0.000000  0.000000      6.000000
  0.290909 -0.000000  0.000000      6.000000
  0.309091 -0.000000  0.000000      6.000000
  0.327273  0.000000  0.000000      6.000000
  0.345455 -0.000000  0.000000      6.000000
  0.363636 -0.000000  0.000000      6.000000
  0.381818 -0.000000  0.000000      6.000000
  0.400000 -0.000000  0.000000      6.000000
  0.418182 -0.000000  0.000000      6.000000
  0.436364 -0.000000  0.000000      6.000000
  0.454545 -0.000000  0.000000      6.000000
  0.472727 -0.000000  0.000000      6.000000
  0.490909 -0.000000  0.000000      6.000000
  0.018182  0.018182  0.000000      6.000000
  0.036364  0.018182  0.000000     12.000000
  0.054545  0.018182  0.000000     12.000000
  0.072727  0.018182  0.000000     12.000000
  0.090909  0.018182  0.000000     12.000000
  0.109091  0.018182  0.000000     12.000000
  0.127273  0.018182  0.000000     12.000000
  0.145455  0.018182  0.000000     12.000000
  0.163636  0.018182  0.000000     12.000000
  0.181818  0.018182  0.000000     12.000000
  0.200000  0.018182  0.000000     12.000000
  0.218182  0.018182  0.000000     12.000000
  0.236364  0.018182  0.000000     12.000000
  0.254545  0.018182  0.000000     12.000000
  0.272727  0.018182  0.000000     12.000000
  0.290909  0.018182  0.000000     12.000000
  0.309091  0.018182  0.000000     12.000000
  0.327273  0.018182  0.000000     12.000000
  0.345455  0.018182  0.000000     12.000000
  0.363636  0.018182  0.000000     12.000000
  0.381818  0.018182  0.000000     12.000000
  0.400000  0.018182  0.000000     12.000000
  0.418182  0.018182  0.000000     12.000000
  0.436364  0.018182  0.000000     12.000000
  0.454545  0.018182  0.000000     12.000000
  0.472727  0.018182  0.000000     12.000000
  0.490909  0.018182  0.000000      6.000000
  0.036364  0.036364  0.000000      6.000000
  0.054545  0.036364  0.000000     12.000000
  0.072727  0.036364  0.000000     12.000000
  0.090909  0.036364  0.000000     12.000000
  0.109091  0.036364  0.000000     12.000000
  0.127273  0.036364  0.000000     12.000000
  0.145455  0.036364  0.000000     12.000000
  0.163636  0.036364  0.000000     12.000000
  0.181818  0.036364  0.000000     12.000000
  0.200000  0.036364  0.000000     12.000000
  0.218182  0.036364  0.000000     12.000000
  0.236364  0.036364  0.000000     12.000000
  0.254545  0.036364  0.000000     12.000000
  0.272727  0.036364  0.000000     12.000000
  0.290909  0.036364  0.000000     12.000000
  0.309091  0.036364  0.000000     12.000000
  0.327273  0.036364  0.000000     12.000000
  0.345455  0.036364  0.000000     12.000000
  0.363636  0.036364  0.000000     12.000000
  0.381818  0.036364  0.000000     12.000000
  0.400000  0.036364  0.000000     12.000000
  0.418182  0.036364  0.000000     12.000000
  0.436364  0.036364  0.000000     12.000000
  0.454545  0.036364  0.000000     12.000000
  0.472727  0.036364  0.000000     12.000000
  0.054545  0.054545  0.000000      6.000000
  0.072727  0.054545  0.000000     12.000000
  0.090909  0.054545  0.000000     12.000000
  0.109091  0.054545  0.000000     12.000000
  0.127273  0.054545  0.000000     12.000000
  0.145455  0.054545  0.000000     12.000000
  0.163636  0.054545  0.000000     12.000000
  0.181818  0.054545  0.000000     12.000000
  0.200000  0.054545  0.000000     12.000000
  0.218182  0.054545  0.000000     12.000000
  0.236364  0.054545  0.000000     12.000000
  0.254545  0.054545  0.000000     12.000000
  0.272727  0.054545  0.000000     12.000000
  0.290909  0.054545  0.000000     12.000000
  0.309091  0.054545  0.000000     12.000000
  0.327273  0.054545  0.000000     12.000000
  0.345455  0.054545  0.000000     12.000000
  0.363636  0.054545  0.000000     12.000000
  0.381818  0.054545  0.000000     12.000000
  0.400000  0.054545  0.000000     12.000000
  0.418182  0.054545  0.000000     12.000000
  0.436364  0.054545  0.000000     12.000000
  0.454545  0.054545  0.000000     12.000000
  0.472727  0.054545  0.000000      6.000000
  0.072727  0.072727  0.000000      6.000000
  0.090909  0.072727  0.000000     12.000000
  0.109091  0.072727  0.000000     12.000000
  0.127273  0.072727  0.000000     12.000000
  0.145455  0.072727  0.000000     12.000000
  0.163636  0.072727  0.000000     12.000000
  0.181818  0.072727  0.000000     12.000000
  0.200000  0.072727  0.000000     12.000000
  0.218182  0.072727  0.000000     12.000000
  0.236364  0.072727  0.000000     12.000000
  0.254545  0.072727  0.000000     12.000000
  0.272727  0.072727  0.000000     12.000000
  0.290909  0.072727  0.000000     12.000000
  0.309091  0.072727  0.000000     12.000000
  0.327273  0.072727  0.000000     12.000000
  0.345455  0.072727  0.000000     12.000000
  0.363636  0.072727  0.000000     12.000000
  0.381818  0.072727  0.000000     12.000000
  0.400000  0.072727  0.000000     12.000000
  0.418182  0.072727  0.000000     12.000000
  0.436364  0.072727  0.000000     12.000000
  0.454545  0.072727  0.000000     12.000000
  0.090909  0.090909  0.000000      6.000000
  0.109091  0.090909  0.000000     12.000000
  0.127273  0.090909  0.000000     12.000000
  0.145455  0.090909  0.000000     12.000000
  0.163636  0.090909  0.000000     12.000000
  0.181818  0.090909  0.000000     12.000000
  0.200000  0.090909  0.000000     12.000000
  0.218182  0.090909  0.000000     12.000000
  0.236364  0.090909  0.000000     12.000000
  0.254545  0.090909  0.000000     12.000000
  0.272727  0.090909  0.000000     12.000000
  0.290909  0.090909  0.000000     12.000000
  0.309091  0.090909  0.000000     12.000000
  0.327273  0.090909  0.000000     12.000000
  0.345455  0.090909  0.000000     12.000000
  0.363636  0.090909  0.000000     12.000000
  0.381818  0.090909  0.000000     12.000000
  0.400000  0.090909  0.000000     12.000000
  0.418182  0.090909  0.000000     12.000000
  0.436364  0.090909  0.000000     12.000000
  0.454545  0.090909  0.000000      6.000000
  0.109091  0.109091  0.000000      6.000000
  0.127273  0.109091  0.000000     12.000000
  0.145455  0.109091  0.000000     12.000000
  0.163636  0.109091  0.000000     12.000000
  0.181818  0.109091  0.000000     12.000000
  0.200000  0.109091  0.000000     12.000000
  0.218182  0.109091  0.000000     12.000000
  0.236364  0.109091  0.000000     12.000000
  0.254545  0.109091  0.000000     12.000000
  0.272727  0.109091  0.000000     12.000000
  0.290909  0.109091  0.000000     12.000000
  0.309091  0.109091  0.000000     12.000000
  0.327273  0.109091  0.000000     12.000000
  0.345455  0.109091  0.000000     12.000000
  0.363636  0.109091  0.000000     12.000000
  0.381818  0.109091  0.000000     12.000000
  0.400000  0.109091  0.000000     12.000000
  0.418182  0.109091  0.000000     12.000000
  0.436364  0.109091  0.000000     12.000000
  0.127273  0.127273  0.000000      6.000000
  0.145455  0.127273  0.000000     12.000000
  0.163636  0.127273  0.000000     12.000000
  0.181818  0.127273  0.000000     12.000000
  0.200000  0.127273  0.000000     12.000000
  0.218182  0.127273  0.000000     12.000000
  0.236364  0.127273  0.000000     12.000000
  0.254545  0.127273  0.000000     12.000000
  0.272727  0.127273  0.000000     12.000000
  0.290909  0.127273  0.000000     12.000000
  0.309091  0.127273  0.000000     12.000000
  0.327273  0.127273  0.000000     12.000000
  0.345455  0.127273  0.000000     12.000000
  0.363636  0.127273  0.000000     12.000000
  0.381818  0.127273  0.000000     12.000000
  0.400000  0.127273  0.000000     12.000000
  0.418182  0.127273  0.000000     12.000000
  0.436364  0.127273  0.000000      6.000000
  0.145455  0.145455  0.000000      6.000000
  0.163636  0.145455  0.000000     12.000000
  0.181818  0.145455  0.000000     12.000000
  0.200000  0.145455  0.000000     12.000000
  0.218182  0.145455  0.000000     12.000000
  0.236364  0.145455  0.000000     12.000000
  0.254545  0.145455  0.000000     12.000000
  0.272727  0.145455  0.000000     12.000000
  0.290909  0.145455  0.000000     12.000000
  0.309091  0.145455  0.000000     12.000000
  0.327273  0.145455  0.000000     12.000000
  0.345455  0.145455  0.000000     12.000000
  0.363636  0.145455  0.000000     12.000000
  0.381818  0.145455  0.000000     12.000000
  0.400000  0.145455  0.000000     12.000000
  0.418182  0.145455  0.000000     12.000000
  0.163636  0.163636  0.000000      6.000000
  0.181818  0.163636  0.000000     12.000000
  0.200000  0.163636  0.000000     12.000000
  0.218182  0.163636  0.000000     12.000000
  0.236364  0.163636  0.000000     12.000000
  0.254545  0.163636  0.000000     12.000000
  0.272727  0.163636  0.000000     12.000000
  0.290909  0.163636  0.000000     12.000000
  0.309091  0.163636  0.000000     12.000000
  0.327273  0.163636  0.000000     12.000000
  0.345455  0.163636  0.000000     12.000000
  0.363636  0.163636  0.000000     12.000000
  0.381818  0.163636  0.000000     12.000000
  0.400000  0.163636  0.000000     12.000000
  0.418182  0.163636  0.000000      6.000000
  0.181818  0.181818  0.000000      6.000000
  0.200000  0.181818  0.000000     12.000000
  0.218182  0.181818  0.000000     12.000000
  0.236364  0.181818  0.000000     12.000000
  0.254545  0.181818  0.000000     12.000000
  0.272727  0.181818  0.000000     12.000000
  0.290909  0.181818  0.000000     12.000000
  0.309091  0.181818  0.000000     12.000000
  0.327273  0.181818  0.000000     12.000000
  0.345455  0.181818  0.000000     12.000000
  0.363636  0.181818  0.000000     12.000000
  0.381818  0.181818  0.000000     12.000000
  0.400000  0.181818  0.000000     12.000000
  0.200000  0.200000  0.000000      6.000000
  0.218182  0.200000  0.000000     12.000000
  0.236364  0.200000  0.000000     12.000000
  0.254545  0.200000  0.000000     12.000000
  0.272727  0.200000  0.000000     12.000000
  0.290909  0.200000  0.000000     12.000000
  0.309091  0.200000  0.000000     12.000000
  0.327273  0.200000  0.000000     12.000000
  0.345455  0.200000  0.000000     12.000000
  0.363636  0.200000  0.000000     12.000000
  0.381818  0.200000  0.000000     12.000000
  0.400000  0.200000  0.000000      6.000000
  0.218182  0.218182  0.000000      6.000000
  0.236364  0.218182  0.000000     12.000000
  0.254545  0.218182  0.000000     12.000000
  0.272727  0.218182  0.000000     12.000000
  0.290909  0.218182  0.000000     12.000000
  0.309091  0.218182  0.000000     12.000000
  0.327273  0.218182  0.000000     12.000000
  0.345455  0.218182  0.000000     12.000000
  0.363636  0.218182  0.000000     12.000000
  0.381818  0.218182  0.000000     12.000000
  0.236364  0.236364  0.000000      6.000000
  0.254545  0.236364  0.000000     12.000000
  0.272727  0.236364  0.000000     12.000000
  0.290909  0.236364  0.000000     12.000000
  0.309091  0.236364  0.000000     12.000000
  0.327273  0.236364  0.000000     12.000000
  0.345455  0.236364  0.000000     12.000000
  0.363636  0.236364  0.000000     12.000000
  0.381818  0.236364  0.000000      6.000000
  0.254545  0.254545  0.000000      6.000000
  0.272727  0.254545  0.000000     12.000000
  0.290909  0.254545  0.000000     12.000000
  0.309091  0.254545  0.000000     12.000000
  0.327273  0.254545  0.000000     12.000000
  0.345455  0.254545  0.000000     12.000000
  0.363636  0.254545  0.000000     12.000000
  0.272727  0.272727  0.000000      6.000000
  0.290909  0.272727  0.000000     12.000000
  0.309091  0.272727  0.000000     12.000000
  0.327273  0.272727  0.000000     12.000000
  0.345455  0.272727  0.000000     12.000000
  0.363636  0.272727  0.000000      6.000000
  0.290909  0.290909  0.000000      6.000000
  0.309091  0.290909  0.000000     12.000000
  0.327273  0.290909  0.000000     12.000000
  0.345455  0.290909  0.000000     12.000000
  0.309091  0.309091  0.000000      6.000000
  0.327273  0.309091  0.000000     12.000000
  0.345455  0.309091  0.000000      6.000000
  0.327273  0.327273  0.000000      6.000000
 
 Following cartesian coordinates:
            Coordinates               Weight
  0.000000  0.000000  0.000000      1.000000
  0.004255  0.007370  0.000000      6.000000
  0.008510  0.014740  0.000000      6.000000
  0.012765  0.022110  0.000000      6.000000
  0.017020  0.029480  0.000000      6.000000
  0.021275  0.036850  0.000000      6.000000
  0.025530  0.044220  0.000000      6.000000
  0.029786  0.051590  0.000000      6.000000
  0.034041  0.058960  0.000000      6.000000
  0.038296  0.066330  0.000000      6.000000
  0.042551  0.073700  0.000000      6.000000
  0.046806  0.081070  0.000000      6.000000
  0.051061  0.088440  0.000000      6.000000
  0.055316  0.095810  0.000000      6.000000
  0.059571  0.103180  0.000000      6.000000
  0.063826  0.110550  0.000000      6.000000
  0.068081  0.117920  0.000000      6.000000
  0.072336  0.125290  0.000000      6.000000
  0.076591  0.132660  0.000000      6.000000
  0.080846  0.140030  0.000000      6.000000
  0.085102  0.147400  0.000000      6.000000
  0.089357  0.154770  0.000000      6.000000
  0.093612  0.162140  0.000000      6.000000
  0.097867  0.169510  0.000000      6.000000
  0.102122  0.176880  0.000000      6.000000
  0.106377  0.184250  0.000000      6.000000
  0.110632  0.191620  0.000000      6.000000
  0.114887  0.198990  0.000000      6.000000
  0.000000  0.014740  0.000000      6.000000
  0.004255  0.022110  0.000000     12.000000
  0.008510  0.029480  0.000000     12.000000
  0.012765  0.036850  0.000000     12.000000
  0.017020  0.044220  0.000000     12.000000
  0.021275  0.051590  0.000000     12.000000
  0.025530  0.058960  0.000000     12.000000
  0.029786  0.066330  0.000000     12.000000
  0.034041  0.073700  0.000000     12.000000
  0.038296  0.081070  0.000000     12.000000
  0.042551  0.088440  0.000000     12.000000
  0.046806  0.095810  0.000000     12.000000
  0.051061  0.103180  0.000000     12.000000
  0.055316  0.110550  0.000000     12.000000
  0.059571  0.117920  0.000000     12.000000
  0.063826  0.125290  0.000000     12.000000
  0.068081  0.132660  0.000000     12.000000
  0.072336  0.140030  0.000000     12.000000
  0.076591  0.147400  0.000000     12.000000
  0.080846  0.154770  0.000000     12.000000
  0.085102  0.162140  0.000000     12.000000
  0.089357  0.169510  0.000000     12.000000
  0.093612  0.176880  0.000000     12.000000
  0.097867  0.184250  0.000000     12.000000
  0.102122  0.191620  0.000000     12.000000
  0.106377  0.198990  0.000000     12.000000
  0.110632  0.206360  0.000000      6.000000
 -0.000000  0.029480  0.000000      6.000000
  0.004255  0.036850  0.000000     12.000000
  0.008510  0.044220  0.000000     12.000000
  0.012765  0.051590  0.000000     12.000000
  0.017020  0.058960  0.000000     12.000000
  0.021275  0.066330  0.000000     12.000000
  0.025530  0.073700  0.000000     12.000000
  0.029786  0.081070  0.000000     12.000000
  0.034041  0.088440  0.000000     12.000000
  0.038296  0.095810  0.000000     12.000000
  0.042551  0.103180  0.000000     12.000000
  0.046806  0.110550  0.000000     12.000000
  0.051061  0.117920  0.000000     12.000000
  0.055316  0.125290  0.000000     12.000000
  0.059571  0.132660  0.000000     12.000000
  0.063826  0.140030  0.000000     12.000000
  0.068081  0.147400  0.000000     12.000000
  0.072336  0.154770  0.000000     12.000000
  0.076591  0.162140  0.000000     12.000000
  0.080846  0.169510  0.000000     12.000000
  0.085102  0.176880  0.000000     12.000000
  0.089357  0.184250  0.000000     12.000000
  0.093612  0.191620  0.000000     12.000000
  0.097867  0.198990  0.000000     12.000000
  0.102122  0.206360  0.000000     12.000000
 -0.000000  0.044220  0.000000      6.000000
  0.004255  0.051590  0.000000     12.000000
  0.008510  0.058960  0.000000     12.000000
  0.012765  0.066330  0.000000     12.000000
  0.017020  0.073700  0.000000     12.000000
  0.021275  0.081070  0.000000     12.000000
  0.025530  0.088440  0.000000     12.000000
  0.029786  0.095810  0.000000     12.000000
  0.034041  0.103180  0.000000     12.000000
  0.038296  0.110550  0.000000     12.000000
  0.042551  0.117920  0.000000     12.000000
  0.046806  0.125290  0.000000     12.000000
  0.051061  0.132660  0.000000     12.000000
  0.055316  0.140030  0.000000     12.000000
  0.059571  0.147400  0.000000     12.000000
  0.063826  0.154770  0.000000     12.000000
  0.068081  0.162140  0.000000     12.000000
  0.072336  0.169510  0.000000     12.000000
  0.076591  0.176880  0.000000     12.000000
  0.080846  0.184250  0.000000     12.000000
  0.085102  0.191620  0.000000     12.000000
  0.089357  0.198990  0.000000     12.000000
  0.093612  0.206360  0.000000     12.000000
  0.097867  0.213730  0.000000      6.000000
 -0.000000  0.058960  0.000000      6.000000
  0.004255  0.066330  0.000000     12.000000
  0.008510  0.073700  0.000000     12.000000
  0.012765  0.081070  0.000000     12.000000
  0.017020  0.088440  0.000000     12.000000
  0.021275  0.095810  0.000000     12.000000
  0.025530  0.103180  0.000000     12.000000
  0.029786  0.110550  0.000000     12.000000
  0.034041  0.117920  0.000000     12.000000
  0.038296  0.125290  0.000000     12.000000
  0.042551  0.132660  0.000000     12.000000
  0.046806  0.140030  0.000000     12.000000
  0.051061  0.147400  0.000000     12.000000
  0.055316  0.154770  0.000000     12.000000
  0.059571  0.162140  0.000000     12.000000
  0.063826  0.169510  0.000000     12.000000
  0.068081  0.176880  0.000000     12.000000
  0.072336  0.184250  0.000000     12.000000
  0.076591  0.191620  0.000000     12.000000
  0.080846  0.198990  0.000000     12.000000
  0.085102  0.206360  0.000000     12.000000
  0.089357  0.213730  0.000000     12.000000
 -0.000000  0.073700  0.000000      6.000000
  0.004255  0.081070  0.000000     12.000000
  0.008510  0.088440  0.000000     12.000000
  0.012765  0.095810  0.000000     12.000000
  0.017020  0.103180  0.000000     12.000000
  0.021275  0.110550  0.000000     12.000000
  0.025530  0.117920  0.000000     12.000000
  0.029786  0.125290  0.000000     12.000000
  0.034041  0.132660  0.000000     12.000000
  0.038296  0.140030  0.000000     12.000000
  0.042551  0.147400  0.000000     12.000000
  0.046806  0.154770  0.000000     12.000000
  0.051061  0.162140  0.000000     12.000000
  0.055316  0.169510  0.000000     12.000000
  0.059571  0.176880  0.000000     12.000000
  0.063826  0.184250  0.000000     12.000000
  0.068081  0.191620  0.000000     12.000000
  0.072336  0.198990  0.000000     12.000000
  0.076591  0.206360  0.000000     12.000000
  0.080846  0.213730  0.000000     12.000000
  0.085102  0.221100  0.000000      6.000000
 -0.000000  0.088440  0.000000      6.000000
  0.004255  0.095810  0.000000     12.000000
  0.008510  0.103180  0.000000     12.000000
  0.012765  0.110550  0.000000     12.000000
  0.017020  0.117920  0.000000     12.000000
  0.021275  0.125290  0.000000     12.000000
  0.025530  0.132660  0.000000     12.000000
  0.029786  0.140030  0.000000     12.000000
  0.034041  0.147400  0.000000     12.000000
  0.038296  0.154770  0.000000     12.000000
  0.042551  0.162140  0.000000     12.000000
  0.046806  0.169510  0.000000     12.000000
  0.051061  0.176880  0.000000     12.000000
  0.055316  0.184250  0.000000     12.000000
  0.059571  0.191620  0.000000     12.000000
  0.063826  0.198990  0.000000     12.000000
  0.068081  0.206360  0.000000     12.000000
  0.072336  0.213730  0.000000     12.000000
  0.076591  0.221100  0.000000     12.000000
 -0.000000  0.103180  0.000000      6.000000
  0.004255  0.110550  0.000000     12.000000
  0.008510  0.117920  0.000000     12.000000
  0.012765  0.125290  0.000000     12.000000
  0.017020  0.132660  0.000000     12.000000
  0.021275  0.140030  0.000000     12.000000
  0.025530  0.147400  0.000000     12.000000
  0.029786  0.154770  0.000000     12.000000
  0.034041  0.162140  0.000000     12.000000
  0.038296  0.169510  0.000000     12.000000
  0.042551  0.176880  0.000000     12.000000
  0.046806  0.184250  0.000000     12.000000
  0.051061  0.191620  0.000000     12.000000
  0.055316  0.198990  0.000000     12.000000
  0.059571  0.206360  0.000000     12.000000
  0.063826  0.213730  0.000000     12.000000
  0.068081  0.221100  0.000000     12.000000
  0.072336  0.228470  0.000000      6.000000
  0.000000  0.117920  0.000000      6.000000
  0.004255  0.125290  0.000000     12.000000
  0.008510  0.132660  0.000000     12.000000
  0.012765  0.140030  0.000000     12.000000
  0.017020  0.147400  0.000000     12.000000
  0.021275  0.154770  0.000000     12.000000
  0.025530  0.162140  0.000000     12.000000
  0.029786  0.169510  0.000000     12.000000
  0.034041  0.176880  0.000000     12.000000
  0.038296  0.184250  0.000000     12.000000
  0.042551  0.191620  0.000000     12.000000
  0.046806  0.198990  0.000000     12.000000
  0.051061  0.206360  0.000000     12.000000
  0.055316  0.213730  0.000000     12.000000
  0.059571  0.221100  0.000000     12.000000
  0.063826  0.228470  0.000000     12.000000
 -0.000000  0.132660  0.000000      6.000000
  0.004255  0.140030  0.000000     12.000000
  0.008510  0.147400  0.000000     12.000000
  0.012765  0.154770  0.000000     12.000000
  0.017020  0.162140  0.000000     12.000000
  0.021275  0.169510  0.000000     12.000000
  0.025530  0.176880  0.000000     12.000000
  0.029786  0.184250  0.000000     12.000000
  0.034041  0.191620  0.000000     12.000000
  0.038296  0.198990  0.000000     12.000000
  0.042551  0.206360  0.000000     12.000000
  0.046806  0.213730  0.000000     12.000000
  0.051061  0.221100  0.000000     12.000000
  0.055316  0.228470  0.000000     12.000000
  0.059571  0.235840  0.000000      6.000000
  0.000000  0.147400  0.000000      6.000000
  0.004255  0.154770  0.000000     12.000000
  0.008510  0.162140  0.000000     12.000000
  0.012765  0.169510  0.000000     12.000000
  0.017020  0.176880  0.000000     12.000000
  0.021275  0.184250  0.000000     12.000000
  0.025530  0.191620  0.000000     12.000000
  0.029786  0.198990  0.000000     12.000000
  0.034041  0.206360  0.000000     12.000000
  0.038296  0.213730  0.000000     12.000000
  0.042551  0.221100  0.000000     12.000000
  0.046806  0.228470  0.000000     12.000000
  0.051061  0.235840  0.000000     12.000000
  0.000000  0.162140  0.000000      6.000000
  0.004255  0.169510  0.000000     12.000000
  0.008510  0.176880  0.000000     12.000000
  0.012765  0.184250  0.000000     12.000000
  0.017020  0.191620  0.000000     12.000000
  0.021275  0.198990  0.000000     12.000000
  0.025530  0.206360  0.000000     12.000000
  0.029786  0.213730  0.000000     12.000000
  0.034041  0.221100  0.000000     12.000000
  0.038296  0.228470  0.000000     12.000000
  0.042551  0.235840  0.000000     12.000000
  0.046806  0.243210  0.000000      6.000000
 -0.000000  0.176880  0.000000      6.000000
  0.004255  0.184250  0.000000     12.000000
  0.008510  0.191620  0.000000     12.000000
  0.012765  0.198990  0.000000     12.000000
  0.017020  0.206360  0.000000     12.000000
  0.021275  0.213730  0.000000     12.000000
  0.025530  0.221100  0.000000     12.000000
  0.029786  0.228470  0.000000     12.000000
  0.034041  0.235840  0.000000     12.000000
  0.038296  0.243210  0.000000     12.000000
  0.000000  0.191620  0.000000      6.000000
  0.004255  0.198990  0.000000     12.000000
  0.008510  0.206360  0.000000     12.000000
  0.012765  0.213730  0.000000     12.000000
  0.017020  0.221100  0.000000     12.000000
  0.021275  0.228470  0.000000     12.000000
  0.025530  0.235840  0.000000     12.000000
  0.029786  0.243210  0.000000     12.000000
  0.034041  0.250580  0.000000      6.000000
  0.000000  0.206360  0.000000      6.000000
  0.004255  0.213730  0.000000     12.000000
  0.008510  0.221100  0.000000     12.000000
  0.012765  0.228470  0.000000     12.000000
  0.017020  0.235840  0.000000     12.000000
  0.021275  0.243210  0.000000     12.000000
  0.025530  0.250580  0.000000     12.000000
 -0.000000  0.221100  0.000000      6.000000
  0.004255  0.228470  0.000000     12.000000
  0.008510  0.235840  0.000000     12.000000
  0.012765  0.243210  0.000000     12.000000
  0.017020  0.250580  0.000000     12.000000
  0.021275  0.257950  0.000000      6.000000
 -0.000000  0.235840  0.000000      6.000000
  0.004255  0.243210  0.000000     12.000000
  0.008510  0.250580  0.000000     12.000000
  0.012765  0.257950  0.000000     12.000000
  0.000000  0.250580  0.000000      6.000000
  0.004255  0.257950  0.000000     12.000000
  0.008510  0.265320  0.000000      6.000000
 -0.000000  0.265320  0.000000      6.000000
 


--------------------------------------------------------------------------------------------------------




 Dimension of arrays:
   k-points           NKPTS =    280   k-points in BZ     NKDIM =    280   number of bands    NBANDS=     48
   number of dos      NEDOS =    301   number of ions     NIONS =      2
   non local maximal  LDIM  =      4   non local SUM 2l+1 LMDIM =      8
   total plane-waves  NPLWV =  34992
   max r-space proj   IRMAX =      1   max aug-charges    IRDMAX=   5422
   dimension x,y,z NGX =    18 NGY =   18 NGZ =  108
   dimension x,y,z NGXF=    36 NGYF=   36 NGZF=  216
   support grid    NGXF=    36 NGYF=   36 NGZF=  216
   ions per type =               2
   NGX,Y,Z   is equivalent  to a cutoff of  12.13, 12.13, 11.97 a.u.
   NGXF,Y,Z  is equivalent  to a cutoff of  24.26, 24.26, 23.94 a.u.

 SYSTEM =  SC                                      
 POSCAR =  Graphene with lattice parameter 2.467   

 Startparameter for this run:
   NWRITE =      2    write-flag & timer
   PREC   = accura    normal or accurate (medium, high low for compatibility)
   ISTART =      0    job   : 0-new  1-cont  2-samecut
   ICHARG =      2    charge: 1-file 2-atom 10-const
   ISPIN  =      1    spin polarized calculation?
   LNONCOLLINEAR =      F non collinear calculations
   LSORBIT =      F    spin-orbit coupling
   INIWAV =      1    electr: 0-lowe 1-rand  2-diag
   LASPH  =      F    aspherical Exc in radial PAW
 Electronic Relaxation 1
   ENCUT  =  450.0 eV  33.07 Ry    5.75 a.u.   4.27  4.27 25.95*2*pi/ulx,y,z
   ENINI  =  450.0     initial cutoff
   ENAUG  =  644.9 eV  augmentation charge cutoff
   NELM   =     64;   NELMIN=  2; NELMDL= -5     # of ELM steps 
   EDIFF  = 0.1E-05   stopping-criterion for ELM
   LREAL  =      F    real-space projection
   NLSPLINE    = F    spline interpolate recip. space projectors
   LCOMPAT=      F    compatible to vasp.4.4
   GGA_COMPAT  = T    GGA compatible to vasp.4.4-vasp.4.6
   LMAXPAW     = -100 max onsite density
   LMAXMIX     =    2 max onsite mixed and CHGCAR
   VOSKOWN=      0    Vosko Wilk Nusair interpolation
   ROPT   =    0.00000
 Ionic relaxation
   EDIFFG = -.1E-02   stopping-criterion for IOM
   NSW    =      0    number of steps for IOM
   NBLOCK =      1;   KBLOCK =      1    inner block; outer block 
   IBRION =     -1    ionic relax: 0-MD 1-quasi-New 2-CG
   NFREE  =      0    steps in history (QN), initial steepest desc. (CG)
   ISIF   =      2    stress and relaxation
   IWAVPR =     10    prediction:  0-non 1-charg 2-wave 3-comb
   ISYM   =      2    0-nonsym 1-usesym 2-fastsym
   LCORR  =      T    Harris-Foulkes like correction to forces

   POTIM  = 0.5000    time-step for ionic-motion
   TEIN   =    0.0    initial temperature
   TEBEG  =    0.0;   TEEND  =   0.0 temperature during run
   SMASS  =  -3.00    Nose mass-parameter (am)
   estimated Nose-frequenzy (Omega)   =  0.10E-29 period in steps = 0.13E+47 mass=  -0.139E-27a.u.
   SCALEE = 1.0000    scale energy and forces
   NPACO  =    256;   APACO  = 10.0  distance and # of slots for P.C.
   PSTRESS=    0.0 pullay stress

  Mass of Ions in am
   POMASS =  12.01
  Ionic Valenz
   ZVAL   =   4.00
  Atomic Wigner-Seitz radii
   RWIGS  =  -1.00
  virtual crystal weights 
   VCA    =   1.00
   NELECT =       8.0000    total number of electrons
   NUPDOWN=      -1.0000    fix difference up-down

 DOS related values:
   EMIN   =  10.00;   EMAX   =-10.00  energy-range for DOS
   EFERMI =   0.00
   ISMEAR =     0;   SIGMA  =   0.10  broadening in eV -4-tet -1-fermi 0-gaus

 Electronic relaxation 2 (details)
   IALGO  =     38    algorithm
   LDIAG  =      T    sub-space diagonalisation (order eigenvalues)
   LSUBROT=      F    optimize rotation matrix (better conditioning)
   TURBO    =      0    0=normal 1=particle mesh
   IRESTART =      0    0=no restart 2=restart with 2 vectors
   NREBOOT  =      0    no. of reboots
   NMIN     =      0    reboot dimension
   EREF     =   0.00    reference energy to select bands
   IMIX   =      4    mixing-type and parameters
     AMIX     =   0.40;   BMIX     =  1.00
     AMIX_MAG =   1.60;   BMIX_MAG =  1.00
     AMIN     =   0.10
     WC   =   100.;   INIMIX=   1;  MIXPRE=   1;  MAXMIX= -45

 Intra band minimization:
   WEIMIN = 0.0000     energy-eigenvalue tresh-hold
   EBREAK =  0.52E-08  absolut break condition
   DEPER  =   0.30     relativ break condition  

   TIME   =   0.40     timestep for ELM

  volume/ion in A,a.u.               =      39.53       266.76
  Fermi-wavevector in a.u.,A,eV,Ry     =   0.762872  1.441618  7.918224  0.581973
  Thomas-Fermi vector in A             =   1.862429
 
 Write flags
   LWAVE        =      T    write WAVECAR
   LDOWNSAMPLE  =      F    k-point downsampling of WAVECAR
   LCHARG       =      T    write CHGCAR
   LVTOT        =      F    write LOCPOT, total local potential
   LVHAR        =      F    write LOCPOT, Hartree potential only
   LELF         =      F    write electronic localiz. function (ELF)
   LORBIT       =      0    0 simple, 1 ext, 2 COOP (PROOUT), +10 PAW based schemes


 Dipole corrections
   LMONO  =      F    monopole corrections only (constant potential shift)
   LDIPOL =      F    correct potential (dipole corrections)
   IDIPOL =      0    1-x, 2-y, 3-z, 4-all directions 
   EPSILON=  1.0000000 bulk dielectric constant

 Exchange correlation treatment:
   GGA     =    PE    GGA type
   LEXCH   =     8    internal setting for exchange type
   LIBXC   =     F    Libxc                    
   VOSKOWN =     0    Vosko Wilk Nusair interpolation
   LHFCALC =     F    Hartree Fock is set to
   LHFONE  =     F    Hartree Fock one center treatment
   AEXX    =    0.0000 exact exchange contribution

 Linear response parameters
   LEPSILON=     F    determine dielectric tensor
   LRPA    =     F    only Hartree local field effects (RPA)
   LNABLA  =     F    use nabla operator in PAW spheres
   LVEL    =     F    velocity operator in full k-point grid
   CSHIFT  =0.1000    complex shift for real part using Kramers Kronig
   OMEGAMAX=  -1.0    maximum frequency
   DEG_THRESHOLD= 0.2000000E-02 threshold for treating states as degnerate
   RTIME   =   -0.100 relaxation time in fs
  (WPLASMAI=    0.000 imaginary part of plasma frequency in eV, 0.658/RTIME)
   DFIELD  = 0.0000000 0.0000000 0.0000000 field for delta impulse in time
 
  Optional k-point grid parameters
   LKPOINTS_OPT  =     F    use optional k-point grid
   KPOINTS_OPT_MODE=     1    mode for optional k-point grid
 
 Orbital magnetization related:
   ORBITALMAG=     F  switch on orbital magnetization
   LCHIMAG   =     F  perturbation theory with respect to B field
   DQ        =  0.001000  dq finite difference perturbation B field
   LLRAUG    =     F  two centre corrections for induced B field



--------------------------------------------------------------------------------------------------------


 Static calculation
 charge density and potential will be updated during run
 non-spin polarized calculation
 Variant of blocked Davidson
 Davidson routine will perform the subspace rotation
 perform sub-space diagonalisation
    after iterative eigenvector-optimisation
 modified Broyden-mixing scheme, WC =      100.0
 initial mixing is a Kerker type mixing with AMIX =  0.4000 and BMIX =      1.0000
 Hartree-type preconditioning will be used
 using additional bands           44
 reciprocal scheme for non local part
 use partial core corrections
 calculate Harris-corrections to forces 
   (improved forces if not selfconsistent)
 use gradient corrections 
 use of overlap-Matrix (Vanderbilt PP)
 Gauss-broadening in eV      SIGMA  =   0.10


--------------------------------------------------------------------------------------------------------


  energy-cutoff  :      450.00
  volume of cell :       79.06
      direct lattice vectors                 reciprocal lattice vectors
     2.136484500  1.233500000  0.000000000     0.234029313  0.405350628  0.000000000
    -2.136484500  1.233500000  0.000000000    -0.234029313  0.405350628  0.000000000
     0.000000000  0.000000000 15.000000000     0.000000000  0.000000000  0.066666667

  length of vectors
     2.466999852  2.466999852 15.000000000     0.468058598  0.468058598  0.066666667


 
 k-points in units of 2pi/SCALE and weight: k-points                                
   0.00000000  0.00000000  0.00000000       0.000
   0.00425508  0.00737001  0.00000000       0.002
   0.00851016  0.01474002  0.00000000       0.002
   0.01276524  0.02211003  0.00000000       0.002
   0.01702031  0.02948005  0.00000000       0.002
   0.02127539  0.03685006  0.00000000       0.002
   0.02553047  0.04422007  0.00000000       0.002
   0.02978555  0.05159008  0.00000000       0.002
   0.03404063  0.05896009  0.00000000       0.002
   0.03829571  0.06633010  0.00000000       0.002
   0.04255078  0.07370011  0.00000000       0.002
   0.04680586  0.08107013  0.00000000       0.002
   0.05106094  0.08844014  0.00000000       0.002
   0.05531602  0.09581015  0.00000000       0.002
   0.05957110  0.10318016  0.00000000       0.002
   0.06382618  0.11055017  0.00000000       0.002
   0.06808125  0.11792018  0.00000000       0.002
   0.07233633  0.12529019  0.00000000       0.002
   0.07659141  0.13266021  0.00000000       0.002
   0.08084649  0.14003022  0.00000000       0.002
   0.08510157  0.14740023  0.00000000       0.002
   0.08935665  0.15477024  0.00000000       0.002
   0.09361173  0.16214025  0.00000000       0.002
   0.09786680  0.16951026  0.00000000       0.002
   0.10212188  0.17688027  0.00000000       0.002
   0.10637696  0.18425029  0.00000000       0.002
   0.11063204  0.19162030  0.00000000       0.002
   0.11488712  0.19899031  0.00000000       0.002
   0.00000000  0.01474002  0.00000000       0.002
   0.00425508  0.02211003  0.00000000       0.004
   0.00851016  0.02948005  0.00000000       0.004
   0.01276524  0.03685006  0.00000000       0.004
   0.01702031  0.04422007  0.00000000       0.004
   0.02127539  0.05159008  0.00000000       0.004
   0.02553047  0.05896009  0.00000000       0.004
   0.02978555  0.06633010  0.00000000       0.004
   0.03404063  0.07370011  0.00000000       0.004
   0.03829571  0.08107013  0.00000000       0.004
   0.04255078  0.08844014  0.00000000       0.004
   0.04680586  0.09581015  0.00000000       0.004
   0.05106094  0.10318016  0.00000000       0.004
   0.05531602  0.11055017  0.00000000       0.004
   0.05957110  0.11792018  0.00000000       0.004
   0.06382618  0.12529019  0.00000000       0.004
   0.06808125  0.13266021  0.00000000       0.004
   0.07233633  0.14003022  0.00000000       0.004
   0.07659141  0.14740023  0.00000000       0.004
   0.08084649  0.15477024  0.00000000       0.004
   0.08510157  0.16214025  0.00000000       0.004
   0.08935665  0.16951026  0.00000000       0.004
   0.09361173  0.17688027  0.00000000       0.004
   0.09786680  0.18425029  0.00000000       0.004
   0.10212188  0.19162030  0.00000000       0.004
   0.10637696  0.19899031  0.00000000       0.004
   0.11063204  0.20636032  0.00000000       0.002
  -0.00000000  0.02948005  0.00000000       0.002
   0.00425508  0.03685006  0.00000000       0.004
   0.00851016  0.04422007  0.00000000       0.004
   0.01276524  0.05159008  0.00000000       0.004
   0.01702031  0.05896009  0.00000000       0.004
   0.02127539  0.06633010  0.00000000       0.004
   0.02553047  0.07370011  0.00000000       0.004
   0.02978555  0.08107013  0.00000000       0.004
   0.03404063  0.08844014  0.00000000       0.004
   0.03829571  0.09581015  0.00000000       0.004
   0.04255078  0.10318016  0.00000000       0.004
   0.04680586  0.11055017  0.00000000       0.004
   0.05106094  0.11792018  0.00000000       0.004
   0.05531602  0.12529019  0.00000000       0.004
   0.05957110  0.13266021  0.00000000       0.004
   0.06382618  0.14003022  0.00000000       0.004
   0.06808125  0.14740023  0.00000000       0.004
   0.07233633  0.15477024  0.00000000       0.004
   0.07659141  0.16214025  0.00000000       0.004
   0.08084649  0.16951026  0.00000000       0.004
   0.08510157  0.17688027  0.00000000       0.004
   0.08935665  0.18425029  0.00000000       0.004
   0.09361173  0.19162030  0.00000000       0.004
   0.09786680  0.19899031  0.00000000       0.004
   0.10212188  0.20636032  0.00000000       0.004
  -0.00000000  0.04422007  0.00000000       0.002
   0.00425508  0.05159008  0.00000000       0.004
   0.00851016  0.05896009  0.00000000       0.004
   0.01276524  0.06633010  0.00000000       0.004
   0.01702031  0.07370011  0.00000000       0.004
   0.02127539  0.08107013  0.00000000       0.004
   0.02553047  0.08844014  0.00000000       0.004
   0.02978555  0.09581015  0.00000000       0.004
   0.03404063  0.10318016  0.00000000       0.004
   0.03829571  0.11055017  0.00000000       0.004
   0.04255078  0.11792018  0.00000000       0.004
   0.04680586  0.12529019  0.00000000       0.004
   0.05106094  0.13266021  0.00000000       0.004
   0.05531602  0.14003022  0.00000000       0.004
   0.05957110  0.14740023  0.00000000       0.004
   0.06382618  0.15477024  0.00000000       0.004
   0.06808125  0.16214025  0.00000000       0.004
   0.07233633  0.16951026  0.00000000       0.004
   0.07659141  0.17688027  0.00000000       0.004
   0.08084649  0.18425029  0.00000000       0.004
   0.08510157  0.19162030  0.00000000       0.004
   0.08935665  0.19899031  0.00000000       0.004
   0.09361173  0.20636032  0.00000000       0.004
   0.09786680  0.21373033  0.00000000       0.002
  -0.00000000  0.05896009  0.00000000       0.002
   0.00425508  0.06633010  0.00000000       0.004
   0.00851016  0.07370011  0.00000000       0.004
   0.01276524  0.08107013  0.00000000       0.004
   0.01702031  0.08844014  0.00000000       0.004
   0.02127539  0.09581015  0.00000000       0.004
   0.02553047  0.10318016  0.00000000       0.004
   0.02978555  0.11055017  0.00000000       0.004
   0.03404063  0.11792018  0.00000000       0.004
   0.03829571  0.12529019  0.00000000       0.004
   0.04255078  0.13266021  0.00000000       0.004
   0.04680586  0.14003022  0.00000000       0.004
   0.05106094  0.14740023  0.00000000       0.004
   0.05531602  0.15477024  0.00000000       0.004
   0.05957110  0.16214025  0.00000000       0.004
   0.06382618  0.16951026  0.00000000       0.004
   0.06808125  0.17688027  0.00000000       0.004
   0.07233633  0.18425029  0.00000000       0.004
   0.07659141  0.19162030  0.00000000       0.004
   0.08084649  0.19899031  0.00000000       0.004
   0.08510157  0.20636032  0.00000000       0.004
   0.08935665  0.21373033  0.00000000       0.004
  -0.00000000  0.07370011  0.00000000       0.002
   0.00425508  0.08107013  0.00000000       0.004
   0.00851016  0.08844014  0.00000000       0.004
   0.01276524  0.09581015  0.00000000       0.004
   0.01702031  0.10318016  0.00000000       0.004
   0.02127539  0.11055017  0.00000000       0.004
   0.02553047  0.11792018  0.00000000       0.004
   0.02978555  0.12529019  0.00000000       0.004
   0.03404063  0.13266021  0.00000000       0.004
   0.03829571  0.14003022  0.00000000       0.004
   0.04255078  0.14740023  0.00000000       0.004
   0.04680586  0.15477024  0.00000000       0.004
   0.05106094  0.16214025  0.00000000       0.004
   0.05531602  0.16951026  0.00000000       0.004
   0.05957110  0.17688027  0.00000000       0.004
   0.06382618  0.18425029  0.00000000       0.004
   0.06808125  0.19162030  0.00000000       0.004
   0.07233633  0.19899031  0.00000000       0.004
   0.07659141  0.20636032  0.00000000       0.004
   0.08084649  0.21373033  0.00000000       0.004
   0.08510157  0.22110034  0.00000000       0.002
  -0.00000000  0.08844014  0.00000000       0.002
   0.00425508  0.09581015  0.00000000       0.004
   0.00851016  0.10318016  0.00000000       0.004
   0.01276524  0.11055017  0.00000000       0.004
   0.01702031  0.11792018  0.00000000       0.004
   0.02127539  0.12529019  0.00000000       0.004
   0.02553047  0.13266021  0.00000000       0.004
   0.02978555  0.14003022  0.00000000       0.004
   0.03404063  0.14740023  0.00000000       0.004
   0.03829571  0.15477024  0.00000000       0.004
   0.04255078  0.16214025  0.00000000       0.004
   0.04680586  0.16951026  0.00000000       0.004
   0.05106094  0.17688027  0.00000000       0.004
   0.05531602  0.18425029  0.00000000       0.004
   0.05957110  0.19162030  0.00000000       0.004
   0.06382618  0.19899031  0.00000000       0.004
   0.06808125  0.20636032  0.00000000       0.004
   0.07233633  0.21373033  0.00000000       0.004
   0.07659141  0.22110034  0.00000000       0.004
  -0.00000000  0.10318016  0.00000000       0.002
   0.00425508  0.11055017  0.00000000       0.004
   0.00851016  0.11792018  0.00000000       0.004
   0.01276524  0.12529019  0.00000000       0.004
   0.01702031  0.13266021  0.00000000       0.004
   0.02127539  0.14003022  0.00000000       0.004
   0.02553047  0.14740023  0.00000000       0.004
   0.02978555  0.15477024  0.00000000       0.004
   0.03404063  0.16214025  0.00000000       0.004
   0.03829571  0.16951026  0.00000000       0.004
   0.04255078  0.17688027  0.00000000       0.004
   0.04680586  0.18425029  0.00000000       0.004
   0.05106094  0.19162030  0.00000000       0.004
   0.05531602  0.19899031  0.00000000       0.004
   0.05957110  0.20636032  0.00000000       0.004
   0.06382618  0.21373033  0.00000000       0.004
   0.06808125  0.22110034  0.00000000       0.004
   0.07233633  0.22847035  0.00000000       0.002
   0.00000000  0.11792018  0.00000000       0.002
   0.00425508  0.12529019  0.00000000       0.004
   0.00851016  0.13266021  0.00000000       0.004
   0.01276524  0.14003022  0.00000000       0.004
   0.01702031  0.14740023  0.00000000       0.004
   0.02127539  0.15477024  0.00000000       0.004
   0.02553047  0.16214025  0.00000000       0.004
   0.02978555  0.16951026  0.00000000       0.004
   0.03404063  0.17688027  0.00000000       0.004
   0.03829571  0.18425029  0.00000000       0.004
   0.04255078  0.19162030  0.00000000       0.004
   0.04680586  0.19899031  0.00000000       0.004
   0.05106094  0.20636032  0.00000000       0.004
   0.05531602  0.21373033  0.00000000       0.004
   0.05957110  0.22110034  0.00000000       0.004
   0.06382618  0.22847035  0.00000000       0.004
  -0.00000000  0.13266021  0.00000000       0.002
   0.00425508  0.14003022  0.00000000       0.004
   0.00851016  0.14740023  0.00000000       0.004
   0.01276524  0.15477024  0.00000000       0.004
   0.01702031  0.16214025  0.00000000       0.004
   0.02127539  0.16951026  0.00000000       0.004
   0.02553047  0.17688027  0.00000000       0.004
   0.02978555  0.18425029  0.00000000       0.004
   0.03404063  0.19162030  0.00000000       0.004
   0.03829571  0.19899031  0.00000000       0.004
   0.04255078  0.20636032  0.00000000       0.004
   0.04680586  0.21373033  0.00000000       0.004
   0.05106094  0.22110034  0.00000000       0.004
   0.05531602  0.22847035  0.00000000       0.004
   0.05957110  0.23584037  0.00000000       0.002
   0.00000000  0.14740023  0.00000000       0.002
   0.00425508  0.15477024  0.00000000       0.004
   0.00851016  0.16214025  0.00000000       0.004
   0.01276524  0.16951026  0.00000000       0.004
   0.01702031  0.17688027  0.00000000       0.004
   0.02127539  0.18425029  0.00000000       0.004
   0.02553047  0.19162030  0.00000000       0.004
   0.02978555  0.19899031  0.00000000       0.004
   0.03404063  0.20636032  0.00000000       0.004
   0.03829571  0.21373033  0.00000000       0.004
   0.04255078  0.22110034  0.00000000       0.004
   0.04680586  0.22847035  0.00000000       0.004
   0.05106094  0.23584037  0.00000000       0.004
   0.00000000  0.16214025  0.00000000       0.002
   0.00425508  0.16951026  0.00000000       0.004
   0.00851016  0.17688027  0.00000000       0.004
   0.01276524  0.18425029  0.00000000       0.004
   0.01702031  0.19162030  0.00000000       0.004
   0.02127539  0.19899031  0.00000000       0.004
   0.02553047  0.20636032  0.00000000       0.004
   0.02978555  0.21373033  0.00000000       0.004
   0.03404063  0.22110034  0.00000000       0.004
   0.03829571  0.22847035  0.00000000       0.004
   0.04255078  0.23584037  0.00000000       0.004
   0.04680586  0.24321038  0.00000000       0.002
  -0.00000000  0.17688027  0.00000000       0.002
   0.00425508  0.18425029  0.00000000       0.004
   0.00851016  0.19162030  0.00000000       0.004
   0.01276524  0.19899031  0.00000000       0.004
   0.01702031  0.20636032  0.00000000       0.004
   0.02127539  0.21373033  0.00000000       0.004
   0.02553047  0.22110034  0.00000000       0.004
   0.02978555  0.22847035  0.00000000       0.004
   0.03404063  0.23584037  0.00000000       0.004
   0.03829571  0.24321038  0.00000000       0.004
   0.00000000  0.19162030  0.00000000       0.002
   0.00425508  0.19899031  0.00000000       0.004
   0.00851016  0.20636032  0.00000000       0.004
   0.01276524  0.21373033  0.00000000       0.004
   0.01702031  0.22110034  0.00000000       0.004
   0.02127539  0.22847035  0.00000000       0.004
   0.02553047  0.23584037  0.00000000       0.004
   0.02978555  0.24321038  0.00000000       0.004
   0.03404063  0.25058039  0.00000000       0.002
   0.00000000  0.20636032  0.00000000       0.002
   0.00425508  0.21373033  0.00000000       0.004
   0.00851016  0.22110034  0.00000000       0.004
   0.01276524  0.22847035  0.00000000       0.004
   0.01702031  0.23584037  0.00000000       0.004
   0.02127539  0.24321038  0.00000000       0.004
   0.02553047  0.25058039  0.00000000       0.004
  -0.00000000  0.22110034  0.00000000       0.002
   0.00425508  0.22847035  0.00000000       0.004
   0.00851016  0.23584037  0.00000000       0.004
   0.01276524  0.24321038  0.00000000       0.004
   0.01702031  0.25058039  0.00000000       0.004
   0.02127539  0.25795040  0.00000000       0.002
  -0.00000000  0.23584037  0.00000000       0.002
   0.00425508  0.24321038  0.00000000       0.004
   0.00851016  0.25058039  0.00000000       0.004
   0.01276524  0.25795040  0.00000000       0.004
   0.00000000  0.25058039  0.00000000       0.002
   0.00425508  0.25795040  0.00000000       0.004
   0.00851016  0.26532041  0.00000000       0.002
  -0.00000000  0.26532041  0.00000000       0.002
 
 k-points in reciprocal lattice and weights: k-points                                
   0.00000000  0.00000000  0.00000000       0.000
   0.01818182 -0.00000000  0.00000000       0.002
   0.03636364 -0.00000000  0.00000000       0.002
   0.05454545 -0.00000000  0.00000000       0.002
   0.07272727 -0.00000000  0.00000000       0.002
   0.09090909 -0.00000000  0.00000000       0.002
   0.10909091 -0.00000000  0.00000000       0.002
   0.12727273 -0.00000000  0.00000000       0.002
   0.14545455 -0.00000000  0.00000000       0.002
   0.16363636  0.00000000  0.00000000       0.002
   0.18181818 -0.00000000  0.00000000       0.002
   0.20000000 -0.00000000  0.00000000       0.002
   0.21818182 -0.00000000  0.00000000       0.002
   0.23636364 -0.00000000  0.00000000       0.002
   0.25454545 -0.00000000  0.00000000       0.002
   0.27272727 -0.00000000  0.00000000       0.002
   0.29090909 -0.00000000  0.00000000       0.002
   0.30909091 -0.00000000  0.00000000       0.002
   0.32727273  0.00000000  0.00000000       0.002
   0.34545455 -0.00000000  0.00000000       0.002
   0.36363636 -0.00000000  0.00000000       0.002
   0.38181818 -0.00000000  0.00000000       0.002
   0.40000000 -0.00000000  0.00000000       0.002
   0.41818182 -0.00000000  0.00000000       0.002
   0.43636364 -0.00000000  0.00000000       0.002
   0.45454545 -0.00000000  0.00000000       0.002
   0.47272727 -0.00000000  0.00000000       0.002
   0.49090909 -0.00000000  0.00000000       0.002
   0.01818182  0.01818182  0.00000000       0.002
   0.03636364  0.01818182  0.00000000       0.004
   0.05454545  0.01818182  0.00000000       0.004
   0.07272727  0.01818182  0.00000000       0.004
   0.09090909  0.01818182  0.00000000       0.004
   0.10909091  0.01818182  0.00000000       0.004
   0.12727273  0.01818182  0.00000000       0.004
   0.14545455  0.01818182  0.00000000       0.004
   0.16363636  0.01818182  0.00000000       0.004
   0.18181818  0.01818182  0.00000000       0.004
   0.20000000  0.01818182  0.00000000       0.004
   0.21818182  0.01818182  0.00000000       0.004
   0.23636364  0.01818182  0.00000000       0.004
   0.25454545  0.01818182  0.00000000       0.004
   0.27272727  0.01818182  0.00000000       0.004
   0.29090909  0.01818182  0.00000000       0.004
   0.30909091  0.01818182  0.00000000       0.004
   0.32727273  0.01818182  0.00000000       0.004
   0.34545455  0.01818182  0.00000000       0.004
   0.36363636  0.01818182  0.00000000       0.004
   0.38181818  0.01818182  0.00000000       0.004
   0.40000000  0.01818182  0.00000000       0.004
   0.41818182  0.01818182  0.00000000       0.004
   0.43636364  0.01818182  0.00000000       0.004
   0.45454545  0.01818182  0.00000000       0.004
   0.47272727  0.01818182  0.00000000       0.004
   0.49090909  0.01818182  0.00000000       0.002
   0.03636364  0.03636364  0.00000000       0.002
   0.05454545  0.03636364  0.00000000       0.004
   0.07272727  0.03636364  0.00000000       0.004
   0.09090909  0.03636364  0.00000000       0.004
   0.10909091  0.03636364  0.00000000       0.004
   0.12727273  0.03636364  0.00000000       0.004
   0.14545455  0.03636364  0.00000000       0.004
   0.16363636  0.03636364  0.00000000       0.004
   0.18181818  0.03636364  0.00000000       0.004
   0.20000000  0.03636364  0.00000000       0.004
   0.21818182  0.03636364  0.00000000       0.004
   0.23636364  0.03636364  0.00000000       0.004
   0.25454545  0.03636364  0.00000000       0.004
   0.27272727  0.03636364  0.00000000       0.004
   0.29090909  0.03636364  0.00000000       0.004
   0.30909091  0.03636364  0.00000000       0.004
   0.32727273  0.03636364  0.00000000       0.004
   0.34545455  0.03636364  0.00000000       0.004
   0.36363636  0.03636364  0.00000000       0.004
   0.38181818  0.03636364  0.00000000       0.004
   0.40000000  0.03636364  0.00000000       0.004
   0.41818182  0.03636364  0.00000000       0.004
   0.43636364  0.03636364  0.00000000       0.004
   0.45454545  0.03636364  0.00000000       0.004
   0.47272727  0.03636364  0.00000000       0.004
   0.05454545  0.05454545  0.00000000       0.002
   0.07272727  0.05454545  0.00000000       0.004
   0.09090909  0.05454545  0.00000000       0.004
   0.10909091  0.05454545  0.00000000       0.004
   0.12727273  0.05454545  0.00000000       0.004
   0.14545455  0.05454545  0.00000000       0.004
   0.16363636  0.05454545  0.00000000       0.004
   0.18181818  0.05454545  0.00000000       0.004
   0.20000000  0.05454545  0.00000000       0.004
   0.21818182  0.05454545  0.00000000       0.004
   0.23636364  0.05454545  0.00000000       0.004
   0.25454545  0.05454545  0.00000000       0.004
   0.27272727  0.05454545  0.00000000       0.004
   0.29090909  0.05454545  0.00000000       0.004
   0.30909091  0.05454545  0.00000000       0.004
   0.32727273  0.05454545  0.00000000       0.004
   0.34545455  0.05454545  0.00000000       0.004
   0.36363636  0.05454545  0.00000000       0.004
   0.38181818  0.05454545  0.00000000       0.004
   0.40000000  0.05454545  0.00000000       0.004
   0.41818182  0.05454545  0.00000000       0.004
   0.43636364  0.05454545  0.00000000       0.004
   0.45454545  0.05454545  0.00000000       0.004
   0.47272727  0.05454545  0.00000000       0.002
   0.07272727  0.07272727  0.00000000       0.002
   0.09090909  0.07272727  0.00000000       0.004
   0.10909091  0.07272727  0.00000000       0.004
   0.12727273  0.07272727  0.00000000       0.004
   0.14545455  0.07272727  0.00000000       0.004
   0.16363636  0.07272727  0.00000000       0.004
   0.18181818  0.07272727  0.00000000       0.004
   0.20000000  0.07272727  0.00000000       0.004
   0.21818182  0.07272727  0.00000000       0.004
   0.23636364  0.07272727  0.00000000       0.004
   0.25454545  0.07272727  0.00000000       0.004
   0.27272727  0.07272727  0.00000000       0.004
   0.29090909  0.07272727  0.00000000       0.004
   0.30909091  0.07272727  0.00000000       0.004
   0.32727273  0.07272727  0.00000000       0.004
   0.34545455  0.07272727  0.00000000       0.004
   0.36363636  0.07272727  0.00000000       0.004
   0.38181818  0.07272727  0.00000000       0.004
   0.40000000  0.07272727  0.00000000       0.004
   0.41818182  0.07272727  0.00000000       0.004
   0.43636364  0.07272727  0.00000000       0.004
   0.45454545  0.07272727  0.00000000       0.004
   0.09090909  0.09090909  0.00000000       0.002
   0.10909091  0.09090909  0.00000000       0.004
   0.12727273  0.09090909  0.00000000       0.004
   0.14545455  0.09090909  0.00000000       0.004
   0.16363636  0.09090909  0.00000000       0.004
   0.18181818  0.09090909  0.00000000       0.004
   0.20000000  0.09090909  0.00000000       0.004
   0.21818182  0.09090909  0.00000000       0.004
   0.23636364  0.09090909  0.00000000       0.004
   0.25454545  0.09090909  0.00000000       0.004
   0.27272727  0.09090909  0.00000000       0.004
   0.29090909  0.09090909  0.00000000       0.004
   0.30909091  0.09090909  0.00000000       0.004
   0.32727273  0.09090909  0.00000000       0.004
   0.34545455  0.09090909  0.00000000       0.004
   0.36363636  0.09090909  0.00000000       0.004
   0.38181818  0.09090909  0.00000000       0.004
   0.40000000  0.09090909  0.00000000       0.004
   0.41818182  0.09090909  0.00000000       0.004
   0.43636364  0.09090909  0.00000000       0.004
   0.45454545  0.09090909  0.00000000       0.002
   0.10909091  0.10909091  0.00000000       0.002
   0.12727273  0.10909091  0.00000000       0.004
   0.14545455  0.10909091  0.00000000       0.004
   0.16363636  0.10909091  0.00000000       0.004
   0.18181818  0.10909091  0.00000000       0.004
   0.20000000  0.10909091  0.00000000       0.004
   0.21818182  0.10909091  0.00000000       0.004
   0.23636364  0.10909091  0.00000000       0.004
   0.25454545  0.10909091  0.00000000       0.004
   0.27272727  0.10909091  0.00000000       0.004
   0.29090909  0.10909091  0.00000000       0.004
   0.30909091  0.10909091  0.00000000       0.004
   0.32727273  0.10909091  0.00000000       0.004
   0.34545455  0.10909091  0.00000000       0.004
   0.36363636  0.10909091  0.00000000       0.004
   0.38181818  0.10909091  0.00000000       0.004
   0.40000000  0.10909091  0.00000000       0.004
   0.41818182  0.10909091  0.00000000       0.004
   0.43636364  0.10909091  0.00000000       0.004
   0.12727273  0.12727273  0.00000000       0.002
   0.14545455  0.12727273  0.00000000       0.004
   0.16363636  0.12727273  0.00000000       0.004
   0.18181818  0.12727273  0.00000000       0.004
   0.20000000  0.12727273  0.00000000       0.004
   0.21818182  0.12727273  0.00000000       0.004
   0.23636364  0.12727273  0.00000000       0.004
   0.25454545  0.12727273  0.00000000       0.004
   0.27272727  0.12727273  0.00000000       0.004
   0.29090909  0.12727273  0.00000000       0.004
   0.30909091  0.12727273  0.00000000       0.004
   0.32727273  0.12727273  0.00000000       0.004
   0.34545455  0.12727273  0.00000000       0.004
   0.36363636  0.12727273  0.00000000       0.004
   0.38181818  0.12727273  0.00000000       0.004
   0.40000000  0.12727273  0.00000000       0.004
   0.41818182  0.12727273  0.00000000       0.004
   0.43636364  0.12727273  0.00000000       0.002
   0.14545455  0.14545455  0.00000000       0.002
   0.16363636  0.14545455  0.00000000       0.004
   0.18181818  0.14545455  0.00000000       0.004
   0.20000000  0.14545455  0.00000000       0.004
   0.21818182  0.14545455  0.00000000       0.004
   0.23636364  0.14545455  0.00000000       0.004
   0.25454545  0.14545455  0.00000000       0.004
   0.27272727  0.14545455  0.00000000       0.004
   0.29090909  0.14545455  0.00000000       0.004
   0.30909091  0.14545455  0.00000000       0.004
   0.32727273  0.14545455  0.00000000       0.004
   0.34545455  0.14545455  0.00000000       0.004
   0.36363636  0.14545455  0.00000000       0.004
   0.38181818  0.14545455  0.00000000       0.004
   0.40000000  0.14545455  0.00000000       0.004
   0.41818182  0.14545455  0.00000000       0.004
   0.16363636  0.16363636  0.00000000       0.002
   0.18181818  0.16363636  0.00000000       0.004
   0.20000000  0.16363636  0.00000000       0.004
   0.21818182  0.16363636  0.00000000       0.004
   0.23636364  0.16363636  0.00000000       0.004
   0.25454545  0.16363636  0.00000000       0.004
   0.27272727  0.16363636  0.00000000       0.004
   0.29090909  0.16363636  0.00000000       0.004
   0.30909091  0.16363636  0.00000000       0.004
   0.32727273  0.16363636  0.00000000       0.004
   0.34545455  0.16363636  0.00000000       0.004
   0.36363636  0.16363636  0.00000000       0.004
   0.38181818  0.16363636  0.00000000       0.004
   0.40000000  0.16363636  0.00000000       0.004
   0.41818182  0.16363636  0.00000000       0.002
   0.18181818  0.18181818  0.00000000       0.002
   0.20000000  0.18181818  0.00000000       0.004
   0.21818182  0.18181818  0.00000000       0.004
   0.23636364  0.18181818  0.00000000       0.004
   0.25454545  0.18181818  0.00000000       0.004
   0.27272727  0.18181818  0.00000000       0.004
   0.29090909  0.18181818  0.00000000       0.004
   0.30909091  0.18181818  0.00000000       0.004
   0.32727273  0.18181818  0.00000000       0.004
   0.34545455  0.18181818  0.00000000       0.004
   0.36363636  0.18181818  0.00000000       0.004
   0.38181818  0.18181818  0.00000000       0.004
   0.40000000  0.18181818  0.00000000       0.004
   0.20000000  0.20000000  0.00000000       0.002
   0.21818182  0.20000000  0.00000000       0.004
   0.23636364  0.20000000  0.00000000       0.004
   0.25454545  0.20000000  0.00000000       0.004
   0.27272727  0.20000000  0.00000000       0.004
   0.29090909  0.20000000  0.00000000       0.004
   0.30909091  0.20000000  0.00000000       0.004
   0.32727273  0.20000000  0.00000000       0.004
   0.34545455  0.20000000  0.00000000       0.004
   0.36363636  0.20000000  0.00000000       0.004
   0.38181818  0.20000000  0.00000000       0.004
   0.40000000  0.20000000  0.00000000       0.002
   0.21818182  0.21818182  0.00000000       0.002
   0.23636364  0.21818182  0.00000000       0.004
   0.25454545  0.21818182  0.00000000       0.004
   0.27272727  0.21818182  0.00000000       0.004
   0.29090909  0.21818182  0.00000000       0.004
   0.30909091  0.21818182  0.00000000       0.004
   0.32727273  0.21818182  0.00000000       0.004
   0.34545455  0.21818182  0.00000000       0.004
   0.36363636  0.21818182  0.00000000       0.004
   0.38181818  0.21818182  0.00000000       0.004
   0.23636364  0.23636364  0.00000000       0.002
   0.25454545  0.23636364  0.00000000       0.004
   0.27272727  0.23636364  0.00000000       0.004
   0.29090909  0.23636364  0.00000000       0.004
   0.30909091  0.23636364  0.00000000       0.004
   0.32727273  0.23636364  0.00000000       0.004
   0.34545455  0.23636364  0.00000000       0.004
   0.36363636  0.23636364  0.00000000       0.004
   0.38181818  0.23636364  0.00000000       0.002
   0.25454545  0.25454545  0.00000000       0.002
   0.27272727  0.25454545  0.00000000       0.004
   0.29090909  0.25454545  0.00000000       0.004
   0.30909091  0.25454545  0.00000000       0.004
   0.32727273  0.25454545  0.00000000       0.004
   0.34545455  0.25454545  0.00000000       0.004
   0.36363636  0.25454545  0.00000000       0.004
   0.27272727  0.27272727  0.00000000       0.002
   0.29090909  0.27272727  0.00000000       0.004
   0.30909091  0.27272727  0.00000000       0.004
   0.32727273  0.27272727  0.00000000       0.004
   0.34545455  0.27272727  0.00000000       0.004
   0.36363636  0.27272727  0.00000000       0.002
   0.29090909  0.29090909  0.00000000       0.002
   0.30909091  0.29090909  0.00000000       0.004
   0.32727273  0.29090909  0.00000000       0.004
   0.34545455  0.29090909  0.00000000       0.004
   0.30909091  0.30909091  0.00000000       0.002
   0.32727273  0.30909091  0.00000000       0.004
   0.34545455  0.30909091  0.00000000       0.002
   0.32727273  0.32727273  0.00000000       0.002
 
 position of ions in fractional coordinates (direct lattice) 
   0.33333300  0.66666600  0.10000000
   0.66666600  0.33333300  0.10000000
 
 position of ions in cartesian coordinates  (Angst):
  -0.71216079  1.23349877  1.50000000
   0.71216079  1.23349877  1.50000000
 


--------------------------------------------------------------------------------------------------------


 k-point   1 :   0.0000 0.0000 0.0000  plane waves:    1749
 k-point   2 :   0.0182-0.0000 0.0000  plane waves:    1749
 k-point   3 :   0.0364-0.0000 0.0000  plane waves:    1741
 k-point   4 :   0.0545-0.0000 0.0000  plane waves:    1747
 k-point   5 :   0.0727-0.0000 0.0000  plane waves:    1739
 k-point   6 :   0.0909-0.0000 0.0000  plane waves:    1731
 k-point   7 :   0.1091-0.0000 0.0000  plane waves:    1727
 k-point   8 :   0.1273-0.0000 0.0000  plane waves:    1713
 k-point   9 :   0.1455-0.0000 0.0000  plane waves:    1727
 k-point  10 :   0.1636 0.0000 0.0000  plane waves:    1715
 k-point  11 :   0.1818-0.0000 0.0000  plane waves:    1717
 k-point  12 :   0.2000-0.0000 0.0000  plane waves:    1715
 k-point  13 :   0.2182-0.0000 0.0000  plane waves:    1713
 k-point  14 :   0.2364-0.0000 0.0000  plane waves:    1713
 k-point  15 :   0.2545-0.0000 0.0000  plane waves:    1709
 k-point  16 :   0.2727-0.0000 0.0000  plane waves:    1699
 k-point  17 :   0.2909-0.0000 0.0000  plane waves:    1689
 k-point  18 :   0.3091-0.0000 0.0000  plane waves:    1692
 k-point  19 :   0.3273 0.0000 0.0000  plane waves:    1702
 k-point  20 :   0.3455-0.0000 0.0000  plane waves:    1706
 k-point  21 :   0.3636-0.0000 0.0000  plane waves:    1704
 k-point  22 :   0.3818-0.0000 0.0000  plane waves:    1702
 k-point  23 :   0.4000-0.0000 0.0000  plane waves:    1706
 k-point  24 :   0.4182-0.0000 0.0000  plane waves:    1716
 k-point  25 :   0.4364-0.0000 0.0000  plane waves:    1720
 k-point  26 :   0.4545-0.0000 0.0000  plane waves:    1722
 k-point  27 :   0.4727-0.0000 0.0000  plane waves:    1716
 k-point  28 :   0.4909-0.0000 0.0000  plane waves:    1716
 k-point  29 :   0.0182 0.0182 0.0000  plane waves:    1737
 k-point  30 :   0.0364 0.0182 0.0000  plane waves:    1741
 k-point  31 :   0.0545 0.0182 0.0000  plane waves:    1739
 k-point  32 :   0.0727 0.0182 0.0000  plane waves:    1731
 k-point  33 :   0.0909 0.0182 0.0000  plane waves:    1729
 k-point  34 :   0.1091 0.0182 0.0000  plane waves:    1722
 k-point  35 :   0.1273 0.0182 0.0000  plane waves:    1724
 k-point  36 :   0.1455 0.0182 0.0000  plane waves:    1725
 k-point  37 :   0.1636 0.0182 0.0000  plane waves:    1721
 k-point  38 :   0.1818 0.0182 0.0000  plane waves:    1719
 k-point  39 :   0.2000 0.0182 0.0000  plane waves:    1715
 k-point  40 :   0.2182 0.0182 0.0000  plane waves:    1717
 k-point  41 :   0.2364 0.0182 0.0000  plane waves:    1708
 k-point  42 :   0.2545 0.0182 0.0000  plane waves:    1703
 k-point  43 :   0.2727 0.0182 0.0000  plane waves:    1698
 k-point  44 :   0.2909 0.0182 0.0000  plane waves:    1694
 k-point  45 :   0.3091 0.0182 0.0000  plane waves:    1709
 k-point  46 :   0.3273 0.0182 0.0000  plane waves:    1708
 k-point  47 :   0.3455 0.0182 0.0000  plane waves:    1704
 k-point  48 :   0.3636 0.0182 0.0000  plane waves:    1706
 k-point  49 :   0.3818 0.0182 0.0000  plane waves:    1708
 k-point  50 :   0.4000 0.0182 0.0000  plane waves:    1710
 k-point  51 :   0.4182 0.0182 0.0000  plane waves:    1718
 k-point  52 :   0.4364 0.0182 0.0000  plane waves:    1722
 k-point  53 :   0.4545 0.0182 0.0000  plane waves:    1720
 k-point  54 :   0.4727 0.0182 0.0000  plane waves:    1712
 k-point  55 :   0.4909 0.0182 0.0000  plane waves:    1708
 k-point  56 :   0.0364 0.0364 0.0000  plane waves:    1745
 k-point  57 :   0.0545 0.0364 0.0000  plane waves:    1737
 k-point  58 :   0.0727 0.0364 0.0000  plane waves:    1728
 k-point  59 :   0.0909 0.0364 0.0000  plane waves:    1728
 k-point  60 :   0.1091 0.0364 0.0000  plane waves:    1724
 k-point  61 :   0.1273 0.0364 0.0000  plane waves:    1724
 k-point  62 :   0.1455 0.0364 0.0000  plane waves:    1729
 k-point  63 :   0.1636 0.0364 0.0000  plane waves:    1717
 k-point  64 :   0.1818 0.0364 0.0000  plane waves:    1714
 k-point  65 :   0.2000 0.0364 0.0000  plane waves:    1714
 k-point  66 :   0.2182 0.0364 0.0000  plane waves:    1708
 k-point  67 :   0.2364 0.0364 0.0000  plane waves:    1705
 k-point  68 :   0.2545 0.0364 0.0000  plane waves:    1701
 k-point  69 :   0.2727 0.0364 0.0000  plane waves:    1698
 k-point  70 :   0.2909 0.0364 0.0000  plane waves:    1703
 k-point  71 :   0.3091 0.0364 0.0000  plane waves:    1703
 k-point  72 :   0.3273 0.0364 0.0000  plane waves:    1713
 k-point  73 :   0.3455 0.0364 0.0000  plane waves:    1709
 k-point  74 :   0.3636 0.0364 0.0000  plane waves:    1710
 k-point  75 :   0.3818 0.0364 0.0000  plane waves:    1710
 k-point  76 :   0.4000 0.0364 0.0000  plane waves:    1710
 k-point  77 :   0.4182 0.0364 0.0000  plane waves:    1716
 k-point  78 :   0.4364 0.0364 0.0000  plane waves:    1716
 k-point  79 :   0.4545 0.0364 0.0000  plane waves:    1716
 k-point  80 :   0.4727 0.0364 0.0000  plane waves:    1712
 k-point  81 :   0.0545 0.0545 0.0000  plane waves:    1725
 k-point  82 :   0.0727 0.0545 0.0000  plane waves:    1727
 k-point  83 :   0.0909 0.0545 0.0000  plane waves:    1722
 k-point  84 :   0.1091 0.0545 0.0000  plane waves:    1726
 k-point  85 :   0.1273 0.0545 0.0000  plane waves:    1717
 k-point  86 :   0.1455 0.0545 0.0000  plane waves:    1711
 k-point  87 :   0.1636 0.0545 0.0000  plane waves:    1716
 k-point  88 :   0.1818 0.0545 0.0000  plane waves:    1718
 k-point  89 :   0.2000 0.0545 0.0000  plane waves:    1712
 k-point  90 :   0.2182 0.0545 0.0000  plane waves:    1707
 k-point  91 :   0.2364 0.0545 0.0000  plane waves:    1707
 k-point  92 :   0.2545 0.0545 0.0000  plane waves:    1703
 k-point  93 :   0.2727 0.0545 0.0000  plane waves:    1698
 k-point  94 :   0.2909 0.0545 0.0000  plane waves:    1701
 k-point  95 :   0.3091 0.0545 0.0000  plane waves:    1709
 k-point  96 :   0.3273 0.0545 0.0000  plane waves:    1713
 k-point  97 :   0.3455 0.0545 0.0000  plane waves:    1715
 k-point  98 :   0.3636 0.0545 0.0000  plane waves:    1715
 k-point  99 :   0.3818 0.0545 0.0000  plane waves:    1710
 k-point 100 :   0.4000 0.0545 0.0000  plane waves:    1712
 k-point 101 :   0.4182 0.0545 0.0000  plane waves:    1714
 k-point 102 :   0.4364 0.0545 0.0000  plane waves:    1720
 k-point 103 :   0.4545 0.0545 0.0000  plane waves:    1714
 k-point 104 :   0.4727 0.0545 0.0000  plane waves:    1724
 k-point 105 :   0.0727 0.0727 0.0000  plane waves:    1721
 k-point 106 :   0.0909 0.0727 0.0000  plane waves:    1723
 k-point 107 :   0.1091 0.0727 0.0000  plane waves:    1719
 k-point 108 :   0.1273 0.0727 0.0000  plane waves:    1723
 k-point 109 :   0.1455 0.0727 0.0000  plane waves:    1717
 k-point 110 :   0.1636 0.0727 0.0000  plane waves:    1712
 k-point 111 :   0.1818 0.0727 0.0000  plane waves:    1714
 k-point 112 :   0.2000 0.0727 0.0000  plane waves:    1709
 k-point 113 :   0.2182 0.0727 0.0000  plane waves:    1707
 k-point 114 :   0.2364 0.0727 0.0000  plane waves:    1705
 k-point 115 :   0.2545 0.0727 0.0000  plane waves:    1701
 k-point 116 :   0.2727 0.0727 0.0000  plane waves:    1701
 k-point 117 :   0.2909 0.0727 0.0000  plane waves:    1707
 k-point 118 :   0.3091 0.0727 0.0000  plane waves:    1715
 k-point 119 :   0.3273 0.0727 0.0000  plane waves:    1719
 k-point 120 :   0.3455 0.0727 0.0000  plane waves:    1719
 k-point 121 :   0.3636 0.0727 0.0000  plane waves:    1715
 k-point 122 :   0.3818 0.0727 0.0000  plane waves:    1709
 k-point 123 :   0.4000 0.0727 0.0000  plane waves:    1709
 k-point 124 :   0.4182 0.0727 0.0000  plane waves:    1710
 k-point 125 :   0.4364 0.0727 0.0000  plane waves:    1708
 k-point 126 :   0.4545 0.0727 0.0000  plane waves:    1718
 k-point 127 :   0.0909 0.0909 0.0000  plane waves:    1723
 k-point 128 :   0.1091 0.0909 0.0000  plane waves:    1717
 k-point 129 :   0.1273 0.0909 0.0000  plane waves:    1717
 k-point 130 :   0.1455 0.0909 0.0000  plane waves:    1717
 k-point 131 :   0.1636 0.0909 0.0000  plane waves:    1706
 k-point 132 :   0.1818 0.0909 0.0000  plane waves:    1709
[...]
     46      38.4353      0.00000
     47      39.0558      0.00000
     48      40.2220      0.00000

 k-point   274 :       0.3091    0.2909    0.0000
  band No.  band energies     occupation 
      1     -15.7944      2.00000
      2     -14.1225      2.00000
      3     -12.3872      2.00000
      4      -3.2809      2.00000
      5      -1.2411      0.00000
      6       8.4845      0.00000
      7       9.4280      0.00000
      8      10.7082      0.00000
      9      11.0306      0.00000
     10      11.0818      0.00000
     11      11.2884      0.00000
     12      13.2083      0.00000
     13      13.3680      0.00000
     14      13.6817      0.00000
     15      13.8080      0.00000
     16      14.0590      0.00000
     17      14.6079      0.00000
     18      14.7167      0.00000
     19      15.0792      0.00000
     20      16.1732      0.00000
     21      16.4872      0.00000
     22      16.7078      0.00000
     23      17.3240      0.00000
     24      17.7988      0.00000
     25      17.8562      0.00000
     26      19.5125      0.00000
     27      19.9626      0.00000
     28      21.0733      0.00000
     29      21.3048      0.00000
     30      22.0652      0.00000
     31      22.3749      0.00000
     32      22.8984      0.00000
     33      24.3769      0.00000
     34      25.0613      0.00000
     35      26.8144      0.00000
     36      27.0131      0.00000
     37      27.6865      0.00000
     38      29.3219      0.00000
     39      30.8204      0.00000
     40      31.2443      0.00000
     41      33.7715      0.00000
     42      33.9564      0.00000
     43      34.6695      0.00000
     44      34.9616      0.00000
     45      35.3982      0.00000
     46      38.7823      0.00000
     47      39.5258      0.00000
     48      40.3513      0.00000

 k-point   275 :       0.3273    0.2909    0.0000
  band No.  band energies     occupation 
      1     -15.5031      2.00000
      2     -14.3703      2.00000
      3     -12.4966      2.00000
      4      -3.0141      2.00000
      5      -1.5087      0.00000
      6       8.4593      0.00000
      7       9.8664      0.00000
      8      10.6585      0.00000
      9      11.0726      0.00000
     10      11.5236      0.00000
     11      11.7684      0.00000
     12      13.1561      0.00000
     13      13.2029      0.00000
     14      13.7084      0.00000
     15      13.7928      0.00000
     16      13.9669      0.00000
     17      14.3957      0.00000
     18      14.6077      0.00000
     19      15.0519      0.00000
     20      15.7222      0.00000
     21      16.2328      0.00000
     22      16.8241      0.00000
     23      17.0897      0.00000
     24      17.8897      0.00000
     25      17.9767      0.00000
     26      19.5531      0.00000
     27      19.5941      0.00000
     28      20.9152      0.00000
     29      21.0436      0.00000
     30      22.0199      0.00000
     31      22.3859      0.00000
     32      23.1844      0.00000
     33      24.7221      0.00000
     34      24.8125      0.00000
     35      26.4559      0.00000
     36      26.7205      0.00000
     37      27.6113      0.00000
     38      29.6110      0.00000
     39      30.6483      0.00000
     40      31.7413      0.00000
     41      33.4105      0.00000
     42      33.6157      0.00000
     43      34.5859      0.00000
     44      34.9627      0.00000
     45      35.7839      0.00000
     46      39.0901      0.00000
     47      39.9791      0.00000
     48      40.3949      0.00000

 k-point   276 :       0.3455    0.2909    0.0000
  band No.  band energies     occupation 
      1     -15.2778      2.00000
      2     -14.5751      2.00000
      3     -12.5502      2.00000
      4      -2.8342      2.00000
      5      -1.6887      0.00000
      6       8.4428      0.00000
      7      10.2513      0.00000
      8      10.5481      0.00000
      9      10.9856      0.00000
     10      11.9417      0.00000
     11      12.2813      0.00000
     12      12.7356      0.00000
     13      12.7918      0.00000
     14      13.7115      0.00000
     15      13.8858      0.00000
     16      14.1349      0.00000
     17      14.5034      0.00000
     18      14.5035      0.00000
     19      15.0606      0.00000
     20      15.3888      0.00000
     21      15.9622      0.00000
     22      16.8615      0.00000
     23      16.9967      0.00000
     24      17.9064      0.00000
     25      18.2086      0.00000
     26      19.2281      0.00000
     27      19.7618      0.00000
     28      20.5782      0.00000
     29      21.0249      0.00000
     30      22.0114      0.00000
     31      22.4021      0.00000
     32      23.4368      0.00000
     33      24.4497      0.00000
     34      25.2586      0.00000
     35      25.9475      0.00000
     36      26.6718      0.00000
     37      27.5786      0.00000
     38      29.8510      0.00000
     39      30.4736      0.00000
     40      32.2351      0.00000
     41      32.8845      0.00000
     42      33.5238      0.00000
     43      34.5515      0.00000
     44      34.9490      0.00000
     45      36.0545      0.00000
     46      39.2555      0.00000
     47      40.2635      0.00000
     48      40.4563      0.00000

 k-point   277 :       0.3091    0.3091    0.0000
  band No.  band energies     occupation 
      1     -15.4978      2.00000
      2     -14.3194      2.00000
      3     -12.5670      2.00000
      4      -2.9810      2.00000
      5      -1.5351      0.00000
      6       8.4365      0.00000
      7       9.8585      0.00000
      8      10.7613      0.00000
      9      11.1548      0.00000
     10      11.5227      0.00000
     11      11.7646      0.00000
     12      13.4927      0.00000
     13      13.5074      0.00000
     14      13.5144      0.00000
     15      13.5758      0.00000
     16      13.9562      0.00000
     17      14.4758      0.00000
     18      14.4906      0.00000
     19      14.6952      0.00000
     20      15.9389      0.00000
     21      16.3755      0.00000
     22      16.5572      0.00000
     23      17.0912      0.00000
     24      17.6744      0.00000
     25      17.9791      0.00000
     26      19.6138      0.00000
     27      19.6801      0.00000
     28      20.8722      0.00000
     29      21.1445      0.00000
     30      21.7284      0.00000
     31      22.4020      0.00000
     32      23.1972      0.00000
     33      24.7940      0.00000
     34      24.8010      0.00000
     35      26.6159      0.00000
     36      26.7991      0.00000
     37      27.2364      0.00000
     38      29.6171      0.00000
     39      30.7216      0.00000
     40      31.7316      0.00000
     41      33.6267      0.00000
     42      33.7555      0.00000
     43      34.2238      0.00000
     44      35.3401      0.00000
     45      35.3965      0.00000
     46      38.9685      0.00000
     47      39.9897      0.00000
     48      40.5753      0.00000

 k-point   278 :       0.3273    0.3091    0.0000
  band No.  band energies     occupation 
      1     -15.2258      2.00000
      2     -14.5296      2.00000
      3     -12.6771      2.00000
      4      -2.7136      2.00000
      5      -1.7988      0.00000
      6       8.4010      0.00000
      7      10.2455      0.00000
      8      10.7154      0.00000
      9      11.1814      0.00000
     10      11.9823      0.00000
     11      12.2687      0.00000
     12      13.0976      0.00000
     13      13.1741      0.00000
     14      13.5100      0.00000
     15      13.7822      0.00000
     16      13.8802      0.00000
     17      14.3205      0.00000
     18      14.5571      0.00000
     19      14.7649      0.00000
     20      15.5643      0.00000
     21      16.2004      0.00000
     22      16.4771      0.00000
     23      16.8437      0.00000
     24      17.6313      0.00000
     25      18.2989      0.00000
     26      19.3439      0.00000
     27      19.8543      0.00000
     28      20.7498      0.00000
     29      20.8097      0.00000
     30      21.5742      0.00000
     31      22.4497      0.00000
     32      23.5272      0.00000
     33      24.5012      0.00000
     34      25.2633      0.00000
     35      26.3616      0.00000
     36      26.4854      0.00000
     37      27.0728      0.00000
     38      29.9076      0.00000
     39      30.5652      0.00000
     40      32.2327      0.00000
     41      33.3315      0.00000
     42      33.4880      0.00000
     43      34.0501      0.00000
     44      35.3295      0.00000
     45      35.7775      0.00000
     46      38.9916      0.00000
     47      40.4205      0.00000
     48      40.4676      0.00000

 k-point   279 :       0.3455    0.3091    0.0000
  band No.  band energies     occupation 
      1     -15.0743      2.00000
      2     -14.6604      2.00000
      3     -12.7140      2.00000
      4      -2.5786      2.00000
      5      -1.9327      0.00001
      6       8.3882      0.00000
      7      10.4895      0.00000
      8      10.6124      0.00000
      9      11.1614      0.00000
     10      12.3010      0.00000
     11      12.6927      0.00000
     12      12.7821      0.00000
     13      12.8265      0.00000
     14      13.5130      0.00000
     15      13.7673      0.00000
     16      13.8291      0.00000
     17      14.3155      0.00000
     18      14.7293      0.00000
     19      14.8514      0.00000
     20      15.3166      0.00000
     21      16.0956      0.00000
     22      16.4548      0.00000
     23      16.7562      0.00000
     24      17.6192      0.00000
     25      18.5100      0.00000
     26      19.1302      0.00000
     27      20.0529      0.00000
     28      20.5651      0.00000
     29      20.7108      0.00000
     30      21.5404      0.00000
     31      22.4698      0.00000
     32      23.7209      0.00000
     33      24.3215      0.00000
     34      25.6201      0.00000
     35      25.9924      0.00000
     36      26.4409      0.00000
     37      27.0398      0.00000
     38      30.0726      0.00000
     39      30.4477      0.00000
     40      32.6251      0.00000
     41      32.9418      0.00000
     42      33.4354      0.00000
     43      34.0151      0.00000
     44      35.3215      0.00000
     45      35.9427      0.00000
     46      38.9497      0.00000
     47      40.5782      0.00000
     48      40.6213      0.00000

 k-point   280 :       0.3273    0.3273    0.0000
  band No.  band energies     occupation 
      1     -14.9750      2.00000
      2     -14.7161      2.00000
      3     -12.7729      2.00000
      4      -2.4252      1.98482
      5      -2.0818      0.01518
      6       8.3693      0.00000
      7      10.5294      0.00000
      8      10.6827      0.00000
      9      11.2297      0.00000
     10      12.4345      0.00000
     11      12.7368      0.00000
     12      12.8765      0.00000
     13      13.0957      0.00000
     14      13.2621      0.00000
     15      13.5964      0.00000
     16      13.8787      0.00000
     17      14.0270      0.00000
     18      14.8578      0.00000
     19      14.8848      0.00000
     20      15.3031      0.00000
     21      16.2632      0.00000
     22      16.2645      0.00000
     23      16.5451      0.00000
     24      17.5264      0.00000
     25      18.6647      0.00000
     26      19.0665      0.00000
     27      20.1975      0.00000
     28      20.5853      0.00000
     29      20.5921      0.00000
     30      21.3067      0.00000
     31      22.4937      0.00000
     32      23.8683      0.00000
     33      24.2368      0.00000
     34      25.7248      0.00000
     35      26.1677      0.00000
     36      26.3534      0.00000
     37      26.7160      0.00000
     38      30.1732      0.00000
     39      30.4199      0.00000
     40      32.7179      0.00000
     41      33.1589      0.00000
     42      33.3845      0.00000
     43      33.6751      0.00000
     44      35.6147      0.00000
     45      35.7774      0.00000
     46      38.8050      0.00000
     47      40.5661      0.00000
     48      40.7001      0.00000


--------------------------------------------------------------------------------------------------------


 soft charge-density along one line, spin component           1
         0         1         2         3         4         5         6         7         8         9
 total charge-density along one line
 
 pseudopotential strength for first ion, spin component:           1
 10.188  13.548  -0.000  -0.000   0.000   0.000   0.000  -0.000
 13.548  18.015  -0.000  -0.000   0.000   0.000   0.000  -0.000
 -0.000  -0.000  -4.321  -0.000   0.000   8.453   0.000  -0.000
 -0.000  -0.000  -0.000  -4.314   0.000   0.000   8.443  -0.000
  0.000   0.000   0.000   0.000  -4.321  -0.000  -0.000   8.453
  0.000   0.000   8.453   0.000  -0.000 -18.668  -0.000   0.000
  0.000   0.000   0.000   8.443  -0.000  -0.000 -18.660   0.000
 -0.000  -0.000  -0.000  -0.000   8.453   0.000   0.000 -18.668
 total augmentation occupancy for first ion, spin component:           1
  8.182  -3.640   0.000   0.000   0.000   0.000   0.000   0.000
 -3.640   1.676  -0.000   0.000   0.000   0.000   0.000   0.000
  0.000   0.000   1.815   0.000   0.000   0.167   0.000   0.000
  0.000  -0.000   0.000   1.195   0.000   0.000   0.072   0.000
  0.000  -0.000   0.000  -0.000   1.815   0.000   0.000   0.167
  0.000   0.000   0.167  -0.000   0.000   0.017   0.000   0.000
  0.000  -0.000  -0.000   0.072  -0.000  -0.000   0.005   0.000
  0.000   0.000   0.000   0.000   0.167   0.000   0.000   0.017


------------------------ aborting loop because EDIFF is reached ----------------------------------------


    CHARGE:  cpu time      0.0849: real time      0.0858
    FORLOC:  cpu time      0.0003: real time      0.0003
    FORNL :  cpu time      0.0746: real time      0.0748
    STRESS:  cpu time      0.9168: real time      0.9193
    FORCOR:  cpu time      0.0040: real time      0.0040
    FORHAR:  cpu time      0.0013: real time      0.0013
    MIXING:  cpu time      0.0005: real time      0.0005
    OFIELD:  cpu time      0.0000: real time      0.0000

 ---------------------------------------------------------------------------------------------

         DFTD3 V3.0 Rev 1        
 IVDW         = 12
 DF pbe       
 parameters
 VDW_S6       =    1.0000
 VDW_S8       =    0.7875
 VDW_A1       =    0.4289
 VDW_A2       =    4.4407
 k1-k3        =   16.0000    1.3333   -4.0000
 VDW_RADIUS   =   50.2022 A
 VDW_CNRADIUS =   21.1671 A
 Edisp (eV)   -0.17742

 E6    (eV) :    -0.1220
 E8    (eV) :    -0.0554
 % E8        : 31.25
    FORVDW:  cpu time      0.0102: real time      0.0103

  FORCE on cell =-STRESS in cart. coord.  units (eV):
  Direction    XX          YY          ZZ          XY          YZ          ZX
  --------------------------------------------------------------------------------------
  Alpha Z     4.15614     4.15614     4.15614
  Ewald    1104.50998  1104.50935 -1373.27344     0.00000    -0.00000    -0.00000
  Hartree  1076.40932  1076.40931 -1065.08174    -0.00000     0.00000     0.00000
  E(xc)     -29.70163   -29.70163   -30.81524    -0.00000    -0.00000     0.00000
  Local   -2267.46540 -2267.46513  2334.80205     0.00000    -0.00000     0.00000
  n-local    -6.69007    -7.53800    -6.49573     0.07775    -0.00000     0.00000
  augment    -0.77710    -0.77708    -0.71678     0.00000    -0.00000     0.00000
  Kinetic   116.10335   123.90251   137.35857    -0.17183    -0.00000    -0.00000
  Fock        0.00000     0.00000     0.00000     0.00000     0.00000     0.00000
  vdW        -0.04475    -0.04475    -0.00146    -0.00000     0.00000    -0.00000
  -------------------------------------------------------------------------------------
  Total      -0.02473    -0.02473    -0.06764     0.00000    -0.00000     0.00000
  in kB      -0.50110    -0.50110    -1.37073     0.00000    -0.00000     0.00000
  external pressure =       -0.79 kB  Pullay stress =        0.00 kB


 VOLUME and BASIS-vectors are now :
 -----------------------------------------------------------------------------
  energy-cutoff  :      450.00
  volume of cell :       79.06
      direct lattice vectors                 reciprocal lattice vectors
     2.136484500  1.233500000  0.000000000     0.234029313  0.405350628  0.000000000
    -2.136484500  1.233500000  0.000000000    -0.234029313  0.405350628  0.000000000
     0.000000000  0.000000000 15.000000000     0.000000000  0.000000000  0.066666667

  length of vectors
     2.466999852  2.466999852 15.000000000     0.468058598  0.468058598  0.066666667


 FORCES acting on ions
    electron-ion (+dipol)            ewald-force                    non-local-force                 convergence-correction
 -----------------------------------------------------------------------------------------------
   -.121E-03 0.233E-03 0.246E-06   -.271E-03 0.289E-14 0.939E-15   -.369E-16 -.766E-17 -.199E-22   0.750E-09 -.219E-09 -.500E-09
   0.121E-03 0.233E-03 0.246E-06   0.271E-03 0.665E-15 -.162E-21   0.313E-16 0.173E-16 0.840E-21   -.750E-09 -.219E-09 -.500E-09
 -----------------------------------------------------------------------------------------------
   -.280E-13 0.467E-03 0.492E-06   -.890E-15 0.355E-14 0.939E-15   -.566E-17 0.959E-17 0.821E-21   -.157E-15 -.438E-09 -.100E-08
 
 
 POSITION                                       TOTAL-FORCE (eV/Angst)
 -----------------------------------------------------------------------------------
     -0.71216      1.23350      1.50000        -0.000000      0.000000      0.000000
      0.71216      1.23350      1.50000         0.000000     -0.000000     -0.000000
 -----------------------------------------------------------------------------------
    total drift:                               -0.000000      0.000467      0.000000


--------------------------------------------------------------------------------------------------------



  FREE ENERGIE OF THE ION-ELECTRON SYSTEM (eV)
  ---------------------------------------------------
  free  energy   TOTEN  =       -18.63089456 eV

  energy  without entropy=      -18.63088281  energy(sigma->0) =      -18.63088869
 


--------------------------------------------------------------------------------------------------------


    POTLOK:  cpu time      0.0062: real time      0.0074


--------------------------------------------------------------------------------------------------------


 stress matrix after NEB project (eV)
     -0.02473      0.00000      0.00000
      0.00000     -0.02473      0.00000
      0.00000     -0.00000     -0.06764
  FORCES: max atom, RMS     0.000000    0.000000
  FORCE total and by dimension    0.000000    0.000000
  Stress total and by dimension    0.076145    0.067640
 writing wavefunctions
     LOOP+:  cpu time    132.1460: real time    133.1770
    4ORBIT:  cpu time      0.0000: real time      0.0000

 total amount of memory used by VASP MPI-rank0    72243. kBytes
=======================================================================

   base      :      30000. kBytes
   nonl-proj :      31882. kBytes
   fftplans  :        404. kBytes
   grid      :       1780. kBytes
   one-center:          6. kBytes
   wavefun   :       8171. kBytes
 
  
  
 General timing and accounting informations for this job:
 ========================================================
  
                  Total CPU time used (sec):      136.983
                            User time (sec):      133.845
                          System time (sec):        3.138
                         Elapsed time (sec):      139.937
  
                   Maximum memory used (kb):      575784.
                   Average memory used (kb):          N/A
  
                          Minor page faults:       214960
                          Major page faults:         4000
                 Voluntary context switches:         8686
