   15   15    1    1
  0.2033749E+02  0.4846000E-09  0.4846000E-09  0.1500000E-08  0.5000000E-15
  1.000000000000000E-004
  CAR 
 DF                                      
     56    145    512
 
  0.0000000E+00  0.0000000E+00  0.0000000E+00  0.3460208E-02
      1        -20.240829   1.000000
      2        -17.387688   1.000000
      3        -14.753329   1.000000
      4        -14.751628   1.000000
      5        -14.751570   1.000000
      6        -13.869463   1.000000
      7        -13.869397   1.000000
      8        -13.867569   1.000000
      9        -13.499116   1.000000
     10        -13.499011   1.000000
     11        -10.422385   1.000000
     12         -9.433443   1.000000
     13         -9.433351   1.000000
     14         -8.380561   1.000000
     15         -7.645954   1.000000
     16         -6.849404   1.000000
     17         -6.849267   1.000000
     18         -6.849248   1.000000
     19         -6.721440   1.000000
     20         -3.299827   1.000000
     21         -3.299694   1.000000
     22         -2.902979   1.000000
     23         -2.902879   1.000000
     24         -2.796339   1.000000
     25         -2.795994   1.000000
     26         -2.787752   1.000000
     27         -0.876438   1.000000
     28         -0.874192   1.000000
     29          0.982850   0.000000
     30          0.990277   0.000000
     31          1.319719   0.000000
     32          1.584030   0.000000
     33          1.589293   0.000000
     34          2.089530   0.000000
     35          2.886141   0.000000
     36          3.504841   0.000000
     37          3.505075   0.000000
     38          3.609070   0.000000
     39          4.620870   0.000000
     40          6.729179   0.000000
     41          7.468480   0.000000
     42          7.594149   0.000000
     43          7.603557   0.000000
     44          7.603787   0.000000
     45          7.877864   0.000000
     46          8.381409   0.000000
     47          8.381579   0.000000
     48          8.787828   0.000000
     49          9.002173   0.000000
     50          9.286715   0.000000
     51          9.398224   0.000000
     52          9.398464   0.000000
     53         10.438510   0.000000
     54         10.438990   0.000000
     55         10.811319   0.000000
     56         11.350046   0.000000
     57         11.351522   0.000000
     58         11.383373   0.000000
     59         11.487581   0.000000
     60         11.503836   0.000000
     61         11.503899   0.000000
     62         11.703910   0.000000
     63         11.786275   0.000000
     64         11.936002   0.000000
     65         11.936519   0.000000
     66         12.117505   0.000000
     67         12.339824   0.000000
     68         12.340026   0.000000
     69         12.870139   0.000000
     70         12.873048   0.000000
     71         12.933632   0.000000
     72         13.134349   0.000000
     73         13.417012   0.000000
     74         13.604112   0.000000
     75         13.604483   0.000000
     76         13.770741   0.000000
     77         14.050801   0.000000
     78         14.056438   0.000000
     79         14.218480   0.000000
     80         14.435291   0.000000
     81         14.910897   0.000000
     82         14.921099   0.000000
     83         15.513322   0.000000
     84         15.688817   0.000000
     85         15.692685   0.000000
     86         15.943677   0.000000
     87         16.090311   0.000000
     88         16.098213   0.000000
     89         16.814309   0.000000
     90         17.031560   0.000000
     91         18.099161   0.000000
     92         18.106151   0.000000
     93         18.187160   0.000000
     94         18.584559   0.000000
     95         19.160944   0.000000
     96         19.273928   0.000000
     97         19.285761   0.000000
     98         19.830169   0.000000
     99         20.104666   0.000000
    100         20.681634   0.000000
    101         20.681923   0.000000
    102         20.689929   0.000000
    103         20.923710   0.000000
    104         20.928186   0.000000
    105         20.934504   0.000000
    106         21.099704   0.000000
    107         21.107068   0.000000
    108         21.352986   0.000000
    109         21.358565   0.000000
    110         21.413922   0.000000
    111         21.549601   0.000000
    112         21.566477   0.000000
    113         21.794392   0.000000
    114         21.898094   0.000000
    115         22.112166   0.000000
    116         22.120093   0.000000
    117         22.193987   0.000000
    118         22.529429   0.000000
    119         22.536391   0.000000
    120         22.889740   0.000000
    121         23.321367   0.000000
    122         23.323388   0.000000
    123         23.426399   0.000000
    124         23.664217   0.000000
    125         23.675025   0.000000
    126         24.153984   0.000000
    127         25.040016   0.000000
    128         25.052856   0.000000
    129         25.154897   0.000000
    130         26.664800   0.000000
    131         26.774705   0.000000
    132         26.789306   0.000000
    133         27.220673   0.000000
    134         27.407913   0.000000
    135         27.426106   0.000000
    136         27.514121   0.000000
    137         27.525905   0.000000
    138         27.808052   0.000000
    139         27.867141   0.000000
    140         27.876697   0.000000
    141         28.012215   0.000000
    142         28.016435   0.000000
    143         28.176123   0.000000
    144         28.413750   0.000000
    145         28.418270   0.000000
    146         28.516903   0.000000
    147         28.705046   0.000000
    148         28.899609   0.000000
    149         28.905685   0.000000
    150         28.984073   0.000000
    151         29.285059   0.000000
    152         29.485385   0.000000
    153         29.492244   0.000000
    154         29.634732   0.000000
    155         29.856530   0.000000
    156         29.860029   0.000000
    157         30.013745   0.000000
    158         30.021321   0.000000
    159         30.119165   0.000000
    160         30.125727   0.000000
    161         30.136377   0.000000
    162         30.385975   0.000000
    163         30.399628   0.000000
    164         30.583377   0.000000
    165         30.768530   0.000000
    166         31.020604   0.000000
    167         31.022778   0.000000
    168         31.432415   0.000000
    169         31.962104   0.000000
    170         32.022104   0.000000
    171         32.086696   0.000000
    172         32.092433   0.000000
    173         32.272632   0.000000
    174         32.279905   0.000000
    175         32.626481   0.000000
    176         32.642099   0.000000
    177         32.798476   0.000000
    178         33.172004   0.000000
    179         33.173534   0.000000
    180         33.331489   0.000000
    181         33.533877   0.000000
    182         33.712601   0.000000
    183         33.716513   0.000000
    184         33.866367   0.000000
    185         33.949225   0.000000
    186         33.949812   0.000000
    187         34.358710   0.000000
    188         34.362218   0.000000
    189         34.848221   0.000000
    190         35.590537   0.000000
    191         35.601386   0.000000
    192         35.911497   0.000000
    193         35.923832   0.000000
    194         35.938203   0.000000
    195         36.100102   0.000000
    196         36.188301   0.000000
    197         36.193974   0.000000
    198         36.477233   0.000000
    199         36.597621   0.000000
    200         36.601929   0.000000
    201         36.620493   0.000000
    202         36.973263   0.000000
    203         36.983245   0.000000
    204         37.074368   0.000000
    205         37.082718   0.000000
    206         37.116651   0.000000
    207         37.155746   0.000000
    208         37.196865   0.000000
    209         37.723599   0.000000
    210         37.828035   0.000000
    211         37.841205   0.000000
    212         38.152887   0.000000
    213         38.164515   0.000000
    214         38.261281   0.000000
    215         38.274793   0.000000
    216         38.277442   0.000000
    217         38.351017   0.000000
    218         38.351573   0.000000
    219         38.397029   0.000000
    220         38.453998   0.000000
    221         38.459466   0.000000
    222         38.664457   0.000000
    223         38.736663   0.000000
    224         38.737533   0.000000
    225         38.958990   0.000000
    226         39.054023   0.000000
    227         39.060421   0.000000
    228         39.195857   0.000000
    229         39.198510   0.000000
    230         39.249057   0.000000
    231         39.422382   0.000000
    232         39.573301   0.000000
    233         39.994731   0.000000
    234         40.382478   0.000000
    235         40.837712   0.000000
    236         40.845246   0.000000
    237         41.037141   0.000000
    238         41.043225   0.000000
    239         41.155381   0.000000
    240         41.157589   0.000000
    241         41.490616   0.000000
    242         41.498773   0.000000
    243         41.778545   0.000000
    244         42.027808   0.000000
    245         42.051398   0.000000
    246         42.183148   0.000000
    247         42.571734   0.000000
    248         42.923446   0.000000
    249         42.951601   0.000000
    250         43.032453   0.000000
    251         43.217970   0.000000
    252         43.227858   0.000000
    253         43.274831   0.000000
    254         43.351632   0.000000
    255         43.699184   0.000000
    256         43.708543   0.000000
    257         44.177985   0.000000
    258         44.407079   0.000000
    259         44.731367   0.000000
    260         44.784091   0.000000
    261         44.796280   0.000000
    262         45.094159   0.000000
    263         45.120216   0.000000
    264         45.127856   0.000000
    265         45.660995   0.000000
    266         45.672703   0.000000
    267         45.824063   0.000000
    268         45.837823   0.000000
    269         45.862220   0.000000
    270         45.863297   0.000000
    271         46.049323   0.000000
    272         46.499190   0.000000
    273         46.575720   0.000000
    274         46.589201   0.000000
    275         46.967145   0.000000
    276         47.185866   0.000000
    277         47.200433   0.000000
    278         47.232523   0.000000
    279         47.236331   0.000000
    280         47.502377   0.000000
    281         47.510345   0.000000
    282         47.685464   0.000000
    283         47.779253   0.000000
    284         47.787392   0.000000
    285         47.872479   0.000000
    286         48.259899   0.000000
    287         48.402620   0.000000
    288         48.989065   0.000000
    289         49.316431   0.000000
    290         49.325977   0.000000
    291         49.584382   0.000000
    292         49.834589   0.000000
    293         49.842526   0.000000
    294         50.351358   0.000000
    295         50.398719   0.000000
    296         50.405609   0.000000
    297         51.113639   0.000000
    298         51.170093   0.000000
    299         51.194756   0.000000
    300         51.277222   0.000000
    301         51.330639   0.000000
    302         51.336287   0.000000
    303         51.435634   0.000000
    304         51.566598   0.000000
    305         51.600628   0.000000
    306         51.608528   0.000000
    307         52.891148   0.000000
    308         53.040823   0.000000
    309         53.047815   0.000000
    310         53.168984   0.000000
    311         53.177248   0.000000
    312         53.440108   0.000000
    313         53.454040   0.000000
    314         53.484951   0.000000
    315         53.774074   0.000000
    316         53.779591   0.000000
    317         53.876149   0.000000
    318         54.099173   0.000000
    319         54.265447   0.000000
    320         54.446579   0.000000
    321         54.474905   0.000000
    322         54.654905   0.000000
    323         54.758038   0.000000
    324         54.771620   0.000000
    325         54.972273   0.000000
    326         54.990196   0.000000
    327         55.054541   0.000000
    328         55.223117   0.000000
    329         55.237346   0.000000
    330         55.439334   0.000000
    331         55.445920   0.000000
    332         55.543615   0.000000
    333         55.682341   0.000000
    334         55.686720   0.000000
    335         55.856419   0.000000
    336         56.042406   0.000000
    337         56.086351   0.000000
    338         56.101800   0.000000
    339         56.640283   0.000000
    340         56.644447   0.000000
    341         57.005628   0.000000
    342         57.007969   0.000000
    343         57.021313   0.000000
    344         57.153721   0.000000
    345         57.166706   0.000000
    346         57.188229   0.000000
    347         57.571216   0.000000
    348         57.574573   0.000000
    349         57.712383   0.000000
    350         58.062086   0.000000
    351         58.068901   0.000000
    352         58.204041   0.000000
    353         58.211902   0.000000
    354         58.265753   0.000000
    355         58.382734   0.000000
    356         58.388140   0.000000
    357         58.769777   0.000000
    358         59.040849   0.000000
    359         59.050799   0.000000
    360         59.089236   0.000000
    361         59.184425   0.000000
    362         59.522482   0.000000
    363         59.763241   0.000000
    364         59.912796   0.000000
    365         60.042860   0.000000
    366         60.311871   0.000000
    367         60.331317   0.000000
    368         60.469324   0.000000
    369         60.758275   0.000000
    370         61.009056   0.000000
    371         61.021164   0.000000
    372         61.406666   0.000000
    373         61.418810   0.000000
    374         61.547493   0.000000
    375         61.619550   0.000000
    376         61.632050   0.000000
    377         61.775043   0.000000
    378         61.825653   0.000000
    379         61.828639   0.000000
    380         62.113257   0.000000
    381         62.124951   0.000000
    382         62.163284   0.000000
    383         62.320326   0.000000
    384         62.416546   0.000000
    385         62.536218   0.000000
    386         62.549954   0.000000
    387         62.720777   0.000000
    388         62.723098   0.000000
    389         62.977764   0.000000
    390         63.135389   0.000000
    391         63.154701   0.000000
    392         63.229750   0.000000
    393         63.234722   0.000000
    394         63.293487   0.000000
    395         63.393313   0.000000
    396         63.422963   0.000000
    397         63.544612   0.000000
    398         63.555194   0.000000
    399         63.639266   0.000000
    400         63.643430   0.000000
    401         63.652460   0.000000
    402         63.732324   0.000000
    403         63.788487   0.000000
    404         63.803804   0.000000
    405         63.882303   0.000000
    406         63.895363   0.000000
    407         63.954484   0.000000
    408         64.067748   0.000000
    409         64.072176   0.000000
    410         64.085364   0.000000
    411         64.110490   0.000000
    412         64.118892   0.000000
    413         64.177530   0.000000
    414         64.233466   0.000000
    415         64.259319   0.000000
    416         64.374318   0.000000
    417         64.396646   0.000000
    418         64.405950   0.000000
    419         64.561949   0.000000
    420         64.565160   0.000000
    421         64.730171   0.000000
    422         64.910406   0.000000
    423         64.937402   0.000000
    424         64.939944   0.000000
    425         65.570697   0.000000
    426         65.751719   0.000000
    427         65.769685   0.000000
    428         65.777122   0.000000
    429         66.153444   0.000000
    430         66.156764   0.000000
    431         66.373048   0.000000
    432         66.476967   0.000000
    433         66.596654   0.000000
    434         66.598362   0.000000
    435         66.767330   0.000000
    436         66.780939   0.000000
    437         66.858965   0.000000
    438         66.934325   0.000000
    439         66.942871   0.000000
    440         66.959444   0.000000
    441         67.413166   0.000000
    442         67.463830   0.000000
    443         67.494739   0.000000
    444         67.506554   0.000000
    445         67.752527   0.000000
    446         67.817182   0.000000
    447         67.837163   0.000000
    448         67.896947   0.000000
    449         67.903521   0.000000
    450         68.107627   0.000000
    451         68.123886   0.000000
    452         68.299447   0.000000
    453         68.305780   0.000000
    454         68.345892   0.000000
    455         68.612525   0.000000
    456         68.880878   0.000000
    457         68.977541   0.000000
    458         68.984852   0.000000
    459         69.092200   0.000000
    460         69.336091   0.000000
    461         69.361606   0.000000
    462         69.635760   0.000000
    463         69.655237   0.000000
    464         70.039950   0.000000
    465         70.052570   0.000000
    466         70.063033   0.000000
    467         70.308622   0.000000
    468         70.534750   0.000000
    469         70.544197   0.000000
    470         70.683421   0.000000
    471         70.694293   0.000000
    472         70.700371   0.000000
    473         70.995076   0.000000
    474         71.179907   0.000000
    475         71.191864   0.000000
    476         71.301104   0.000000
    477         71.305965   0.000000
    478         71.522007   0.000000
    479         71.533104   0.000000
    480         71.554295   0.000000
    481         71.640764   0.000000
    482         71.941742   0.000000
    483         71.996101   0.000000
    484         72.014298   0.000000
    485         72.041843   0.000000
    486         72.116343   0.000000
    487         72.125920   0.000000
    488         72.135686   0.000000
    489         72.441271   0.000000
    490         72.651222   0.000000
    491         72.667199   0.000000
    492         72.691824   0.000000
    493         72.803245   0.000000
    494         72.829231   0.000000
    495         72.836215   0.000000
    496         72.959498   0.000000
    497         72.974702   0.000000
    498         73.040751   0.000000
    499         73.160961   0.000000
    500         73.172579   0.000000
    501         73.258803   0.000000
    502         73.381663   0.000000
    503         73.390425   0.000000
    504         73.536027   0.000000
    505         73.538367   0.000000
    506         73.578030   0.000000
    507         73.651105   0.000000
    508         74.078734   0.000000
    509         74.088063   0.000000
    510         74.110901   0.000000
    511         74.166715   0.000000
    512         74.190451   0.000000
 
  0.5882353E-01 -0.3469447E-17  0.0000000E+00  0.6920415E-02
      1        -20.219733   1.000000
      2        -17.373297   1.000000
      3        -15.095337   1.000000
      4        -14.847568   1.000000
      5        -14.845838   1.000000
      6        -13.740709   1.000000
      7        -13.739118   1.000000
      8        -13.559857   1.000000
      9        -13.512378   1.000000
     10        -13.487205   1.000000
     11        -10.369936   1.000000
     12         -9.499545   1.000000
     13         -9.391031   1.000000
     14         -8.355003   1.000000
     15         -7.522883   1.000000
     16         -6.914750   1.000000
     17         -6.914363   1.000000
     18         -6.828059   1.000000
     19         -6.698169   1.000000
     20         -3.386543   1.000000
     21         -3.347639   1.000000
     22         -3.010837   1.000000
     23         -2.965068   1.000000
     24         -2.934883   1.000000
     25         -2.814913   1.000000
     26         -2.806704   1.000000
     27         -1.004005   1.000000
     28         -0.947232   1.000000
     29          0.987664   0.000000
     30          1.064837   0.000000
     31          1.406148   0.000000
     32          1.623309   0.000000
     33          1.664898   0.000000
     34          2.321724   0.000000
     35          2.915731   0.000000
     36          3.555260   0.000000
     37          3.606987   0.000000
     38          3.640577   0.000000
     39          4.649745   0.000000
     40          6.753281   0.000000
     41          7.493139   0.000000
     42          7.608783   0.000000
     43          7.692219   0.000000
     44          7.701109   0.000000
     45          7.822684   0.000000
     46          8.395122   0.000000
     47          8.475568   0.000000
     48          8.835033   0.000000
     49          9.023826   0.000000
     50          9.229018   0.000000
     51          9.243896   0.000000
     52          9.278303   0.000000
     53         10.189679   0.000000
     54         10.247254   0.000000
     55         10.496734   0.000000
     56         10.804797   0.000000
     57         11.093844   0.000000
     58         11.233050   0.000000
     59         11.490830   0.000000
     60         11.557186   0.000000
     61         11.707699   0.000000
     62         11.762536   0.000000
     63         11.816802   0.000000
     64         11.931063   0.000000
     65         12.094282   0.000000
     66         12.239080   0.000000
     67         12.421895   0.000000
     68         12.719915   0.000000
     69         12.787650   0.000000
     70         12.888451   0.000000
     71         13.249262   0.000000
     72         13.316103   0.000000
     73         13.449925   0.000000
     74         13.590161   0.000000
     75         13.699490   0.000000
     76         13.793283   0.000000
     77         13.924805   0.000000
     78         14.045605   0.000000
     79         14.282071   0.000000
     80         14.619724   0.000000
     81         14.940990   0.000000
     82         14.985404   0.000000
     83         15.217451   0.000000
     84         15.528550   0.000000
     85         15.684516   0.000000
     86         16.067438   0.000000
     87         16.325951   0.000000
     88         16.454732   0.000000
     89         16.991630   0.000000
     90         17.142467   0.000000
     91         17.845204   0.000000
     92         18.002907   0.000000
     93         18.263158   0.000000
     94         18.561553   0.000000
     95         19.068769   0.000000
     96         19.323628   0.000000
     97         19.466527   0.000000
     98         19.835637   0.000000
     99         20.042521   0.000000
    100         20.389400   0.000000
    101         20.465119   0.000000
    102         20.517866   0.000000
    103         20.599176   0.000000
    104         20.751114   0.000000
    105         20.792928   0.000000
    106         20.881224   0.000000
    107         21.091038   0.000000
    108         21.251210   0.000000
    109         21.472258   0.000000
    110         21.551371   0.000000
    111         21.602281   0.000000
    112         21.712446   0.000000
    113         21.888818   0.000000
    114         21.964916   0.000000
    115         22.147189   0.000000
    116         22.227186   0.000000
    117         22.284855   0.000000
    118         22.516690   0.000000
    119         22.603125   0.000000
    120         22.958544   0.000000
    121         23.380366   0.000000
    122         23.531108   0.000000
    123         23.747310   0.000000
    124         23.852671   0.000000
    125         23.925479   0.000000
    126         24.263027   0.000000
    127         25.010276   0.000000
    128         25.048817   0.000000
    129         25.204884   0.000000
    130         26.490580   0.000000
    131         26.547962   0.000000
    132         26.592358   0.000000
    133         26.748970   0.000000
    134         26.809104   0.000000
    135         26.929954   0.000000
    136         27.118281   0.000000
    137         27.208183   0.000000
    138         27.542689   0.000000
    139         27.711535   0.000000
    140         27.878064   0.000000
    141         27.968054   0.000000
    142         28.131348   0.000000
    143         28.228087   0.000000
    144         28.291564   0.000000
    145         28.380790   0.000000
    146         28.454531   0.000000
    147         28.489705   0.000000
    148         28.637930   0.000000
    149         28.865803   0.000000
    150         29.123589   0.000000
    151         29.201502   0.000000
    152         29.345947   0.000000
    153         29.451187   0.000000
    154         29.615519   0.000000
    155         29.678932   0.000000
    156         29.817632   0.000000
    157         29.945975   0.000000
    158         30.043643   0.000000
    159         30.320884   0.000000
    160         30.394000   0.000000
    161         30.531585   0.000000
    162         30.692829   0.000000
    163         30.912574   0.000000
    164         30.957008   0.000000
    165         31.153060   0.000000
    166         31.260773   0.000000
    167         31.466662   0.000000
    168         31.522875   0.000000
    169         31.561468   0.000000
    170         31.674753   0.000000
    171         31.757280   0.000000
    172         31.945767   0.000000
    173         32.170447   0.000000
    174         32.378211   0.000000
    175         32.613736   0.000000
    176         32.678239   0.000000
    177         32.945773   0.000000
    178         33.127741   0.000000
    179         33.411198   0.000000
    180         33.497262   0.000000
    181         33.610629   0.000000
    182         33.877941   0.000000
    183         34.050457   0.000000
    184         34.167715   0.000000
    185         34.284309   0.000000
    186         34.344673   0.000000
    187         34.468253   0.000000
    188         34.535358   0.000000
    189         34.853521   0.000000
    190         34.999673   0.000000
    191         35.386675   0.000000
    192         35.483193   0.000000
    193         35.613855   0.000000
    194         35.834790   0.000000
    195         35.937298   0.000000
    196         35.994367   0.000000
    197         36.179136   0.000000
    198         36.225445   0.000000
    199         36.335507   0.000000
    200         36.441559   0.000000
    201         36.503954   0.000000
    202         36.565384   0.000000
    203         36.693593   0.000000
    204         36.843996   0.000000
    205         37.095643   0.000000
    206         37.188946   0.000000
    207         37.307149   0.000000
    208         37.431322   0.000000
    209         37.549671   0.000000
    210         37.661976   0.000000
    211         37.676854   0.000000
    212         37.749519   0.000000
    213         37.822653   0.000000
    214         37.958358   0.000000
    215         38.055513   0.000000
    216         38.193877   0.000000
    217         38.436016   0.000000
    218         38.500198   0.000000
    219         38.572355   0.000000
    220         38.710814   0.000000
    221         38.758102   0.000000
    222         38.860852   0.000000
    223         39.015026   0.000000
    224         39.143619   0.000000
    225         39.223576   0.000000
    226         39.364399   0.000000
    227         39.495675   0.000000
    228         39.564898   0.000000
    229         39.614358   0.000000
    230         39.749190   0.000000
    231         39.913895   0.000000
    232         40.086231   0.000000
    233         40.214180   0.000000
    234         40.272184   0.000000
    235         40.423383   0.000000
    236         40.554568   0.000000
    237         40.630781   0.000000
    238         40.749309   0.000000
    239         41.272985   0.000000
    240         41.489403   0.000000
    241         41.570513   0.000000
    242         41.900164   0.000000
    243         42.021276   0.000000
    244         42.243016   0.000000
    245         42.279472   0.000000
    246         42.543421   0.000000
    247         42.591245   0.000000
    248         42.830419   0.000000
    249         42.926689   0.000000
    250         43.147328   0.000000
    251         43.246508   0.000000
    252         43.342807   0.000000
    253         43.443468   0.000000
    254         43.601848   0.000000
    255         43.687658   0.000000
    256         43.861604   0.000000
    257         44.024663   0.000000
    258         44.188976   0.000000
    259         44.338907   0.000000
    260         44.552713   0.000000
    261         44.700263   0.000000
    262         44.776302   0.000000
    263         44.940370   0.000000
    264         45.163939   0.000000
    265         45.254821   0.000000
    266         45.513742   0.000000
    267         45.651419   0.000000
    268         45.801757   0.000000
    269         46.052399   0.000000
    270         46.100636   0.000000
    271         46.485392   0.000000
    272         46.620144   0.000000
    273         46.743531   0.000000
    274         46.827936   0.000000
    275         46.892503   0.000000
    276         46.987762   0.000000
    277         47.198898   0.000000
    278         47.324226   0.000000
    279         47.511934   0.000000
    280         47.668121   0.000000
    281         47.758282   0.000000
    282         47.871399   0.000000
    283         47.964310   0.000000
    284         48.131300   0.000000
    285         48.275020   0.000000
    286         48.499157   0.000000
    287         48.749136   0.000000
    288         49.119909   0.000000
    289         49.203924   0.000000
    290         49.403313   0.000000