Lattice                                 
           1
     4.312807    2.490000    0.000000
    -4.312807    2.490000    0.000000
     0.000000    0.000000   15.000000
   B    C 
     8     8
Direct configuration=     1
   0.66888689  0.00000000  0.10000000
   0.33111211  0.00000000  0.10000000
   0.00000000  0.33111211  0.10000000
   0.00000000  0.66888689  0.10000000
   0.33111211  0.33111211  0.10000000
   0.66888689  0.66888689  0.10000000
   0.66666600  0.33333300  0.09922189
   0.33333300  0.66666600  0.10077811
   0.24999933  0.24999967  0.46906667
   0.41666633  0.08333267  0.46906667
   0.24999933  0.74999967  0.46906667
   0.41666633  0.58333267  0.46906667
   0.74999933  0.24999967  0.46906667
   0.91666633  0.08333267  0.46906667
   0.74999933  0.74999967  0.46906667
   0.91666633  0.58333267  0.46906667
Direct configuration=     2
   0.67055682 -0.00000011  0.10002641
   0.32944234 -0.00000014  0.10002648
   0.00000011  0.32944218  0.10002641
   0.00000014  0.67055666  0.10002648
   0.32944203  0.32944196  0.10002649
   0.67055704  0.67055697  0.10002649
   0.66666609  0.33333291  0.09924485
   0.33333255  0.66666645  0.10081410
   0.24999507  0.24999485  0.46903972
   0.41666294  0.08333420  0.46903917
   0.24999893  0.75000007  0.46903878
   0.41666705  0.58333195  0.46903941
   0.75000224  0.24999676  0.46903955
   0.91666736  0.08333164  0.46904009
   0.75000415  0.75000393  0.46903972
   0.91666480  0.58333606  0.46903917
Direct configuration=     3
   0.66974657 -0.00000006  0.10001360
   0.33025251 -0.00000007  0.10001363
   0.00000006  0.33025243  0.10001360
   0.00000007  0.66974649  0.10001363
   0.33025235  0.33025232  0.10001364
   0.66974668  0.66974665  0.10001364
   0.66666605  0.33333295  0.09923371
   0.33333277  0.66666623  0.10079664
   0.24999714  0.24999718  0.46905280
   0.41666459  0.08333345  0.46905251
   0.24999912  0.74999988  0.46905231
   0.41666670  0.58333230  0.46905264
   0.75000083  0.24999817  0.46905270
   0.91666686  0.08333214  0.46905298
   0.75000182  0.75000186  0.46905280
   0.91666555  0.58333441  0.46905251
Direct configuration=     4
   0.66975165 -0.00000006  0.10001368
   0.33024743 -0.00000007  0.10001371
   0.00000006  0.33024735  0.10001368
   0.00000007  0.66975157  0.10001371
   0.33024727  0.33024723  0.10001372
   0.66975177  0.66975173  0.10001372
   0.66666605  0.33333295  0.09923378
   0.33333277  0.66666623  0.10079675
   0.24999713  0.24999717  0.46905272
   0.41666458  0.08333346  0.46905243
   0.24999912  0.74999988  0.46905223
   0.41666670  0.58333230  0.46905255
   0.75000084  0.24999816  0.46905262
   0.91666686  0.08333214  0.46905290
   0.75000183  0.75000187  0.46905272
   0.91666554  0.58333442  0.46905243
Direct configuration=     5
   0.66974960 -0.00000006  0.10001364
   0.33024948 -0.00000007  0.10001368
   0.00000006  0.33024940  0.10001364
   0.00000007  0.66974952  0.10001368
   0.33024932  0.33024928  0.10001369
   0.66974972  0.66974968  0.10001369
   0.66666605  0.33333295  0.09923375
   0.33333277  0.66666623  0.10079671
   0.24999713  0.24999718  0.46905275
   0.41666458  0.08333346  0.46905246
   0.24999912  0.74999988  0.46905226
   0.41666670  0.58333230  0.46905259
   0.75000084  0.24999816  0.46905266
   0.91666686  0.08333214  0.46905293
   0.75000182  0.75000187  0.46905275
   0.91666554  0.58333442  0.46905246
Direct configuration=     6
   0.66974808 -0.00000006  0.10001362
   0.33025100 -0.00000007  0.10001366
   0.00000006  0.33025092  0.10001362
   0.00000007  0.66974800  0.10001366
   0.33025084  0.33025080  0.10001366
   0.66974820  0.66974816  0.10001366
   0.66666605  0.33333295  0.09923373
   0.33333277  0.66666623  0.10079667
   0.24999713  0.24999718  0.46905277
   0.41666458  0.08333346  0.46905249
   0.24999912  0.74999988  0.46905229
   0.41666670  0.58333230  0.46905261
   0.75000083  0.24999817  0.46905268
   0.91666686  0.08333214  0.46905296
   0.75000182  0.75000187  0.46905277
   0.91666554  0.58333442  0.46905249
Direct configuration=     7
   0.66974819 -0.00000009  0.10003776
   0.33025104 -0.00000004  0.10003785
   0.00000009  0.33025081  0.10003776
   0.00000004  0.66974796  0.10003785
   0.33025091  0.33025086  0.10003787
   0.66974814  0.66974809  0.10003787
   0.66666603  0.33333297  0.09925740
   0.33333275  0.66666625  0.10082595
   0.24999992  0.25000118  0.46902821
   0.41666746  0.08333190  0.46902754
   0.24999902  0.74999998  0.46902708
   0.41666649  0.58333251  0.46902783
   0.74999820  0.25000080  0.46902800
   0.91666647  0.08333253  0.46902864
   0.74999782  0.74999908  0.46902821
   0.91666710  0.58333154  0.46902754
Direct configuration=     8
   0.66974849 -0.00000017  0.10011017
   0.33025118  0.00000006  0.10011044
   0.00000017  0.33025051  0.10011017
  -0.00000006  0.66974782  0.10011044
   0.33025112  0.33025103  0.10011049
   0.66974797  0.66974788  0.10011049
   0.66666596  0.33333304  0.09932841
   0.33333269  0.66666631  0.10091377
   0.25000827  0.25001317  0.46895452
   0.41667611  0.08332725  0.46895269
   0.24999873  0.75000027  0.46895145
   0.41666586  0.58333314  0.46895347
   0.74999031  0.25000869  0.46895394
   0.91666529  0.08333371  0.46895567
   0.74998583  0.74999073  0.46895452
   0.91667175  0.58332289  0.46895269
Direct configuration=     9
   0.66974910 -0.00000033  0.10025498
   0.33025146  0.00000026  0.10025563
   0.00000033  0.33024990  0.10025498
  -0.00000026  0.66974754  0.10025563
   0.33025156  0.33025138  0.10025574
   0.66974762  0.66974744  0.10025574
   0.66666583  0.33333317  0.09947042
   0.33333257  0.66666643  0.10108942
   0.25002498  0.25003717  0.46880714
   0.41669340  0.08331795  0.46880299
   0.24999814  0.75000086  0.46880020
   0.41666460  0.58333440  0.46880476
   0.74997453  0.25002447  0.46880584
   0.91666292  0.08333608  0.46880973
   0.74996183  0.74997402  0.46880714
   0.91668105  0.58330560  0.46880299
Direct configuration=    10
   0.66975033 -0.00000066  0.10054462
   0.33025201  0.00000065  0.10054599
   0.00000066  0.33024867  0.10054462
  -0.00000065  0.66974699  0.10054599
   0.33025242  0.33025207  0.10054623
   0.66974693  0.66974658  0.10054623
   0.66666556  0.33333344  0.09975446
   0.33333233  0.66666667  0.10144071
   0.25005839  0.25008515  0.46851238
   0.41672799  0.08329933  0.46850359
   0.24999695  0.75000205  0.46849769
   0.41666208  0.58333692  0.46850734
   0.74994296  0.25005604  0.46850962
   0.91665819  0.08334081  0.46851786
   0.74991385  0.74994061  0.46851238
   0.91669967  0.58327101  0.46850359
Direct configuration=    11
   0.66975278 -0.00000131  0.10112389
   0.33025311  0.00000144  0.10112673
   0.00000131  0.33024622  0.10112389
  -0.00000144  0.66974589  0.10112673
   0.33025415  0.33025346  0.10112722
   0.66974554  0.66974485  0.10112722
   0.66666503  0.33333397  0.10032253
   0.33333186  0.66666714  0.10214330
   0.25012522  0.25018112  0.46792286
   0.41679715  0.08326211  0.46790480
   0.24999459  0.75000441  0.46789268
   0.41665703  0.58334197  0.46791251
   0.74987983  0.25011917  0.46791720
   0.91664874  0.08335026  0.46793412
   0.74981788  0.74987378  0.46792286
   0.91673689  0.58320185  0.46790480
Direct configuration=    12
   0.66975768 -0.00000261  0.10228244
   0.33025531  0.00000303  0.10228819
   0.00000261  0.33024132  0.10228244
  -0.00000303  0.66974369  0.10228819
   0.33025761  0.33025624  0.10228920
   0.66974276  0.66974139  0.10228920
   0.66666398  0.33333502  0.10145866
   0.33333092  0.66666808  0.10354847
   0.25025888  0.25037305  0.46674382
   0.41693549  0.08318766  0.46670722
   0.24998985  0.75000915  0.46668265
   0.41664694  0.58335206  0.46672283
   0.74975356  0.25024544  0.46673235
   0.91662983  0.08336917  0.46676663
   0.74962595  0.74974012  0.46674382
   0.91681134  0.58306351  0.46670722
Direct configuration=    13
   0.66976748 -0.00000522  0.10459953
   0.33025972  0.00000619  0.10461112
   0.00000522  0.33023152  0.10459953
  -0.00000619  0.66973928  0.10461112
   0.33026453  0.33026180  0.10461315
   0.66973720  0.66973447  0.10461315
   0.66666186  0.33333714  0.10373094
   0.33332903  0.66666997  0.10635882
   0.25052619  0.25075692  0.46438575
   0.41721215  0.08303877  0.46431205
   0.24998038  0.75001862  0.46426259
   0.41662675  0.58337225  0.46434349
   0.74950102  0.25049798  0.46436265
   0.91659200  0.08340700  0.46443165
   0.74924208  0.74947281  0.46438575
   0.91696023  0.58278685  0.46431205
Direct configuration=    14
   0.66978708 -0.00001043  0.10923371
   0.33026854  0.00001253  0.10925699
   0.00001043  0.33021192  0.10923371
  -0.00001253  0.66973046  0.10925699
   0.33027837  0.33027292  0.10926105
   0.66972608  0.66972063  0.10926105
   0.66665763  0.33334137  0.10827548
   0.33332525  0.66667375  0.11197951
   0.25106082  0.25152465  0.45966960
   0.41776549  0.08274098  0.45952171
   0.24996144  0.75003756  0.45942248
   0.41658639  0.58341261  0.45958479
   0.74899595  0.25100305  0.45962325
   0.91651636  0.08348264  0.45976170
   0.74847435  0.74893818  0.45966960
   0.91725802  0.58223351  0.45952171
Direct configuration=    15
   0.66978708 -0.00001044  0.10923487
   0.33026854  0.00001253  0.10925815
   0.00001044  0.33021192  0.10923487
  -0.00001253  0.66973046  0.10925815
   0.33027838  0.33027292  0.10926222
   0.66972608  0.66972062  0.10926222
   0.66665763  0.33334137  0.10827663
   0.33332525  0.66667375  0.11198092
   0.25106086  0.25152469  0.45966841
   0.41776550  0.08274097  0.45952051
   0.24996144  0.75003756  0.45942127
   0.41658637  0.58341263  0.45958360
   0.74899593  0.25100307  0.45962206
   0.91651634  0.08348266  0.45976052
   0.74847431  0.74893814  0.45966841
   0.91725803  0.58223350  0.45952051
Direct configuration=    16
   0.66978709 -0.00001045  0.10923837
   0.33026855  0.00001252  0.10926166
   0.00001045  0.33021191  0.10923837
  -0.00001252  0.66973045  0.10926166
   0.33027839  0.33027294  0.10926573
   0.66972606  0.66972061  0.10926573
   0.66665763  0.33334137  0.10828005
   0.33332525  0.66667375  0.11198516
   0.25106098  0.25152479  0.45966485
   0.41776556  0.08274095  0.45951690
   0.24996147  0.75003753  0.45941762
   0.41658633  0.58341267  0.45958000
   0.74899587  0.25100313  0.45961848
   0.91651629  0.08348271  0.45975699
   0.74847421  0.74893802  0.45966485
   0.91725805  0.58223344  0.45951690
Direct configuration=    17
   0.66978710 -0.00001046  0.10924537
   0.33026856  0.00001252  0.10926868
   0.00001046  0.33021190  0.10924537
  -0.00001252  0.66973044  0.10926868
   0.33027840  0.33027296  0.10927275
   0.66972604  0.66972060  0.10927275
   0.66665763  0.33334137  0.10828690
   0.33332524  0.66667376  0.11199363
   0.25106121  0.25152499  0.45965772
   0.41776568  0.08274091  0.45950967
   0.24996153  0.75003747  0.45941033
   0.41658625  0.58341275  0.45957282
   0.74899577  0.25100323  0.45961133
   0.91651620  0.08348280  0.45974993
   0.74847401  0.74893779  0.45965772
   0.91725809  0.58223332  0.45950967
Direct configuration=    18
   0.66978712 -0.00001049  0.10925937
   0.33026859  0.00001251  0.10928271
   0.00001049  0.33021188  0.10925937
  -0.00001251  0.66973041  0.10928271
   0.33027844  0.33027300  0.10928679
   0.66972600  0.66972056  0.10928679
   0.66665763  0.33334137  0.10830060
   0.33332523  0.66667377  0.11201058
   0.25106168  0.25152539  0.45964347
   0.41776591  0.08274082  0.45949522
   0.24996164  0.75003736  0.45939575
   0.41658609  0.58341291  0.45955845
   0.74899555  0.25100345  0.45959701
   0.91651601  0.08348299  0.45973580
   0.74847361  0.74893732  0.45964347
   0.91725818  0.58223309  0.45949522
Direct configuration=    19
   0.66978716 -0.00001056  0.10928737
   0.33026864  0.00001249  0.10931078
   0.00001056  0.33021184  0.10928737
  -0.00001249  0.66973036  0.10931078
   0.33027851  0.33027308  0.10931486
   0.66972592  0.66972049  0.10931486
   0.66665762  0.33334138  0.10832800
   0.33332521  0.66667379  0.11204448
   0.25106262  0.25152620  0.45961498
   0.41776638  0.08274064  0.45946632
   0.24996186  0.75003714  0.45936658
   0.41658577  0.58341323  0.45952972
   0.74899512  0.25100388  0.45956839
   0.91651564  0.08348336  0.45970756
   0.74847280  0.74893638  0.45961498
   0.91725836  0.58223262  0.45946632
Direct configuration=    20
   0.66978724 -0.00001068  0.10934336
   0.33026874  0.00001246  0.10936691
   0.00001068  0.33021176  0.10934336
  -0.00001246  0.66973026  0.10936691
   0.33027866  0.33027325  0.10937102
   0.66972575  0.66972034  0.10937102
   0.66665761  0.33334139  0.10838280
   0.33332517  0.66667383  0.11211228
   0.25106451  0.25152781  0.45955798
   0.41776731  0.08274029  0.45940852
   0.24996230  0.75003670  0.45930824
   0.41658512  0.58341388  0.45947226
   0.74899426  0.25100474  0.45951114
   0.91651489  0.08348411  0.45965106
   0.74847119  0.74893449  0.45955798
   0.91725871  0.58223169  0.45940852
Direct configuration=    21
   0.66978740 -0.00001093  0.10945534
   0.33026894  0.00001238  0.10947916
   0.00001093  0.33021160  0.10945534
  -0.00001238  0.66973006  0.10947916
   0.33027895  0.33027359  0.10948332
   0.66972541  0.66972005  0.10948332
   0.66665759  0.33334141  0.10849240
   0.33332508  0.66667392  0.11224789
   0.25106827  0.25153103  0.45944398
   0.41776917  0.08273960  0.45929292
   0.24996318  0.75003582  0.45919157
   0.41658382  0.58341518  0.45935733
   0.74899254  0.25100646  0.45939664
   0.91651340  0.08348560  0.45953806
   0.74846797  0.74893073  0.45944398
   0.91725940  0.58222983  0.45929292
Direct configuration=    22
   0.66978772 -0.00001144  0.10967930
   0.33026935  0.00001224  0.10970368
   0.00001144  0.33021128  0.10967930
  -0.00001224  0.66972965  0.10970368
   0.33027954  0.33027428  0.10970793
   0.66972472  0.66971946  0.10970793
   0.66665754  0.33334146  0.10871159
   0.33332491  0.66667409  0.11251909
   0.25107579  0.25153747  0.45921600
   0.41777289  0.08273820  0.45906172
   0.24996494  0.75003406  0.45895822
   0.41658122  0.58341778  0.45912747
   0.74898911  0.25100989  0.45916764
   0.91651041  0.08348859  0.45931207
   0.74846153  0.74892321  0.45921600
   0.91726080  0.58222611  0.45906172
