<?xml version="1.0" encoding="ISO-8859-1"?>
<modeling>
 <generator>
  <i name="program" type="string">vasp </i>
  <i name="version" type="string">6.3.2  </i>
  <i name="subversion" type="string">27Jun22 (build Dec 22 2022 13:13:19) complex                          parallel </i>
  <i name="platform" type="string">LinuxIFC </i>
  <i name="date" type="string">2023 09 12 </i>
  <i name="time" type="string">18:02:03 </i>
 </generator>
 <incar>
  <i type="string" name="SYSTEM">Lattice</i>
  <i type="int" name="ISTART">     0</i>
  <i type="string" name="PREC">Accurate</i>
  <i type="string" name="ALGO">Normal</i>
  <i type="int" name="ICHARG">     2</i>
  <i type="int" name="NELM">    64</i>
  <i type="int" name="IBRION">     2</i>
  <i name="EDIFF">      0.00000100</i>
  <i name="EDIFFG">     -0.00100000</i>
  <i type="int" name="NSW">   128</i>
  <i type="int" name="ISIF">     2</i>
  <i name="ENCUT">    450.00000000</i>
  <i name="POTIM">      0.50000000</i>
  <i type="int" name="ISMEAR">     0</i>
  <i name="SIGMA">      0.10000000</i>
  <i type="logical" name="LWAVE"> F  </i>
  <i type="logical" name="LCHARG"> F  </i>
  <i type="string" name="GGA">PE</i>
  <i type="int" name="IVDW">    12</i>
 </incar>
 <primitive_cell>
  <structure name="primitive_cell" >
   <crystal>
    <varray name="basis" >
     <v>       4.36823214       2.52200000       0.00000000 </v>
     <v>      -4.36823214       2.52200000       0.00000000 </v>
     <v>       0.00000000       0.00000000      15.00000000 </v>
    </varray>
    <i name="volume">    330.50044346 </i>
    <varray name="rec_basis" >
     <v>       0.11446278       0.19825535       0.00000000 </v>
     <v>      -0.11446278       0.19825535       0.00000000 </v>
     <v>       0.00000000       0.00000000       0.06666667 </v>
    </varray>
   </crystal>
   <varray name="positions" >
    <v>       0.33833034       0.66916432       0.10000000 </v>
    <v>       0.67165522       0.33584146       0.10000000 </v>
    <v>       0.16373946       0.31999962       0.10000000 </v>
    <v>       0.32250218       0.16126397       0.10000000 </v>
    <v>       0.16376430       0.84376384       0.10000000 </v>
    <v>       0.84623863       0.16123684       0.10000000 </v>
    <v>       0.68749850       0.84373000       0.10000000 </v>
    <v>       0.84626736       0.68499594       0.10000000 </v>
    <v>       0.33333267       0.16666633       0.35120000 </v>
    <v>       0.49999967       0.99999933       0.35120000 </v>
    <v>       0.33333267       0.66666633       0.35120000 </v>
    <v>       0.49999967       0.49999933       0.35120000 </v>
    <v>       0.83333267       0.16666633       0.35120000 </v>
    <v>       0.99999967       0.99999933       0.35120000 </v>
    <v>       0.83333267       0.66666633       0.35120000 </v>
    <v>       0.99999967       0.49999933       0.35120000 </v>
   </varray>
  </structure>
  <varray name="primitive_index" >
   <v type="int" >        1 </v>
   <v type="int" >        2 </v>
   <v type="int" >        3 </v>
   <v type="int" >        4 </v>
   <v type="int" >        5 </v>
   <v type="int" >        6 </v>
   <v type="int" >        7 </v>
   <v type="int" >        8 </v>
   <v type="int" >        9 </v>
   <v type="int" >       10 </v>
   <v type="int" >       11 </v>
   <v type="int" >       12 </v>
   <v type="int" >       13 </v>
   <v type="int" >       14 </v>
   <v type="int" >       15 </v>
   <v type="int" >       16 </v>
  </varray>
 </primitive_cell>
 <kpoints>
  <generation param="Gamma">
   <v type="int" name="divisions">      27       27        1 </v>
   <v name="usershift">      0.00000000       0.00000000       0.00000000 </v>
   <v name="genvec1">      0.03703704      -0.00000000       0.00000000 </v>
   <v name="genvec2">     -0.00000000       0.03703704       0.00000000 </v>
   <v name="genvec3">      0.00000000       0.00000000       1.00000000 </v>
   <v name="shift">      0.00000000       0.00000000       0.00000000 </v>
  </generation>
  <varray name="kpointlist" >
   <v>       0.00000000       0.00000000       0.00000000 </v>
   <v>       0.03703704      -0.00000000       0.00000000 </v>
   <v>      -0.00000000       0.03703704       0.00000000 </v>
   <v>      -0.03703704       0.03703704       0.00000000 </v>
   <v>       0.07407407      -0.00000000       0.00000000 </v>
   <v>      -0.00000000       0.07407407       0.00000000 </v>
   <v>      -0.07407407       0.07407407       0.00000000 </v>
   <v>       0.11111111       0.00000000       0.00000000 </v>
   <v>      -0.00000000       0.11111111       0.00000000 </v>
   <v>      -0.11111111       0.11111111       0.00000000 </v>
   <v>       0.14814815      -0.00000000       0.00000000 </v>
   <v>      -0.00000000       0.14814815       0.00000000 </v>
   <v>      -0.14814815       0.14814815       0.00000000 </v>
   <v>       0.18518519       0.00000000       0.00000000 </v>
   <v>      -0.00000000       0.18518519       0.00000000 </v>
   <v>      -0.18518519       0.18518519       0.00000000 </v>
   <v>       0.22222222       0.00000000       0.00000000 </v>
   <v>      -0.00000000       0.22222222       0.00000000 </v>
   <v>      -0.22222222       0.22222222       0.00000000 </v>
   <v>       0.25925926      -0.00000000       0.00000000 </v>
   <v>      -0.00000000       0.25925926       0.00000000 </v>
   <v>      -0.25925926       0.25925926       0.00000000 </v>
   <v>       0.29629630      -0.00000000       0.00000000 </v>
   <v>      -0.00000000       0.29629630       0.00000000 </v>
   <v>      -0.29629630       0.29629630       0.00000000 </v>
   <v>       0.33333333       0.00000000       0.00000000 </v>
   <v>      -0.00000000       0.33333333       0.00000000 </v>
   <v>      -0.33333333       0.33333333       0.00000000 </v>
   <v>       0.37037037      -0.00000000       0.00000000 </v>
   <v>      -0.00000000       0.37037037       0.00000000 </v>
   <v>      -0.37037037       0.37037037       0.00000000 </v>
   <v>       0.40740741      -0.00000000       0.00000000 </v>
   <v>      -0.00000000       0.40740741       0.00000000 </v>
   <v>      -0.40740741       0.40740741       0.00000000 </v>
   <v>       0.44444444       0.00000000       0.00000000 </v>
   <v>      -0.00000000       0.44444444       0.00000000 </v>
   <v>      -0.44444444       0.44444444       0.00000000 </v>
   <v>       0.48148148      -0.00000000       0.00000000 </v>
   <v>      -0.00000000       0.48148148       0.00000000 </v>
   <v>      -0.48148148       0.48148148       0.00000000 </v>
   <v>       0.03703704       0.03703704       0.00000000 </v>
   <v>      -0.03703704       0.07407407       0.00000000 </v>
   <v>      -0.07407407       0.03703704       0.00000000 </v>
   <v>       0.07407407       0.03703704       0.00000000 </v>
   <v>      -0.03703704       0.11111111       0.00000000 </v>
   <v>      -0.11111111       0.07407407       0.00000000 </v>
   <v>      -0.07407407       0.11111111       0.00000000 </v>
   <v>       0.03703704       0.07407407       0.00000000 </v>
   <v>       0.11111111      -0.03703704       0.00000000 </v>
   <v>       0.11111111       0.03703704       0.00000000 </v>
   <v>      -0.03703704       0.14814815       0.00000000 </v>
   <v>      -0.14814815       0.11111111       0.00000000 </v>
   <v>      -0.11111111       0.14814815       0.00000000 </v>
   <v>       0.03703704       0.11111111       0.00000000 </v>
   <v>       0.14814815      -0.03703704       0.00000000 </v>
   <v>       0.14814815       0.03703704       0.00000000 </v>
   <v>      -0.03703704       0.18518519       0.00000000 </v>
   <v>      -0.18518519       0.14814815       0.00000000 </v>
   <v>      -0.14814815       0.18518519       0.00000000 </v>
   <v>       0.03703704       0.14814815       0.00000000 </v>
   <v>       0.18518519      -0.03703704       0.00000000 </v>
   <v>       0.18518519       0.03703704       0.00000000 </v>
   <v>      -0.03703704       0.22222222       0.00000000 </v>
   <v>      -0.22222222       0.18518519       0.00000000 </v>
   <v>      -0.18518519       0.22222222       0.00000000 </v>
   <v>       0.03703704       0.18518519       0.00000000 </v>
   <v>       0.22222222      -0.03703704       0.00000000 </v>
   <v>       0.22222222       0.03703704       0.00000000 </v>
   <v>      -0.03703704       0.25925926       0.00000000 </v>
   <v>      -0.25925926       0.22222222       0.00000000 </v>
   <v>      -0.22222222       0.25925926       0.00000000 </v>
   <v>       0.03703704       0.22222222       0.00000000 </v>
   <v>       0.25925926      -0.03703704       0.00000000 </v>
   <v>       0.25925926       0.03703704       0.00000000 </v>
   <v>      -0.03703704       0.29629630       0.00000000 </v>
   <v>      -0.29629630       0.25925926       0.00000000 </v>
   <v>      -0.25925926       0.29629630       0.00000000 </v>
   <v>       0.03703704       0.25925926       0.00000000 </v>
   <v>       0.29629630      -0.03703704       0.00000000 </v>
   <v>       0.29629630       0.03703704       0.00000000 </v>
   <v>      -0.03703704       0.33333333       0.00000000 </v>
   <v>      -0.33333333       0.29629630       0.00000000 </v>
   <v>      -0.29629630       0.33333333       0.00000000 </v>
   <v>       0.03703704       0.29629630       0.00000000 </v>
   <v>       0.33333333      -0.03703704       0.00000000 </v>
   <v>       0.33333333       0.03703704       0.00000000 </v>
   <v>      -0.03703704       0.37037037       0.00000000 </v>
   <v>      -0.37037037       0.33333333       0.00000000 </v>
   <v>      -0.33333333       0.37037037       0.00000000 </v>
   <v>       0.03703704       0.33333333       0.00000000 </v>
   <v>       0.37037037      -0.03703704       0.00000000 </v>
   <v>       0.37037037       0.03703704       0.00000000 </v>
   <v>      -0.03703704       0.40740741       0.00000000 </v>
   <v>      -0.40740741       0.37037037       0.00000000 </v>
   <v>      -0.37037037       0.40740741       0.00000000 </v>
   <v>       0.03703704       0.37037037       0.00000000 </v>
   <v>       0.40740741      -0.03703704       0.00000000 </v>
   <v>       0.40740741       0.03703704       0.00000000 </v>
   <v>      -0.03703704       0.44444444       0.00000000 </v>
   <v>      -0.44444444       0.40740741       0.00000000 </v>
   <v>      -0.40740741       0.44444444       0.00000000 </v>
   <v>       0.03703704       0.40740741       0.00000000 </v>
   <v>       0.44444444      -0.03703704       0.00000000 </v>
   <v>       0.44444444       0.03703704       0.00000000 </v>
   <v>      -0.03703704       0.48148148       0.00000000 </v>
   <v>      -0.48148148       0.44444444       0.00000000 </v>
   <v>      -0.44444444       0.48148148       0.00000000 </v>
   <v>       0.03703704       0.44444444       0.00000000 </v>
   <v>       0.48148148      -0.03703704       0.00000000 </v>
   <v>       0.48148148       0.03703704       0.00000000 </v>
   <v>      -0.03703704      -0.48148148       0.00000000 </v>
   <v>       0.48148148       0.48148148       0.00000000 </v>
   <v>       0.07407407       0.07407407       0.00000000 </v>
   <v>      -0.07407407       0.14814815       0.00000000 </v>
   <v>      -0.14814815       0.07407407       0.00000000 </v>
   <v>       0.11111111       0.07407407       0.00000000 </v>
   <v>      -0.07407407       0.18518519       0.00000000 </v>
   <v>      -0.18518519       0.11111111       0.00000000 </v>
   <v>      -0.11111111       0.18518519       0.00000000 </v>
   <v>       0.07407407       0.11111111       0.00000000 </v>
   <v>       0.18518519      -0.07407407       0.00000000 </v>
   <v>       0.14814815       0.07407407       0.00000000 </v>
   <v>      -0.07407407       0.22222222       0.00000000 </v>
   <v>      -0.22222222       0.14814815       0.00000000 </v>
   <v>      -0.14814815       0.22222222       0.00000000 </v>
   <v>       0.07407407       0.14814815       0.00000000 </v>
   <v>       0.22222222      -0.07407407       0.00000000 </v>
   <v>       0.18518519       0.07407407       0.00000000 </v>
   <v>      -0.07407407       0.25925926       0.00000000 </v>
   <v>      -0.25925926       0.18518519       0.00000000 </v>
   <v>      -0.18518519       0.25925926       0.00000000 </v>
   <v>       0.07407407       0.18518519       0.00000000 </v>
   <v>       0.25925926      -0.07407407       0.00000000 </v>
   <v>       0.22222222       0.07407407       0.00000000 </v>
   <v>      -0.07407407       0.29629630       0.00000000 </v>
   <v>      -0.29629630       0.22222222       0.00000000 </v>
   <v>      -0.22222222       0.29629630       0.00000000 </v>
   <v>       0.07407407       0.22222222       0.00000000 </v>
   <v>       0.29629630      -0.07407407       0.00000000 </v>
   <v>       0.25925926       0.07407407       0.00000000 </v>
   <v>      -0.07407407       0.33333333       0.00000000 </v>
   <v>      -0.33333333       0.25925926       0.00000000 </v>
   <v>      -0.25925926       0.33333333       0.00000000 </v>
   <v>       0.07407407       0.25925926       0.00000000 </v>
   <v>       0.33333333      -0.07407407       0.00000000 </v>
   <v>       0.29629630       0.07407407       0.00000000 </v>
   <v>      -0.07407407       0.37037037       0.00000000 </v>
   <v>      -0.37037037       0.29629630       0.00000000 </v>
   <v>      -0.29629630       0.37037037       0.00000000 </v>
   <v>       0.07407407       0.29629630       0.00000000 </v>
   <v>       0.37037037      -0.07407407       0.00000000 </v>
   <v>       0.33333333       0.07407407       0.00000000 </v>
   <v>      -0.07407407       0.40740741       0.00000000 </v>
   <v>      -0.40740741       0.33333333       0.00000000 </v>
   <v>      -0.33333333       0.40740741       0.00000000 </v>
   <v>       0.07407407       0.33333333       0.00000000 </v>
   <v>       0.40740741      -0.07407407       0.00000000 </v>
   <v>       0.37037037       0.07407407       0.00000000 </v>
   <v>      -0.07407407       0.44444444       0.00000000 </v>
   <v>      -0.44444444       0.37037037       0.00000000 </v>
   <v>      -0.37037037       0.44444444       0.00000000 </v>
   <v>       0.07407407       0.37037037       0.00000000 </v>
   <v>       0.44444444      -0.07407407       0.00000000 </v>
   <v>       0.40740741       0.07407407       0.00000000 </v>
   <v>      -0.07407407       0.48148148       0.00000000 </v>
   <v>      -0.48148148       0.40740741       0.00000000 </v>
   <v>      -0.40740741       0.48148148       0.00000000 </v>
   <v>       0.07407407       0.40740741       0.00000000 </v>
   <v>       0.48148148      -0.07407407       0.00000000 </v>
   <v>       0.44444444       0.07407407       0.00000000 </v>
   <v>      -0.07407407      -0.48148148       0.00000000 </v>
   <v>       0.48148148       0.44444444       0.00000000 </v>
   <v>      -0.44444444      -0.48148148       0.00000000 </v>
   <v>       0.07407407       0.44444444       0.00000000 </v>
   <v>      -0.48148148      -0.07407407       0.00000000 </v>
   <v>       0.11111111       0.11111111       0.00000000 </v>
   <v>      -0.11111111       0.22222222       0.00000000 </v>
   <v>      -0.22222222       0.11111111       0.00000000 </v>
   <v>       0.14814815       0.11111111       0.00000000 </v>
   <v>      -0.11111111       0.25925926       0.00000000 </v>
   <v>      -0.25925926       0.14814815       0.00000000 </v>
   <v>      -0.14814815       0.25925926       0.00000000 </v>
   <v>       0.11111111       0.14814815       0.00000000 </v>
   <v>       0.25925926      -0.11111111       0.00000000 </v>
   <v>       0.18518519       0.11111111       0.00000000 </v>
   <v>      -0.11111111       0.29629630       0.00000000 </v>
   <v>      -0.29629630       0.18518519       0.00000000 </v>
   <v>      -0.18518519       0.29629630       0.00000000 </v>
   <v>       0.11111111       0.18518519       0.00000000 </v>
   <v>       0.29629630      -0.11111111       0.00000000 </v>
   <v>       0.22222222       0.11111111       0.00000000 </v>
   <v>      -0.11111111       0.33333333       0.00000000 </v>
   <v>      -0.33333333       0.22222222       0.00000000 </v>
   <v>      -0.22222222       0.33333333       0.00000000 </v>
   <v>       0.11111111       0.22222222       0.00000000 </v>
   <v>       0.33333333      -0.11111111       0.00000000 </v>
   <v>       0.25925926       0.11111111       0.00000000 </v>
   <v>      -0.11111111       0.37037037       0.00000000 </v>
   <v>      -0.37037037       0.25925926       0.00000000 </v>
   <v>      -0.25925926       0.37037037       0.00000000 </v>
   <v>       0.11111111       0.25925926       0.00000000 </v>
   <v>       0.37037037      -0.11111111       0.00000000 </v>
   <v>       0.29629630       0.11111111       0.00000000 </v>
   <v>      -0.11111111       0.40740741       0.00000000 </v>
   <v>      -0.40740741       0.29629630       0.00000000 </v>
   <v>      -0.29629630       0.40740741       0.00000000 </v>
   <v>       0.11111111       0.29629630       0.00000000 </v>
   <v>       0.40740741      -0.11111111       0.00000000 </v>
   <v>       0.33333333       0.11111111       0.00000000 </v>
   <v>      -0.11111111       0.44444444       0.00000000 </v>
   <v>      -0.44444444       0.33333333       0.00000000 </v>
   <v>      -0.33333333       0.44444444       0.00000000 </v>
   <v>       0.11111111       0.33333333       0.00000000 </v>
   <v>       0.44444444      -0.11111111       0.00000000 </v>
   <v>       0.37037037       0.11111111       0.00000000 </v>
   <v>      -0.11111111       0.48148148       0.00000000 </v>
   <v>      -0.48148148       0.37037037       0.00000000 </v>
   <v>      -0.37037037       0.48148148       0.00000000 </v>
   <v>       0.11111111       0.37037037       0.00000000 </v>
   <v>       0.48148148      -0.11111111       0.00000000 </v>
   <v>       0.40740741       0.11111111       0.00000000 </v>
   <v>      -0.11111111      -0.48148148       0.00000000 </v>
   <v>       0.48148148       0.40740741       0.00000000 </v>
   <v>      -0.40740741      -0.48148148       0.00000000 </v>
   <v>       0.11111111       0.40740741       0.00000000 </v>
   <v>      -0.48148148      -0.11111111       0.00000000 </v>
   <v>       0.44444444       0.11111111       0.00000000 </v>
   <v>      -0.11111111      -0.44444444       0.00000000 </v>
   <v>       0.44444444       0.44444444       0.00000000 </v>
   <v>       0.14814815       0.14814815       0.00000000 </v>
   <v>      -0.14814815       0.29629630       0.00000000 </v>
   <v>      -0.29629630       0.14814815       0.00000000 </v>
   <v>       0.18518519       0.14814815       0.00000000 </v>
   <v>      -0.14814815       0.33333333       0.00000000 </v>
   <v>      -0.33333333       0.18518519       0.00000000 </v>
   <v>      -0.18518519       0.33333333       0.00000000 </v>
   <v>       0.14814815       0.18518519       0.00000000 </v>
   <v>       0.33333333      -0.14814815       0.00000000 </v>
   <v>       0.22222222       0.14814815       0.00000000 </v>
   <v>      -0.14814815       0.37037037       0.00000000 </v>
   <v>      -0.37037037       0.22222222       0.00000000 </v>
   <v>      -0.22222222       0.37037037       0.00000000 </v>
   <v>       0.14814815       0.22222222       0.00000000 </v>
   <v>       0.37037037      -0.14814815       0.00000000 </v>
   <v>       0.25925926       0.14814815       0.00000000 </v>
   <v>      -0.14814815       0.40740741       0.00000000 </v>
   <v>      -0.40740741       0.25925926       0.00000000 </v>
   <v>      -0.25925926       0.40740741       0.00000000 </v>
   <v>       0.14814815       0.25925926       0.00000000 </v>
   <v>       0.40740741      -0.14814815       0.00000000 </v>
   <v>       0.29629630       0.14814815       0.00000000 </v>
   <v>      -0.14814815       0.44444444       0.00000000 </v>
   <v>      -0.44444444       0.29629630       0.00000000 </v>
   <v>      -0.29629630       0.44444444       0.00000000 </v>
   <v>       0.14814815       0.29629630       0.00000000 </v>
   <v>       0.44444444      -0.14814815       0.00000000 </v>
   <v>       0.33333333       0.14814815       0.00000000 </v>
   <v>      -0.14814815       0.48148148       0.00000000 </v>
   <v>      -0.48148148       0.33333333       0.00000000 </v>
   <v>      -0.33333333       0.48148148       0.00000000 </v>
   <v>       0.14814815       0.33333333       0.00000000 </v>
   <v>       0.48148148      -0.14814815       0.00000000 </v>
   <v>       0.37037037       0.14814815       0.00000000 </v>
   <v>      -0.14814815      -0.48148148       0.00000000 </v>
   <v>       0.48148148       0.37037037       0.00000000 </v>
   <v>      -0.37037037      -0.48148148       0.00000000 </v>
   <v>       0.14814815       0.37037037       0.00000000 </v>
   <v>      -0.48148148      -0.14814815       0.00000000 </v>
   <v>       0.40740741       0.14814815       0.00000000 </v>
   <v>      -0.14814815      -0.44444444       0.00000000 </v>
   <v>       0.44444444       0.40740741       0.00000000 </v>
   <v>      -0.40740741      -0.44444444       0.00000000 </v>
   <v>       0.14814815       0.40740741       0.00000000 </v>
   <v>      -0.44444444      -0.14814815       0.00000000 </v>
   <v>       0.18518519       0.18518519       0.00000000 </v>
   <v>      -0.18518519       0.37037037       0.00000000 </v>
   <v>      -0.37037037       0.18518519       0.00000000 </v>
   <v>       0.22222222       0.18518519       0.00000000 </v>
   <v>      -0.18518519       0.40740741       0.00000000 </v>
   <v>      -0.40740741       0.22222222       0.00000000 </v>
   <v>      -0.22222222       0.40740741       0.00000000 </v>
   <v>       0.18518519       0.22222222       0.00000000 </v>
   <v>       0.40740741      -0.18518519       0.00000000 </v>
   <v>       0.25925926       0.18518519       0.00000000 </v>
   <v>      -0.18518519       0.44444444       0.00000000 </v>
   <v>      -0.44444444       0.25925926       0.00000000 </v>
   <v>      -0.25925926       0.44444444       0.00000000 </v>
   <v>       0.18518519       0.25925926       0.00000000 </v>
   <v>       0.44444444      -0.18518519       0.00000000 </v>
   <v>       0.29629630       0.18518519       0.00000000 </v>
   <v>      -0.18518519       0.48148148       0.00000000 </v>
   <v>      -0.48148148       0.29629630       0.00000000 </v>
   <v>      -0.29629630       0.48148148       0.00000000 </v>
   <v>       0.18518519       0.29629630       0.00000000 </v>
   <v>       0.48148148      -0.18518519       0.00000000 </v>
   <v>       0.33333333       0.18518519       0.00000000 </v>
   <v>      -0.18518519      -0.48148148       0.00000000 </v>
   <v>       0.48148148       0.33333333       0.00000000 </v>
   <v>      -0.33333333      -0.48148148       0.00000000 </v>
   <v>       0.18518519       0.33333333       0.00000000 </v>
   <v>      -0.48148148      -0.18518519       0.00000000 </v>
   <v>       0.37037037       0.18518519       0.00000000 </v>
   <v>      -0.18518519      -0.44444444       0.00000000 </v>
   <v>       0.44444444       0.37037037       0.00000000 </v>
   <v>      -0.37037037      -0.44444444       0.00000000 </v>
   <v>       0.18518519       0.37037037       0.00000000 </v>
   <v>      -0.44444444      -0.18518519       0.00000000 </v>
   <v>       0.40740741       0.18518519       0.00000000 </v>
   <v>      -0.18518519      -0.40740741       0.00000000 </v>
   <v>       0.40740741       0.40740741       0.00000000 </v>
   <v>       0.22222222       0.22222222       0.00000000 </v>
   <v>      -0.22222222       0.44444444       0.00000000 </v>
   <v>      -0.44444444       0.22222222       0.00000000 </v>
   <v>       0.25925926       0.22222222       0.00000000 </v>
   <v>      -0.22222222       0.48148148       0.00000000 </v>
   <v>      -0.48148148       0.25925926       0.00000000 </v>
   <v>      -0.25925926       0.48148148       0.00000000 </v>
   <v>       0.22222222       0.25925926       0.00000000 </v>
   <v>       0.48148148      -0.22222222       0.00000000 </v>
   <v>       0.29629630       0.22222222       0.00000000 </v>
   <v>      -0.22222222      -0.48148148       0.00000000 </v>
   <v>       0.48148148       0.29629630       0.00000000 </v>
   <v>      -0.29629630      -0.48148148       0.00000000 </v>
   <v>       0.22222222       0.29629630       0.00000000 </v>
   <v>      -0.48148148      -0.22222222       0.00000000 </v>
   <v>       0.33333333       0.22222222       0.00000000 </v>
   <v>      -0.22222222      -0.44444444       0.00000000 </v>
   <v>       0.44444444       0.33333333       0.00000000 </v>
   <v>      -0.33333333      -0.44444444       0.00000000 </v>
   <v>       0.22222222       0.33333333       0.00000000 </v>
   <v>      -0.44444444      -0.22222222       0.00000000 </v>
   <v>       0.37037037       0.22222222       0.00000000 </v>
   <v>      -0.22222222      -0.40740741       0.00000000 </v>
   <v>       0.40740741       0.37037037       0.00000000 </v>
   <v>      -0.37037037      -0.40740741       0.00000000 </v>
   <v>       0.22222222       0.37037037       0.00000000 </v>
   <v>      -0.40740741      -0.22222222       0.00000000 </v>
   <v>       0.25925926       0.25925926       0.00000000 </v>
   <v>      -0.25925926      -0.48148148       0.00000000 </v>
   <v>       0.48148148       0.25925926       0.00000000 </v>
   <v>       0.29629630       0.25925926       0.00000000 </v>
   <v>      -0.25925926      -0.44444444       0.00000000 </v>
   <v>       0.44444444       0.29629630       0.00000000 </v>
   <v>      -0.29629630      -0.44444444       0.00000000 </v>
   <v>       0.25925926       0.29629630       0.00000000 </v>
   <v>      -0.44444444      -0.25925926       0.00000000 </v>
   <v>       0.33333333       0.25925926       0.00000000 </v>
   <v>      -0.25925926      -0.40740741       0.00000000 </v>
   <v>       0.40740741       0.33333333       0.00000000 </v>
   <v>      -0.33333333      -0.40740741       0.00000000 </v>
   <v>       0.25925926       0.33333333       0.00000000 </v>
   <v>      -0.40740741      -0.25925926       0.00000000 </v>
   <v>       0.37037037       0.25925926       0.00000000 </v>
   <v>      -0.25925926      -0.37037037       0.00000000 </v>
   <v>       0.37037037       0.37037037       0.00000000 </v>
   <v>       0.29629630       0.29629630       0.00000000 </v>
   <v>      -0.29629630      -0.40740741       0.00000000 </v>
   <v>       0.40740741       0.29629630       0.00000000 </v>
   <v>       0.33333333       0.29629630       0.00000000 </v>
   <v>      -0.29629630      -0.37037037       0.00000000 </v>
   <v>       0.37037037       0.33333333       0.00000000 </v>
   <v>      -0.33333333      -0.37037037       0.00000000 </v>
   <v>       0.29629630       0.33333333       0.00000000 </v>
   <v>      -0.37037037      -0.29629630       0.00000000 </v>
   <v>       0.33333333       0.33333333       0.00000000 </v>
  </varray>
  <varray name="weights" >
   <v>       0.00137174 </v>
   <v>       0.00274348 </v>
   <v>       0.00274348 </v>
   <v>       0.00274348 </v>
   <v>       0.00274348 </v>
   <v>       0.00274348 </v>
   <v>       0.00274348 </v>
   <v>       0.00274348 </v>
   <v>       0.00274348 </v>
   <v>       0.00274348 </v>
   <v>       0.00274348 </v>
   <v>       0.00274348 </v>
   <v>       0.00274348 </v>
   <v>       0.00274348 </v>
   <v>       0.00274348 </v>
   <v>       0.00274348 </v>
   <v>       0.00274348 </v>
   <v>       0.00274348 </v>
   <v>       0.00274348 </v>
   <v>       0.00274348 </v>
   <v>       0.00274348 </v>
   <v>       0.00274348 </v>
   <v>       0.00274348 </v>
   <v>       0.00274348 </v>
   <v>       0.00274348 </v>
   <v>       0.00274348 </v>
   <v>       0.00274348 </v>
   <v>       0.00274348 </v>
   <v>       0.00274348 </v>
   <v>       0.00274348 </v>
   <v>       0.00274348 </v>
   <v>       0.00274348 </v>
   <v>       0.00274348 </v>
   <v>       0.00274348 </v>
   <v>       0.00274348 </v>
   <v>       0.00274348 </v>
   <v>       0.00274348 </v>
   <v>       0.00274348 </v>
   <v>       0.00274348 </v>
   <v>       0.00274348 </v>
   <v>       0.00274348 </v>
   <v>       0.00274348 </v>
   <v>       0.00274348 </v>
   <v>       0.00274348 </v>
   <v>       0.00274348 </v>
   <v>       0.00274348 </v>
   <v>       0.00274348 </v>
   <v>       0.00274348 </v>
   <v>       0.00274348 </v>
   <v>       0.00274348 </v>
   <v>       0.00274348 </v>
   <v>       0.00274348 </v>
   <v>       0.00274348 </v>
   <v>       0.00274348 </v>
   <v>       0.00274348 </v>
   <v>       0.00274348 </v>
   <v>       0.00274348 </v>
   <v>       0.00274348 </v>
   <v>       0.00274348 </v>
   <v>       0.00274348 </v>
   <v>       0.00274348 </v>
   <v>       0.00274348 </v>
   <v>       0.00274348 </v>
   <v>       0.00274348 </v>
   <v>       0.00274348 </v>
   <v>       0.00274348 </v>
   <v>       0.00274348 </v>
   <v>       0.00274348 </v>
   <v>       0.00274348 </v>
   <v>       0.00274348 </v>
   <v>       0.00274348 </v>
   <v>       0.00274348 </v>
   <v>       0.00274348 </v>
   <v>       0.00274348 </v>
   <v>       0.00274348 </v>
   <v>       0.00274348 </v>
   <v>       0.00274348 </v>
   <v>       0.00274348 </v>
   <v>       0.00274348 </v>
   <v>       0.00274348 </v>
   <v>       0.00274348 </v>
   <v>       0.00274348 </v>
   <v>       0.00274348 </v>
   <v>       0.00274348 </v>
   <v>       0.00274348 </v>
   <v>       0.00274348 </v>
   <v>       0.00274348 </v>
   <v>       0.00274348 </v>
   <v>       0.00274348 </v>
   <v>       0.00274348 </v>
   <v>       0.00274348 </v>
   <v>       0.00274348 </v>
   <v>       0.00274348 </v>
   <v>       0.00274348 </v>
   <v>       0.00274348 </v>
   <v>       0.00274348 </v>
   <v>       0.00274348 </v>
   <v>       0.00274348 </v>
   <v>       0.00274348 </v>
   <v>       0.00274348 </v>
   <v>       0.00274348 </v>
   <v>       0.00274348 </v>
   <v>       0.00274348 </v>
   <v>       0.00274348 </v>
   <v>       0.00274348 </v>
   <v>       0.00274348 </v>
   <v>       0.00274348 </v>
   <v>       0.00274348 </v>
   <v>       0.00274348 </v>
   <v>       0.00274348 </v>
   <v>       0.00274348 </v>
   <v>       0.00274348 </v>
   <v>       0.00274348 </v>
   <v>       0.00274348 </v>
   <v>       0.00274348 </v>
   <v>       0.00274348 </v>
   <v>       0.00274348 </v>
   <v>       0.00274348 </v>
   <v>       0.00274348 </v>
   <v>       0.00274348 </v>
   <v>       0.00274348 </v>
   <v>       0.00274348 </v>
   <v>       0.00274348 </v>
   <v>       0.00274348 </v>
   <v>       0.00274348 </v>
   <v>       0.00274348 </v>
   <v>       0.00274348 </v>
   <v>       0.00274348 </v>
   <v>       0.00274348 </v>
   <v>       0.00274348 </v>
   <v>       0.00274348 </v>
   <v>       0.00274348 </v>
   <v>       0.00274348 </v>
   <v>       0.00274348 </v>
   <v>       0.00274348 </v>
   <v>       0.00274348 </v>
   <v>       0.00274348 </v>
   <v>       0.00274348 </v>
   <v>       0.00274348 </v>
   <v>       0.00274348 </v>
   <v>       0.00274348 </v>
   <v>       0.00274348 </v>
   <v>       0.00274348 </v>
   <v>       0.00274348 </v>
   <v>       0.00274348 </v>
   <v>       0.00274348 </v>
   <v>       0.00274348 </v>
   <v>       0.00274348 </v>
   <v>       0.00274348 </v>
   <v>       0.00274348 </v>
   <v>       0.00274348 </v>
   <v>       0.00274348 </v>
   <v>       0.00274348 </v>
   <v>       0.00274348 </v>
   <v>       0.00274348 </v>
   <v>       0.00274348 </v>
   <v>       0.00274348 </v>
   <v>       0.00274348 </v>
   <v>       0.00274348 </v>
   <v>       0.00274348 </v>
   <v>       0.00274348 </v>
   <v>       0.00274348 </v>
   <v>       0.00274348 </v>
   <v>       0.00274348 </v>
   <v>       0.00274348 </v>
   <v>       0.00274348 </v>
   <v>       0.00274348 </v>
   <v>       0.00274348 </v>
   <v>       0.00274348 </v>
   <v>       0.00274348 </v>
   <v>       0.00274348 </v>
   <v>       0.00274348 </v>
   <v>       0.00274348 </v>
   <v>       0.00274348 </v>
   <v>       0.00274348 </v>
   <v>       0.00274348 </v>
   <v>       0.00274348 </v>
   <v>       0.00274348 </v>
   <v>       0.00274348 </v>
   <v>       0.00274348 </v>
   <v>       0.00274348 </v>
   <v>       0.00274348 </v>
   <v>       0.00274348 </v>
   <v>       0.00274348 </v>
   <v>       0.00274348 </v>
   <v>       0.00274348 </v>
   <v>       0.00274348 </v>
   <v>       0.00274348 </v>
   <v>       0.00274348 </v>
   <v>       0.00274348 </v>
   <v>       0.00274348 </v>
   <v>       0.00274348 </v>
   <v>       0.00274348 </v>
   <v>       0.00274348 </v>
   <v>       0.00274348 </v>
   <v>       0.00274348 </v>
   <v>       0.00274348 </v>
   <v>       0.00274348 </v>
   <v>       0.00274348 </v>
   <v>       0.00274348 </v>
   <v>       0.00274348 </v>
   <v>       0.00274348 </v>
   <v>       0.00274348 </v>
   <v>       0.00274348 </v>
   <v>       0.00274348 </v>
   <v>       0.00274348 </v>
   <v>       0.00274348 </v>
   <v>       0.00274348 </v>
   <v>       0.00274348 </v>
   <v>       0.00274348 </v>
   <v>       0.00274348 </v>
   <v>       0.00274348 </v>
   <v>       0.00274348 </v>
   <v>       0.00274348 </v>
   <v>       0.00274348 </v>
   <v>       0.00274348 </v>
   <v>       0.00274348 </v>
   <v>       0.00274348 </v>
   <v>       0.00274348 </v>
   <v>       0.00274348 </v>
   <v>       0.00274348 </v>
   <v>       0.00274348 </v>
   <v>       0.00274348 </v>
   <v>       0.00274348 </v>
   <v>       0.00274348 </v>
   <v>       0.00274348 </v>
   <v>       0.00274348 </v>
   <v>       0.00274348 </v>
   <v>       0.00274348 </v>
   <v>       0.00274348 </v>
   <v>       0.00274348 </v>
   <v>       0.00274348 </v>
   <v>       0.00274348 </v>
   <v>       0.00274348 </v>
   <v>       0.00274348 </v>
   <v>       0.00274348 </v>
   <v>       0.00274348 </v>
   <v>       0.00274348 </v>
   <v>       0.00274348 </v>
   <v>       0.00274348 </v>
   <v>       0.00274348 </v>
   <v>       0.00274348 </v>
   <v>       0.00274348 </v>
   <v>       0.00274348 </v>
   <v>       0.00274348 </v>
   <v>       0.00274348 </v>
   <v>       0.00274348 </v>
   <v>       0.00274348 </v>
   <v>       0.00274348 </v>
   <v>       0.00274348 </v>
   <v>       0.00274348 </v>
   <v>       0.00274348 </v>
   <v>       0.00274348 </v>
   <v>       0.00274348 </v>
   <v>       0.00274348 </v>
   <v>       0.00274348 </v>
   <v>       0.00274348 </v>
   <v>       0.00274348 </v>
   <v>       0.00274348 </v>
   <v>       0.00274348 </v>
   <v>       0.00274348 </v>
   <v>       0.00274348 </v>
   <v>       0.00274348 </v>
   <v>       0.00274348 </v>
   <v>       0.00274348 </v>
   <v>       0.00274348 </v>
   <v>       0.00274348 </v>
   <v>       0.00274348 </v>
   <v>       0.00274348 </v>
   <v>       0.00274348 </v>
   <v>       0.00274348 </v>
   <v>       0.00274348 </v>
   <v>       0.00274348 </v>
   <v>       0.00274348 </v>
   <v>       0.00274348 </v>
   <v>       0.00274348 </v>
   <v>       0.00274348 </v>
   <v>       0.00274348 </v>
   <v>       0.00274348 </v>
   <v>       0.00274348 </v>
   <v>       0.00274348 </v>
   <v>       0.00274348 </v>
   <v>       0.00274348 </v>
   <v>       0.00274348 </v>
   <v>       0.00274348 </v>
   <v>       0.00274348 </v>
   <v>       0.00274348 </v>
   <v>       0.00274348 </v>
   <v>       0.00274348 </v>
   <v>       0.00274348 </v>
   <v>       0.00274348 </v>
   <v>       0.00274348 </v>
   <v>       0.00274348 </v>
   <v>       0.00274348 </v>
   <v>       0.00274348 </v>
   <v>       0.00274348 </v>
   <v>       0.00274348 </v>
   <v>       0.00274348 </v>
   <v>       0.00274348 </v>
   <v>       0.00274348 </v>
   <v>       0.00274348 </v>
   <v>       0.00274348 </v>
   <v>       0.00274348 </v>
   <v>       0.00274348 </v>
   <v>       0.00274348 </v>
   <v>       0.00274348 </v>
   <v>       0.00274348 </v>
   <v>       0.00274348 </v>
   <v>       0.00274348 </v>
   <v>       0.00274348 </v>
   <v>       0.00274348 </v>
   <v>       0.00274348 </v>
   <v>       0.00274348 </v>
   <v>       0.00274348 </v>
   <v>       0.00274348 </v>
   <v>       0.00274348 </v>
   <v>       0.00274348 </v>
   <v>       0.00274348 </v>
   <v>       0.00274348 </v>
   <v>       0.00274348 </v>
   <v>       0.00274348 </v>
   <v>       0.00274348 </v>
   <v>       0.00274348 </v>
   <v>       0.00274348 </v>
   <v>       0.00274348 </v>
   <v>       0.00274348 </v>
   <v>       0.00274348 </v>
   <v>       0.00274348 </v>
   <v>       0.00274348 </v>
   <v>       0.00274348 </v>
   <v>       0.00274348 </v>
   <v>       0.00274348 </v>
   <v>       0.00274348 </v>
   <v>       0.00274348 </v>
   <v>       0.00274348 </v>
   <v>       0.00274348 </v>
   <v>       0.00274348 </v>
   <v>       0.00274348 </v>
   <v>       0.00274348 </v>
   <v>       0.00274348 </v>
   <v>       0.00274348 </v>
   <v>       0.00274348 </v>
   <v>       0.00274348 </v>
   <v>       0.00274348 </v>
   <v>       0.00274348 </v>
   <v>       0.00274348 </v>
   <v>       0.00274348 </v>
   <v>       0.00274348 </v>
   <v>       0.00274348 </v>
   <v>       0.00274348 </v>
   <v>       0.00274348 </v>
   <v>       0.00274348 </v>
   <v>       0.00274348 </v>
   <v>       0.00274348 </v>
   <v>       0.00274348 </v>
   <v>       0.00274348 </v>
   <v>       0.00274348 </v>
   <v>       0.00274348 </v>
   <v>       0.00274348 </v>
   <v>       0.00274348 </v>
   <v>       0.00274348 </v>
   <v>       0.00274348 </v>
   <v>       0.00274348 </v>
   <v>       0.00274348 </v>
   <v>       0.00274348 </v>
  </varray>
 </kpoints>
 <parameters>
  <separator name="general" >
   <i type="string" name="SYSTEM">Lattice</i>
   <i type="logical" name="LCOMPAT"> F  </i>
  </separator>
  <separator name="electronic" >
   <i type="string" name="PREC">accura</i>
   <i name="ENMAX">    450.00000000</i>
   <i name="ENAUG">    644.87300000</i>
   <i name="EDIFF">      0.00000100</i>
   <i type="int" name="IALGO">    38</i>
   <i type="int" name="IWAVPR">    11</i>
   <i type="int" name="NBANDS">    48</i>
   <i type="int" name="NBANDSLOW">    -1</i>
   <i type="int" name="NBANDSHIGH">    -1</i>
   <i name="NELECT">     62.00000000</i>
   <i type="int" name="TURBO">     0</i>
   <i type="int" name="IRESTART">     0</i>
   <i type="int" name="NREBOOT">     0</i>
   <i type="int" name="NMIN">     0</i>
   <i name="EREF">      0.00000000</i>
   <separator name="electronic smearing" >
    <i type="int" name="ISMEAR">     0</i>
    <i name="SIGMA">      0.10000000</i>
    <i name="KSPACING">      0.50000000</i>
    <i type="logical" name="KGAMMA"> T  </i>
    <i type="logical" name="KBLOWUP"> T  </i>
   </separator>
   <separator name="electronic projectors" >
    <i type="logical" name="LREAL"> F  </i>
    <v name="ROPT">      0.00000000      0.00000000</v>
    <i type="int" name="LMAXPAW">  -100</i>
    <i type="int" name="LMAXMIX">     2</i>
    <i type="logical" name="NLSPLINE"> F  </i>
   </separator>
   <separator name="electronic startup" >
    <i type="int" name="ISTART">     0</i>
    <i type="int" name="ICHARG">     2</i>
    <i type="int" name="INIWAV">     1</i>
   </separator>
   <separator name="electronic spin" >
    <i type="int" name="ISPIN">     1</i>
    <i type="logical" name="LNONCOLLINEAR"> F  </i>
    <v name="MAGMOM">      1.00000000      1.00000000      1.00000000      1.00000000      1.00000000      1.00000000      1.00000000      1.00000000      1.00000000      1.00000000      1.00000000      1.00000000      1.00000000      1.00000000      1.00000000      1.00000000</v>
    <i name="NUPDOWN">     -1.00000000</i>
    <i type="logical" name="LSORBIT"> F  </i>
    <v name="SAXIS">      0.00000000      0.00000000      1.00000000</v>
    <i type="logical" name="LSPIRAL"> F  </i>
    <v name="QSPIRAL">      0.00000000      0.00000000      0.00000000</v>
    <i type="logical" name="LZEROZ"> F  </i>
   </separator>
   <separator name="electronic exchange-correlation" >
    <i type="logical" name="LASPH"> F  </i>
    <i type="logical" name="LMETAGGA"> F  </i>
   </separator>
   <separator name="electronic convergence" >
    <i type="int" name="NELM">    64</i>
    <i type="int" name="NELMDL">    -5</i>
    <i type="int" name="NELMIN">     2</i>
    <i name="ENINI">    450.00000000</i>
    <separator name="electronic convergence detail" >
     <i type="logical" name="LDIAG"> T  </i>
     <i type="logical" name="LSUBROT"> F  </i>
     <i name="WEIMIN">      0.00100000</i>
     <i name="EBREAK">      0.00000001</i>
     <i name="DEPER">      0.30000000</i>
     <i type="int" name="NRMM">     4</i>
     <i name="TIME">      0.40000000</i>
    </separator>
   </separator>
   <separator name="electronic mixer" >
    <i name="AMIX">      0.40000000</i>
    <i name="BMIX">      1.00000000</i>
    <i name="AMIN">      0.10000000</i>
    <i name="AMIX_MAG">      1.60000000</i>
    <i name="BMIX_MAG">      1.00000000</i>
    <separator name="electronic mixer details" >
     <i type="int" name="IMIX">     4</i>
     <i type="logical" name="MIXFIRST"> F  </i>
     <i type="int" name="MAXMIX">   -45</i>
     <i name="WC">    100.00000000</i>
     <i type="int" name="INIMIX">     1</i>
     <i type="int" name="MIXPRE">     1</i>
     <i type="int" name="MREMOVE">     5</i>
    </separator>
   </separator>
   <separator name="electronic dipolcorrection" >
    <i type="logical" name="LDIPOL"> F  </i>
    <i type="logical" name="LMONO"> F  </i>
    <i type="int" name="IDIPOL">     0</i>
    <i name="EPSILON">      1.00000000</i>
    <v name="DIPOL">   -100.00000000   -100.00000000   -100.00000000</v>
    <i name="EFIELD">      0.00000000</i>
   </separator>
  </separator>
  <separator name="grids" >
   <i type="int" name="NGX">    36</i>
   <i type="int" name="NGY">    36</i>
   <i type="int" name="NGZ">   108</i>
   <i type="int" name="NGXF">    72</i>
   <i type="int" name="NGYF">    72</i>
   <i type="int" name="NGZF">   216</i>
   <i type="logical" name="ADDGRID"> F  </i>
  </separator>
  <separator name="ionic" >
   <i type="int" name="NSW">   128</i>
   <i type="int" name="IBRION">     2</i>
   <i type="int" name="MDALGO">     0</i>
   <i type="int" name="ISIF">     2</i>
   <i name="PSTRESS">      0.00000000</i>
   <i name="EDIFFG">     -0.00100000</i>
   <i type="int" name="NFREE">     1</i>
   <i name="POTIM">      0.50000000</i>
   <i name="SMASS">     -3.00000000</i>
   <i name="SCALEE">      1.00000000</i>
  </separator>
  <separator name="ionic md" >
   <i name="TEBEG">      0.00010000</i>
   <i name="TEEND">      0.00010000</i>
   <i type="int" name="NBLOCK">     1</i>
   <i type="int" name="KBLOCK">   128</i>
   <i type="int" name="NPACO">   256</i>
   <i name="APACO">     10.00000000</i>
  </separator>
  <separator name="symmetry" >
   <i type="int" name="ISYM">     2</i>
   <i name="SYMPREC">      0.00001000</i>
  </separator>
  <separator name="dos" >
   <i type="int" name="LORBIT">     0</i>
   <v name="RWIGS">     -1.00000000     -1.00000000</v>
   <i type="int" name="NEDOS">   301</i>
   <i name="EMIN">     10.00000000</i>
   <i name="EMAX">    -10.00000000</i>
   <i name="EFERMI">      0.00000000</i>
  </separator>
  <separator name="writing" >
   <i type="int" name="NWRITE">     2</i>
   <i type="logical" name="LWAVE"> F  </i>
   <i type="logical" name="LDOWNSAMPLE"> F  </i>
   <i type="logical" name="LCHARG"> F  </i>
   <i type="logical" name="LPARD"> F  </i>
   <i type="logical" name="LVTOT"> F  </i>
   <i type="logical" name="LVHAR"> F  </i>
   <i type="logical" name="LELF"> F  </i>
   <i type="logical" name="LOPTICS"> F  </i>
   <v name="STM">      0.00000000      0.00000000      0.00000000      0.00000000      0.00000000      0.00000000      0.00000000</v>
  </separator>
  <separator name="performance" >
   <i type="int" name="NPAR">    24</i>
   <i type="int" name="NSIM">     4</i>
   <i type="int" name="NBLK">    -1</i>
   <i type="logical" name="LPLANE"> T  </i>
   <i type="logical" name="LSCALAPACK"> T  </i>
   <i type="logical" name="LSCAAWARE"> F  </i>
   <i type="logical" name="LSCALU"> F  </i>
   <i type="logical" name="LASYNC"> F  </i>
   <i type="logical" name="LORBITALREAL"> F  </i>
  </separator>
  <separator name="miscellaneous" >
   <i type="int" name="IDIOT">     3</i>
   <i type="int" name="PHON_NSTRUCT">    -1</i>
   <i type="logical" name="LMUSIC"> F  </i>
   <v name="POMASS">     10.81100000     12.01100000</v>
   <v name="DARWINR">      0.00000000      0.00000000</v>
   <v name="DARWINV">      1.00000000      1.00000000</v>
   <i type="logical" name="LCORR"> T  </i>
  </separator>
  <i type="logical" name="GGA_COMPAT"> T  </i>
  <i type="logical" name="LBERRY"> F  </i>
  <i type="int" name="ICORELEVEL">     0</i>
  <i type="logical" name="LDAU"> F  </i>
  <i type="int" name="I_CONSTRAINED_M">     0</i>
  <separator name="electronic exchange-correlation" >
   <i type="string" name="GGA">PE</i>
   <i type="int" name="VOSKOWN">     0</i>
   <i type="logical" name="LHFCALC"> F  </i>
   <i type="string" name="PRECFOCK"></i>
   <i type="logical" name="LSYMGRAD"> F  </i>
   <i type="logical" name="LHFONE"> F  </i>
   <i type="logical" name="LRHFCALC"> F  </i>
   <i type="logical" name="LTHOMAS"> F  </i>
   <i type="logical" name="LMODELHF"> F  </i>
   <i type="logical" name="LFOCKACE"> F  </i>
   <i name="ENCUT4O">     -1.00000000</i>
   <i type="int" name="EXXOEP">     0</i>
   <i type="int" name="FOURORBIT">     0</i>
   <i name="AEXX">      0.00000000</i>
   <i name="HFALPHA">      0.00000000</i>
   <i name="MCALPHA">      0.00000000</i>
   <i name="ALDAX">      1.00000000</i>
   <i name="AGGAX">      1.00000000</i>
   <i name="ALDAC">      1.00000000</i>
   <i name="AGGAC">      1.00000000</i>
   <i type="int" name="NKREDX">     1</i>
   <i type="int" name="NKREDY">     1</i>
   <i type="int" name="NKREDZ">     1</i>
   <i type="logical" name="SHIFTRED"> F  </i>
   <i type="logical" name="ODDONLY"> F  </i>
   <i type="logical" name="EVENONLY"> F  </i>
   <i type="int" name="LMAXFOCK">     0</i>
   <i type="int" name="NMAXFOCKAE">     0</i>
   <i type="logical" name="LFOCKAEDFT"> F  </i>
   <i name="HFSCREEN">      0.00000000</i>
   <i name="HFSCREENC">      0.00000000</i>
   <i type="int" name="NBANDSGWLOW">     0</i>
  </separator>
  <separator name="vdW DFT" >
   <i type="logical" name="LUSE_VDW"> F  </i>
   <i name="Zab_VDW">     -0.84910000</i>
   <i name="PARAM1">      0.12340000</i>
   <i name="PARAM2">      1.00000000</i>
   <i name="PARAM3">      0.00000000</i>
  </separator>
  <separator name="model GW" >
   <i type="int" name="MODEL_GW">     0</i>
   <i name="MODEL_EPS0">     12.39376663</i>
   <i name="MODEL_ALPHA">      1.00000000</i>
  </separator>
  <separator name="linear response parameters" >
   <i type="logical" name="LEPSILON"> F  </i>
   <i type="logical" name="LRPA"> F  </i>
   <i type="logical" name="LNABLA"> F  </i>
   <i type="logical" name="LVEL"> F  </i>
   <i name="CSHIFT">      0.10000000</i>
   <i name="OMEGAMAX">     -1.00000000</i>
   <i name="DEG_THRESHOLD">      0.00200000</i>
   <i name="RTIME">     -0.10000000</i>
   <i name="WPLASMAI">      0.00000000</i>
   <v name="DFIELD">      0.00000000      0.00000000      0.00000000</v>
   <v name="WPLASMA">      0.00000000      0.00000000      0.00000000      0.00000000      0.00000000      0.00000000      0.00000000      0.00000000      0.00000000</v>
  </separator>
  <separator name="orbital magnetization" >
   <i type="logical" name="NUCIND"> F  </i>
   <v name="MAGPOS">      0.00000000      0.00000000      0.00000000</v>
   <i type="logical" name="LNICSALL"> T  </i>
   <i type="logical" name="ORBITALMAG"> F  </i>
   <i type="logical" name="LMAGBLOCH"> F  </i>
   <i type="logical" name="LCHIMAG"> F  </i>
   <i type="logical" name="LGAUGE"> T  </i>
   <i type="int" name="MAGATOM">     0</i>
   <v name="MAGDIPOL">      0.00000000      0.00000000      0.00000000</v>
   <v name="AVECCONST">      0.00000000      0.00000000      0.00000000</v>
  </separator>
  <separator name="response functions" >
   <i type="logical" name="LFINITE_TEMPERATURE"> F  </i>
   <i type="logical" name="LADDER"> F  </i>
   <i type="logical" name="LRPAFORCE"> F  </i>
   <i type="logical" name="LFXC"> F  </i>
   <i type="logical" name="LHARTREE"> T  </i>
   <i type="int" name="IBSE">     0</i>
   <v type="int" name="KPOINT">    -1     0     0     0</v>
   <i type="logical" name="LTCTC"> F  </i>
   <i type="logical" name="LTCTE"> F  </i>
   <i type="logical" name="LTETE"> F  </i>
   <i type="logical" name="LTRIPLET"> F  </i>
   <i type="logical" name="LFXCEPS"> F  </i>
   <i type="logical" name="LFXHEG"> F  </i>
   <i type="int" name="NATURALO">     2</i>
   <i type="logical" name="LHOLEGF"> F  </i>
   <i type="logical" name="L2ORDER"> F  </i>
   <i type="logical" name="LDMP1"> F  </i>
   <i type="logical" name="LMP2LT"> F  </i>
   <i type="logical" name="LSMP2LT"> F  </i>
   <i type="logical" name="LGWLF"> F  </i>
   <i name="ENCUTGW">     -2.00000000</i>
   <i name="ENCUTGWSOFT">     -2.00000000</i>
   <i name="ENCUTLF">     -1.00000000</i>
   <i type="logical" name="LESF_SPLINES"> F  </i>
   <i type="int" name="LMAXMP2">    -1</i>
   <i name="SCISSOR">      0.00000000</i>
   <i type="int" name="NOMEGA">     0</i>
   <i type="int" name="NOMEGAR">     0</i>
   <i type="int" name="NBANDSGW">    -1</i>
   <i type="int" name="NBANDSO">    -1</i>
   <i type="int" name="NBANDSV">    -1</i>
   <i type="int" name="NELMGW">     1</i>
   <i type="int" name="NELMHF">     1</i>
   <i type="int" name="DIM">     3</i>
   <i type="int" name="IESPILON">     4</i>
   <i type="int" name="ANTIRES">     0</i>
   <i name="OMEGAMAX">    -30.00000000</i>
   <i name="OMEGAMIN">    -30.00000000</i>
   <i name="OMEGATL">   -200.00000000</i>
   <i type="int" name="OMEGAGRID">     0</i>
   <i name="CSHIFT">     -0.10000000</i>
   <i type="logical" name="LSELFENERGY"> F  </i>
   <i type="logical" name="LSPECTRAL"> F  </i>
   <i type="logical" name="LSPECTRALGW"> F  </i>
   <i type="logical" name="LSINGLES"> F  </i>
   <i type="logical" name="LFERMIGW"> F  </i>
   <i type="logical" name="ODDONLYGW"> F  </i>
   <i type="logical" name="EVENONLYGW"> F  </i>
   <i type="int" name="NKREDLFX">     1</i>
   <i type="int" name="NKREDLFY">     1</i>
   <i type="int" name="NKREDLFZ">     1</i>
   <i type="int" name="MAXMEM">  2800</i>
   <i type="int" name="TELESCOPE">     0</i>
   <i type="int" name="NTAUPAR">    -1</i>
   <i type="int" name="NOMEGAPAR">    -1</i>
   <i name="DAMP_NEWTON">      0.80000001</i>
   <i name="LAMBDA">      1.00000000</i>
  </separator>
  <separator name="External order field" >
   <i name="OFIELD_KAPPA">      0.00000000</i>
   <v name="OFIELD_K">      0.00000000      0.00000000      0.00000000</v>
   <i name="OFIELD_Q6_NEAR">      0.00000000</i>
   <i name="OFIELD_Q6_FAR">      0.00000000</i>
   <i name="OFIELD_A">      0.00000000</i>
  </separator>
  <separator name="optional k-points parameters" >
   <i type="int" name="KPOINTS_OPT_MODE">     1</i>
   <i type="logical" name="LKPOINTS_OPT"> F  </i>
  </separator>
  <separator name="solvation model" >
   <i type="logical" name="LSOL"> F  </i>
  </separator>
 </parameters>
 <atominfo>
  <atoms>      16 </atoms>
  <types>       2 </types>
  <array name="atoms" >
   <dimension dim="1">ion</dimension>
   <field type="string">element</field>
   <field type="int">atomtype</field>
   <set>
    <rc><c>B </c><c>   1</c></rc>
    <rc><c>B </c><c>   1</c></rc>
    <rc><c>C </c><c>   2</c></rc>
    <rc><c>C </c><c>   2</c></rc>
    <rc><c>C </c><c>   2</c></rc>
    <rc><c>C </c><c>   2</c></rc>
    <rc><c>C </c><c>   2</c></rc>
    <rc><c>C </c><c>   2</c></rc>
    <rc><c>C </c><c>   2</c></rc>
    <rc><c>C </c><c>   2</c></rc>
    <rc><c>C </c><c>   2</c></rc>
    <rc><c>C </c><c>   2</c></rc>
    <rc><c>C </c><c>   2</c></rc>
    <rc><c>C </c><c>   2</c></rc>
    <rc><c>C </c><c>   2</c></rc>
    <rc><c>C </c><c>   2</c></rc>
   </set>
  </array>
  <array name="atomtypes" >
   <dimension dim="1">type</dimension>
   <field type="int">atomspertype</field>
   <field type="string">element</field>
   <field>mass</field>
   <field>valence</field>
   <field type="string">pseudopotential</field>
   <set>
    <rc><c>   2</c><c>B </c><c>     10.81100000</c><c>      3.00000000</c><c>  PAW_PBE B 06Sep2000                   </c></rc>
    <rc><c>  14</c><c>C </c><c>     12.01100000</c><c>      4.00000000</c><c>  PAW_PBE C 08Apr2002                   </c></rc>
   </set>
  </array>
 </atominfo>
 <structure name="initialpos" >
  <crystal>
   <varray name="basis" >
    <v>       4.36823214       2.52200000       0.00000000 </v>
    <v>      -4.36823214       2.52200000       0.00000000 </v>
    <v>       0.00000000       0.00000000      15.00000000 </v>
   </varray>
   <i name="volume">    330.50044346 </i>
   <varray name="rec_basis" >
    <v>       0.11446278       0.19825535       0.00000000 </v>
    <v>      -0.11446278       0.19825535       0.00000000 </v>
    <v>       0.00000000       0.00000000       0.06666667 </v>
   </varray>
  </crystal>
  <varray name="positions" >
   <v>       0.33833034       0.66916432       0.10000000 </v>
   <v>       0.67165522       0.33584146       0.10000000 </v>
   <v>       0.16373946       0.31999962       0.10000000 </v>
   <v>       0.32250218       0.16126397       0.10000000 </v>
   <v>       0.16376430       0.84376384       0.10000000 </v>
   <v>       0.84623863       0.16123684       0.10000000 </v>
   <v>       0.68749850       0.84373000       0.10000000 </v>
   <v>       0.84626736       0.68499594       0.10000000 </v>
   <v>       0.33333267       0.16666633       0.35120000 </v>
   <v>       0.49999967       0.99999933       0.35120000 </v>
   <v>       0.33333267       0.66666633       0.35120000 </v>
   <v>       0.49999967       0.49999933       0.35120000 </v>
   <v>       0.83333267       0.16666633       0.35120000 </v>
   <v>       0.99999967       0.99999933       0.35120000 </v>
   <v>       0.83333267       0.66666633       0.35120000 </v>
   <v>       0.99999967       0.49999933       0.35120000 </v>
  </varray>
 </structure>
 <calculation>
  <scstep>
   <time name="dav">   22.09   22.09</time>
   <time name="total">   22.13   22.13</time>
   <energy>
    <i name="alphaZ">     62.53960761 </i>
    <i name="ewald">   4665.29061569 </i>
    <i name="hartreedc">  -6484.04545450 </i>
    <i name="XCdc">    196.87491194 </i>
    <i name="pawpsdc">   1606.30838033 </i>
    <i name="pawaedc">  -1612.56942176 </i>
    <i name="eentropy">     -0.01382586 </i>
    <i name="bandstr">   -317.82944847 </i>
    <i name="atom">   2202.35892741 </i>
    <i name="e_fr_energy">    318.91429238 </i>
    <i name="e_wo_entrp">    318.92811825 </i>
    <i name="e_0_energy">    318.92120532 </i>
   </energy>
  </scstep>
  <scstep>
   <time name="dav">   26.22   26.22</time>
   <time name="total">   26.22   26.22</time>
   <energy>
    <i name="e_fr_energy">   -119.59865921 </i>
    <i name="e_wo_entrp">   -119.58623614 </i>
    <i name="e_0_energy">   -119.59244767 </i>
   </energy>
  </scstep>
  <scstep>
   <time name="dav">   30.14   30.14</time>
   <time name="total">   30.14   30.15</time>
   <energy>
    <i name="e_fr_energy">   -151.51345124 </i>
    <i name="e_wo_entrp">   -151.50104946 </i>
    <i name="e_0_energy">   -151.50725035 </i>
   </energy>
  </scstep>
  <scstep>
   <time name="dav">   28.72   28.72</time>
   <time name="total">   28.72   28.73</time>
   <energy>
    <i name="e_fr_energy">   -151.98812172 </i>
    <i name="e_wo_entrp">   -151.97571003 </i>
    <i name="e_0_energy">   -151.98191587 </i>
   </energy>
  </scstep>
  <scstep>
   <time name="dav">   29.88   29.88</time>
   <time name="total">   30.89   30.89</time>
   <energy>
    <i name="e_fr_energy">   -152.00458956 </i>
    <i name="e_wo_entrp">   -151.99217790 </i>
    <i name="e_0_energy">   -151.99838373 </i>
   </energy>
  </scstep>
  <scstep>
   <time name="dav">   30.14   30.14</time>
   <time name="total">   31.18   31.18</time>
   <energy>
    <i name="e_fr_energy">   -143.46584131 </i>
    <i name="e_wo_entrp">   -143.46010046 </i>
    <i name="e_0_energy">   -143.46297089 </i>
   </energy>
  </scstep>
  <scstep>
   <time name="dav">   30.19   30.19</time>
   <time name="total">   31.21   31.30</time>
   <energy>
    <i name="e_fr_energy">   -140.53626322 </i>
    <i name="e_wo_entrp">   -140.53337463 </i>
    <i name="e_0_energy">   -140.53481893 </i>
   </energy>
  </scstep>
  <scstep>
   <time name="dav">   28.47   28.47</time>
   <time name="total">   29.50   29.50</time>
   <energy>
    <i name="e_fr_energy">   -140.49479718 </i>
    <i name="e_wo_entrp">   -140.49309538 </i>
    <i name="e_0_energy">   -140.49394628 </i>
   </energy>
  </scstep>
  <scstep>
   <time name="dav">   27.74   27.75</time>
   <time name="total">   28.76   28.77</time>
   <energy>
    <i name="e_fr_energy">   -140.47911296 </i>
    <i name="e_wo_entrp">   -140.47747802 </i>
    <i name="e_0_energy">   -140.47829549 </i>
   </energy>
  </scstep>
  <scstep>
   <time name="dav">   27.76   27.76</time>
   <time name="total">   28.78   28.78</time>
   <energy>
    <i name="e_fr_energy">   -140.46999966 </i>
    <i name="e_wo_entrp">   -140.46829970 </i>
    <i name="e_0_energy">   -140.46914968 </i>
   </energy>
  </scstep>
  <scstep>
   <time name="dav">   28.05   28.05</time>
   <time name="total">   29.06   29.06</time>
   <energy>
    <i name="e_fr_energy">   -140.46270784 </i>
    <i name="e_wo_entrp">   -140.46097913 </i>
    <i name="e_0_energy">   -140.46184349 </i>
   </energy>
  </scstep>
  <scstep>
   <time name="dav">   24.61   24.61</time>
   <time name="total">   25.65   25.66</time>
   <energy>
    <i name="e_fr_energy">   -140.46214428 </i>
    <i name="e_wo_entrp">   -140.46036863 </i>
    <i name="e_0_energy">   -140.46125645 </i>
   </energy>
  </scstep>
  <scstep>
   <time name="dav">   24.72   24.72</time>
   <time name="total">   25.74   25.74</time>
   <energy>
    <i name="e_fr_energy">   -140.46447643 </i>
    <i name="e_wo_entrp">   -140.46267445 </i>
    <i name="e_0_energy">   -140.46357544 </i>
   </energy>
  </scstep>
  <scstep>
   <time name="dav">   25.97   25.97</time>
   <time name="total">   26.99   26.99</time>
   <energy>
    <i name="e_fr_energy">   -140.46650820 </i>
    <i name="e_wo_entrp">   -140.46471141 </i>
    <i name="e_0_energy">   -140.46560981 </i>
   </energy>
  </scstep>
  <scstep>
   <time name="dav">   25.54   25.54</time>
   <time name="total">   26.55   26.56</time>
   <energy>
    <i name="e_fr_energy">   -140.46744316 </i>
    <i name="e_wo_entrp">   -140.46564718 </i>
    <i name="e_0_energy">   -140.46654517 </i>
   </energy>
  </scstep>
  <scstep>
   <time name="dav">   26.38   26.38</time>
   <time name="total">   27.40   27.40</time>
   <energy>
    <i name="e_fr_energy">   -140.46765317 </i>
    <i name="e_wo_entrp">   -140.46585859 </i>
    <i name="e_0_energy">   -140.46675588 </i>
   </energy>
  </scstep>
  <scstep>
   <time name="dav">   25.82   25.82</time>
   <time name="total">   26.83   26.83</time>
   <energy>
    <i name="e_fr_energy">   -140.46768495 </i>
    <i name="e_wo_entrp">   -140.46589144 </i>
    <i name="e_0_energy">   -140.46678819 </i>
   </energy>
  </scstep>
  <scstep>
   <time name="dav">   21.61   21.61</time>
   <time name="total">   22.64   22.64</time>
   <energy>
    <i name="e_fr_energy">   -140.46769224 </i>
    <i name="e_wo_entrp">   -140.46589967 </i>
    <i name="e_0_energy">   -140.46679596 </i>
   </energy>
  </scstep>
  <scstep>
   <time name="dav">   21.17   21.17</time>
   <time name="total">   22.18   22.18</time>
   <energy>
    <i name="e_fr_energy">   -140.46769448 </i>
    <i name="e_wo_entrp">   -140.46590269 </i>
    <i name="e_0_energy">   -140.46679858 </i>
   </energy>
  </scstep>
  <scstep>
   <time name="dav">   24.82   24.82</time>
   <time name="total">   24.84   24.84</time>
   <energy>
    <i name="alphaZ">     62.53960761 </i>
    <i name="ewald">   4665.29061569 </i>
    <i name="hartreedc">  -6715.76084985 </i>
    <i name="XCdc">    206.28095549 </i>
    <i name="pawpsdc">   6311.52243178 </i>
    <i name="pawaedc">  -6319.53297300 </i>
    <i name="eentropy">     -0.00179159 </i>
    <i name="bandstr">   -553.16461862 </i>
    <i name="atom">   2202.35892741 </i>
    <i name="e_fr_energy">   -140.46769508 </i>
    <i name="e_wo_entrp">   -140.46590350 </i>
    <i name="e_0_energy">   -140.46679929 </i>
   </energy>
  </scstep>
  <structure>
   <crystal>
    <varray name="basis" >
     <v>       4.36823214       2.52200000       0.00000000 </v>
     <v>      -4.36823214       2.52200000       0.00000000 </v>
     <v>       0.00000000       0.00000000      15.00000000 </v>
    </varray>
    <i name="volume">    330.50044346 </i>
    <varray name="rec_basis" >
     <v>       0.11446278       0.19825535       0.00000000 </v>
     <v>      -0.11446278       0.19825535       0.00000000 </v>
     <v>       0.00000000       0.00000000       0.06666667 </v>
    </varray>
   </crystal>
   <varray name="positions" >
    <v>       0.33833034       0.66916432       0.10000000 </v>
    <v>       0.67165522       0.33584146       0.10000000 </v>
    <v>       0.16373946       0.31999962       0.10000000 </v>
    <v>       0.32250218       0.16126397       0.10000000 </v>
    <v>       0.16376430       0.84376384       0.10000000 </v>
    <v>       0.84623863       0.16123684       0.10000000 </v>
    <v>       0.68749850       0.84373000       0.10000000 </v>
    <v>       0.84626736       0.68499594       0.10000000 </v>
    <v>       0.33333267       0.16666633       0.35120000 </v>
    <v>       0.49999967       0.99999933       0.35120000 </v>
    <v>       0.33333267       0.66666633       0.35120000 </v>
    <v>       0.49999967       0.49999933       0.35120000 </v>
    <v>       0.83333267       0.16666633       0.35120000 </v>
    <v>       0.99999967       0.99999933       0.35120000 </v>
    <v>       0.83333267       0.66666633       0.35120000 </v>
    <v>       0.99999967       0.49999933       0.35120000 </v>
   </varray>
  </structure>
  <varray name="forces" >
   <v>       0.00046333       0.00072882       0.04165790 </v>
   <v>       0.00506513       0.00055788       0.02361969 </v>
   <v>      -0.28750385       0.49714544       0.02104623 </v>
   <v>       0.28361769       0.49043892       0.02773463 </v>
   <v>       0.57533442      -0.00042827       0.02104690 </v>
   <v>      -0.56943378      -0.00071022       0.02770193 </v>
   <v>      -0.28862585      -0.49585145       0.02099730 </v>
   <v>       0.28096540      -0.49210137       0.02770103 </v>
   <v>      -0.00084117      -0.00168939      -0.02363782 </v>
   <v>      -0.00607771       0.00965077      -0.02130581 </v>
   <v>      -0.00002941      -0.00027674      -0.04800583 </v>
   <v>       0.01119454      -0.00032143      -0.02130746 </v>
   <v>       0.00220950       0.00013894      -0.02396905 </v>
   <v>       0.00001048       0.00025209      -0.02809981 </v>
   <v>      -0.00078491       0.00186967      -0.02396750 </v>
   <v>      -0.00556380      -0.00940366      -0.02121233 </v>
  </varray>
  <varray name="stress" >
   <v>       1.70021403       0.00033867       0.00109351 </v>
   <v>       0.00033867       1.70614041       0.00187018 </v>
   <v>       0.00109348       0.00187017      -6.22964293 </v>
  </varray>
  <energy>
   <i name="e_fr_energy">   -142.22607399 </i>
   <i name="e_wo_entrp">   -142.22428241 </i>
   <i name="e_0_energy">   -142.22517820 </i>
  </energy>
  <time name="totalsc">  571.03  571.17</time>
 </calculation>
 <calculation>
  <scstep>
   <time name="dav">   21.94   21.94</time>
   <time name="total">   22.96   22.96</time>
   <energy>
    <i name="alphaZ">     62.53960761 </i>
    <i name="ewald">   4661.83851325 </i>
    <i name="hartreedc">  -6714.67654816 </i>
    <i name="XCdc">    206.14305019 </i>
    <i name="pawpsdc">   6311.53351561 </i>
    <i name="pawaedc">  -6319.54405279 </i>
    <i name="eentropy">     -0.00381900 </i>
    <i name="bandstr">   -550.60660662 </i>
    <i name="atom">   2202.35892741 </i>
    <i name="e_fr_energy">   -140.41741250 </i>
    <i name="e_wo_entrp">   -140.41359350 </i>
    <i name="e_0_energy">   -140.41550300 </i>
   </energy>
  </scstep>
  <scstep>
   <time name="dav">   27.55   27.55</time>
   <time name="total">   28.58   28.58</time>
   <energy>
    <i name="e_fr_energy">   -140.38803296 </i>
    <i name="e_wo_entrp">   -140.38461055 </i>
    <i name="e_0_energy">   -140.38632176 </i>
   </energy>
  </scstep>
  <scstep>
   <time name="dav">   29.19   29.19</time>
   <time name="total">   30.20   30.21</time>
   <energy>
    <i name="e_fr_energy">   -140.38408753 </i>
    <i name="e_wo_entrp">   -140.38100383 </i>
    <i name="e_0_energy">   -140.38254568 </i>
   </energy>
  </scstep>
  <scstep>
   <time name="dav">   25.40   25.40</time>
   <time name="total">   26.42   26.42</time>
   <energy>
    <i name="e_fr_energy">   -140.38414708 </i>
    <i name="e_wo_entrp">   -140.38107654 </i>
    <i name="e_0_energy">   -140.38261181 </i>
   </energy>
  </scstep>
  <scstep>
   <time name="dav">   25.71   25.71</time>
   <time name="total">   26.73   26.73</time>
   <energy>
    <i name="e_fr_energy">   -140.38412467 </i>
    <i name="e_wo_entrp">   -140.38115643 </i>
    <i name="e_0_energy">   -140.38264055 </i>
   </energy>
  </scstep>
  <scstep>
   <time name="dav">   27.84   27.84</time>
   <time name="total">   28.86   28.87</time>
   <energy>
    <i name="e_fr_energy">   -140.38412789 </i>
    <i name="e_wo_entrp">   -140.38114974 </i>
    <i name="e_0_energy">   -140.38263882 </i>
   </energy>
  </scstep>
  <scstep>
   <time name="dav">   30.45   30.45</time>
   <time name="total">   31.46   31.46</time>
   <energy>
    <i name="e_fr_energy">   -140.38413957 </i>
    <i name="e_wo_entrp">   -140.38116450 </i>
    <i name="e_0_energy">   -140.38265204 </i>
   </energy>
  </scstep>
  <scstep>
   <time name="dav">   26.25   26.25</time>
   <time name="total">   27.26   27.27</time>
   <energy>
    <i name="e_fr_energy">   -140.38414801 </i>
    <i name="e_wo_entrp">   -140.38117747 </i>
    <i name="e_0_energy">   -140.38266274 </i>
   </energy>
  </scstep>
  <scstep>
   <time name="dav">   24.36   24.36</time>
   <time name="total">   25.37   25.37</time>
   <energy>
    <i name="e_fr_energy">   -140.38416062 </i>
    <i name="e_wo_entrp">   -140.38119476 </i>
    <i name="e_0_energy">   -140.38267769 </i>
   </energy>
  </scstep>
  <scstep>
   <time name="dav">   23.13   23.13</time>
   <time name="total">   24.15   24.15</time>
   <energy>
    <i name="e_fr_energy">   -140.38416293 </i>
    <i name="e_wo_entrp">   -140.38119654 </i>
    <i name="e_0_energy">   -140.38267973 </i>
   </energy>
  </scstep>
  <scstep>
   <time name="dav">   23.19   23.19</time>
   <time name="total">   24.21   24.22</time>
   <energy>
    <i name="e_fr_energy">   -140.38416787 </i>
    <i name="e_wo_entrp">   -140.38120237 </i>
    <i name="e_0_energy">   -140.38268512 </i>
   </energy>
  </scstep>
  <scstep>
   <time name="dav">   25.76   25.76</time>
   <time name="total">   25.78   25.78</time>
   <energy>
    <i name="alphaZ">     62.53960761 </i>
    <i name="ewald">   4661.83851325 </i>
    <i name="hartreedc">  -6712.09885335 </i>
    <i name="XCdc">    206.03816308 </i>
    <i name="pawpsdc">   6270.91857440 </i>
    <i name="pawaedc">  -6278.91510917 </i>
    <i name="eentropy">     -0.00296530 </i>
    <i name="bandstr">   -553.06102609 </i>
    <i name="atom">   2202.35892741 </i>
    <i name="e_fr_energy">   -140.38416816 </i>
    <i name="e_wo_entrp">   -140.38120286 </i>
    <i name="e_0_energy">   -140.38268551 </i>
   </energy>
  </scstep>
  <structure>
   <crystal>
    <varray name="basis" >
     <v>       4.36823214       2.52200000       0.00000000 </v>
     <v>      -4.36823214       2.52200000       0.00000000 </v>
     <v>       0.00000000       0.00000000      15.00000000 </v>
    </varray>
    <i name="volume">    330.50044346 </i>
    <varray name="rec_basis" >
     <v>       0.11446278       0.19825535       0.00000000 </v>
     <v>      -0.11446278       0.19825535       0.00000000 </v>
     <v>       0.00000000       0.00000000       0.06666667 </v>
    </varray>
   </crystal>
   <varray name="positions" >
    <v>       0.33833987       0.66916873       0.10013398 </v>
    <v>       0.67168852       0.33581883       0.10007597 </v>
    <v>       0.16690675       0.32634210       0.10006769 </v>
    <v>       0.32875905       0.16438857       0.10008920 </v>
    <v>       0.16693719       0.84058275       0.10006769 </v>
    <v>       0.84308743       0.16437446       0.10008909 </v>
    <v>       0.68116221       0.84058129       0.10006753 </v>
    <v>       0.84311221       0.67873782       0.10008909 </v>
    <v>       0.33331186       0.16665482       0.35112398 </v>
    <v>       0.50005841       0.00012520       0.35113148 </v>
    <v>       0.33332986       0.66666385       0.35104560 </v>
    <v>       0.50005841       0.49993444       0.35113147 </v>
    <v>       0.83334620       0.16665546       0.35112291 </v>
    <v>       0.00000214       0.00000169       0.35110963 </v>
    <v>       0.83334621       0.66668855       0.35112292 </v>
    <v>       0.99987900       0.49994012       0.35113178 </v>
   </varray>
  </structure>
  <varray name="forces" >
   <v>       0.00047993      -0.00089695       0.02574771 </v>
   <v>      -0.01226473      -0.00163961       0.02228086 </v>
   <v>       0.76075440      -1.31721212       0.03020389 </v>
   <v>      -0.74849865      -1.29953697       0.02377418 </v>
   <v>      -1.52542024      -0.00232191       0.03020253 </v>
   <v>       1.51104018       0.00476026       0.02377958 </v>
   <v>       0.75959523       1.31389806       0.03016967 </v>
   <v>      -0.74574097       1.30282679       0.02378329 </v>
   <v>       0.00262414       0.00534273      -0.02351952 </v>
   <v>       0.01463450      -0.02297812      -0.02847759 </v>
   <v>      -0.00003207       0.00070651      -0.02715386 </v>
   <v>      -0.02654736       0.00079807      -0.02847209 </v>
   <v>      -0.00677690      -0.00018244      -0.02356554 </v>
   <v>       0.00015797      -0.00050278      -0.02667819 </v>
   <v>       0.00254895      -0.00557699      -0.02357148 </v>
   <v>       0.01344563       0.02251546      -0.02850343 </v>
  </varray>
  <varray name="stress" >
   <v>      -5.72750188      -0.01628504       0.00087867 </v>
   <v>      -0.01628501      -5.77630943       0.00152271 </v>
   <v>       0.00087866       0.00152268      -6.21022508 </v>
  </varray>
  <energy>
   <i name="e_fr_energy">   -142.14754405 </i>
   <i name="e_wo_entrp">   -142.14457875 </i>
   <i name="e_0_energy">   -142.14606140 </i>
  </energy>
  <time name="totalsc">  347.60  347.63</time>
 </calculation>
 <calculation>
  <scstep>
   <time name="dav">   21.96   21.96</time>
   <time name="total">   22.97   22.97</time>
   <energy>
    <i name="alphaZ">     62.53960761 </i>
    <i name="ewald">   4664.12567684 </i>
    <i name="hartreedc">  -6712.61144832 </i>
    <i name="XCdc">    206.13091317 </i>
    <i name="pawpsdc">   6270.91545067 </i>
    <i name="pawaedc">  -6278.91200254 </i>
    <i name="eentropy">     -0.00119936 </i>
    <i name="bandstr">   -555.04217218 </i>
    <i name="atom">   2202.35892741 </i>
    <i name="e_fr_energy">   -140.49624671 </i>
    <i name="e_wo_entrp">   -140.49504735 </i>
    <i name="e_0_energy">   -140.49564703 </i>
   </energy>
  </scstep>
  <scstep>
   <time name="dav">   27.48   27.48</time>
   <time name="total">   28.49   28.49</time>
   <energy>
    <i name="e_fr_energy">   -140.48128595 </i>
    <i name="e_wo_entrp">   -140.47969500 </i>
    <i name="e_0_energy">   -140.48049048 </i>
   </energy>
  </scstep>
  <scstep>
   <time name="dav">   28.40   28.40</time>
   <time name="total">   29.41   29.42</time>
   <energy>
    <i name="e_fr_energy">   -140.47894472 </i>
    <i name="e_wo_entrp">   -140.47702645 </i>
    <i name="e_0_energy">   -140.47798558 </i>
   </energy>
  </scstep>
  <scstep>
   <time name="dav">   26.90   26.90</time>
   <time name="total">   27.93   27.93</time>
   <energy>
    <i name="e_fr_energy">   -140.47891967 </i>
    <i name="e_wo_entrp">   -140.47694560 </i>
    <i name="e_0_energy">   -140.47793264 </i>
   </energy>
  </scstep>
  <scstep>
   <time name="dav">   23.73   23.73</time>
   <time name="total">   24.75   24.75</time>
   <energy>
    <i name="e_fr_energy">   -140.47890860 </i>
    <i name="e_wo_entrp">   -140.47681435 </i>
    <i name="e_0_energy">   -140.47786147 </i>
   </energy>
  </scstep>
  <scstep>
   <time name="dav">   29.13   29.13</time>
   <time name="total">   30.14   30.14</time>
   <energy>
    <i name="e_fr_energy">   -140.47890732 </i>
    <i name="e_wo_entrp">   -140.47679653 </i>
    <i name="e_0_energy">   -140.47785192 </i>
   </energy>
  </scstep>
  <scstep>
   <time name="dav">   29.19   29.19</time>
   <time name="total">   30.20   30.20</time>
   <energy>
    <i name="e_fr_energy">   -140.47891092 </i>
    <i name="e_wo_entrp">   -140.47678100 </i>
    <i name="e_0_energy">   -140.47784596 </i>
   </energy>
  </scstep>
  <scstep>
   <time name="dav">   24.42   24.42</time>
   <time name="total">   25.45   25.45</time>
   <energy>
    <i name="e_fr_energy">   -140.47891406 </i>
    <i name="e_wo_entrp">   -140.47678117 </i>
    <i name="e_0_energy">   -140.47784761 </i>
   </energy>
  </scstep>
  <scstep>
   <time name="dav">   20.14   20.15</time>
   <time name="total">   21.16   21.16</time>
   <energy>
    <i name="e_fr_energy">   -140.47892250 </i>
    <i name="e_wo_entrp">   -140.47678167 </i>
    <i name="e_0_energy">   -140.47785209 </i>
   </energy>
  </scstep>
  <scstep>
   <time name="dav">   21.44   21.44</time>
   <time name="total">   22.45   22.46</time>
   <energy>
    <i name="e_fr_energy">   -140.47892528 </i>
    <i name="e_wo_entrp">   -140.47678455 </i>
    <i name="e_0_energy">   -140.47785492 </i>
   </energy>
  </scstep>
  <scstep>
   <time name="dav">   19.08   19.08</time>
   <time name="total">   20.10   20.10</time>
   <energy>
    <i name="e_fr_energy">   -140.47892811 </i>
    <i name="e_wo_entrp">   -140.47678729 </i>
    <i name="e_0_energy">   -140.47785770 </i>
   </energy>
  </scstep>
  <scstep>
   <time name="dav">   23.87   23.87</time>
   <time name="total">   23.89   23.89</time>
   <energy>
    <i name="alphaZ">     62.53960761 </i>
    <i name="ewald">   4664.12567684 </i>
    <i name="hartreedc">  -6714.58212008 </i>
    <i name="XCdc">    206.21019775 </i>
    <i name="pawpsdc">   6297.85246273 </i>
    <i name="pawaedc">  -6305.85813028 </i>
    <i name="eentropy">     -0.00214076 </i>
    <i name="bandstr">   -553.12340975 </i>
    <i name="atom">   2202.35892741 </i>
    <i name="e_fr_energy">   -140.47892852 </i>
    <i name="e_wo_entrp">   -140.47678777 </i>
    <i name="e_0_energy">   -140.47785815 </i>
   </energy>
  </scstep>
  <structure>
   <crystal>
    <varray name="basis" >
     <v>       4.36823214       2.52200000       0.00000000 </v>
     <v>      -4.36823214       2.52200000       0.00000000 </v>
     <v>       0.00000000       0.00000000      15.00000000 </v>
    </varray>
    <i name="volume">    330.50044346 </i>
    <varray name="rec_basis" >
     <v>       0.11446278       0.19825535       0.00000000 </v>
     <v>      -0.11446278       0.19825535       0.00000000 </v>
     <v>       0.00000000       0.00000000       0.06666667 </v>
    </varray>
   </crystal>
   <varray name="positions" >
    <v>       0.33833293       0.66916552       0.10003636 </v>
    <v>       0.67166425       0.33583532       0.10002062 </v>
    <v>       0.16459902       0.32172087       0.10001837 </v>
    <v>       0.32420020       0.16211193       0.10002421 </v>
    <v>       0.16462537       0.84290054       0.10001837 </v>
    <v>       0.84538345       0.16208834       0.10002418 </v>
    <v>       0.68577893       0.84287549       0.10001833 </v>
    <v>       0.84541110       0.68329759       0.10002418 </v>
    <v>       0.33332702       0.16666321       0.35117937 </v>
    <v>       0.50001561       0.00003349       0.35118140 </v>
    <v>       0.33333190       0.66666566       0.35115810 </v>
    <v>       0.50001561       0.49998172       0.35118140 </v>
    <v>       0.83333634       0.16666338       0.35117908 </v>
    <v>       0.00000034      -0.00000003       0.35117547 </v>
    <v>       0.83333634       0.66667236       0.35117908 </v>
    <v>       0.99996692       0.49998326       0.35118149 </v>
   </varray>
  </structure>
  <varray name="forces" >
   <v>       0.00044069       0.00030239       0.03716036 </v>
   <v>       0.00069328      -0.00001692       0.02335759 </v>
   <v>       0.00154546      -0.00321314       0.02354108 </v>
   <v>      -0.00125120      -0.00358164       0.02668114 </v>
   <v>      -0.00394951      -0.00104369       0.02354139 </v>
   <v>       0.00433990       0.00090867       0.02667657 </v>
   <v>       0.00040947       0.00313796       0.02348545 </v>
   <v>      -0.00230725       0.00335017       0.02667767 </v>
   <v>       0.00009386       0.00021057      -0.02359465 </v>
   <v>      -0.00047579       0.00081421      -0.02325519 </v>
   <v>      -0.00003336      -0.00001443      -0.04241066 </v>
   <v>       0.00097854      -0.00002530      -0.02325526 </v>
   <v>      -0.00022438       0.00004870      -0.02385003 </v>
   <v>       0.00004759       0.00004140      -0.02771151 </v>
   <v>       0.00011413      -0.00014831      -0.02385020 </v>
   <v>      -0.00042141      -0.00077066      -0.02319376 </v>
  </varray>
  <varray name="stress" >
   <v>      -0.80834823      -0.00525705       0.00104750 </v>
   <v>      -0.00525705      -0.81630554       0.00180787 </v>
   <v>       0.00104747       0.00180784      -6.22418345 </v>
  </varray>
  <energy>
   <i name="e_fr_energy">   -142.23892559 </i>
   <i name="e_wo_entrp">   -142.23678483 </i>
   <i name="e_0_energy">   -142.23785521 </i>
  </energy>
  <time name="totalsc">  332.58  332.60</time>
 </calculation>
 <calculation>
  <scstep>
   <time name="dav">   21.95   21.95</time>
   <time name="total">   22.96   22.97</time>
   <energy>
    <i name="alphaZ">     62.53960761 </i>
    <i name="ewald">   4668.40143517 </i>
    <i name="hartreedc">  -6718.85763739 </i>
    <i name="XCdc">    206.21118589 </i>
    <i name="pawpsdc">   6297.84286224 </i>
    <i name="pawaedc">  -6305.84851888 </i>
    <i name="eentropy">     -0.00213701 </i>
    <i name="bandstr">   -553.12446083 </i>
    <i name="atom">   2202.35892741 </i>
    <i name="e_fr_energy">   -140.47873580 </i>
    <i name="e_wo_entrp">   -140.47659879 </i>
    <i name="e_0_energy">   -140.47766730 </i>
   </energy>
  </scstep>
  <scstep>
   <time name="dav">   25.73   25.74</time>
   <time name="total">   26.75   26.75</time>
   <energy>
    <i name="e_fr_energy">   -140.47873072 </i>
    <i name="e_wo_entrp">   -140.47659112 </i>
    <i name="e_0_energy">   -140.47766092 </i>
   </energy>
  </scstep>
  <scstep>
   <time name="dav">   25.20   25.20</time>
   <time name="total">   26.22   26.22</time>
   <energy>
    <i name="e_fr_energy">   -140.47872895 </i>
    <i name="e_wo_entrp">   -140.47659105 </i>
    <i name="e_0_energy">   -140.47766000 </i>
   </energy>
  </scstep>
  <scstep>
   <time name="dav">   23.19   23.19</time>
   <time name="total">   24.21   24.21</time>
   <energy>
    <i name="e_fr_energy">   -140.47873001 </i>
    <i name="e_wo_entrp">   -140.47659495 </i>
    <i name="e_0_energy">   -140.47766248 </i>
   </energy>
  </scstep>
  <scstep>
   <time name="dav">   18.96   18.96</time>
[...]
       <r>   -8.5992    1.0000 </r>
       <r>   -8.2331    1.0000 </r>
       <r>   -7.3610    1.0000 </r>
       <r>   -7.0602    1.0000 </r>
       <r>   -6.8148    1.0000 </r>
       <r>   -6.3978    1.0000 </r>
       <r>   -6.2395    1.0000 </r>
       <r>   -6.0662    1.0000 </r>
       <r>   -5.9707    1.0000 </r>
       <r>   -5.7995    1.0000 </r>
       <r>   -5.6808    1.0000 </r>
       <r>   -5.1039    1.0000 </r>
       <r>   -4.9064    1.0000 </r>
       <r>   -4.1358    1.0000 </r>
       <r>   -4.1068    1.0000 </r>
       <r>   -3.8552    1.0000 </r>
       <r>   -3.8080    1.0000 </r>
       <r>   -1.1944    0.9960 </r>
       <r>   -0.6382    0.0000 </r>
       <r>    0.7296    0.0000 </r>
       <r>    1.2564    0.0000 </r>
       <r>    4.6952    0.0000 </r>
       <r>    5.0646    0.0000 </r>
       <r>    5.1434    0.0000 </r>
       <r>    5.4241    0.0000 </r>
       <r>    5.4684    0.0000 </r>
       <r>    5.7047    0.0000 </r>
       <r>    5.7797    0.0000 </r>
       <r>    6.0522    0.0000 </r>
       <r>    6.3297    0.0000 </r>
       <r>    6.7703    0.0000 </r>
       <r>    6.9359    0.0000 </r>
       <r>    7.1534    0.0000 </r>
       <r>    7.2359    0.0000 </r>
       <r>    7.4593    0.0000 </r>
      </set>
      <set comment="kpoint 365">
       <r>  -17.9966    1.0000 </r>
       <r>  -17.9953    1.0000 </r>
       <r>  -17.9948    1.0000 </r>
       <r>  -17.2693    1.0000 </r>
       <r>  -15.3227    1.0000 </r>
       <r>  -15.3209    1.0000 </r>
       <r>  -13.2729    1.0000 </r>
       <r>  -13.2723    1.0000 </r>
       <r>  -10.9498    1.0000 </r>
       <r>  -10.6744    1.0000 </r>
       <r>  -10.6709    1.0000 </r>
       <r>   -8.9864    1.0000 </r>
       <r>   -8.5532    1.0000 </r>
       <r>   -8.5516    1.0000 </r>
       <r>   -8.5497    1.0000 </r>
       <r>   -7.0971    1.0000 </r>
       <r>   -7.0959    1.0000 </r>
       <r>   -7.0959    1.0000 </r>
       <r>   -6.1625    1.0000 </r>
       <r>   -6.1398    1.0000 </r>
       <r>   -6.1182    1.0000 </r>
       <r>   -5.9477    1.0000 </r>
       <r>   -5.9286    1.0000 </r>
       <r>   -5.8104    1.0000 </r>
       <r>   -5.0853    1.0000 </r>
       <r>   -4.9049    1.0000 </r>
       <r>   -4.0102    1.0000 </r>
       <r>   -4.0050    1.0000 </r>
       <r>   -4.0012    1.0000 </r>
       <r>   -3.9947    1.0000 </r>
       <r>   -0.9382    0.1655 </r>
       <r>   -0.8884    0.0468 </r>
       <r>    0.9449    0.0000 </r>
       <r>    1.0387    0.0000 </r>
       <r>    5.0775    0.0000 </r>
       <r>    5.0913    0.0000 </r>
       <r>    5.0926    0.0000 </r>
       <r>    5.4058    0.0000 </r>
       <r>    5.4185    0.0000 </r>
       <r>    5.4189    0.0000 </r>
       <r>    6.0376    0.0000 </r>
       <r>    6.0508    0.0000 </r>
       <r>    6.0523    0.0000 </r>
       <r>    7.0489    0.0000 </r>
       <r>    7.1180    0.0000 </r>
       <r>    7.1237    0.0000 </r>
       <r>    7.1932    0.0000 </r>
       <r>    7.3332    0.0000 </r>
      </set>
     </set>
    </set>
   </array>
  </eigenvalues>
  <separator name="orbital magnetization" >
   <v name="MAGDIPOLOUT">      0.00000000      0.00000000      0.00000000</v>
  </separator>
  <dos>
   <i name="efermi">     -1.00691464 </i>
   <total>
    <array>
     <dimension dim="1">gridpoints</dimension>
     <dimension dim="2">spin</dimension>
     <field>energy</field>
     <field>total</field>
     <field>integrated</field>
     <set>
      <set comment="spin 1">
       <r>   -21.2768     0.0000     0.0000 </r>
       <r>   -21.1733     0.0000     0.0000 </r>
       <r>   -21.0697     0.0000     0.0000 </r>
       <r>   -20.9661     0.0000     0.0000 </r>
       <r>   -20.8625     0.0000     0.0000 </r>
       <r>   -20.7590     0.0000     0.0000 </r>
       <r>   -20.6554     0.0000     0.0000 </r>
       <r>   -20.5518     0.0000     0.0000 </r>
       <r>   -20.4482     0.0000     0.0000 </r>
       <r>   -20.3447     0.0000     0.0000 </r>
       <r>   -20.2411     0.0000     0.0000 </r>
       <r>   -20.1375     0.0000     0.0000 </r>
       <r>   -20.0340     0.0024     0.0002 </r>
       <r>   -19.9304     0.0801     0.0085 </r>
       <r>   -19.8268     0.5460     0.0651 </r>
       <r>   -19.7232     1.1221     0.1813 </r>
       <r>   -19.6197     1.2726     0.3131 </r>
       <r>   -19.5161     1.2817     0.4459 </r>
       <r>   -19.4125     1.2834     0.5788 </r>
       <r>   -19.3089     1.2851     0.7119 </r>
       <r>   -19.2054     1.2868     0.8452 </r>
       <r>   -19.1018     1.2893     0.9787 </r>
       <r>   -18.9982     1.2916     1.1125 </r>
       <r>   -18.8946     1.2901     1.2461 </r>
       <r>   -18.7911     1.2956     1.3803 </r>
       <r>   -18.6875     1.3012     1.5151 </r>
       <r>   -18.5839     1.2895     1.6486 </r>
       <r>   -18.4803     1.3127     1.7846 </r>
       <r>   -18.3768     1.2942     1.9186 </r>
       <r>   -18.2732     1.3108     2.0544 </r>
       <r>   -18.1696     1.3149     2.1906 </r>
       <r>   -18.0660     1.4481     2.3406 </r>
       <r>   -17.9625     2.1732     2.5657 </r>
       <r>   -17.8589     2.9422     2.8704 </r>
       <r>   -17.7553     3.2483     3.2069 </r>
       <r>   -17.6518     3.4466     3.5638 </r>
       <r>   -17.5482     3.7528     3.9525 </r>
       <r>   -17.4446     4.5216     4.4208 </r>
       <r>   -17.3410     5.2731     4.9670 </r>
       <r>   -17.2375     3.8484     5.3656 </r>
       <r>   -17.1339     1.7830     5.5503 </r>
       <r>   -17.0303     1.4422     5.6997 </r>
       <r>   -16.9267     1.3081     5.8351 </r>
       <r>   -16.8232     1.3537     5.9753 </r>
       <r>   -16.7196     1.4055     6.1209 </r>
       <r>   -16.6160     1.2764     6.2531 </r>
       <r>   -16.5124     1.4608     6.4044 </r>
       <r>   -16.4089     1.3148     6.5406 </r>
       <r>   -16.3053     1.3706     6.6826 </r>
       <r>   -16.2017     1.4681     6.8346 </r>
       <r>   -16.0981     1.2828     6.9675 </r>
       <r>   -15.9946     1.4851     7.1213 </r>
       <r>   -15.8910     1.4263     7.2690 </r>
       <r>   -15.7874     1.3724     7.4112 </r>
       <r>   -15.6838     2.1394     7.6328 </r>
       <r>   -15.5803     3.2914     7.9737 </r>
       <r>   -15.4767     4.2389     8.4127 </r>
       <r>   -15.3731     4.5321     8.8821 </r>
       <r>   -15.2695     3.5508     9.2499 </r>
       <r>   -15.1660     3.3140     9.5931 </r>
       <r>   -15.0624     3.5586     9.9617 </r>
       <r>   -14.9588     3.5839    10.3329 </r>
       <r>   -14.8553     3.9294    10.7399 </r>
       <r>   -14.7517     3.7500    11.1283 </r>
       <r>   -14.6481     3.2594    11.4659 </r>
       <r>   -14.5445     3.5693    11.8356 </r>
       <r>   -14.4410     3.9095    12.2405 </r>
       <r>   -14.3374     3.9153    12.6460 </r>
       <r>   -14.2338     3.6264    13.0216 </r>
       <r>   -14.1302     2.5851    13.2893 </r>
       <r>   -14.0267     2.2706    13.5245 </r>
       <r>   -13.9231     1.9981    13.7315 </r>
       <r>   -13.8195     1.2314    13.8590 </r>
       <r>   -13.7159     0.7774    13.9395 </r>
       <r>   -13.6124     0.9627    14.0392 </r>
       <r>   -13.5088     1.3036    14.1743 </r>
       <r>   -13.4052     1.3860    14.3178 </r>
       <r>   -13.3016     1.3580    14.4585 </r>
       <r>   -13.1981     1.4684    14.6106 </r>
       <r>   -13.0945     1.7009    14.7867 </r>
       <r>   -12.9909     2.0551    14.9996 </r>
       <r>   -12.8873     2.1096    15.2181 </r>
       <r>   -12.7838     1.8206    15.4066 </r>
       <r>   -12.6802     1.7069    15.5834 </r>
       <r>   -12.5766     1.5579    15.7448 </r>
       <r>   -12.4731     1.5514    15.9055 </r>
       <r>   -12.3695     1.4352    16.0541 </r>
       <r>   -12.2659     1.5222    16.2118 </r>
       <r>   -12.1623     2.0213    16.4212 </r>
       <r>   -12.0588     2.9564    16.7274 </r>
       <r>   -11.9552     3.3199    17.0712 </r>
       <r>   -11.8516     3.6221    17.4464 </r>
       <r>   -11.7480     4.1781    17.8791 </r>
       <r>   -11.6445     4.5495    18.3503 </r>
       <r>   -11.5409     3.5102    18.7139 </r>
       <r>   -11.4373     2.9601    19.0205 </r>
       <r>   -11.3337     2.6026    19.2900 </r>
       <r>   -11.2302     2.6268    19.5621 </r>
       <r>   -11.1266     2.4157    19.8123 </r>
       <r>   -11.0230     2.4302    20.0640 </r>
       <r>   -10.9194     2.4850    20.3214 </r>
       <r>   -10.8159     2.5984    20.5905 </r>
       <r>   -10.7123     2.6925    20.8694 </r>
       <r>   -10.6087     2.9992    21.1800 </r>
       <r>   -10.5051     3.2678    21.5185 </r>
       <r>   -10.4016     3.5456    21.8857 </r>
       <r>   -10.2980     3.1562    22.2126 </r>
       <r>   -10.1944     3.1509    22.5390 </r>
       <r>   -10.0909     2.9116    22.8406 </r>
       <r>    -9.9873     3.1084    23.1625 </r>
       <r>    -9.8837     2.6257    23.4345 </r>
       <r>    -9.7801     3.0256    23.7478 </r>
       <r>    -9.6766     2.6283    24.0201 </r>
       <r>    -9.5730     2.3420    24.2626 </r>
       <r>    -9.4694     2.1874    24.4892 </r>
       <r>    -9.3658     2.0570    24.7022 </r>
       <r>    -9.2623     2.0680    24.9164 </r>
       <r>    -9.1587     2.1799    25.1422 </r>
       <r>    -9.0551     2.2762    25.3780 </r>
       <r>    -8.9515     2.5761    25.6448 </r>
       <r>    -8.8480     3.0745    25.9632 </r>
       <r>    -8.7444     2.9303    26.2667 </r>
       <r>    -8.6408     3.4168    26.6206 </r>
       <r>    -8.5372     3.2102    26.9531 </r>
       <r>    -8.4337     3.4851    27.3141 </r>
       <r>    -8.3301     3.7175    27.6991 </r>
       <r>    -8.2265     4.0053    28.1140 </r>
       <r>    -8.1229     4.9776    28.6295 </r>
       <r>    -8.0194     4.6630    29.1125 </r>
       <r>    -7.9158     4.5519    29.5839 </r>
       <r>    -7.8122     4.3584    30.0354 </r>
       <r>    -7.7086     5.2470    30.5788 </r>
       <r>    -7.6051     5.9359    31.1936 </r>
       <r>    -7.5015     5.8102    31.7954 </r>
       <r>    -7.3979     5.4298    32.3578 </r>
       <r>    -7.2944     5.8258    32.9612 </r>
       <r>    -7.1908     6.0219    33.5849 </r>
       <r>    -7.0872     6.3794    34.2456 </r>
       <r>    -6.9836     6.5721    34.9263 </r>
       <r>    -6.8801     6.1541    35.5637 </r>
       <r>    -6.7765     5.8313    36.1677 </r>
       <r>    -6.6729     5.9630    36.7853 </r>
       <r>    -6.5693     6.2577    37.4335 </r>
       <r>    -6.4658     6.1307    38.0684 </r>
       <r>    -6.3622     6.2209    38.7128 </r>
       <r>    -6.2586     5.7875    39.3122 </r>
       <r>    -6.1550     5.4058    39.8721 </r>
       <r>    -6.0515     4.9034    40.3800 </r>
       <r>    -5.9479     5.2820    40.9270 </r>
       <r>    -5.8443     5.5692    41.5039 </r>
       <r>    -5.7407     5.4368    42.0670 </r>
       <r>    -5.6372     5.3264    42.6186 </r>
       <r>    -5.5336     6.0527    43.2455 </r>
       <r>    -5.4300     6.7746    43.9472 </r>
       <r>    -5.3264     6.4208    44.6122 </r>
       <r>    -5.2229     4.9263    45.1225 </r>
       <r>    -5.1193     4.1215    45.5494 </r>
       <r>    -5.0157     4.1208    45.9762 </r>
       <r>    -4.9122     4.3620    46.4280 </r>
       <r>    -4.8086     4.5819    46.9025 </r>
       <r>    -4.7050     4.1791    47.3354 </r>
       <r>    -4.6014     4.1510    47.7653 </r>
       <r>    -4.4979     4.4939    48.2308 </r>
       <r>    -4.3943     5.3603    48.7859 </r>
       <r>    -4.2907     6.3473    49.4434 </r>
       <r>    -4.1871     8.0045    50.2724 </r>
       <r>    -4.0836    10.0274    51.3110 </r>
       <r>    -3.9800     7.9448    52.1339 </r>
       <r>    -3.8764     5.8333    52.7381 </r>
       <r>    -3.7728     4.8385    53.2392 </r>
       <r>    -3.6693     3.9584    53.6492 </r>
       <r>    -3.5657     3.7496    54.0375 </r>
       <r>    -3.4621     4.0662    54.4587 </r>
       <r>    -3.3585     4.1225    54.8857 </r>
       <r>    -3.2550     4.3738    55.3387 </r>
       <r>    -3.1514     5.1782    55.8750 </r>
       <r>    -3.0478     4.9920    56.3921 </r>
       <r>    -2.9442     5.0464    56.9147 </r>
       <r>    -2.8407     5.1432    57.4474 </r>
       <r>    -2.7371     4.2723    57.8900 </r>
       <r>    -2.6335     3.8810    58.2919 </r>
       <r>    -2.5299     5.5228    58.8639 </r>
       <r>    -2.4264     6.0933    59.4951 </r>
       <r>    -2.3228     5.8120    60.0970 </r>
       <r>    -2.2192     4.1760    60.5296 </r>
       <r>    -2.1157     2.2826    60.7660 </r>
       <r>    -2.0121     1.9841    60.9715 </r>
       <r>    -1.9085     1.7695    61.1548 </r>
       <r>    -1.8049     1.5926    61.3197 </r>
       <r>    -1.7014     1.6142    61.4869 </r>
       <r>    -1.5978     1.4371    61.6357 </r>
       <r>    -1.4942     1.3333    61.7738 </r>
       <r>    -1.3906     1.1871    61.8968 </r>
       <r>    -1.2871     0.5794    61.9568 </r>
       <r>    -1.1835     0.2239    61.9800 </r>
       <r>    -1.0799     0.1285    61.9933 </r>
       <r>    -0.9763     0.1331    62.0071 </r>
       <r>    -0.8728     0.6876    62.0783 </r>
       <r>    -0.7692     1.3361    62.2167 </r>
       <r>    -0.6656     1.8010    62.4032 </r>
       <r>    -0.5620     2.2402    62.6352 </r>
       <r>    -0.4585     3.0934    62.9556 </r>
       <r>    -0.3549     3.1061    63.2773 </r>
       <r>    -0.2513     2.6247    63.5492 </r>
       <r>    -0.1477     2.2149    63.7786 </r>
       <r>    -0.0442     1.4649    63.9303 </r>
       <r>     0.0594     0.5486    63.9872 </r>
       <r>     0.1630     0.2447    64.0125 </r>
       <r>     0.2665     0.8848    64.1041 </r>
       <r>     0.3701     1.5391    64.2636 </r>
       <r>     0.4737     1.5843    64.4277 </r>
       <r>     0.5773     1.7154    64.6053 </r>
       <r>     0.6808     1.5849    64.7695 </r>
       <r>     0.7844     2.6313    65.0420 </r>
       <r>     0.8880     2.8728    65.3396 </r>
       <r>     0.9916     2.3947    65.5876 </r>
       <r>     1.0951     2.2746    65.8232 </r>
       <r>     1.1987     1.8085    66.0105 </r>
       <r>     1.3023     1.6558    66.1820 </r>
       <r>     1.4059     1.7638    66.3647 </r>
       <r>     1.5094     1.6852    66.5392 </r>
       <r>     1.6130     1.5615    66.7009 </r>
       <r>     1.7166     1.7362    66.8808 </r>
       <r>     1.8202     1.8899    67.0765 </r>
       <r>     1.9237     1.6174    67.2440 </r>
       <r>     2.0273     2.0576    67.4571 </r>
       <r>     2.1309     2.4538    67.7113 </r>
       <r>     2.2345     3.1999    68.0427 </r>
       <r>     2.3380     3.9296    68.4497 </r>
       <r>     2.4416     3.3088    68.7924 </r>
       <r>     2.5452     2.7576    69.0780 </r>
       <r>     2.6487     2.3722    69.3237 </r>
       <r>     2.7523     2.1994    69.5515 </r>
       <r>     2.8559     2.6056    69.8214 </r>
       <r>     2.9595     2.8697    70.1186 </r>
       <r>     3.0630     3.1745    70.4474 </r>
       <r>     3.1666     3.2366    70.7827 </r>
       <r>     3.2702     2.8667    71.0796 </r>
       <r>     3.3738     2.4580    71.3342 </r>
       <r>     3.4773     2.6736    71.6111 </r>
       <r>     3.5809     2.8372    71.9049 </r>
       <r>     3.6845     2.8865    72.2039 </r>
       <r>     3.7881     3.3185    72.5476 </r>
       <r>     3.8916     3.7040    72.9313 </r>
       <r>     3.9952     3.8659    73.3317 </r>
       <r>     4.0988     3.7019    73.7151 </r>
       <r>     4.2024     3.9781    74.1271 </r>
       <r>     4.3059     3.9656    74.5378 </r>
       <r>     4.4095     3.6352    74.9143 </r>
       <r>     4.5131     3.6784    75.2953 </r>
       <r>     4.6167     3.5882    75.6670 </r>
       <r>     4.7202     4.0290    76.0843 </r>
       <r>     4.8238     4.3246    76.5322 </r>
       <r>     4.9274     4.3916    76.9870 </r>
       <r>     5.0310     4.4925    77.4523 </r>
       <r>     5.1345     4.5936    77.9281 </r>
       <r>     5.2381     4.2157    78.3648 </r>
       <r>     5.3417     4.2022    78.8000 </r>
       <r>     5.4452     4.6165    79.2782 </r>
       <r>     5.5488     4.6255    79.7572 </r>
       <r>     5.6524     3.7339    80.1440 </r>
       <r>     5.7560     4.0079    80.5591 </r>
       <r>     5.8595     5.2758    81.1055 </r>
       <r>     5.9631     5.9197    81.7186 </r>
       <r>     6.0667     6.4001    82.3815 </r>
       <r>     6.1703     6.6738    83.0728 </r>
       <r>     6.2738     6.3852    83.7341 </r>
       <r>     6.3774     6.2043    84.3767 </r>
       <r>     6.4810     6.1468    85.0134 </r>
       <r>     6.5846     5.8055    85.6147 </r>
       <r>     6.6881     6.4119    86.2788 </r>
       <r>     6.7917     6.9449    86.9981 </r>
       <r>     6.8953     6.9946    87.7225 </r>
       <r>     6.9989     7.8692    88.5376 </r>
       <r>     7.1024     9.7297    89.5453 </r>
       <r>     7.2060     9.2576    90.5042 </r>
       <r>     7.3096     7.8210    91.3142 </r>
       <r>     7.4132     7.8428    92.1265 </r>
       <r>     7.5167     8.2163    92.9775 </r>
       <r>     7.6203     7.0863    93.7115 </r>
       <r>     7.7239     6.2657    94.3604 </r>
       <r>     7.8274     6.2299    95.0057 </r>
       <r>     7.9310     4.7389    95.4965 </r>
       <r>     8.0346     2.3861    95.7437 </r>
       <r>     8.1382     1.3190    95.8803 </r>
       <r>     8.2417     0.6981    95.9526 </r>
       <r>     8.3453     0.2907    95.9827 </r>
       <r>     8.4489     0.1361    95.9968 </r>
       <r>     8.5525     0.0297    95.9999 </r>
       <r>     8.6560     0.0013    96.0000 </r>
       <r>     8.7596     0.0000    96.0000 </r>
       <r>     8.8632     0.0000    96.0000 </r>
       <r>     8.9668     0.0000    96.0000 </r>
       <r>     9.0703     0.0000    96.0000 </r>
       <r>     9.1739     0.0000    96.0000 </r>
       <r>     9.2775     0.0000    96.0000 </r>
       <r>     9.3811     0.0000    96.0000 </r>
       <r>     9.4846     0.0000    96.0000 </r>
       <r>     9.5882     0.0000    96.0000 </r>
       <r>     9.6918     0.0000    96.0000 </r>
       <r>     9.7954     0.0000    96.0000 </r>
      </set>
     </set>
    </array>
   </total>
  </dos>
 </calculation>
 <structure name="finalpos" >
  <crystal>
   <varray name="basis" >
    <v>       4.36823214       2.52200000       0.00000000 </v>
    <v>      -4.36823214       2.52200000       0.00000000 </v>
    <v>       0.00000000       0.00000000      15.00000000 </v>
   </varray>
   <i name="volume">    330.50044346 </i>
   <varray name="rec_basis" >
    <v>       0.11446278       0.19825535       0.00000000 </v>
    <v>      -0.11446278       0.19825535       0.00000000 </v>
    <v>       0.00000000       0.00000000       0.06666667 </v>
   </varray>
  </crystal>
  <varray name="positions" >
   <v>       0.33818897       0.66909189       0.11352236 </v>
   <v>       0.67152478       0.33575999       0.11319485 </v>
   <v>       0.16446863       0.32165210       0.11317456 </v>
   <v>       0.32400547       0.16200006       0.11318345 </v>
   <v>       0.16447075       0.84281226       0.11317353 </v>
   <v>       0.84527845       0.16199805       0.11317508 </v>
   <v>       0.68562388       0.84280824       0.11316590 </v>
   <v>       0.84527954       0.68327469       0.11317402 </v>
   <v>       0.33349559       0.16675029       0.33803274 </v>
   <v>       0.50018652       0.00016327       0.33800712 </v>
   <v>       0.33347465       0.66673983       0.33771325 </v>
   <v>       0.50018653       0.50002770       0.33800712 </v>
   <v>       0.83346897       0.16675156       0.33802804 </v>
   <v>       0.00014624       0.00007537       0.33801235 </v>
   <v>       0.83346901       0.66672247       0.33802800 </v>
   <v>       0.00005737       0.50003091       0.33800763 </v>
  </varray>
 </structure>
</modeling>
