  16  16   0  16
  0.2029747E+02  0.5000000E-09  0.5000000E-09  0.1500000E-08  0.5000000E-15
  1.000000000000000E-004
  CAR 
 Lattice                                 
      9.56186120    -21.06274958  301     -0.29700351      1.00000000
    -21.063  0.0000E+00  0.0000E+00  0.0000E+00  0.0000E+00
    -20.961  0.0000E+00  0.0000E+00  0.0000E+00  0.0000E+00
    -20.859  0.0000E+00  0.0000E+00  0.0000E+00  0.0000E+00
    -20.757  0.0000E+00  0.0000E+00  0.0000E+00  0.0000E+00
    -20.654  0.0000E+00  0.0000E+00  0.0000E+00  0.0000E+00
    -20.552  0.0000E+00  0.0000E+00  0.0000E+00  0.0000E+00
    -20.450  0.0000E+00  0.0000E+00  0.0000E+00  0.0000E+00
    -20.348  0.0000E+00  0.0000E+00  0.0000E+00  0.0000E+00
    -20.246  0.1180E-18  0.1180E-18  0.1205E-19  0.1205E-19
    -20.144  0.6413E-14  0.6413E-14  0.6547E-15  0.6547E-15
    -20.042  0.5007E-10  0.5007E-10  0.5112E-11  0.5111E-11
    -19.940  0.5708E-07  0.5708E-07  0.5832E-08  0.5832E-08
    -19.838  0.1027E-04  0.1027E-04  0.1054E-05  0.1054E-05
    -19.736  0.3203E-03  0.3203E-03  0.3375E-04  0.3375E-04
    -19.634  0.2097E-02  0.2097E-02  0.2478E-03  0.2478E-03
    -19.532  0.4326E-02  0.4326E-02  0.6895E-03  0.6895E-03
    -19.429  0.4803E-02  0.4803E-02  0.1180E-02  0.1180E-02
    -19.327  0.5139E-02  0.5139E-02  0.1704E-02  0.1704E-02
    -19.225  0.4494E-02  0.4494E-02  0.2163E-02  0.2163E-02
    -19.123  0.5602E-02  0.5602E-02  0.2735E-02  0.2735E-02
    -19.021  0.4409E-02  0.4409E-02  0.3185E-02  0.3185E-02
    -18.919  0.4707E-02  0.4707E-02  0.3665E-02  0.3665E-02
    -18.817  0.6159E-02  0.6159E-02  0.4294E-02  0.4294E-02
    -18.715  0.3920E-02  0.3920E-02  0.4694E-02  0.4694E-02
    -18.613  0.4431E-02  0.4431E-02  0.5147E-02  0.5147E-02
    -18.511  0.6401E-02  0.6401E-02  0.5800E-02  0.5800E-02
    -18.409  0.5214E-02  0.5214E-02  0.6332E-02  0.6332E-02
    -18.307  0.3092E-02  0.3092E-02  0.6648E-02  0.6648E-02
    -18.204  0.5257E-02  0.5257E-02  0.7185E-02  0.7185E-02
    -18.102  0.6964E-02  0.6964E-02  0.7896E-02  0.7896E-02
    -18.000  0.4608E-02  0.4608E-02  0.8366E-02  0.8366E-02
    -17.898  0.3784E-02  0.3784E-02  0.8752E-02  0.8752E-02
    -17.796  0.3731E-02  0.3731E-02  0.9133E-02  0.9133E-02
    -17.694  0.7427E-02  0.7427E-02  0.9891E-02  0.9891E-02
    -17.592  0.6263E-02  0.6263E-02  0.1053E-01  0.1053E-01
    -17.490  0.3383E-02  0.3383E-02  0.1088E-01  0.1088E-01
    -17.388  0.3807E-02  0.3807E-02  0.1126E-01  0.1126E-01
    -17.286  0.4714E-02  0.4714E-02  0.1175E-01  0.1175E-01
    -17.184  0.7138E-02  0.7138E-02  0.1247E-01  0.1247E-01
    -17.082  0.6498E-02  0.6498E-02  0.1314E-01  0.1314E-01
    -16.979  0.4368E-02  0.4368E-02  0.1358E-01  0.1358E-01
    -16.877  0.2348E-02  0.2348E-02  0.1382E-01  0.1382E-01
    -16.775  0.4802E-02  0.4802E-02  0.1431E-01  0.1431E-01
    -16.673  0.7278E-02  0.7278E-02  0.1506E-01  0.1506E-01
    -16.571  0.6472E-02  0.6472E-02  0.1572E-01  0.1572E-01
    -16.469  0.5318E-02  0.5318E-02  0.1626E-01  0.1626E-01
    -16.367  0.4483E-02  0.4483E-02  0.1672E-01  0.1672E-01
    -16.265  0.2617E-02  0.2617E-02  0.1699E-01  0.1699E-01
    -16.163  0.4065E-02  0.4065E-02  0.1740E-01  0.1740E-01
    -16.061  0.9237E-02  0.9237E-02  0.1834E-01  0.1834E-01
    -15.959  0.7368E-02  0.7368E-02  0.1910E-01  0.1910E-01
    -15.857  0.8482E-02  0.8482E-02  0.1996E-01  0.1996E-01
    -15.754  0.1006E-01  0.1006E-01  0.2099E-01  0.2099E-01
    -15.652  0.1062E-01  0.1062E-01  0.2207E-01  0.2207E-01
    -15.550  0.9875E-02  0.9875E-02  0.2308E-01  0.2308E-01
    -15.448  0.1368E-01  0.1368E-01  0.2448E-01  0.2448E-01
    -15.346  0.1642E-01  0.1642E-01  0.2615E-01  0.2615E-01
    -15.244  0.1325E-01  0.1325E-01  0.2751E-01  0.2751E-01
    -15.142  0.1275E-01  0.1275E-01  0.2881E-01  0.2881E-01
    -15.040  0.1433E-01  0.1433E-01  0.3027E-01  0.3027E-01
    -14.938  0.1092E-01  0.1092E-01  0.3138E-01  0.3138E-01
    -14.836  0.1004E-01  0.1004E-01  0.3241E-01  0.3241E-01
    -14.734  0.1134E-01  0.1134E-01  0.3357E-01  0.3357E-01
    -14.632  0.1084E-01  0.1084E-01  0.3467E-01  0.3467E-01
    -14.529  0.8606E-02  0.8606E-02  0.3555E-01  0.3555E-01
    -14.427  0.8373E-02  0.8373E-02  0.3641E-01  0.3641E-01
    -14.325  0.7371E-02  0.7371E-02  0.3716E-01  0.3716E-01
    -14.223  0.1001E-01  0.1001E-01  0.3818E-01  0.3818E-01
    -14.121  0.1651E-01  0.1651E-01  0.3987E-01  0.3987E-01
    -14.019  0.1215E-01  0.1215E-01  0.4111E-01  0.4111E-01
    -13.917  0.5877E-02  0.5877E-02  0.4171E-01  0.4171E-01
    -13.815  0.5379E-02  0.5379E-02  0.4226E-01  0.4226E-01
    -13.713  0.4721E-02  0.4721E-02  0.4274E-01  0.4274E-01
    -13.611  0.4338E-02  0.4338E-02  0.4318E-01  0.4318E-01
    -13.509  0.7284E-02  0.7284E-02  0.4392E-01  0.4392E-01
    -13.407  0.8514E-02  0.8514E-02  0.4479E-01  0.4479E-01
    -13.305  0.6214E-02  0.6214E-02  0.4543E-01  0.4543E-01
    -13.202  0.6422E-02  0.6422E-02  0.4608E-01  0.4608E-01
    -13.100  0.7011E-02  0.7011E-02  0.4680E-01  0.4680E-01
    -12.998  0.9211E-02  0.9211E-02  0.4774E-01  0.4774E-01
    -12.896  0.6450E-02  0.6450E-02  0.4840E-01  0.4840E-01
    -12.794  0.7816E-02  0.7816E-02  0.4919E-01  0.4919E-01
    -12.692  0.9459E-02  0.9459E-02  0.5016E-01  0.5016E-01
    -12.590  0.1079E-01  0.1079E-01  0.5126E-01  0.5126E-01
    -12.488  0.1450E-01  0.1450E-01  0.5274E-01  0.5274E-01
    -12.386  0.1139E-01  0.1139E-01  0.5390E-01  0.5390E-01
    -12.284  0.1373E-01  0.1373E-01  0.5531E-01  0.5531E-01
    -12.182  0.1316E-01  0.1316E-01  0.5665E-01  0.5665E-01
    -12.080  0.1287E-01  0.1287E-01  0.5796E-01  0.5796E-01
    -11.977  0.1998E-01  0.1998E-01  0.6000E-01  0.6000E-01
    -11.875  0.1729E-01  0.1729E-01  0.6177E-01  0.6177E-01
    -11.773  0.1168E-01  0.1168E-01  0.6296E-01  0.6296E-01
    -11.671  0.1102E-01  0.1102E-01  0.6409E-01  0.6409E-01
    -11.569  0.1003E-01  0.1003E-01  0.6511E-01  0.6511E-01
    -11.467  0.8082E-02  0.8082E-02  0.6593E-01  0.6593E-01
    -11.365  0.4870E-02  0.4870E-02  0.6643E-01  0.6643E-01
    -11.263  0.3532E-02  0.3532E-02  0.6679E-01  0.6679E-01
    -11.161  0.4810E-02  0.4810E-02  0.6728E-01  0.6728E-01
    -11.059  0.5351E-02  0.5351E-02  0.6783E-01  0.6783E-01
    -10.957  0.5972E-02  0.5972E-02  0.6844E-01  0.6844E-01
    -10.855  0.7104E-02  0.7104E-02  0.6916E-01  0.6916E-01
    -10.752  0.9114E-02  0.9114E-02  0.7009E-01  0.7009E-01
    -10.650  0.8810E-02  0.8810E-02  0.7099E-01  0.7099E-01
    -10.548  0.1117E-01  0.1117E-01  0.7213E-01  0.7213E-01
    -10.446  0.2154E-01  0.2154E-01  0.7433E-01  0.7433E-01
    -10.344  0.1797E-01  0.1797E-01  0.7617E-01  0.7617E-01
    -10.242  0.6917E-02  0.6917E-02  0.7687E-01  0.7687E-01
    -10.140  0.4301E-02  0.4300E-02  0.7731E-01  0.7731E-01
    -10.038  0.8829E-02  0.8829E-02  0.7821E-01  0.7821E-01
     -9.936  0.1742E-01  0.1742E-01  0.7999E-01  0.7999E-01
     -9.834  0.1287E-01  0.1287E-01  0.8131E-01  0.8131E-01
     -9.732  0.4612E-02  0.4612E-02  0.8178E-01  0.8178E-01
     -9.630  0.6924E-02  0.6924E-02  0.8248E-01  0.8248E-01
     -9.527  0.1411E-01  0.1411E-01  0.8392E-01  0.8392E-01
     -9.425  0.1890E-01  0.1890E-01  0.8585E-01  0.8585E-01
     -9.323  0.1452E-01  0.1452E-01  0.8734E-01  0.8734E-01
     -9.221  0.1707E-01  0.1707E-01  0.8908E-01  0.8908E-01
     -9.119  0.1734E-01  0.1734E-01  0.9085E-01  0.9085E-01
     -9.017  0.1068E-01  0.1068E-01  0.9194E-01  0.9194E-01
     -8.915  0.1395E-01  0.1395E-01  0.9336E-01  0.9336E-01
     -8.813  0.1949E-01  0.1949E-01  0.9535E-01  0.9535E-01
     -8.711  0.1464E-01  0.1464E-01  0.9685E-01  0.9685E-01
     -8.609  0.7174E-02  0.7174E-02  0.9758E-01  0.9758E-01
     -8.507  0.1284E-01  0.1284E-01  0.9889E-01  0.9889E-01
     -8.405  0.2121E-01  0.2121E-01  0.1011E+00  0.1011E+00
     -8.302  0.1871E-01  0.1871E-01  0.1030E+00  0.1030E+00
     -8.200  0.8222E-02  0.8222E-02  0.1038E+00  0.1038E+00
     -8.098  0.1207E-01  0.1207E-01  0.1050E+00  0.1050E+00
     -7.996  0.1369E-01  0.1369E-01  0.1064E+00  0.1064E+00
     -7.894  0.1352E-01  0.1352E-01  0.1078E+00  0.1078E+00
     -7.792  0.2495E-01  0.2495E-01  0.1104E+00  0.1104E+00
     -7.690  0.2138E-01  0.2138E-01  0.1125E+00  0.1125E+00
     -7.588  0.1533E-01  0.1533E-01  0.1141E+00  0.1141E+00
     -7.486  0.1383E-01  0.1383E-01  0.1155E+00  0.1155E+00
     -7.384  0.1714E-01  0.1714E-01  0.1173E+00  0.1173E+00
     -7.282  0.2146E-01  0.2146E-01  0.1195E+00  0.1195E+00
     -7.180  0.1600E-01  0.1600E-01  0.1211E+00  0.1211E+00
     -7.078  0.1380E-01  0.1380E-01  0.1225E+00  0.1225E+00
     -6.975  0.1750E-01  0.1750E-01  0.1243E+00  0.1243E+00
     -6.873  0.2325E-01  0.2325E-01  0.1267E+00  0.1267E+00
     -6.771  0.2393E-01  0.2393E-01  0.1291E+00  0.1291E+00
     -6.669  0.2662E-01  0.2662E-01  0.1318E+00  0.1318E+00
     -6.567  0.2779E-01  0.2779E-01  0.1347E+00  0.1347E+00
     -6.465  0.2608E-01  0.2608E-01  0.1373E+00  0.1373E+00
     -6.363  0.2705E-01  0.2705E-01  0.1401E+00  0.1401E+00
     -6.261  0.2322E-01  0.2322E-01  0.1425E+00  0.1425E+00
     -6.159  0.1920E-01  0.1920E-01  0.1444E+00  0.1444E+00
     -6.057  0.1610E-01  0.1610E-01  0.1461E+00  0.1461E+00
     -5.955  0.1616E-01  0.1616E-01  0.1477E+00  0.1477E+00
     -5.853  0.1598E-01  0.1598E-01  0.1493E+00  0.1493E+00
     -5.750  0.1643E-01  0.1643E-01  0.1510E+00  0.1510E+00
     -5.648  0.1759E-01  0.1759E-01  0.1528E+00  0.1528E+00
     -5.546  0.1217E-01  0.1217E-01  0.1541E+00  0.1541E+00
     -5.444  0.1063E-01  0.1063E-01  0.1551E+00  0.1551E+00
     -5.342  0.1640E-01  0.1640E-01  0.1568E+00  0.1568E+00
     -5.240  0.1756E-01  0.1756E-01  0.1586E+00  0.1586E+00
     -5.138  0.1541E-01  0.1541E-01  0.1602E+00  0.1602E+00
     -5.036  0.1278E-01  0.1278E-01  0.1615E+00  0.1615E+00
     -4.934  0.1873E-01  0.1873E-01  0.1634E+00  0.1634E+00
     -4.832  0.1818E-01  0.1818E-01  0.1652E+00  0.1652E+00
     -4.730  0.8668E-02  0.8668E-02  0.1661E+00  0.1661E+00
     -4.628  0.1052E-01  0.1052E-01  0.1672E+00  0.1672E+00
     -4.525  0.1924E-01  0.1924E-01  0.1692E+00  0.1692E+00
     -4.423  0.1925E-01  0.1925E-01  0.1711E+00  0.1711E+00
     -4.321  0.1537E-01  0.1537E-01  0.1727E+00  0.1727E+00
     -4.219  0.1942E-01  0.1942E-01  0.1747E+00  0.1747E+00
     -4.117  0.2276E-01  0.2276E-01  0.1770E+00  0.1770E+00
     -4.015  0.1966E-01  0.1966E-01  0.1790E+00  0.1790E+00
     -3.913  0.2281E-01  0.2281E-01  0.1813E+00  0.1813E+00
     -3.811  0.2819E-01  0.2819E-01  0.1842E+00  0.1842E+00
     -3.709  0.2993E-01  0.2993E-01  0.1873E+00  0.1873E+00
     -3.607  0.2458E-01  0.2458E-01  0.1898E+00  0.1898E+00
     -3.505  0.1800E-01  0.1800E-01  0.1916E+00  0.1916E+00
     -3.403  0.1192E-01  0.1192E-01  0.1928E+00  0.1928E+00
     -3.300  0.1345E-01  0.1345E-01  0.1942E+00  0.1942E+00
     -3.198  0.1163E-01  0.1163E-01  0.1954E+00  0.1954E+00
     -3.096  0.1128E-01  0.1128E-01  0.1966E+00  0.1966E+00
     -2.994  0.1541E-01  0.1541E-01  0.1981E+00  0.1981E+00
     -2.892  0.1418E-01  0.1418E-01  0.1996E+00  0.1996E+00
     -2.790  0.1029E-01  0.1029E-01  0.2006E+00  0.2006E+00
     -2.688  0.8791E-02  0.8791E-02  0.2015E+00  0.2015E+00
     -2.586  0.1157E-01  0.1157E-01  0.2027E+00  0.2027E+00
     -2.484  0.1906E-01  0.1906E-01  0.2047E+00  0.2047E+00
     -2.382  0.1377E-01  0.1377E-01  0.2061E+00  0.2061E+00
     -2.280  0.5564E-02  0.5564E-02  0.2066E+00  0.2066E+00
     -2.178  0.8146E-02  0.8146E-02  0.2075E+00  0.2075E+00
     -2.075  0.1009E-01  0.1009E-01  0.2085E+00  0.2085E+00
     -1.973  0.9345E-02  0.9345E-02  0.2094E+00  0.2094E+00
     -1.871  0.8702E-02  0.8702E-02  0.2103E+00  0.2103E+00
     -1.769  0.8441E-02  0.8441E-02  0.2112E+00  0.2112E+00
     -1.667  0.6111E-02  0.6111E-02  0.2118E+00  0.2118E+00
     -1.565  0.7596E-02  0.7596E-02  0.2126E+00  0.2126E+00
     -1.463  0.1025E-01  0.1025E-01  0.2136E+00  0.2136E+00
     -1.361  0.5600E-02  0.5600E-02  0.2142E+00  0.2142E+00
     -1.259  0.5304E-02  0.5304E-02  0.2147E+00  0.2147E+00
     -1.157  0.7654E-02  0.7654E-02  0.2155E+00  0.2155E+00
     -1.055  0.5842E-02  0.5842E-02  0.2161E+00  0.2161E+00
     -0.953  0.6393E-02  0.6393E-02  0.2168E+00  0.2168E+00
     -0.851  0.4881E-02  0.4881E-02  0.2173E+00  0.2173E+00
     -0.748  0.2220E-02  0.2220E-02  0.2175E+00  0.2175E+00
     -0.646  0.1286E-02  0.1286E-02  0.2176E+00  0.2176E+00
     -0.544  0.3672E-02  0.3672E-02  0.2180E+00  0.2180E+00
     -0.442  0.3643E-02  0.3643E-02  0.2184E+00  0.2184E+00
     -0.340  0.2339E-02  0.2339E-02  0.2186E+00  0.2186E+00
     -0.238  0.3053E-02  0.3053E-02  0.2189E+00  0.2189E+00
     -0.136  0.3370E-02  0.3370E-02  0.2193E+00  0.2193E+00
     -0.034  0.3261E-02  0.3261E-02  0.2196E+00  0.2196E+00
      0.068  0.3829E-02  0.3829E-02  0.2200E+00  0.2200E+00
      0.170  0.6114E-02  0.6114E-02  0.2206E+00  0.2206E+00
      0.272  0.7818E-02  0.7818E-02  0.2214E+00  0.2214E+00
      0.374  0.1073E-01  0.1073E-01  0.2225E+00  0.2225E+00
      0.477  0.9222E-02  0.9222E-02  0.2235E+00  0.2235E+00
      0.579  0.7764E-02  0.7764E-02  0.2243E+00  0.2243E+00
      0.681  0.7356E-02  0.7356E-02  0.2250E+00  0.2250E+00
      0.783  0.1097E-01  0.1097E-01  0.2261E+00  0.2261E+00
      0.885  0.9303E-02  0.9303E-02  0.2271E+00  0.2271E+00
      0.987  0.7189E-02  0.7189E-02  0.2278E+00  0.2278E+00
      1.089  0.1051E-01  0.1051E-01  0.2289E+00  0.2289E+00
      1.191  0.1714E-01  0.1714E-01  0.2306E+00  0.2306E+00
      1.293  0.1774E-01  0.1774E-01  0.2324E+00  0.2324E+00
      1.395  0.1375E-01  0.1375E-01  0.2338E+00  0.2338E+00
      1.497  0.7877E-02  0.7877E-02  0.2346E+00  0.2346E+00
      1.599  0.6262E-02  0.6262E-02  0.2353E+00  0.2353E+00
      1.702  0.7709E-02  0.7709E-02  0.2361E+00  0.2361E+00
      1.804  0.9879E-02  0.9879E-02  0.2371E+00  0.2371E+00
      1.906  0.1294E-01  0.1294E-01  0.2384E+00  0.2384E+00
      2.008  0.1429E-01  0.1429E-01  0.2399E+00  0.2399E+00
      2.110  0.1195E-01  0.1195E-01  0.2411E+00  0.2411E+00
      2.212  0.1069E-01  0.1069E-01  0.2422E+00  0.2422E+00
      2.314  0.6391E-02  0.6391E-02  0.2428E+00  0.2428E+00
      2.416  0.6115E-02  0.6115E-02  0.2434E+00  0.2434E+00
      2.518  0.1034E-01  0.1034E-01  0.2445E+00  0.2445E+00
      2.620  0.1631E-01  0.1631E-01  0.2462E+00  0.2462E+00
      2.722  0.1473E-01  0.1473E-01  0.2477E+00  0.2477E+00
      2.824  0.1157E-01  0.1157E-01  0.2489E+00  0.2489E+00
      2.927  0.8292E-02  0.8291E-02  0.2497E+00  0.2497E+00
      3.029  0.1251E-01  0.1251E-01  0.2510E+00  0.2510E+00
      3.131  0.1672E-01  0.1672E-01  0.2527E+00  0.2527E+00
      3.233  0.1835E-01  0.1835E-01  0.2546E+00  0.2546E+00
      3.335  0.1593E-01  0.1594E-01  0.2562E+00  0.2562E+00
      3.437  0.1914E-01  0.1914E-01  0.2581E+00  0.2581E+00
      3.539  0.2179E-01  0.2179E-01  0.2604E+00  0.2604E+00
      3.641  0.2011E-01  0.2011E-01  0.2624E+00  0.2624E+00
      3.743  0.1711E-01  0.1711E-01  0.2642E+00  0.2642E+00
      3.845  0.2008E-01  0.2008E-01  0.2662E+00  0.2662E+00
      3.947  0.2030E-01  0.2030E-01  0.2683E+00  0.2683E+00
      4.049  0.2151E-01  0.2151E-01  0.2705E+00  0.2705E+00
      4.152  0.2241E-01  0.2241E-01  0.2728E+00  0.2728E+00
      4.254  0.2298E-01  0.2298E-01  0.2751E+00  0.2751E+00
      4.356  0.2267E-01  0.2266E-01  0.2774E+00  0.2774E+00
      4.458  0.1837E-01  0.1837E-01  0.2793E+00  0.2793E+00
      4.560  0.2146E-01  0.2146E-01  0.2815E+00  0.2815E+00
      4.662  0.2412E-01  0.2412E-01  0.2840E+00  0.2840E+00
      4.764  0.2190E-01  0.2189E-01  0.2862E+00  0.2862E+00
      4.866  0.2593E-01  0.2592E-01  0.2888E+00  0.2888E+00
      4.968  0.2717E-01  0.2718E-01  0.2916E+00  0.2916E+00
      5.070  0.2835E-01  0.2834E-01  0.2945E+00  0.2945E+00
      5.172  0.2936E-01  0.2935E-01  0.2975E+00  0.2975E+00
      5.274  0.2544E-01  0.2546E-01  0.3001E+00  0.3001E+00
      5.376  0.2169E-01  0.2168E-01  0.3023E+00  0.3023E+00
      5.479  0.2562E-01  0.2561E-01  0.3049E+00  0.3049E+00
      5.581  0.2889E-01  0.2890E-01  0.3079E+00  0.3079E+00
      5.683  0.2527E-01  0.2529E-01  0.3105E+00  0.3105E+00
      5.785  0.2297E-01  0.2296E-01  0.3128E+00  0.3128E+00
      5.887  0.2307E-01  0.2305E-01  0.3152E+00  0.3152E+00
      5.989  0.2385E-01  0.2384E-01  0.3176E+00  0.3176E+00
      6.091  0.2406E-01  0.2409E-01  0.3201E+00  0.3200E+00
      6.193  0.2048E-01  0.2049E-01  0.3221E+00  0.3221E+00
      6.295  0.1812E-01  0.1812E-01  0.3240E+00  0.3240E+00
      6.397  0.2116E-01  0.2115E-01  0.3262E+00  0.3261E+00
      6.499  0.2817E-01  0.2815E-01  0.3290E+00  0.3290E+00
      6.601  0.3434E-01  0.3434E-01  0.3325E+00  0.3325E+00
      6.704  0.3076E-01  0.3078E-01  0.3357E+00  0.3357E+00
      6.806  0.2539E-01  0.2540E-01  0.3383E+00  0.3383E+00
      6.908  0.2577E-01  0.2576E-01  0.3409E+00  0.3409E+00
      7.010  0.2415E-01  0.2415E-01  0.3434E+00  0.3434E+00
      7.112  0.2896E-01  0.2895E-01  0.3463E+00  0.3463E+00
      7.214  0.4299E-01  0.4299E-01  0.3507E+00  0.3507E+00
      7.316  0.4712E-01  0.4712E-01  0.3555E+00  0.3555E+00
      7.418  0.3165E-01  0.3166E-01  0.3587E+00  0.3587E+00
      7.520  0.2329E-01  0.2330E-01  0.3611E+00  0.3611E+00
      7.622  0.3320E-01  0.3319E-01  0.3645E+00  0.3645E+00
      7.724  0.3556E-01  0.3557E-01  0.3681E+00  0.3681E+00
      7.826  0.2464E-01  0.2464E-01  0.3707E+00  0.3707E+00
      7.929  0.2195E-01  0.2196E-01  0.3729E+00  0.3729E+00
      8.031  0.1536E-01  0.1537E-01  0.3745E+00  0.3745E+00
      8.133  0.4522E-02  0.4524E-02  0.3749E+00  0.3749E+00
      8.235  0.5960E-03  0.5963E-03  0.3750E+00  0.3750E+00
      8.337  0.9440E-04  0.9448E-04  0.3750E+00  0.3750E+00
      8.439  0.4788E-05  0.4796E-05  0.3750E+00  0.3750E+00
      8.541  0.3740E-07  0.3749E-07  0.3750E+00  0.3750E+00
      8.643  0.4035E-10  0.4049E-10  0.3750E+00  0.3750E+00
      8.745  0.5774E-14  0.5797E-14  0.3750E+00  0.3750E+00
      8.847  0.1180E-18  0.1180E-18  0.3750E+00  0.3750E+00
      8.949  0.0000E+00  0.0000E+00  0.3750E+00  0.3750E+00
      9.051  0.0000E+00  0.0000E+00  0.3750E+00  0.3750E+00
      9.154  0.0000E+00  0.0000E+00  0.3750E+00  0.3750E+00
      9.256  0.0000E+00  0.0000E+00  0.3750E+00  0.3750E+00
      9.358  0.0000E+00  0.0000E+00  0.3750E+00  0.3750E+00
      9.460  0.0000E+00  0.0000E+00  0.3750E+00  0.3750E+00
      9.562  0.0000E+00  0.0000E+00  0.3750E+00  0.3750E+00
