Lattice                                 
           1
     4.330127    2.500000    0.000000
    -4.330127    2.500000    0.000000
     0.000000    0.000000   15.000000
   B    C 
     8     8
Direct configuration=     1
   0.66888689  0.00000000  0.10000000
   0.33111211  0.00000000  0.10000000
   0.00000000  0.33111211  0.10000000
   0.00000000  0.66888689  0.10000000
   0.33111211  0.33111211  0.10000000
   0.66888689  0.66888689  0.10000000
   0.66666600  0.33333300  0.09922189
   0.33333300  0.66666600  0.10077811
   0.16666600  0.33333300  0.46773333
   0.33333300  0.16666600  0.46773333
   0.16666600  0.83333300  0.46773333
   0.33333300  0.66666600  0.46773333
   0.66666600  0.33333300  0.46773333
   0.83333300  0.16666600  0.46773333
   0.66666600  0.83333300  0.46773333
   0.83333300  0.66666600  0.46773333
Direct configuration=     2
   0.67005539  0.00000000  0.10002678
   0.32994361  0.00000000  0.10002678
  -0.00000000  0.32994361  0.10002678
  -0.00000000  0.67005539  0.10002678
   0.32994361  0.32994361  0.10002678
   0.67005539  0.67005539  0.10002678
   0.66666600  0.33333300  0.09925076
   0.33333300  0.66666600  0.10080960
   0.16666371  0.33332842  0.46770568
   0.33332855  0.16666377  0.46770571
   0.16666371  0.83333529  0.46770568
   0.33333300  0.66666600  0.46770568
   0.66666600  0.33333300  0.46770576
   0.83333523  0.16666377  0.46770571
   0.66667058  0.83333529  0.46770568
   0.83333523  0.66667045  0.46770571
Direct configuration=     3
   0.66951415  0.00000000  0.10001438
   0.33048485  0.00000000  0.10001438
  -0.00000000  0.33048485  0.10001438
  -0.00000000  0.66951415  0.10001438
   0.33048485  0.33048485  0.10001438
   0.66951415  0.66951415  0.10001438
   0.66666600  0.33333300  0.09923739
   0.33333300  0.66666600  0.10079502
   0.16666477  0.33333054  0.46771849
   0.33333061  0.16666480  0.46771850
   0.16666477  0.83333423  0.46771849
   0.33333300  0.66666600  0.46771849
   0.66666600  0.33333300  0.46771853
   0.83333420  0.16666480  0.46771850
   0.66666846  0.83333423  0.46771849
   0.83333420  0.66666839  0.46771850
Direct configuration=     4
   0.66951773  0.00000000  0.10001446
   0.33048127  0.00000000  0.10001446
  -0.00000000  0.33048127  0.10001446
  -0.00000000  0.66951773  0.10001446
   0.33048127  0.33048127  0.10001446
   0.66951773  0.66951773  0.10001446
   0.66666600  0.33333300  0.09923748
   0.33333300  0.66666600  0.10079511
   0.16666476  0.33333053  0.46771841
   0.33333060  0.16666480  0.46771842
   0.16666476  0.83333424  0.46771841
   0.33333300  0.66666600  0.46771840
   0.66666600  0.33333300  0.46771845
   0.83333420  0.16666480  0.46771842
   0.66666847  0.83333424  0.46771841
   0.83333420  0.66666840  0.46771842
Direct configuration=     5
   0.66951777 -0.00000003  0.10003926
   0.33048120 -0.00000003  0.10003926
   0.00000003  0.33048123  0.10003926
   0.00000003  0.66951780  0.10003926
   0.33048120  0.33048123  0.10003926
   0.66951777  0.66951780  0.10003926
   0.66666600  0.33333300  0.09926607
   0.33333300  0.66666600  0.10082157
   0.16666652  0.33333403  0.46769291
   0.33333400  0.16666650  0.46769294
   0.16666652  0.83333248  0.46769291
   0.33333300  0.66666600  0.46769291
   0.66666600  0.33333300  0.46769301
   0.83333250  0.16666650  0.46769294
   0.66666497  0.83333248  0.46769291
   0.83333250  0.66666500  0.46769294
Direct configuration=     6
   0.66951790 -0.00000012  0.10011366
   0.33048098 -0.00000012  0.10011366
   0.00000012  0.33048110  0.10011366
   0.00000012  0.66951802  0.10011366
   0.33048098  0.33048110  0.10011366
   0.66951790  0.66951802  0.10011366
   0.66666600  0.33333300  0.09935183
   0.33333300  0.66666600  0.10090094
   0.16667177  0.33334454  0.46761643
   0.33334419  0.16667160  0.46761651
   0.16667177  0.83332723  0.46761643
   0.33333300  0.66666600  0.46761643
   0.66666600  0.33333300  0.46761670
   0.83332740  0.16667160  0.46761651
   0.66665446  0.83332723  0.46761643
   0.83332740  0.66665481  0.46761651
Direct configuration=     7
   0.66951816 -0.00000030  0.10026246
   0.33048054 -0.00000030  0.10026246
   0.00000030  0.33048084  0.10026246
   0.00000030  0.66951846  0.10026246
   0.33048054  0.33048084  0.10026246
   0.66951816  0.66951846  0.10026246
   0.66666600  0.33333300  0.09952337
   0.33333300  0.66666600  0.10105967
   0.16668228  0.33336557  0.46746346
   0.33336459  0.16668180  0.46746364
   0.16668228  0.83331672  0.46746346
   0.33333300  0.66666600  0.46746347
   0.66666600  0.33333300  0.46746407
   0.83331720  0.16668180  0.46746364
   0.66663343  0.83331672  0.46746346
   0.83331720  0.66663441  0.46746364
Direct configuration=     8
   0.66951868 -0.00000065  0.10056007
   0.33047967 -0.00000065  0.10056007
   0.00000065  0.33048032  0.10056007
   0.00000065  0.66951933  0.10056007
   0.33047967  0.33048032  0.10056007
   0.66951868  0.66951933  0.10056007
   0.66666600  0.33333300  0.09986644
   0.33333300  0.66666600  0.10137715
   0.16670331  0.33340761  0.46715751
   0.33340539  0.16670219  0.46715792
   0.16670331  0.83329569  0.46715751
   0.33333300  0.66666600  0.46715755
   0.66666600  0.33333300  0.46715882
   0.83329681  0.16670219  0.46715792
   0.66659139  0.83329569  0.46715751
   0.83329681  0.66659361  0.46715792
Direct configuration=     9
   0.66951970 -0.00000136  0.10115528
   0.33047793 -0.00000136  0.10115528
   0.00000136  0.33047930  0.10115528
   0.00000136  0.66952107  0.10115528
   0.33047793  0.33047930  0.10115528
   0.66951970  0.66952107  0.10115528
   0.66666600  0.33333300  0.10055259
   0.33333300  0.66666600  0.10201209
   0.16674535  0.33349171  0.46654563
   0.33348698  0.16674299  0.46654646
   0.16674535  0.83325365  0.46654563
   0.33333300  0.66666600  0.46654572
   0.66666600  0.33333300  0.46654833
   0.83325601  0.16674299  0.46654646
   0.66650729  0.83325365  0.46654563
   0.83325601  0.66651202  0.46654646
Direct configuration=    10
   0.66952176 -0.00000279  0.10234570
   0.33047445 -0.00000279  0.10234570
   0.00000279  0.33047724  0.10234570
   0.00000279  0.66952455  0.10234570
   0.33047445  0.33047724  0.10234570
   0.66952176  0.66952455  0.10234570
   0.66666600  0.33333300  0.10192488
   0.33333300  0.66666600  0.10328199
   0.16682945  0.33365989  0.46532187
   0.33365016  0.16682458  0.46532355
   0.16682945  0.83316955  0.46532187
   0.33333300  0.66666600  0.46532205
   0.66666600  0.33333300  0.46532733
   0.83317442  0.16682458  0.46532355
   0.66633911  0.83316955  0.46532187
   0.83317442  0.66634884  0.46532355
Direct configuration=    11
   0.66952588 -0.00000564  0.10472653
   0.33046748 -0.00000564  0.10472653
   0.00000564  0.33047312  0.10472653
   0.00000564  0.66953152  0.10472653
   0.33046748  0.33047312  0.10472653
   0.66952588  0.66953152  0.10472653
   0.66666600  0.33333300  0.10466946
   0.33333300  0.66666600  0.10582177
   0.16699763  0.33399626  0.46287434
   0.33397652  0.16698776  0.46287772
   0.16699763  0.83300137  0.46287434
   0.33333300  0.66666600  0.46287472
   0.66666600  0.33333300  0.46288533
   0.83301124  0.16698776  0.46287772
   0.66600274  0.83300137  0.46287434
   0.83301124  0.66602248  0.46287772
Direct configuration=    12
   0.66953411 -0.00001134  0.10948821
   0.33045355 -0.00001134  0.10948821
   0.00001134  0.33046489  0.10948821
   0.00001134  0.66954545  0.10948821
   0.33045355  0.33046489  0.10948821
   0.66953411  0.66954545  0.10948821
   0.66666600  0.33333300  0.11015862
   0.33333300  0.66666600  0.11090134
   0.16733400  0.33466900  0.45797929
   0.33462924  0.16731412  0.45798607
   0.16733400  0.83266500  0.45797929
   0.33333300  0.66666600  0.45798004
   0.66666600  0.33333300  0.45800134
   0.83268488  0.16731412  0.45798607
   0.66533000  0.83266500  0.45797929
   0.83268488  0.66536976  0.45798607
Direct configuration=    13
   0.66955057 -0.00002275  0.11901156
   0.33042568 -0.00002275  0.11901156
   0.00002275  0.33044843  0.11901156
   0.00002275  0.66957332  0.11901156
   0.33042568  0.33044843  0.11901156
   0.66955057  0.66957332  0.11901156
   0.66666600  0.33333300  0.12113693
   0.33333300  0.66666600  0.12106047
   0.16800674  0.33601447  0.44818917
   0.33593469  0.16796684  0.44820278
   0.16800674  0.83199226  0.44818917
   0.33333300  0.66666600  0.44819069
   0.66666600  0.33333300  0.44823336
   0.83203216  0.16796684  0.44820278
   0.66398453  0.83199226  0.44818917
   0.83203216  0.66406431  0.44820278
Direct configuration=    14
   0.66958349 -0.00004556  0.13805826
   0.33036995 -0.00004556  0.13805826
   0.00004556  0.33041551  0.13805826
   0.00004556  0.66962905  0.13805826
   0.33036995  0.33041551  0.13805826
   0.66958349  0.66962905  0.13805826
   0.66666600  0.33333300  0.14309357
   0.33333300  0.66666600  0.14137873
   0.16935221  0.33870543  0.42860895
   0.33854557  0.16927229  0.42863618
   0.16935221  0.83064679  0.42860895
   0.33333300  0.66666600  0.42861200
   0.66666600  0.33333300  0.42869740
   0.83072671  0.16927229  0.42863618
   0.66129357  0.83064679  0.42860895
   0.83072671  0.66145343  0.42863618
Direct configuration=    15
   0.66956548 -0.00003308  0.12763808
   0.33040044 -0.00003308  0.12763808
   0.00003308  0.33043352  0.12763808
   0.00003308  0.66959856  0.12763808
   0.33040044  0.33043352  0.12763808
   0.66956548  0.66959856  0.12763808
   0.66666600  0.33333300  0.13108141
   0.33333300  0.66666600  0.13026290
   0.16861612  0.33723325  0.43932101
   0.33711719  0.16855810  0.43934079
   0.16861612  0.83138288  0.43932101
   0.33333300  0.66666600  0.43932323
   0.66666600  0.33333300  0.43938525
   0.83144090  0.16855810  0.43934079
   0.66276575  0.83138288  0.43932101
   0.83144090  0.66288181  0.43934079
Direct configuration=    16
   0.66956548 -0.00003308  0.12763885
   0.33040044 -0.00003308  0.12763885
   0.00003308  0.33043352  0.12763885
   0.00003308  0.66959856  0.12763885
   0.33040044  0.33043352  0.12763885
   0.66956548  0.66959856  0.12763885
   0.66666600  0.33333300  0.13108229
   0.33333300  0.66666600  0.13026372
   0.16861615  0.33723330  0.43932022
   0.33711725  0.16855812  0.43934000
   0.16861615  0.83138285  0.43932022
   0.33333300  0.66666600  0.43932243
   0.66666600  0.33333300  0.43938446
   0.83144088  0.16855812  0.43934000
   0.66276570  0.83138285  0.43932022
   0.83144088  0.66288175  0.43934000
Direct configuration=    17
   0.66956548 -0.00003308  0.12764116
   0.33040043 -0.00003308  0.12764116
   0.00003308  0.33043352  0.12764116
   0.00003308  0.66959857  0.12764116
   0.33040043  0.33043352  0.12764116
   0.66956548  0.66959857  0.12764116
   0.66666600  0.33333300  0.13108495
   0.33333300  0.66666600  0.13026618
   0.16861623  0.33723347  0.43931785
   0.33711741  0.16855820  0.43933762
   0.16861623  0.83138277  0.43931785
   0.33333300  0.66666600  0.43932006
   0.66666600  0.33333300  0.43938209
   0.83144080  0.16855820  0.43933762
   0.66276553  0.83138277  0.43931785
   0.83144080  0.66288159  0.43933762
Direct configuration=    18
   0.66956549 -0.00003308  0.12764579
   0.33040043 -0.00003308  0.12764579
   0.00003308  0.33043351  0.12764579
   0.00003308  0.66959857  0.12764579
   0.33040043  0.33043351  0.12764579
   0.66956549  0.66959857  0.12764579
   0.66666600  0.33333300  0.13109028
   0.33333300  0.66666600  0.13027111
   0.16861640  0.33723380  0.43931310
   0.33711773  0.16855837  0.43933287
   0.16861640  0.83138260  0.43931310
   0.33333300  0.66666600  0.43931531
   0.66666600  0.33333300  0.43937735
   0.83144063  0.16855837  0.43933287
   0.66276520  0.83138260  0.43931310
   0.83144063  0.66288127  0.43933287
Direct configuration=    19
   0.66956550 -0.00003309  0.12765503
   0.33040042 -0.00003309  0.12765503
   0.00003309  0.33043350  0.12765503
   0.00003309  0.66959858  0.12765503
   0.33040042  0.33043350  0.12765503
   0.66956550  0.66959858  0.12765503
   0.66666600  0.33333300  0.13110092
   0.33333300  0.66666600  0.13028096
   0.16861673  0.33723447  0.43930360
   0.33711838  0.16855869  0.43932338
   0.16861673  0.83138227  0.43930360
   0.33333300  0.66666600  0.43930581
   0.66666600  0.33333300  0.43936787
   0.83144031  0.16855869  0.43932338
   0.66276453  0.83138227  0.43930360
   0.83144031  0.66288062  0.43932338
Direct configuration=    20
   0.66956551 -0.00003310  0.12767352
   0.33040039 -0.00003310  0.12767352
   0.00003310  0.33043349  0.12767352
   0.00003310  0.66959861  0.12767352
   0.33040039  0.33043349  0.12767352
   0.66956551  0.66959861  0.12767352
   0.66666600  0.33333300  0.13112221
   0.33333300  0.66666600  0.13030065
   0.16861740  0.33723580  0.43928459
   0.33711968  0.16855934  0.43930439
   0.16861740  0.83138160  0.43928459
   0.33333300  0.66666600  0.43928681
   0.66666600  0.33333300  0.43934890
   0.83143966  0.16855934  0.43930439
   0.66276320  0.83138160  0.43928459
   0.83143966  0.66287932  0.43930439
Direct configuration=    21
   0.66956555 -0.00003312  0.12771050
   0.33040034 -0.00003312  0.12771050
   0.00003312  0.33043345  0.12771050
   0.00003312  0.66959866  0.12771050
   0.33040034  0.33043345  0.12771050
   0.66956555  0.66959866  0.12771050
   0.66666600  0.33333300  0.13116478
   0.33333300  0.66666600  0.13034005
   0.16861873  0.33723847  0.43924659
   0.33712227  0.16856064  0.43926642
   0.16861873  0.83138027  0.43924659
   0.33333300  0.66666600  0.43924881
   0.66666600  0.33333300  0.43931098
   0.83143836  0.16856064  0.43926642
   0.66276053  0.83138027  0.43924659
   0.83143836  0.66287673  0.43926642
Direct configuration=    22
   0.66956561 -0.00003316  0.12778447
   0.33040023 -0.00003316  0.12778447
   0.00003316  0.33043339  0.12778447
   0.00003316  0.66959877  0.12778447
   0.33040023  0.33043339  0.12778447
   0.66956561  0.66959877  0.12778447
   0.66666600  0.33333300  0.13124992
   0.33333300  0.66666600  0.13041884
   0.16862140  0.33724380  0.43917059
   0.33712746  0.16856323  0.43919046
   0.16862140  0.83137760  0.43917059
   0.33333300  0.66666600  0.43917281
   0.66666600  0.33333300  0.43923514
   0.83143577  0.16856323  0.43919046
   0.66275520  0.83137760  0.43917059
   0.83143577  0.66287154  0.43919046
Direct configuration=    23
   0.66956574 -0.00003324  0.12793239
   0.33040002 -0.00003324  0.12793239
   0.00003324  0.33043326  0.12793239
   0.00003324  0.66959898  0.12793239
   0.33040002  0.33043326  0.12793239
   0.66956574  0.66959898  0.12793239
   0.66666600  0.33333300  0.13142022
   0.33333300  0.66666600  0.13057642
   0.16862674  0.33725447  0.43901858
   0.33713783  0.16856841  0.43903855
   0.16862674  0.83137226  0.43901858
   0.33333300  0.66666600  0.43902081
   0.66666600  0.33333300  0.43908344
   0.83143059  0.16856841  0.43903855
   0.66274453  0.83137226  0.43901858
   0.83143059  0.66286117  0.43903855
Direct configuration=    24
   0.66956600 -0.00003340  0.12822825
   0.33039960 -0.00003340  0.12822825
   0.00003340  0.33043300  0.12822825
   0.00003340  0.66959940  0.12822825
   0.33039960  0.33043300  0.12822825
   0.66956600  0.66959940  0.12822825
   0.66666600  0.33333300  0.13176080
   0.33333300  0.66666600  0.13089157
   0.16863740  0.33727581  0.43871457
   0.33715857  0.16857879  0.43873474
   0.16863740  0.83136160  0.43871457
   0.33333300  0.66666600  0.43871681
   0.66666600  0.33333300  0.43878006
   0.83142021  0.16857879  0.43873474
   0.66272319  0.83136160  0.43871457
   0.83142021  0.66284043  0.43873474
Direct configuration=    25
   0.66956653 -0.00003372  0.12881995
   0.33039875 -0.00003372  0.12881995
   0.00003372  0.33043247  0.12881995
   0.00003372  0.66960025  0.12881995
   0.33039875  0.33043247  0.12881995
   0.66956653  0.66960025  0.12881995
   0.66666600  0.33333300  0.13244196
   0.33333300  0.66666600  0.13152189
   0.16865874  0.33731848  0.43810655
   0.33720006  0.16859953  0.43812711
   0.16865874  0.83134026  0.43810655
   0.33333300  0.66666600  0.43810881
   0.66666600  0.33333300  0.43817330
   0.83139947  0.16859953  0.43812711
   0.66268052  0.83134026  0.43810655
   0.83139947  0.66279894  0.43812711
Direct configuration=    26
   0.66956757 -0.00003436  0.13000336
   0.33039707 -0.00003436  0.13000336
   0.00003436  0.33043143  0.13000336
   0.00003436  0.66960193  0.13000336
   0.33039707  0.33043143  0.13000336
   0.66956757  0.66960193  0.13000336
   0.66666600  0.33333300  0.13380429
   0.33333300  0.66666600  0.13278252
   0.16870142  0.33740383  0.43689051
   0.33728303  0.16864101  0.43691186
   0.16870142  0.83129758  0.43689051
   0.33333300  0.66666600  0.43689280
   0.66666600  0.33333300  0.43695977
   0.83135799  0.16864101  0.43691186
   0.66259517  0.83129758  0.43689051
   0.83135799  0.66271597  0.43691186
Direct configuration=    27
   0.66956967 -0.00003564  0.13237019
   0.33039369 -0.00003564  0.13237019
   0.00003564  0.33042933  0.13237019
   0.00003564  0.66960531  0.13237019
   0.33039369  0.33042933  0.13237019
   0.66956967  0.66960531  0.13237019
   0.66666600  0.33333300  0.13652895
   0.33333300  0.66666600  0.13530378
   0.16878677  0.33757453  0.43445842
   0.33744897  0.16872398  0.43448135
   0.16878677  0.83121223  0.43445842
   0.33333300  0.66666600  0.43446080
   0.66666600  0.33333300  0.43453271
   0.83127502  0.16872398  0.43448135
   0.66242447  0.83121223  0.43445842
   0.83127502  0.66255003  0.43448135
Direct configuration=    28
   0.66957385 -0.00003820  0.13710383
   0.33038694 -0.00003820  0.13710383
   0.00003820  0.33042515  0.13710383
   0.00003820  0.66961206  0.13710383
   0.33038694  0.33042515  0.13710383
   0.66957385  0.66961206  0.13710383
   0.66666600  0.33333300  0.14197828
   0.33333300  0.66666600  0.14034630
   0.16895746  0.33791593  0.42959424
   0.33778085  0.16888992  0.42962032
   0.16895746  0.83104154  0.42959424
   0.33333300  0.66666600  0.42959679
   0.66666600  0.33333300  0.42967860
   0.83110908  0.16888992  0.42962032
   0.66208307  0.83104154  0.42959424
   0.83110908  0.66221815  0.42962032
Direct configuration=    29
   0.66958223 -0.00004333  0.14657113
   0.33037344 -0.00004333  0.14657113
   0.00004333  0.33041677  0.14657113
   0.00004333  0.66962556  0.14657113
   0.33037344  0.33041677  0.14657113
   0.66958223  0.66962556  0.14657113
   0.66666600  0.33333300  0.15287692
   0.33333300  0.66666600  0.15043134
   0.16929886  0.33859872  0.41986589
   0.33844461  0.16922181  0.41989828
   0.16929886  0.83070014  0.41986589
   0.33333300  0.66666600  0.41986877
   0.66666600  0.33333300  0.41997036
   0.83077719  0.16922181  0.41989828
   0.66140028  0.83070014  0.41986589
   0.83077719  0.66155439  0.41989828
Direct configuration=    30
   0.66959898 -0.00005358  0.16550571
   0.33034644 -0.00005358  0.16550571
   0.00005358  0.33040002  0.16550571
   0.00005358  0.66965256  0.16550571
   0.33034644  0.33040002  0.16550571
   0.66959898  0.66965256  0.16550571
   0.66666600  0.33333300  0.17467420
   0.33333300  0.66666600  0.17060143
   0.16998165  0.33996430  0.40040919
   0.33977214  0.16988557  0.40045419
   0.16998165  0.83001735  0.40040919
   0.33333300  0.66666600  0.40041274
   0.66666600  0.33333300  0.40055390
   0.83011343  0.16988557  0.40045419
   0.66003470  0.83001735  0.40040919
   0.83011343  0.66022686  0.40045419
Direct configuration=    31
   0.66958792 -0.00004681  0.15300235
   0.33036427 -0.00004681  0.15300235
   0.00004681  0.33041108  0.15300235
   0.00004681  0.66963473  0.15300235
   0.33036427  0.33041108  0.15300235
   0.66958792  0.66963473  0.15300235
   0.66666600  0.33333300  0.16028047
   0.33333300  0.66666600  0.15728221
   0.16953077  0.33906255  0.41325733
   0.33889551  0.16944726  0.41329400
   0.16953077  0.83046823  0.41325733
   0.33333300  0.66666600  0.41326044
   0.66666600  0.33333300  0.41337547
   0.83055174  0.16944726  0.41329400
   0.66093645  0.83046823  0.41325733
   0.83055174  0.66110349  0.41329400
Direct configuration=    32
   0.66959345 -0.00005019  0.15925403
   0.33035536 -0.00005019  0.15925403
   0.00005019  0.33040555  0.15925403
   0.00005019  0.66964364  0.15925403
   0.33035536  0.33040555  0.15925403
   0.66959345  0.66964364  0.15925403
   0.66666600  0.33333300  0.16747734
   0.33333300  0.66666600  0.16394182
   0.16975621  0.33951343  0.40683326
   0.33933383  0.16966641  0.40687409
   0.16975621  0.83024279  0.40683326
   0.33333300  0.66666600  0.40683659
   0.66666600  0.33333300  0.40696469
   0.83033259  0.16966641  0.40687409
   0.66048557  0.83024279  0.40683326
   0.83033259  0.66066517  0.40687409
Direct configuration=    33
   0.66958170 -0.00003784  0.16526462
   0.33037946 -0.00003784  0.16526462
   0.00003784  0.33041730  0.16526462
   0.00003784  0.66961954  0.16526462
   0.33037946  0.33041730  0.16526462
   0.66958170  0.66961954  0.16526462
   0.66666600  0.33333300  0.17437321
   0.33333300  0.66666600  0.17032316
   0.16962505  0.33925110  0.40066291
   0.33908110  0.16954005  0.40070727
   0.16962505  0.83037395  0.40066291
   0.33333300  0.66666600  0.40066661
   0.66666600  0.33333300  0.40080545
   0.83045895  0.16954005  0.40070727
   0.66074790  0.83037395  0.40066291
   0.83045895  0.66091790  0.40070727
Direct configuration=    34
   0.66958075 -0.00003684  0.16575291
   0.33038142 -0.00003684  0.16575291
   0.00003684  0.33041825  0.16575291
   0.00003684  0.66961758  0.16575291
   0.33038142  0.33041825  0.16575291
   0.66958075  0.66961758  0.16575291
   0.66666600  0.33333300  0.17493342
   0.33333300  0.66666600  0.17084157
   0.16961439  0.33922979  0.40016164
   0.33906056  0.16952978  0.40020628
   0.16961439  0.83038461  0.40016164
   0.33333300  0.66666600  0.40016537
   0.66666600  0.33333300  0.40030508
   0.83046922  0.16952978  0.40020628
   0.66076921  0.83038461  0.40016164
   0.83046922  0.66093844  0.40020628
Direct configuration=    35
   0.66955721 -0.00001945  0.16550174
   0.33042234 -0.00001945  0.16550174
   0.00001945  0.33044179  0.16550174
   0.00001945  0.66957666  0.16550174
   0.33042234  0.33044179  0.16550174
   0.66955721  0.66957666  0.16550174
   0.66666600  0.33333300  0.17461840
   0.33333300  0.66666600  0.17054990
   0.16928306  0.33856712  0.40042607
   0.33841771  0.16920835  0.40047026
   0.16928306  0.83071594  0.40042607
   0.33333300  0.66666600  0.40043077
   0.66666600  0.33333300  0.40056816
   0.83079065  0.16920835  0.40047026
   0.66143188  0.83071594  0.40042607
   0.83079065  0.66158129  0.40047026
Direct configuration=    36
   0.66948658  0.00003269  0.16474823
   0.33054512  0.00003269  0.16474823
  -0.00003269  0.33051242  0.16474823
  -0.00003269  0.66945388  0.16474823
   0.33054512  0.33051242  0.16474823
   0.66948658  0.66945388  0.16474823
   0.66666600  0.33333300  0.17367333
   0.33333300  0.66666600  0.16967490
   0.16828907  0.33657914  0.40121936
   0.33648914  0.16824407  0.40126221
   0.16828907  0.83170993  0.40121936
   0.33333300  0.66666600  0.40122696
   0.66666600  0.33333300  0.40135739
   0.83175493  0.16824407  0.40126221
   0.66341986  0.83170993  0.40121936
   0.83175493  0.66350986  0.40126221
Direct configuration=    37
   0.66934532  0.00013699  0.16324121
   0.33079067  0.00013699  0.16324121
  -0.00013699  0.33065368  0.16324121
  -0.00013699  0.66920833  0.16324121
   0.33079067  0.33065368  0.16324121
   0.66934532  0.66920833  0.16324121
   0.66666600  0.33333300  0.17178321
   0.33333300  0.66666600  0.16792489
   0.16630109  0.33260318  0.40280594
   0.33263201  0.16631551  0.40284609
   0.16630109  0.83369791  0.40280594
   0.33333300  0.66666600  0.40281935
   0.66666600  0.33333300  0.40293585
   0.83368349  0.16631551  0.40284609
   0.66739582  0.83369791  0.40280594
   0.83368349  0.66736699  0.40284609
Direct configuration=    38
   0.66937016  0.00011865  0.16350618
   0.33074749  0.00011865  0.16350618
  -0.00011865  0.33062884  0.16350618
  -0.00011865  0.66925151  0.16350618
   0.33074749  0.33062884  0.16350618
   0.66937016  0.66925151  0.16350618
   0.66666600  0.33333300  0.17211553
   0.33333300  0.66666600  0.16823258
   0.16665062  0.33330224  0.40252698
   0.33331018  0.16665459  0.40256761
   0.16665062  0.83334838  0.40252698
   0.33333300  0.66666600  0.40253938
   0.66666600  0.33333300  0.40265832
   0.83334441  0.16665459  0.40256761
   0.66669676  0.83334838  0.40252698
   0.83334441  0.66668882  0.40256761
Direct configuration=    39
   0.66934658  0.00012531  0.16352191
   0.33077773  0.00012531  0.16352191
  -0.00012531  0.33065242  0.16352191
  -0.00012531  0.66922127  0.16352191
   0.33077773  0.33065242  0.16352191
   0.66934658  0.66922127  0.16352191
   0.66666600  0.33333300  0.17207320
   0.33333300  0.66666600  0.16819147
   0.16665270  0.33330640  0.40252656
   0.33331017  0.16665458  0.40256629
   0.16665270  0.83334630  0.40252656
   0.33333300  0.66666600  0.40253876
   0.66666600  0.33333300  0.40265323
   0.83334442  0.16665458  0.40256629
   0.66669260  0.83334630  0.40252656
   0.83334442  0.66668883  0.40256629
Direct configuration=    40
   0.66927584  0.00014527  0.16356909
   0.33086843  0.00014527  0.16356909
  -0.00014527  0.33072316  0.16356909
  -0.00014527  0.66913057  0.16356909
   0.33086843  0.33072316  0.16356909
   0.66927584  0.66913057  0.16356909
   0.66666600  0.33333300  0.17194622
   0.33333300  0.66666600  0.16806813
   0.16665895  0.33331889  0.40252528
   0.33331012  0.16665456  0.40256234
   0.16665895  0.83334005  0.40252528
   0.33333300  0.66666600  0.40253693
   0.66666600  0.33333300  0.40263796
   0.83334444  0.16665456  0.40256234
   0.66668011  0.83334005  0.40252528
   0.83334444  0.66668888  0.40256234
Direct configuration=    41
   0.66913437  0.00018520  0.16366347
   0.33104983  0.00018520  0.16366347
  -0.00018520  0.33086463  0.16366347
  -0.00018520  0.66894917  0.16366347
   0.33104983  0.33086463  0.16366347
   0.66913437  0.66894917  0.16366347
   0.66666600  0.33333300  0.17169225
   0.33333300  0.66666600  0.16782145
   0.16667144  0.33334388  0.40252271
   0.33331004  0.16665452  0.40255444
   0.16667144  0.83332756  0.40252271
   0.33333300  0.66666600  0.40253327
   0.66666600  0.33333300  0.40260743
   0.83334448  0.16665452  0.40255444
   0.66665512  0.83332756  0.40252271
   0.83334448  0.66668896  0.40255444
Direct configuration=    42
   0.66885142  0.00026505  0.16385221
   0.33141263  0.00026505  0.16385221
  -0.00026505  0.33114758  0.16385221
  -0.00026505  0.66858637  0.16385221
   0.33141263  0.33114758  0.16385221
   0.66885142  0.66858637  0.16385221
   0.66666600  0.33333300  0.17118432
   0.33333300  0.66666600  0.16732809
   0.16669642  0.33339384  0.40251759
   0.33330987  0.16665443  0.40253864
   0.16669642  0.83330258  0.40251759
   0.33333300  0.66666600  0.40252594
   0.66666600  0.33333300  0.40254637
   0.83334457  0.16665443  0.40253864
   0.66660516  0.83330258  0.40251759
   0.83334457  0.66668913  0.40253864
Direct configuration=    43
   0.66828552  0.00042475  0.16422970
   0.33213823  0.00042475  0.16422970
  -0.00042475  0.33171348  0.16422970
  -0.00042475  0.66786077  0.16422970
   0.33213823  0.33171348  0.16422970
   0.66828552  0.66786077  0.16422970
   0.66666600  0.33333300  0.17016846
   0.33333300  0.66666600  0.16634138
   0.16674638  0.33349377  0.40250734
   0.33330952  0.16665426  0.40250703
   0.16674638  0.83325262  0.40250734
   0.33333300  0.66666600  0.40251129
   0.66666600  0.33333300  0.40242425
   0.83334474  0.16665426  0.40250703
   0.66650523  0.83325262  0.40250734
   0.83334474  0.66668948  0.40250703
Direct configuration=    44
   0.66829469  0.00040967  0.16426106
   0.33211398  0.00040967  0.16426106
  -0.00040967  0.33170431  0.16426106
  -0.00040967  0.66788502  0.16426106
   0.33211398  0.33170431  0.16426106
   0.66829469  0.66788502  0.16426106
   0.66666600  0.33333300  0.17008587
   0.33333300  0.66666600  0.16625896
   0.16674093  0.33348286  0.40250588
   0.33331066  0.16665483  0.40250354
   0.16674093  0.83325807  0.40250588
   0.33333300  0.66666600  0.40250999
   0.66666600  0.33333300  0.40241718
   0.83334417  0.16665483  0.40250354
   0.66651614  0.83325807  0.40250588
   0.83334417  0.66668834  0.40250354
Direct configuration=    45
   0.66832221  0.00036442  0.16435516
   0.33204121  0.00036442  0.16435516
  -0.00036442  0.33167679  0.16435516
  -0.00036442  0.66795779  0.16435516
   0.33204121  0.33167679  0.16435516
   0.66832221  0.66795779  0.16435516
   0.66666600  0.33333300  0.16983812
   0.33333300  0.66666600  0.16601170
   0.16672456  0.33345013  0.40250151
   0.33331408  0.16665654  0.40249309
   0.16672456  0.83327444  0.40250151
   0.33333300  0.66666600  0.40250610
   0.66666600  0.33333300  0.40239598
   0.83334246  0.16665654  0.40249309
   0.66654887  0.83327444  0.40250151
   0.83334246  0.66668492  0.40249309
Direct configuration=    46
   0.66837724  0.00027393  0.16454336
   0.33189568  0.00027393  0.16454336
  -0.00027393  0.33162176  0.16454336
  -0.00027393  0.66810332  0.16454336
   0.33189568  0.33162176  0.16454336
   0.66837724  0.66810332  0.16454336
   0.66666600  0.33333300  0.16934260
   0.33333300  0.66666600  0.16551717
   0.16669183  0.33338467  0.40249277
   0.33332092  0.16665996  0.40247218
   0.16669183  0.83330717  0.40249277
   0.33333300  0.66666600  0.40249833
   0.66666600  0.33333300  0.40235358
   0.83333904  0.16665996  0.40247218
   0.66661433  0.83330717  0.40249277
   0.83333904  0.66667808  0.40247218
Direct configuration=    47
   0.66848732  0.00009294  0.16491975
   0.33160462  0.00009294  0.16491975
  -0.00009294  0.33151168  0.16491975
  -0.00009294  0.66839438  0.16491975
   0.33160462  0.33151168  0.16491975
   0.66848732  0.66839438  0.16491975
   0.66666600  0.33333300  0.16835158
   0.33333300  0.66666600  0.16452812
   0.16662637  0.33325374  0.40247529
   0.33333460  0.16666680  0.40243035
   0.16662637  0.83337263  0.40247529
   0.33333300  0.66666600  0.40248278
   0.66666600  0.33333300  0.40226877