  15  15   0   4
  0.2079327E+02  0.4900000E-09  0.4900000E-09  0.1500000E-08  0.5000000E-15
  1.000000000000000E-004
  CAR 
 Lattice                                 
      9.99371118    -21.51177168  301     -0.42297257      1.00000000
    -21.512  0.0000E+00  0.0000E+00  0.0000E+00  0.0000E+00
    -21.407  0.0000E+00  0.0000E+00  0.0000E+00  0.0000E+00
    -21.302  0.0000E+00  0.0000E+00  0.0000E+00  0.0000E+00
    -21.197  0.0000E+00  0.0000E+00  0.0000E+00  0.0000E+00
    -21.092  0.0000E+00  0.0000E+00  0.0000E+00  0.0000E+00
    -20.987  0.0000E+00  0.0000E+00  0.0000E+00  0.0000E+00
    -20.882  0.0000E+00  0.0000E+00  0.0000E+00  0.0000E+00
    -20.777  0.0000E+00  0.0000E+00  0.0000E+00  0.0000E+00
    -20.672  0.2868E-19  0.2868E-19  0.3012E-20  0.3012E-20
    -20.567  0.1605E-14  0.1605E-14  0.1686E-15  0.1686E-15
    -20.462  0.2045E-10  0.2045E-10  0.2148E-11  0.2148E-11
    -20.357  0.3372E-07  0.3372E-07  0.3543E-08  0.3543E-08
    -20.252  0.7862E-05  0.7862E-05  0.8292E-06  0.8292E-06
    -20.147  0.2877E-03  0.2877E-03  0.3104E-04  0.3104E-04
    -20.042  0.2016E-02  0.2016E-02  0.2427E-03  0.2427E-03
    -19.936  0.4210E-02  0.4210E-02  0.6848E-03  0.6848E-03
    -19.831  0.4615E-02  0.4615E-02  0.1169E-02  0.1169E-02
    -19.726  0.5005E-02  0.5005E-02  0.1695E-02  0.1695E-02
    -19.621  0.4268E-02  0.4268E-02  0.2143E-02  0.2143E-02
    -19.516  0.5456E-02  0.5456E-02  0.2716E-02  0.2716E-02
    -19.411  0.4286E-02  0.4286E-02  0.3166E-02  0.3166E-02
    -19.306  0.4395E-02  0.4395E-02  0.3628E-02  0.3628E-02
    -19.201  0.6066E-02  0.6066E-02  0.4265E-02  0.4265E-02
    -19.096  0.3858E-02  0.3858E-02  0.4670E-02  0.4670E-02
    -18.991  0.4045E-02  0.4045E-02  0.5095E-02  0.5095E-02
    -18.886  0.6211E-02  0.6211E-02  0.5747E-02  0.5747E-02
    -18.781  0.5233E-02  0.5233E-02  0.6297E-02  0.6297E-02
    -18.676  0.3000E-02  0.3000E-02  0.6612E-02  0.6612E-02
    -18.571  0.4631E-02  0.4631E-02  0.7098E-02  0.7098E-02
    -18.466  0.6957E-02  0.6957E-02  0.7829E-02  0.7829E-02
    -18.361  0.4594E-02  0.4594E-02  0.8311E-02  0.8311E-02
    -18.256  0.3807E-02  0.3807E-02  0.8711E-02  0.8711E-02
    -18.151  0.3173E-02  0.3173E-02  0.9044E-02  0.9044E-02
    -18.046  0.6890E-02  0.6890E-02  0.9768E-02  0.9768E-02
    -17.941  0.6545E-02  0.6545E-02  0.1046E-01  0.1046E-01
    -17.836  0.3489E-02  0.3489E-02  0.1082E-01  0.1082E-01
    -17.731  0.3451E-02  0.3451E-02  0.1118E-01  0.1118E-01
    -17.626  0.4257E-02  0.4257E-02  0.1163E-01  0.1163E-01
    -17.521  0.6518E-02  0.6518E-02  0.1232E-01  0.1232E-01
    -17.416  0.6835E-02  0.6835E-02  0.1303E-01  0.1303E-01
    -17.311  0.6405E-02  0.6405E-02  0.1371E-01  0.1371E-01
    -17.206  0.7822E-02  0.7822E-02  0.1453E-01  0.1453E-01
    -17.101  0.1126E-01  0.1126E-01  0.1571E-01  0.1571E-01
    -16.996  0.1539E-01  0.1539E-01  0.1733E-01  0.1733E-01
    -16.891  0.1658E-01  0.1658E-01  0.1907E-01  0.1907E-01
    -16.786  0.1929E-01  0.1929E-01  0.2109E-01  0.2109E-01
    -16.681  0.2140E-01  0.2140E-01  0.2334E-01  0.2334E-01
    -16.576  0.1204E-01  0.1204E-01  0.2460E-01  0.2460E-01
    -16.471  0.3623E-02  0.3623E-02  0.2498E-01  0.2498E-01
    -16.366  0.7959E-02  0.7959E-02  0.2582E-01  0.2582E-01
    -16.261  0.7692E-02  0.7692E-02  0.2663E-01  0.2663E-01
    -16.156  0.4595E-02  0.4595E-02  0.2711E-01  0.2711E-01
    -16.051  0.4153E-02  0.4153E-02  0.2755E-01  0.2755E-01
    -15.946  0.4075E-02  0.4075E-02  0.2798E-01  0.2798E-01
    -15.841  0.3609E-02  0.3609E-02  0.2835E-01  0.2835E-01
    -15.736  0.4386E-02  0.4386E-02  0.2881E-01  0.2881E-01
    -15.631  0.8894E-02  0.8894E-02  0.2975E-01  0.2975E-01
    -15.526  0.7336E-02  0.7336E-02  0.3052E-01  0.3052E-01
    -15.421  0.3902E-02  0.3902E-02  0.3093E-01  0.3093E-01
    -15.316  0.3928E-02  0.3928E-02  0.3134E-01  0.3134E-01
    -15.211  0.3763E-02  0.3763E-02  0.3174E-01  0.3174E-01
    -15.106  0.4916E-02  0.4916E-02  0.3225E-01  0.3225E-01
    -15.001  0.7145E-02  0.7145E-02  0.3300E-01  0.3300E-01
    -14.896  0.1346E-01  0.1346E-01  0.3442E-01  0.3442E-01
    -14.791  0.1811E-01  0.1811E-01  0.3632E-01  0.3632E-01
    -14.686  0.1939E-01  0.1939E-01  0.3836E-01  0.3836E-01
    -14.581  0.1575E-01  0.1575E-01  0.4001E-01  0.4001E-01
    -14.476  0.8792E-02  0.8792E-02  0.4093E-01  0.4093E-01
    -14.371  0.9890E-02  0.9890E-02  0.4197E-01  0.4197E-01
    -14.266  0.1716E-01  0.1716E-01  0.4377E-01  0.4377E-01
    -14.160  0.1343E-01  0.1343E-01  0.4518E-01  0.4518E-01
    -14.055  0.1102E-01  0.1102E-01  0.4634E-01  0.4634E-01
    -13.950  0.1088E-01  0.1088E-01  0.4748E-01  0.4748E-01
    -13.845  0.1502E-01  0.1502E-01  0.4906E-01  0.4906E-01
    -13.740  0.1992E-01  0.1992E-01  0.5115E-01  0.5115E-01
    -13.635  0.1855E-01  0.1855E-01  0.5310E-01  0.5310E-01
    -13.530  0.1657E-01  0.1657E-01  0.5484E-01  0.5484E-01
    -13.425  0.8437E-02  0.8437E-02  0.5573E-01  0.5573E-01
    -13.320  0.5649E-02  0.5649E-02  0.5632E-01  0.5632E-01
    -13.215  0.4183E-02  0.4183E-02  0.5676E-01  0.5676E-01
    -13.110  0.4254E-02  0.4254E-02  0.5721E-01  0.5721E-01
    -13.005  0.7157E-02  0.7157E-02  0.5796E-01  0.5796E-01
    -12.900  0.6862E-02  0.6862E-02  0.5868E-01  0.5868E-01
    -12.795  0.5062E-02  0.5062E-02  0.5921E-01  0.5921E-01
    -12.690  0.7801E-02  0.7801E-02  0.6003E-01  0.6003E-01
    -12.585  0.7068E-02  0.7068E-02  0.6077E-01  0.6077E-01
    -12.480  0.5360E-02  0.5360E-02  0.6133E-01  0.6133E-01
    -12.375  0.5675E-02  0.5675E-02  0.6193E-01  0.6193E-01
    -12.270  0.3068E-02  0.3068E-02  0.6225E-01  0.6225E-01
    -12.165  0.6953E-02  0.6953E-02  0.6298E-01  0.6298E-01
    -12.060  0.8205E-02  0.8205E-02  0.6384E-01  0.6384E-01
    -11.955  0.2926E-02  0.2926E-02  0.6415E-01  0.6415E-01
    -11.850  0.3362E-02  0.3362E-02  0.6451E-01  0.6451E-01
    -11.745  0.3729E-02  0.3729E-02  0.6490E-01  0.6490E-01
    -11.640  0.6849E-02  0.6849E-02  0.6562E-01  0.6562E-01
    -11.535  0.6119E-02  0.6119E-02  0.6626E-01  0.6626E-01
    -11.430  0.3480E-02  0.3480E-02  0.6662E-01  0.6662E-01
    -11.325  0.2335E-02  0.2335E-02  0.6687E-01  0.6687E-01
    -11.220  0.4392E-02  0.4392E-02  0.6733E-01  0.6733E-01
    -11.115  0.5441E-02  0.5441E-02  0.6790E-01  0.6790E-01
    -11.010  0.5539E-02  0.5539E-02  0.6848E-01  0.6848E-01
    -10.905  0.5901E-02  0.5901E-02  0.6910E-01  0.6910E-01
    -10.800  0.6197E-02  0.6197E-02  0.6975E-01  0.6975E-01
    -10.695  0.3840E-02  0.3840E-02  0.7016E-01  0.7016E-01
    -10.590  0.7103E-02  0.7103E-02  0.7090E-01  0.7090E-01
    -10.485  0.1378E-01  0.1378E-01  0.7235E-01  0.7235E-01
    -10.380  0.1593E-01  0.1593E-01  0.7402E-01  0.7402E-01
    -10.275  0.1225E-01  0.1225E-01  0.7531E-01  0.7531E-01
    -10.170  0.1451E-01  0.1451E-01  0.7683E-01  0.7683E-01
    -10.065  0.1984E-01  0.1984E-01  0.7892E-01  0.7892E-01
     -9.960  0.1858E-01  0.1858E-01  0.8087E-01  0.8087E-01
     -9.855  0.1157E-01  0.1157E-01  0.8208E-01  0.8208E-01
     -9.750  0.7584E-02  0.7584E-02  0.8288E-01  0.8288E-01
     -9.645  0.1432E-01  0.1432E-01  0.8438E-01  0.8438E-01
     -9.540  0.1420E-01  0.1420E-01  0.8587E-01  0.8587E-01
     -9.435  0.1573E-01  0.1573E-01  0.8753E-01  0.8753E-01
     -9.330  0.1670E-01  0.1670E-01  0.8928E-01  0.8928E-01
     -9.225  0.1478E-01  0.1478E-01  0.9083E-01  0.9083E-01
     -9.120  0.1091E-01  0.1091E-01  0.9198E-01  0.9198E-01
     -9.015  0.9526E-02  0.9526E-02  0.9298E-01  0.9298E-01
     -8.910  0.1478E-01  0.1478E-01  0.9453E-01  0.9453E-01
     -8.805  0.1782E-01  0.1782E-01  0.9640E-01  0.9640E-01
     -8.700  0.1508E-01  0.1508E-01  0.9799E-01  0.9799E-01
     -8.595  0.9061E-02  0.9061E-02  0.9894E-01  0.9894E-01
     -8.490  0.1232E-01  0.1232E-01  0.1002E+00  0.1002E+00
     -8.384  0.1920E-01  0.1920E-01  0.1022E+00  0.1022E+00
     -8.279  0.1490E-01  0.1490E-01  0.1038E+00  0.1038E+00
     -8.174  0.1259E-01  0.1259E-01  0.1051E+00  0.1051E+00
     -8.069  0.1721E-01  0.1721E-01  0.1069E+00  0.1069E+00
     -7.964  0.2254E-01  0.2254E-01  0.1093E+00  0.1093E+00
     -7.859  0.2804E-01  0.2804E-01  0.1123E+00  0.1123E+00
     -7.754  0.1876E-01  0.1876E-01  0.1142E+00  0.1142E+00
     -7.649  0.9892E-02  0.9892E-02  0.1153E+00  0.1153E+00
     -7.544  0.9303E-02  0.9303E-02  0.1162E+00  0.1162E+00
     -7.439  0.1530E-01  0.1530E-01  0.1178E+00  0.1178E+00
     -7.334  0.1834E-01  0.1834E-01  0.1198E+00  0.1198E+00
     -7.229  0.1551E-01  0.1551E-01  0.1214E+00  0.1214E+00
     -7.124  0.1081E-01  0.1081E-01  0.1225E+00  0.1225E+00
     -7.019  0.1255E-01  0.1255E-01  0.1239E+00  0.1239E+00
     -6.914  0.1826E-01  0.1826E-01  0.1258E+00  0.1258E+00
     -6.809  0.2206E-01  0.2206E-01  0.1281E+00  0.1281E+00
     -6.704  0.2212E-01  0.2212E-01  0.1304E+00  0.1304E+00
     -6.599  0.1655E-01  0.1655E-01  0.1322E+00  0.1322E+00
     -6.494  0.1657E-01  0.1657E-01  0.1339E+00  0.1339E+00
     -6.389  0.2128E-01  0.2128E-01  0.1361E+00  0.1361E+00
     -6.284  0.2083E-01  0.2083E-01  0.1383E+00  0.1383E+00
     -6.179  0.2532E-01  0.2532E-01  0.1410E+00  0.1410E+00
     -6.074  0.2470E-01  0.2470E-01  0.1436E+00  0.1436E+00
     -5.969  0.2500E-01  0.2500E-01  0.1462E+00  0.1462E+00
     -5.864  0.3213E-01  0.3213E-01  0.1496E+00  0.1496E+00
     -5.759  0.2478E-01  0.2478E-01  0.1522E+00  0.1522E+00
     -5.654  0.1642E-01  0.1642E-01  0.1539E+00  0.1539E+00
     -5.549  0.2455E-01  0.2455E-01  0.1565E+00  0.1565E+00
     -5.444  0.4058E-01  0.4058E-01  0.1607E+00  0.1607E+00
     -5.339  0.3061E-01  0.3061E-01  0.1639E+00  0.1639E+00
     -5.234  0.1348E-01  0.1348E-01  0.1654E+00  0.1654E+00
     -5.129  0.1250E-01  0.1250E-01  0.1667E+00  0.1667E+00
     -5.024  0.1390E-01  0.1390E-01  0.1681E+00  0.1681E+00
     -4.919  0.1549E-01  0.1549E-01  0.1698E+00  0.1698E+00
     -4.814  0.9365E-02  0.9365E-02  0.1707E+00  0.1707E+00
     -4.709  0.6245E-02  0.6245E-02  0.1714E+00  0.1714E+00
     -4.604  0.8285E-02  0.8285E-02  0.1723E+00  0.1723E+00
     -4.499  0.1768E-01  0.1768E-01  0.1741E+00  0.1741E+00
     -4.394  0.2336E-01  0.2336E-01  0.1766E+00  0.1766E+00
     -4.289  0.2126E-01  0.2126E-01  0.1788E+00  0.1788E+00
     -4.184  0.1964E-01  0.1964E-01  0.1809E+00  0.1809E+00
     -4.079  0.1734E-01  0.1734E-01  0.1827E+00  0.1827E+00
     -3.974  0.2066E-01  0.2066E-01  0.1849E+00  0.1849E+00
     -3.869  0.1977E-01  0.1977E-01  0.1869E+00  0.1869E+00
     -3.764  0.1875E-01  0.1875E-01  0.1889E+00  0.1889E+00
     -3.659  0.2141E-01  0.2141E-01  0.1912E+00  0.1912E+00
     -3.554  0.1843E-01  0.1843E-01  0.1931E+00  0.1931E+00
     -3.449  0.1452E-01  0.1452E-01  0.1946E+00  0.1946E+00
     -3.344  0.1183E-01  0.1183E-01  0.1959E+00  0.1959E+00
     -3.239  0.1316E-01  0.1316E-01  0.1972E+00  0.1972E+00
     -3.134  0.1867E-01  0.1867E-01  0.1992E+00  0.1992E+00
     -3.029  0.1619E-01  0.1619E-01  0.2009E+00  0.2009E+00
     -2.924  0.1124E-01  0.1124E-01  0.2021E+00  0.2021E+00
     -2.819  0.1150E-01  0.1150E-01  0.2033E+00  0.2033E+00
     -2.714  0.7211E-02  0.7211E-02  0.2041E+00  0.2041E+00
     -2.608  0.1299E-01  0.1299E-01  0.2054E+00  0.2054E+00
     -2.503  0.2023E-01  0.2023E-01  0.2075E+00  0.2075E+00
     -2.398  0.1174E-01  0.1174E-01  0.2088E+00  0.2088E+00
     -2.293  0.3681E-02  0.3681E-02  0.2092E+00  0.2092E+00
     -2.188  0.6614E-02  0.6614E-02  0.2099E+00  0.2099E+00
     -2.083  0.1006E-01  0.1006E-01  0.2109E+00  0.2109E+00
     -1.978  0.1032E-01  0.1032E-01  0.2120E+00  0.2120E+00
     -1.873  0.1200E-01  0.1200E-01  0.2133E+00  0.2133E+00
     -1.768  0.1121E-01  0.1121E-01  0.2144E+00  0.2144E+00
     -1.663  0.9368E-02  0.9368E-02  0.2154E+00  0.2154E+00
     -1.558  0.6485E-02  0.6485E-02  0.2161E+00  0.2161E+00
     -1.453  0.3732E-02  0.3732E-02  0.2165E+00  0.2165E+00
     -1.348  0.4526E-02  0.4526E-02  0.2170E+00  0.2170E+00
     -1.243  0.3676E-02  0.3676E-02  0.2173E+00  0.2173E+00
     -1.138  0.4679E-02  0.4679E-02  0.2178E+00  0.2178E+00
     -1.033  0.5406E-02  0.5406E-02  0.2184E+00  0.2184E+00
     -0.928  0.1873E-02  0.1873E-02  0.2186E+00  0.2186E+00
     -0.823  0.3223E-03  0.3223E-03  0.2186E+00  0.2186E+00
     -0.718  0.2030E-04  0.2030E-04  0.2186E+00  0.2186E+00
     -0.613  0.7568E-05  0.7568E-05  0.2186E+00  0.2186E+00
     -0.508  0.2287E-03  0.2287E-03  0.2187E+00  0.2187E+00
     -0.403  0.1026E-02  0.1026E-02  0.2188E+00  0.2188E+00
     -0.298  0.7246E-03  0.7246E-03  0.2189E+00  0.2189E+00
     -0.193  0.7874E-04  0.7874E-04  0.2189E+00  0.2189E+00
     -0.088  0.1192E-05  0.1192E-05  0.2189E+00  0.2189E+00
      0.017  0.3976E-05  0.3976E-05  0.2189E+00  0.2189E+00
      0.122  0.2529E-03  0.2529E-03  0.2189E+00  0.2189E+00
      0.227  0.2233E-02  0.2233E-02  0.2191E+00  0.2191E+00
      0.332  0.3050E-02  0.3050E-02  0.2194E+00  0.2194E+00
      0.437  0.1034E-02  0.1034E-02  0.2195E+00  0.2195E+00
      0.542  0.2350E-02  0.2350E-02  0.2198E+00  0.2198E+00
      0.647  0.5338E-02  0.5338E-02  0.2204E+00  0.2204E+00
      0.752  0.9842E-02  0.9842E-02  0.2214E+00  0.2214E+00
      0.857  0.2259E-01  0.2259E-01  0.2238E+00  0.2238E+00
      0.962  0.2342E-01  0.2342E-01  0.2262E+00  0.2262E+00
      1.067  0.6359E-02  0.6359E-02  0.2269E+00  0.2269E+00
      1.172  0.1087E-02  0.1087E-02  0.2270E+00  0.2270E+00
      1.277  0.3133E-02  0.3133E-02  0.2273E+00  0.2273E+00
      1.382  0.1189E-01  0.1189E-01  0.2286E+00  0.2286E+00
      1.487  0.2023E-01  0.2023E-01  0.2307E+00  0.2307E+00
      1.592  0.1879E-01  0.1879E-01  0.2327E+00  0.2327E+00
      1.697  0.1053E-01  0.1053E-01  0.2338E+00  0.2338E+00
      1.802  0.7728E-02  0.7728E-02  0.2346E+00  0.2346E+00
      1.907  0.9882E-02  0.9882E-02  0.2356E+00  0.2356E+00
      2.012  0.7377E-02  0.7377E-02  0.2364E+00  0.2364E+00
      2.117  0.9245E-02  0.9245E-02  0.2374E+00  0.2374E+00
      2.222  0.7348E-02  0.7348E-02  0.2382E+00  0.2382E+00
      2.327  0.6730E-02  0.6730E-02  0.2389E+00  0.2389E+00
      2.432  0.1396E-01  0.1396E-01  0.2403E+00  0.2403E+00
      2.537  0.9476E-02  0.9476E-02  0.2413E+00  0.2413E+00
      2.642  0.4105E-02  0.4105E-02  0.2418E+00  0.2418E+00
      2.747  0.5038E-02  0.5038E-02  0.2423E+00  0.2423E+00
      2.852  0.8784E-02  0.8784E-02  0.2432E+00  0.2432E+00
      2.957  0.1120E-01  0.1120E-01  0.2444E+00  0.2444E+00
      3.063  0.1059E-01  0.1059E-01  0.2455E+00  0.2455E+00
      3.168  0.1007E-01  0.1007E-01  0.2465E+00  0.2465E+00
      3.273  0.1353E-01  0.1353E-01  0.2480E+00  0.2480E+00
      3.378  0.2075E-01  0.2075E-01  0.2501E+00  0.2501E+00
      3.483  0.2701E-01  0.2701E-01  0.2530E+00  0.2530E+00
      3.588  0.2623E-01  0.2623E-01  0.2557E+00  0.2557E+00
      3.693  0.2117E-01  0.2117E-01  0.2580E+00  0.2580E+00
      3.798  0.2585E-01  0.2585E-01  0.2607E+00  0.2607E+00
      3.903  0.2422E-01  0.2422E-01  0.2632E+00  0.2632E+00
      4.008  0.2253E-01  0.2253E-01  0.2656E+00  0.2656E+00
      4.113  0.2054E-01  0.2054E-01  0.2677E+00  0.2677E+00
      4.218  0.2183E-01  0.2183E-01  0.2700E+00  0.2700E+00
      4.323  0.2249E-01  0.2249E-01  0.2724E+00  0.2724E+00
      4.428  0.2068E-01  0.2068E-01  0.2746E+00  0.2746E+00
      4.533  0.2335E-01  0.2335E-01  0.2770E+00  0.2770E+00
      4.638  0.2773E-01  0.2773E-01  0.2799E+00  0.2799E+00
      4.743  0.2222E-01  0.2221E-01  0.2823E+00  0.2823E+00
      4.848  0.1921E-01  0.1921E-01  0.2843E+00  0.2843E+00
      4.953  0.2873E-01  0.2873E-01  0.2873E+00  0.2873E+00
      5.058  0.3247E-01  0.3247E-01  0.2907E+00  0.2907E+00
      5.163  0.2021E-01  0.2021E-01  0.2928E+00  0.2928E+00
      5.268  0.1924E-01  0.1924E-01  0.2949E+00  0.2949E+00
      5.373  0.2521E-01  0.2521E-01  0.2975E+00  0.2975E+00
      5.478  0.2056E-01  0.2056E-01  0.2997E+00  0.2997E+00
      5.583  0.2065E-01  0.2065E-01  0.3018E+00  0.3018E+00
      5.688  0.2470E-01  0.2470E-01  0.3044E+00  0.3044E+00
      5.793  0.2103E-01  0.2103E-01  0.3066E+00  0.3066E+00
      5.898  0.2076E-01  0.2076E-01  0.3088E+00  0.3088E+00
      6.003  0.1920E-01  0.1920E-01  0.3108E+00  0.3108E+00
      6.108  0.1943E-01  0.1943E-01  0.3129E+00  0.3129E+00
      6.213  0.1818E-01  0.1818E-01  0.3148E+00  0.3148E+00
      6.318  0.2778E-01  0.2778E-01  0.3177E+00  0.3177E+00
      6.423  0.3288E-01  0.3288E-01  0.3211E+00  0.3211E+00
      6.528  0.2782E-01  0.2782E-01  0.3241E+00  0.3241E+00
      6.633  0.2434E-01  0.2433E-01  0.3266E+00  0.3266E+00
      6.738  0.2406E-01  0.2406E-01  0.3292E+00  0.3292E+00
      6.843  0.2867E-01  0.2867E-01  0.3322E+00  0.3322E+00
      6.948  0.2339E-01  0.2339E-01  0.3346E+00  0.3346E+00
      7.053  0.2402E-01  0.2403E-01  0.3371E+00  0.3371E+00
      7.158  0.2031E-01  0.2031E-01  0.3393E+00  0.3393E+00
      7.263  0.2341E-01  0.2341E-01  0.3417E+00  0.3417E+00
      7.368  0.3033E-01  0.3033E-01  0.3449E+00  0.3449E+00
      7.473  0.3178E-01  0.3178E-01  0.3483E+00  0.3483E+00
      7.578  0.2763E-01  0.2764E-01  0.3512E+00  0.3512E+00
      7.683  0.2432E-01  0.2432E-01  0.3537E+00  0.3537E+00
      7.788  0.2672E-01  0.2671E-01  0.3565E+00  0.3565E+00
      7.893  0.4184E-01  0.4183E-01  0.3609E+00  0.3609E+00
      7.998  0.4541E-01  0.4541E-01  0.3657E+00  0.3657E+00
      8.103  0.3374E-01  0.3374E-01  0.3692E+00  0.3692E+00
      8.208  0.2655E-01  0.2656E-01  0.3720E+00  0.3720E+00
      8.313  0.1422E-01  0.1422E-01  0.3735E+00  0.3735E+00
      8.418  0.6807E-02  0.6808E-02  0.3742E+00  0.3742E+00
      8.523  0.3979E-02  0.3980E-02  0.3746E+00  0.3746E+00
      8.628  0.2777E-02  0.2777E-02  0.3749E+00  0.3749E+00
      8.733  0.6100E-03  0.6099E-03  0.3750E+00  0.3750E+00
      8.839  0.2459E-04  0.2458E-04  0.3750E+00  0.3750E+00
      8.944  0.1422E-06  0.1422E-06  0.3750E+00  0.3750E+00
      9.049  0.1035E-09  0.1034E-09  0.3750E+00  0.3750E+00
      9.154  0.8914E-14  0.8908E-14  0.3750E+00  0.3750E+00
      9.259  0.0000E+00  0.0000E+00  0.3750E+00  0.3750E+00
      9.364  0.0000E+00  0.0000E+00  0.3750E+00  0.3750E+00
      9.469  0.0000E+00  0.0000E+00  0.3750E+00  0.3750E+00
      9.574  0.0000E+00  0.0000E+00  0.3750E+00  0.3750E+00
      9.679  0.0000E+00  0.0000E+00  0.3750E+00  0.3750E+00
      9.784  0.0000E+00  0.0000E+00  0.3750E+00  0.3750E+00
      9.889  0.0000E+00  0.0000E+00  0.3750E+00  0.3750E+00
      9.994  0.0000E+00  0.0000E+00  0.3750E+00  0.3750E+00
