 ----------------------------------------------------
    OOO  PPPP  EEEEE N   N M   M PPPP
   O   O P   P E     NN  N MM MM P   P
   O   O PPPP  EEEEE N N N M M M PPPP   -- VERSION
   O   O P     E     N  NN M   M P
    OOO  P     EEEEE N   N M   M P
 ----------------------------------------------------
 running   48 mpi-ranks, with    1 threads/rank
 distrk:  each k-point on   48 cores,    1 groups
 distr:  one band on    1 cores,   48 groups
 vasp.6.3.2 27Jun22 (build Dec 22 2022 13:13:19) complex                        
  
 POSCAR found type information on POSCAR B C 
 POSCAR found :  2 types and      16 ions
 Reading from existing POTCAR
 -----------------------------------------------------------------------------
|                                                                             |
|           W    W    AA    RRRRR   N    N  II  N    N   GGGG   !!!           |
|           W    W   A  A   R    R  NN   N  II  NN   N  G    G  !!!           |
|           W    W  A    A  R    R  N N  N  II  N N  N  G       !!!           |
|           W WW W  AAAAAA  RRRRR   N  N N  II  N  N N  G  GGG   !            |
|           WW  WW  A    A  R   R   N   NN  II  N   NN  G    G                |
|           W    W  A    A  R    R  N    N  II  N    N   GGGG   !!!           |
|                                                                             |
|     You use a magnetic or noncollinear calculation, but did not specify     |
|     the initial magnetic moment with the MAGMOM tag. Note that a            |
|     default of 1 will be used for all atoms. This ferromagnetic setup       |
|     may break the symmetry of the crystal, in particular it may rule        |
|     out finding an antiferromagnetic solution. Thence, we recommend         |
|     setting the initial magnetic moment manually or verifying carefully     |
|     that this magnetic setup is desired.                                    |
|                                                                             |
 -----------------------------------------------------------------------------

 scaLAPACK will be used
 Reading from existing POTCAR
 LDA part: xc-table for Pade appr. of Perdew
 POSCAR found type information on POSCAR B C 
 POSCAR found :  2 types and      16 ions
 POSCAR, INCAR and KPOINTS ok, starting setup
 FFT: planning ... GRIDC
 FFT: planning ... GRID_SOFT
 FFT: planning ... GRID
 WAVECAR not read
 entering main loop
       N       E                     dE             d eps       ncg     rms          rms(c)
DAV:   1     0.188210952490E+03    0.18821E+03   -0.25359E+04  8256   0.862E+02
DAV:   2    -0.118460195628E+03   -0.30667E+03   -0.30578E+03 12912   0.158E+02
DAV:   3    -0.127953574489E+03   -0.94934E+01   -0.94528E+01 13872   0.368E+01
DAV:   4    -0.127980868554E+03   -0.27294E-01   -0.27292E-01 12720   0.178E+00
DAV:   5    -0.127980906154E+03   -0.37600E-04   -0.37600E-04 13104   0.735E-02    0.228E+01
DAV:   6    -0.945746355367E+02    0.33406E+02   -0.57287E+01 10416   0.216E+01    0.124E+01
DAV:   7    -0.105687332977E+03   -0.11113E+02   -0.14126E+01 12624   0.112E+01    0.672E+00
DAV:   8    -0.111486626162E+03   -0.57993E+01   -0.50821E+00 12288   0.646E+00    0.375E+00
DAV:   9    -0.116786461375E+03   -0.52998E+01   -0.28175E+00 10224   0.472E+00    0.253E+00
DAV:  10    -0.120928106403E+03   -0.41416E+01   -0.32154E+00 12720   0.473E+00    0.135E+00
DAV:  11    -0.122777115122E+03   -0.18490E+01   -0.14356E+00 11856   0.282E+00    0.819E-01
DAV:  12    -0.123756547029E+03   -0.97943E+00   -0.78453E-01 13200   0.193E+00    0.402E-01
DAV:  13    -0.124062907812E+03   -0.30636E+00   -0.19104E-01 12624   0.967E-01    0.195E-01
DAV:  14    -0.124116211288E+03   -0.53303E-01   -0.28776E-02  9936   0.399E-01    0.109E-01
DAV:  15    -0.124139886204E+03   -0.23675E-01   -0.14696E-02 10128   0.295E-01    0.581E-02
DAV:  16    -0.124141306602E+03   -0.14204E-02   -0.22206E-03  9840   0.179E-01    0.376E-02
DAV:  17    -0.124141847954E+03   -0.54135E-03   -0.77604E-04  9216   0.958E-02    0.150E-02
DAV:  18    -0.124141881045E+03   -0.33091E-04   -0.15141E-04  8832   0.456E-02    0.846E-03
DAV:  19    -0.124141940362E+03   -0.59317E-04   -0.39114E-05  8544   0.276E-02    0.516E-03
DAV:  20    -0.124141965761E+03   -0.25398E-04   -0.20182E-05  9024   0.184E-02    0.364E-03
DAV:  21    -0.124142015916E+03   -0.50156E-04   -0.16819E-05  8544   0.162E-02    0.236E-03
DAV:  22    -0.124142041327E+03   -0.25411E-04   -0.53516E-06  9792   0.910E-03    0.139E-03
DAV:  23    -0.124142045650E+03   -0.43236E-05   -0.17448E-06 11616   0.505E-03    0.628E-04
DAV:  24    -0.124142048629E+03   -0.29781E-05   -0.30689E-07 11568   0.200E-03    0.341E-04
DAV:  25    -0.124142050071E+03   -0.14425E-05   -0.15911E-07  9936   0.135E-03    0.177E-04
DAV:  26    -0.124142050431E+03   -0.35981E-06   -0.72070E-08 13056   0.102E-03
   1 F= -.12563354E+03 E0= -.12563051E+03  d E =-.125634E+03  mag=     0.0000
 curvature:   0.00 expect dE= 0.000E+00 dE for cont linesearch  0.000E+00
 trial: gam= 0.00000 g(F)=  0.946E-02 g(S)=  0.000E+00 ort = 0.000E+00 (trialstep = 0.100E+01)
 search vector abs. value=  0.946E-02
 bond charge predicted
       N       E                     dE             d eps       ncg     rms          rms(c)
DAV:   1    -0.124146131118E+03   -0.40810E-02   -0.70566E-01  8448   0.206E+00    0.284E-01
DAV:   2    -0.124142609359E+03    0.35218E-02   -0.17017E-02 12960   0.311E-01    0.125E-01
DAV:   3    -0.124142051745E+03    0.55761E-03   -0.26536E-03 11520   0.110E-01    0.346E-02
DAV:   4    -0.124142031952E+03    0.19793E-04   -0.20993E-04 12576   0.345E-02    0.122E-02
DAV:   5    -0.124142031605E+03    0.34628E-06   -0.11134E-05 11424   0.839E-03    0.369E-03
DAV:   6    -0.124142032897E+03   -0.12922E-05   -0.33850E-06  9696   0.413E-03    0.122E-03
DAV:   7    -0.124142034420E+03   -0.15223E-05   -0.18630E-07 10320   0.125E-03    0.695E-04
DAV:   8    -0.124142036436E+03   -0.20164E-05   -0.11166E-07  9792   0.638E-04    0.346E-04
DAV:   9    -0.124142038178E+03   -0.17416E-05   -0.11863E-07 10176   0.582E-04    0.209E-04
DAV:  10    -0.124142038870E+03   -0.69254E-06   -0.55496E-08  9792   0.481E-04
   2 F= -.12563378E+03 E0= -.12563076E+03  d E =-.236983E-03  mag=    -0.0000
 trial-energy change:   -0.000237  1 .order   -0.000278   -0.009456    0.008900
 step:   0.5118(harm=  0.5151)  dis= 0.00445  next Energy=  -125.635955 (dE=-0.241E-02)
 bond charge predicted
       N       E                     dE             d eps       ncg     rms          rms(c)
DAV:   1    -0.124145298653E+03   -0.32605E-02   -0.16791E-01  8448   0.101E+00    0.138E-01
DAV:   2    -0.124144472411E+03    0.82624E-03   -0.40724E-03 13056   0.153E-01    0.608E-02
DAV:   3    -0.124144340705E+03    0.13171E-03   -0.65144E-04 14496   0.539E-02    0.166E-02
DAV:   4    -0.124144336059E+03    0.46459E-05   -0.44693E-05 11664   0.160E-02    0.606E-03
DAV:   5    -0.124144336103E+03   -0.43415E-07   -0.26783E-06 13872   0.417E-03
   3 F= -.12563595E+03 E0= -.12563294E+03  d E =-.241403E-02  mag=     0.0000
 curvature:  -0.26 expect dE=-0.143E-04 dE for cont linesearch -0.830E-07
 ZBRENT: interpolating
 opt :   0.5148  next Energy=  -125.635955 (dE=-0.241E-02)
 bond charge predicted
       N       E                     dE             d eps       ncg     rms          rms(c)
DAV:   1    -0.124144335413E+03    0.64694E-06   -0.40440E-06  8976   0.556E-03    0.105E-03
DAV:   2    -0.124144335493E+03   -0.80550E-07   -0.18822E-07 10848   0.105E-03
   4 F= -.12563596E+03 E0= -.12563294E+03  d E =-.241417E-02  mag=     0.0000
 curvature:  -0.26 expect dE=-0.145E-04 dE for cont linesearch -0.390E-07
 ZBRENT: interpolating
 opt :   0.5136  next Energy=  -125.635955 (dE=-0.241E-02)
 bond charge predicted
       N       E                     dE             d eps       ncg     rms          rms(c)
DAV:   1    -0.124144335987E+03   -0.57416E-06   -0.13205E-06  9696   0.280E-03    0.400E-04
DAV:   2    -0.124144336068E+03   -0.81666E-07   -0.38694E-08 10704   0.616E-04
   5 F= -.12563596E+03 E0= -.12563294E+03  d E =-.241444E-02  mag=     0.0000
 curvature:  -0.15 expect dE=-0.859E-05 dE for cont linesearch -0.137E-07
 ZBRENT: bisectioning
 opt :   0.5127  next Energy=  -125.635955 (dE=-0.241E-02)
 bond charge predicted
       N       E                     dE             d eps       ncg     rms          rms(c)
DAV:   1    -0.124144336387E+03   -0.40050E-06   -0.52143E-07 10416   0.186E-03    0.320E-04
DAV:   2    -0.124144336435E+03   -0.47504E-07   -0.16049E-08 11520   0.387E-04
   6 F= -.12563596E+03 E0= -.12563294E+03  d E =-.241458E-02  mag=     0.0000
 curvature:  -0.26 expect dE=-0.145E-04 dE for cont linesearch -0.427E-08
 ZBRENT: bisectioning
 opt :   0.5122  next Energy=  -125.635955 (dE=-0.241E-02)
 bond charge predicted
       N       E                     dE             d eps       ncg     rms          rms(c)
DAV:   1    -0.124144336603E+03   -0.21606E-06   -0.12013E-07 10512   0.938E-04    0.180E-04
DAV:   2    -0.124144336629E+03   -0.25755E-07   -0.47478E-09 12144   0.259E-04
   7 F= -.12563596E+03 E0= -.12563294E+03  d E =-.241467E-02  mag=     0.0000
 curvature:  -0.23 expect dE=-0.126E-04 dE for cont linesearch -0.168E-09
 trial: gam= 0.00618 g(F)=  0.558E-04 g(S)=  0.000E+00 ort =-0.265E-05 (trialstep = 0.902E+00)
 search vector abs. value=  0.561E-04
 bond charge predicted
       N       E                     dE             d eps       ncg     rms          rms(c)
DAV:   1    -0.124144343458E+03   -0.68543E-05   -0.45273E-03  8448   0.248E-01    0.120E-02
DAV:   2    -0.124144342414E+03    0.10431E-05   -0.52223E-05  9312   0.283E-02    0.736E-03
DAV:   3    -0.124144341763E+03    0.65124E-06   -0.67441E-06  9792   0.891E-03
   8 F= -.12563601E+03 E0= -.12563299E+03  d E =-.503597E-04  mag=    -0.0000
 ZBRENT: can't locate minimum, use default step
 trial-energy change:   -0.000050  1 .order   -0.000049   -0.000050   -0.000049
 step:   3.6098(harm= 24.6897)  dis= 0.00179  next Energy=  -125.636644 (dE=-0.689E-03)
 bond charge predicted
       N       E                     dE             d eps       ncg     rms          rms(c)
DAV:   1    -0.124144371087E+03   -0.28673E-04   -0.40891E-02  8256   0.746E-01    0.366E-02
DAV:   2    -0.124144361653E+03    0.94340E-05   -0.46942E-04  8928   0.853E-02    0.225E-02
DAV:   3    -0.124144355373E+03    0.62806E-05   -0.62187E-05 11952   0.270E-02    0.543E-03
DAV:   4    -0.124144355825E+03   -0.45235E-06   -0.71864E-06  9600   0.934E-03
   9 F= -.12563616E+03 E0= -.12563314E+03  d E =-.200293E-03  mag=     0.0000
 curvature:  -2.67 expect dE=-0.172E-03 dE for cont linesearch -0.145E-03
 ZBRENT: increasing intervall
 opt :   9.0245  next Energy=  -125.636463 (dE=-0.508E-03)
 bond charge predicted
       N       E                     dE             d eps       ncg     rms          rms(c)
DAV:   1    -0.124144439923E+03   -0.84551E-04   -0.16310E-01  8256   0.149E+00    0.719E-02
DAV:   2    -0.124144405169E+03    0.34754E-04   -0.18794E-03  8832   0.171E-01    0.441E-02
DAV:   3    -0.124144376969E+03    0.28200E-04   -0.24382E-04 11232   0.536E-02    0.108E-02
DAV:   4    -0.124144378274E+03   -0.13043E-05   -0.28814E-05 10800   0.187E-02    0.461E-03
DAV:   5    -0.124144379057E+03   -0.78364E-06   -0.17128E-06  8736   0.508E-03
  10 F= -.12563645E+03 E0= -.12563343E+03  d E =-.496159E-03  mag=     0.0000
 curvature:  -5.65 expect dE=-0.637E-03 dE for cont linesearch -0.289E-03
 ZBRENT: increasing intervall
 opt :  19.8539  next Energy=  -125.637013 (dE=-0.106E-02)
 bond charge predicted
       N       E                     dE             d eps       ncg     rms          rms(c)
DAV:   1    -0.124144648053E+03   -0.26978E-03   -0.65221E-01  8256   0.298E+00    0.144E-01
DAV:   2    -0.124144523822E+03    0.12423E-03   -0.75362E-03  8832   0.340E-01    0.884E-02
DAV:   3    -0.124144402947E+03    0.12088E-03   -0.97706E-04 11328   0.107E-01    0.219E-02
DAV:   4    -0.124144406067E+03   -0.31202E-05   -0.11278E-04 12624   0.368E-02    0.923E-03
DAV:   5    -0.124144405269E+03    0.79838E-06   -0.57848E-06  9984   0.861E-03
  11 F= -.12563703E+03 E0= -.12563401E+03  d E =-.107119E-02  mag=     0.0000
 curvature: -10.99 expect dE=-0.378E-02 dE for cont linesearch -0.513E-03
 ZBRENT: increasing intervall
 opt :  41.5127  next Energy=  -125.638085 (dE=-0.213E-02)
 bond charge predicted
       N       E                     dE             d eps       ncg     rms          rms(c)
DAV:   1    -0.124145370267E+03   -0.96420E-03   -0.26089E+00  8256   0.596E+00    0.288E-01
DAV:   2    -0.124144867240E+03    0.50303E-03   -0.30147E-02  9504   0.681E-01    0.176E-01
DAV:   3    -0.124144390824E+03    0.47642E-03   -0.38848E-03 10512   0.213E-01    0.430E-02
DAV:   4    -0.124144397631E+03   -0.68072E-05   -0.44897E-04 13584   0.742E-02    0.185E-02
DAV:   5    -0.124144392821E+03    0.48102E-05   -0.21553E-05 10512   0.162E-02    0.453E-03
DAV:   6    -0.124144391870E+03    0.95086E-06   -0.49995E-06 10464   0.867E-03
  12 F= -.12563813E+03 E0= -.12563511E+03  d E =-.216993E-02  mag=     0.0000
 curvature: -22.65 expect dE=-0.304E-01 dE for cont linesearch -0.953E-03
 ZBRENT: increasing intervall
 opt :  84.8303  next Energy=  -125.640119 (dE=-0.416E-02)
 bond charge predicted
       N       E                     dE             d eps       ncg     rms          rms(c)
DAV:   1    -0.124148009862E+03   -0.36170E-02   -0.10430E+01  8256   0.119E+01    0.576E-01
DAV:   2    -0.124146066533E+03    0.19433E-02   -0.12106E-01 10416   0.136E+00    0.353E-01
DAV:   3    -0.124144108706E+03    0.19578E-02   -0.15684E-02 12432   0.422E-01    0.846E-02
DAV:   4    -0.124144117722E+03   -0.90167E-05   -0.15944E-03 12912   0.143E-01    0.380E-02
DAV:   5    -0.124144084017E+03    0.33705E-04   -0.80202E-05 11280   0.293E-02    0.730E-03
DAV:   6    -0.124144083198E+03    0.81900E-06   -0.18166E-05 10608   0.140E-02    0.439E-03
DAV:   7    -0.124144089444E+03   -0.62458E-05   -0.49212E-06 11232   0.888E-03    0.240E-03
DAV:   8    -0.124144104366E+03   -0.14922E-04   -0.43185E-06 10848   0.669E-03    0.190E-03
DAV:   9    -0.124144114346E+03   -0.99804E-05   -0.20170E-06 11424   0.529E-03    0.979E-04
DAV:  10    -0.124144126084E+03   -0.11738E-04   -0.42454E-06 10752   0.818E-03    0.579E-04
DAV:  11    -0.124144129789E+03   -0.37042E-05   -0.29464E-06 10368   0.718E-03    0.542E-04
DAV:  12    -0.124144133928E+03   -0.41394E-05   -0.11510E-06  9648   0.386E-03    0.223E-04
DAV:  13    -0.124144134314E+03   -0.38615E-06   -0.27033E-07 14208   0.209E-03
  13 F= -.12564015E+03 E0= -.12563714E+03  d E =-.419532E-02  mag=    -0.0000
 curvature: -47.36 expect dE=-0.258E+00 dE for cont linesearch -0.156E-02
 ZBRENT: increasing intervall
 opt : 171.4654  next Energy=  -125.643396 (dE=-0.744E-02)
 bond charge predicted
       N       E                     dE             d eps       ncg     rms          rms(c)
DAV:   1    -0.124157022437E+03   -0.12889E-01   -0.41638E+01  8256   0.238E+01    0.115E+00
DAV:   2    -0.124150279139E+03    0.67433E-02   -0.49084E-01  9216   0.275E+00    0.708E-01
DAV:   3    -0.124142497616E+03    0.77815E-02   -0.63127E-02 13824   0.850E-01    0.173E-01
DAV:   4    -0.124142539996E+03   -0.42380E-04   -0.57128E-03 13008   0.272E-01    0.778E-02
DAV:   5    -0.124142436225E+03    0.10377E-03   -0.30472E-04 11712   0.539E-02    0.150E-02
DAV:   6    -0.124142423004E+03    0.13220E-04   -0.67736E-05 12528   0.218E-02    0.718E-03
DAV:   7    -0.124142441317E+03   -0.18313E-04   -0.93336E-06 11136   0.853E-03    0.408E-03
DAV:   8    -0.124142460801E+03   -0.19484E-04   -0.29385E-06 10848   0.408E-03    0.358E-03
DAV:   9    -0.124142482618E+03   -0.21817E-04   -0.21728E-06 11136   0.296E-03    0.157E-03
DAV:  10    -0.124142503453E+03   -0.20835E-04   -0.24252E-06 10848   0.308E-03    0.103E-03
DAV:  11    -0.124142511876E+03   -0.84231E-05   -0.84699E-07 10656   0.248E-03    0.734E-04
DAV:  12    -0.124142519073E+03   -0.71965E-05   -0.10194E-06 10176   0.242E-03    0.255E-04
DAV:  13    -0.124142520741E+03   -0.16681E-05   -0.28064E-07 11232   0.172E-03    0.990E-05
DAV:  14    -0.124142520840E+03   -0.99222E-07   -0.80679E-08 13440   0.122E-03
  14 F= -.12564335E+03 E0= -.12564036E+03  d E =-.739377E-02  mag=    -0.0000
 curvature: -98.38 expect dE=-0.218E+01 dE for cont linesearch -0.167E-02
 ZBRENT: increasing intervall
 opt : 344.7357  next Energy=  -125.646594 (dE=-0.106E-01)
 bond charge predicted
       N       E                     dE             d eps       ncg     rms          rms(c)
DAV:   1    -0.124184914918E+03   -0.42394E-01   -0.16558E+02  8256   0.474E+01    0.228E+00
DAV:   2    -0.124165747779E+03    0.19167E-01   -0.20271E+00  9312   0.565E+00    0.142E+00
DAV:   3    -0.124135103042E+03    0.30645E-01   -0.24406E-01 13728   0.167E+00    0.367E-01
DAV:   4    -0.124135337797E+03   -0.23476E-03   -0.21582E-02 12768   0.525E-01    0.160E-01
DAV:   5    -0.124134847775E+03    0.49002E-03   -0.13584E-03 13056   0.105E-01    0.324E-02
DAV:   6    -0.124134795904E+03    0.51872E-04   -0.23944E-04 12288   0.412E-02    0.147E-02
DAV:   7    -0.124134856543E+03   -0.60640E-04   -0.52149E-05  9792   0.198E-02    0.847E-03
DAV:   8    -0.124134901773E+03   -0.45229E-04   -0.89237E-06 11088   0.747E-03    0.715E-03
DAV:   9    -0.124134951244E+03   -0.49471E-04   -0.66101E-06 11664   0.590E-03    0.295E-03
DAV:  10    -0.124134994257E+03   -0.43013E-04   -0.60375E-06 10896   0.513E-03    0.193E-03
DAV:  11    -0.124135018697E+03   -0.24440E-04   -0.37363E-06 10512   0.454E-03    0.111E-03
DAV:  12    -0.124135027657E+03   -0.89603E-05   -0.19630E-06 11280   0.484E-03    0.432E-04
DAV:  13    -0.124135030634E+03   -0.29763E-05   -0.80363E-07 11328   0.352E-03    0.192E-04
DAV:  14    -0.124135031902E+03   -0.12684E-05   -0.19510E-07 10416   0.156E-03    0.882E-05
DAV:  15    -0.124135032083E+03   -0.18122E-06   -0.33394E-08 13872   0.723E-04
  15 F= -.12564655E+03 E0= -.12564363E+03  d E =-.105940E-01  mag=     0.0000
 curvature: ****** expect dE=-0.171E+02 dE for cont linesearch -0.145E-03
 trial: gam=******** g(F)=  0.896E-01 g(S)=  0.000E+00 ort = 0.652E-05 (trialstep = 0.270E-04)
 search vector abs. value=  0.145E+03
 bond charge predicted
       N       E                     dE             d eps       ncg     rms          rms(c)
DAV:   1    -0.124135031958E+03   -0.55909E-07   -0.10508E-05 12288   0.119E-02    0.579E-04
DAV:   2    -0.124135031956E+03    0.14761E-08   -0.11294E-07 14496   0.131E-03
  16 F= -.12564655E+03 E0= -.12564364E+03  d E =-.274876E-05  mag=     0.0000
 ZBRENT: can't locate minimum, use default step
 trial-energy change:   -0.000003  1 .order   -0.000003   -0.000003   -0.000003
 step:   0.0001(harm=  0.0001)  dis= 0.00009  next Energy=  -125.646560 (dE=-0.109E-04)
 bond charge predicted
       N       E                     dE             d eps       ncg     rms          rms(c)
DAV:   1    -0.124135031485E+03    0.47288E-06   -0.92687E-05 10320   0.356E-02    0.179E-03
DAV:   2    -0.124135031454E+03    0.30672E-07   -0.97698E-07 13248   0.383E-03
  17 F= -.12564656E+03 E0= -.12564364E+03  d E =-.108739E-04  mag=     0.0000
 curvature:  -0.12 expect dE=-0.105E-01 dE for cont linesearch -0.826E-05
 ZBRENT: increasing intervall
 opt :   0.0003  next Energy=  -125.646577 (dE=-0.273E-04)
 bond charge predicted
       N       E                     dE             d eps       ncg     rms          rms(c)
DAV:   1    -0.124135030543E+03    0.94175E-06   -0.36777E-04  8496   0.711E-02    0.361E-03
DAV:   2    -0.124135030445E+03    0.98397E-07   -0.40466E-06  9696   0.796E-03
  18 F= -.12564658E+03 E0= -.12564366E+03  d E =-.271217E-04  mag=     0.0000
 curvature:  -0.23 expect dE=-0.210E-01 dE for cont linesearch -0.166E-04
 ZBRENT: increasing intervall
 opt :   0.0006  next Energy=  -125.646610 (dE=-0.601E-04)
 bond charge predicted
       N       E                     dE             d eps       ncg     rms          rms(c)
DAV:   1    -0.124135028840E+03    0.17032E-05   -0.14729E-03  8256   0.142E-01    0.725E-03
DAV:   2    -0.124135028444E+03    0.39656E-06   -0.16475E-05  8448   0.161E-02    0.448E-03
DAV:   3    -0.124135028300E+03    0.14317E-06   -0.22093E-06  9216   0.518E-03
  19 F= -.12564661E+03 E0= -.12564369E+03  d E =-.595026E-04  mag=     0.0000
 curvature:  -0.47 expect dE=-0.417E-01 dE for cont linesearch -0.309E-04
 ZBRENT: increasing intervall
 opt :   0.0012  next Energy=  -125.646671 (dE=-0.121E-03)
 bond charge predicted
       N       E                     dE             d eps       ncg     rms          rms(c)
DAV:   1    -0.124135026334E+03    0.21094E-05   -0.60601E-03  8256   0.287E-01    0.142E-02
DAV:   2    -0.124135024757E+03    0.15772E-05   -0.69047E-05  8256   0.329E-02    0.873E-03
DAV:   3    -0.124135023980E+03    0.77726E-06   -0.92853E-06 11712   0.105E-02
  20 F= -.12564667E+03 E0= -.12564376E+03  d E =-.124275E-03  mag=    -0.0000
 curvature:  -0.93 expect dE=-0.831E-01 dE for cont linesearch -0.598E-04
 ZBRENT: increasing intervall
 opt :   0.0025  next Energy=  -125.646797 (dE=-0.248E-03)
 bond charge predicted
       N       E                     dE             d eps       ncg     rms          rms(c)
DAV:   1    -0.124135024457E+03    0.29964E-06   -0.24226E-02  8256   0.574E-01    0.284E-02
DAV:   2    -0.124135018108E+03    0.63490E-05   -0.27611E-04  8256   0.658E-02    0.175E-02
DAV:   3    -0.124135014988E+03    0.31201E-05   -0.36841E-05 10656   0.210E-02    0.427E-03
DAV:   4    -0.124135015342E+03   -0.35423E-06   -0.49057E-06  8976   0.772E-03
  21 F= -.12564680E+03 E0= -.12564389E+03  d E =-.254004E-03  mag=     0.0000
 curvature:  -1.91 expect dE=-0.172E+00 dE for cont linesearch -0.133E-03
 ZBRENT: increasing intervall
 opt :   0.0051  next Energy=  -125.647072 (dE=-0.523E-03)
 bond charge predicted
       N       E                     dE             d eps       ncg     rms          rms(c)
DAV:   1    -0.124135033579E+03   -0.18591E-04   -0.96445E-02  8256   0.115E+00    0.554E-02
DAV:   2    -0.124135011391E+03    0.22188E-04   -0.11102E-03  8256   0.131E-01    0.341E-02
DAV:   3    -0.124134995611E+03    0.15780E-04   -0.14760E-04 12576   0.417E-02    0.833E-03
DAV:   4    -0.124134996976E+03   -0.13648E-05   -0.16296E-05  8400   0.148E-02    0.363E-03
DAV:   5    -0.124134997783E+03   -0.80652E-06   -0.21553E-06  9312   0.630E-03
  22 F= -.12564706E+03 E0= -.12564415E+03  d E =-.513876E-03  mag=     0.0000
 curvature:  -3.88 expect dE=-0.350E+00 dE for cont linesearch -0.266E-03
 ZBRENT: increasing intervall
 opt :   0.0103  next Energy=  -125.647579 (dE=-0.103E-02)
 bond charge predicted
       N       E                     dE             d eps       ncg     rms          rms(c)
DAV:   1    -0.124135105048E+03   -0.10807E-03   -0.38561E-01  8256   0.229E+00    0.111E-01
DAV:   2    -0.124135028666E+03    0.76382E-04   -0.44495E-03  8832   0.262E-01    0.679E-02
DAV:   3    -0.124134957913E+03    0.70753E-04   -0.58429E-04 11808   0.827E-02    0.165E-02
DAV:   4    -0.124134959786E+03   -0.18726E-05   -0.62674E-05 11952   0.277E-02    0.716E-03
DAV:   5    -0.124134960036E+03   -0.25034E-06   -0.34988E-06  9504   0.683E-03
  23 F= -.12564758E+03 E0= -.12564467E+03  d E =-.103383E-02  mag=     0.0000
 curvature:  -7.50 expect dE=-0.681E+00 dE for cont linesearch -0.509E-03
 ZBRENT: increasing intervall
 opt :   0.0207  next Energy=  -125.648606 (dE=-0.206E-02)
 bond charge predicted
       N       E                     dE             d eps       ncg     rms          rms(c)
DAV:   1    -0.124135458669E+03   -0.49888E-03   -0.15424E+00  8256   0.458E+00    0.221E-01
DAV:   2    -0.124135155782E+03    0.30289E-03   -0.17795E-02  8544   0.524E-01    0.136E-01
DAV:   3    -0.124134880653E+03    0.27513E-03   -0.23212E-03 10128   0.166E-01    0.332E-02
DAV:   4    -0.124134886435E+03   -0.57820E-05   -0.28231E-04 14208   0.573E-02    0.141E-02
DAV:   5    -0.124134883026E+03    0.34092E-05   -0.11199E-05  9936   0.108E-02    0.306E-03
DAV:   6    -0.124134883087E+03   -0.60977E-07   -0.27473E-06 11280   0.579E-03
  24 F= -.12564863E+03 E0= -.12564571E+03  d E =-.208341E-02  mag=     0.0000
 curvature: -15.05 expect dE=-0.139E+01 dE for cont linesearch -0.107E-02
 ZBRENT: increasing intervall
 opt :   0.0414  next Energy=  -125.650792 (dE=-0.424E-02)
 bond charge predicted
       N       E                     dE             d eps       ncg     rms          rms(c)
DAV:   1    -0.124137059972E+03   -0.21769E-02   -0.61678E+00  8256   0.916E+00    0.443E-01
DAV:   2    -0.124135815014E+03    0.12450E-02   -0.71271E-02  9408   0.105E+00    0.272E-01
DAV:   3    -0.124134721443E+03    0.10936E-02   -0.94470E-03 12144   0.329E-01    0.653E-02
DAV:   4    -0.124134725912E+03   -0.44689E-05   -0.96593E-04 13920   0.110E-01    0.290E-02
DAV:   5    -0.124134711337E+03    0.14575E-04   -0.44879E-05 10464   0.215E-02    0.568E-03
DAV:   6    -0.124134711343E+03   -0.57826E-08   -0.11327E-05 11520   0.109E-02    0.330E-03
DAV:   7    -0.124134714992E+03   -0.36491E-05   -0.31074E-06 10368   0.685E-03    0.182E-03
DAV:   8    -0.124134724104E+03   -0.91122E-05   -0.20800E-06 11040   0.475E-03    0.150E-03
DAV:   9    -0.124134732625E+03   -0.85211E-05   -0.16035E-06 11136   0.453E-03    0.516E-04
DAV:  10    -0.124134737892E+03   -0.52669E-05   -0.19714E-06 10800   0.579E-03    0.528E-04
DAV:  11    -0.124134741584E+03   -0.36917E-05   -0.91633E-07 10704   0.359E-03    0.404E-04
DAV:  12    -0.124134743675E+03   -0.20916E-05   -0.23727E-07 11088   0.129E-03    0.129E-04
DAV:  13    -0.124134744023E+03   -0.34782E-06   -0.43333E-08 11520   0.677E-04
  25 F= -.12565079E+03 E0= -.12564787E+03  d E =-.424395E-02  mag=    -0.0000
 curvature: -30.27 expect dE=-0.286E+01 dE for cont linesearch -0.228E-02
 ZBRENT: increasing intervall
 opt :   0.0829  next Energy=  -125.655252 (dE=-0.870E-02)
 bond charge predicted
       N       E                     dE             d eps       ncg     rms          rms(c)
DAV:   1    -0.124143194073E+03   -0.84504E-02   -0.24637E+01  8256   0.183E+01    0.883E-01
DAV:   2    -0.124138866848E+03    0.43272E-02   -0.28807E-01  8448   0.211E+00    0.545E-01
DAV:   3    -0.124134352583E+03    0.45143E-02   -0.38061E-02 13728   0.662E-01    0.132E-01
DAV:   4    -0.124134392352E+03   -0.39769E-04   -0.34381E-03 12672   0.207E-01    0.589E-02
DAV:   5    -0.124134341589E+03    0.50763E-04   -0.18442E-04 12384   0.420E-02    0.115E-02
DAV:   6    -0.124134335068E+03    0.65210E-05   -0.41060E-05 12048   0.170E-02    0.524E-03
DAV:   7    -0.124134348525E+03   -0.13457E-04   -0.59138E-06 10080   0.667E-03    0.350E-03
DAV:   8    -0.124134359844E+03   -0.11320E-04   -0.97307E-07 11808   0.253E-03    0.277E-03
DAV:   9    -0.124134378054E+03   -0.18209E-04   -0.20778E-06 10704   0.299E-03    0.843E-04
DAV:  10    -0.124134389654E+03   -0.11601E-04   -0.12161E-06 11424   0.209E-03    0.926E-04
DAV:  11    -0.124134395697E+03   -0.60427E-05   -0.55607E-07 11136   0.156E-03    0.426E-04
DAV:  12    -0.124134398885E+03   -0.31878E-05   -0.32728E-07 10752   0.149E-03    0.151E-04
DAV:  13    -0.124134399903E+03   -0.10179E-05   -0.12383E-07 10608   0.107E-03    0.732E-05
DAV:  14    -0.124134399980E+03   -0.77507E-07   -0.14524E-08 14880   0.489E-04
  26 F= -.12565524E+03 E0= -.12565232E+03  d E =-.869056E-02  mag=    -0.0000
 curvature: -59.07 expect dE=-0.587E+01 dE for cont linesearch -0.494E-02
 ZBRENT: increasing intervall
 opt :   0.1659  next Energy=  -125.664825 (dE=-0.183E-01)
 bond charge predicted
       N       E                     dE             d eps       ncg     rms          rms(c)
DAV:   1    -0.124165356421E+03   -0.30957E-01   -0.98200E+01  8256   0.365E+01    0.176E+00
DAV:   2    -0.124150966986E+03    0.14389E-01   -0.11798E+00  9120   0.430E+00    0.109E+00
DAV:   3    -0.124133596261E+03    0.17371E-01   -0.14906E-01 13536   0.131E+00    0.273E-01
DAV:   4    -0.124133708639E+03   -0.11238E-03   -0.13242E-02 13248   0.409E-01    0.122E-01
DAV:   5    -0.124133447822E+03    0.26082E-03   -0.76999E-04 12960   0.820E-02    0.252E-02
DAV:   6    -0.124133423027E+03    0.24796E-04   -0.14981E-04 12192   0.326E-02    0.109E-02
DAV:   7    -0.124133466793E+03   -0.43766E-04   -0.29038E-05  9600   0.149E-02    0.683E-03
DAV:   8    -0.124133501929E+03   -0.35137E-04   -0.45981E-06 11424   0.534E-03    0.491E-03
DAV:   9    -0.124133538868E+03   -0.36939E-04   -0.49645E-06 10752   0.483E-03    0.172E-03
DAV:  10    -0.124133563607E+03   -0.24739E-04   -0.30230E-06 11520   0.349E-03    0.148E-03
DAV:  11    -0.124133577913E+03   -0.14306E-04   -0.17921E-06 11040   0.271E-03    0.807E-04
DAV:  12    -0.124133583840E+03   -0.59270E-05   -0.71304E-07 11520   0.238E-03    0.279E-04
DAV:  13    -0.124133585820E+03   -0.19804E-05   -0.24129E-07 11328   0.173E-03    0.132E-04
DAV:  14    -0.124133586749E+03   -0.92854E-06   -0.79967E-08 10704   0.851E-04
  27 F= -.12566482E+03 E0= -.12566189E+03  d E =-.182729E-01  mag=    -0.0000
 curvature: ****** expect dE=-0.126E+02 dE for cont linesearch -0.115E-01
 ZBRENT: increasing intervall
 opt :   0.3318  next Energy=  -125.686603 (dE=-0.401E-01)
 bond charge predicted
       N       E                     dE             d eps       ncg     rms          rms(c)
DAV:   1    -0.124219694599E+03   -0.86109E-01   -0.38741E+02  8256   0.724E+01    0.347E+00
DAV:   2    -0.124203158083E+03    0.16537E-01   -0.50255E+00  8832   0.904E+00    0.220E+00
DAV:   3    -0.124130349279E+03    0.72809E-01   -0.54507E-01 13728   0.251E+00    0.634E-01
DAV:   4    -0.124131866697E+03   -0.15174E-02   -0.44738E-02 13008   0.760E-01    0.253E-01
DAV:   5    -0.124130836200E+03    0.10305E-02   -0.38598E-03 13824   0.160E-01    0.489E-02
DAV:   6    -0.124130750040E+03    0.86160E-04   -0.44130E-04 11712   0.591E-02    0.227E-02
DAV:   7    -0.124130879000E+03   -0.12896E-03   -0.15850E-04  9792   0.364E-02    0.147E-02
DAV:   8    -0.124130955311E+03   -0.76311E-04   -0.14492E-05 10752   0.105E-02    0.114E-02
DAV:   9    -0.124131039234E+03   -0.83923E-04   -0.16411E-05 10656   0.981E-03    0.386E-03
DAV:  10    -0.124131090626E+03   -0.51392E-04   -0.85395E-06 11040   0.628E-03    0.314E-03
DAV:  11    -0.124131124242E+03   -0.33617E-04   -0.61333E-06 12096   0.493E-03    0.211E-03
DAV:  12    -0.124131134032E+03   -0.97896E-05   -0.11435E-06 11664   0.271E-03    0.648E-04
DAV:  13    -0.124131137556E+03   -0.35236E-05   -0.25283E-07 12192   0.154E-03    0.303E-04
DAV:  14    -0.124131139571E+03   -0.20159E-05   -0.11158E-07 10560   0.892E-04    0.156E-04
DAV:  15    -0.124131140810E+03   -0.12385E-05   -0.89090E-08 10848   0.709E-04    0.707E-05
DAV:  16    -0.124131141080E+03   -0.27051E-06   -0.22171E-08 11568   0.436E-04
  28 F= -.12568687E+03 E0= -.12568389E+03  d E =-.403171E-01  mag=    -0.0000
 curvature: ****** expect dE=-0.290E+02 dE for cont linesearch -0.317E-01
 ZBRENT: increasing intervall
 opt :   0.6637  next Energy=  -125.743428 (dE=-0.969E-01)
 bond charge predicted
       N       E                     dE             d eps       ncg     rms          rms(c)
DAV:   1    -0.124026946457E+03    0.10419E+00   -0.14661E+03  8256   0.139E+02    0.672E+00
DAV:   2    -0.124428865117E+03   -0.40192E+00   -0.23690E+01  9312   0.202E+01    0.438E+00
DAV:   3    -0.124134822259E+03    0.29404E+00   -0.16444E+00 14208   0.446E+00    0.175E+00
DAV:   4    -0.124123905637E+03    0.10917E-01   -0.18163E-01 13680   0.157E+00    0.481E-01
DAV:   5    -0.124120163366E+03    0.37423E-02   -0.22005E-02 13536   0.400E-01    0.854E-02
DAV:   6    -0.124119910101E+03    0.25326E-03   -0.10445E-03 13632   0.997E-02    0.428E-02
DAV:   7    -0.124120172799E+03   -0.26270E-03   -0.57967E-04 10752   0.702E-02    0.245E-02
DAV:   8    -0.124120347060E+03   -0.17426E-03   -0.71803E-05  9216   0.214E-02    0.176E-02
DAV:   9    -0.124120518094E+03   -0.17103E-03   -0.65313E-05 11232   0.203E-02    0.924E-03
DAV:  10    -0.124120609500E+03   -0.91406E-04   -0.24145E-05 12000   0.115E-02    0.812E-03
DAV:  11    -0.124120660107E+03   -0.50607E-04   -0.20157E-05 10944   0.102E-02    0.268E-03
DAV:  12    -0.124120677752E+03   -0.17645E-04   -0.25112E-06 14160   0.437E-03    0.156E-03
DAV:  13    -0.124120685601E+03   -0.78494E-05   -0.72085E-07 13776   0.213E-03    0.104E-03
DAV:  14    -0.124120688623E+03   -0.30214E-05   -0.12974E-07 12672   0.863E-04    0.494E-04
DAV:  15    -0.124120690940E+03   -0.23175E-05   -0.13098E-07 11040   0.741E-04    0.147E-04
DAV:  16    -0.124120691467E+03   -0.52689E-06   -0.14985E-08 13632   0.241E-04
  29 F= -.12574433E+03 E0= -.12574116E+03  d E =-.977798E-01  mag=    -0.0000
 curvature: ****** expect dE=-0.746E+02 dE for cont linesearch -0.108E+00
 ZBRENT: increasing intervall
 opt :   1.3274  next Energy=  -125.914275 (dE=-0.268E+00)
 bond charge predicted
       N       E                     dE             d eps       ncg     rms          rms(c)
DAV:   1    -0.120186419790E+03    0.39343E+01   -0.47427E+03  8256   0.232E+02    0.143E+01
DAV:   2    -0.125328619349E+03   -0.51422E+01   -0.11394E+02  8256   0.453E+01    0.869E+00
DAV:   3    -0.124389649639E+03    0.93897E+00   -0.38303E+00 14976   0.744E+00    0.565E+00
DAV:   4    -0.123982474100E+03    0.40718E+00   -0.20866E+00 13824   0.464E+00    0.816E-01
DAV:   5    -0.123984794647E+03   -0.23205E-02   -0.74927E-02 11424   0.103E+00    0.438E-01
DAV:   6    -0.123979355446E+03    0.54392E-02   -0.24454E-02 13728   0.450E-01    0.955E-02
DAV:   7    -0.123978650608E+03    0.70484E-03   -0.21622E-03 12960   0.152E-01    0.457E-02
DAV:   8    -0.123978907836E+03   -0.25723E-03   -0.10734E-03 12288   0.847E-02    0.330E-02
DAV:   9    -0.123979074403E+03   -0.16657E-03   -0.19395E-04 12384   0.384E-02    0.159E-02
DAV:  10    -0.123979177982E+03   -0.10358E-03   -0.75102E-05 12000   0.225E-02    0.173E-02
DAV:  11    -0.123979220150E+03   -0.42167E-04   -0.22057E-05 12288   0.109E-02    0.955E-03
DAV:  12    -0.123979245710E+03   -0.25560E-04   -0.19011E-05 12240   0.113E-02    0.615E-03
DAV:  13    -0.123979256365E+03   -0.10655E-04   -0.24680E-06 13632   0.443E-03    0.266E-03
DAV:  14    -0.123979262513E+03   -0.61486E-05   -0.10167E-06 12672   0.283E-03    0.868E-04
DAV:  15    -0.123979264821E+03   -0.23078E-05   -0.18698E-07 12288   0.115E-03    0.658E-04
DAV:  16    -0.123979266193E+03   -0.13716E-05   -0.11996E-07 12672   0.786E-04    0.216E-04
DAV:  17    -0.123979266830E+03   -0.63695E-06   -0.35420E-08 12096   0.370E-04
  30 F= -.12584757E+03 E0= -.12584473E+03  d E =-.201021E+00  mag=    -0.0000
 curvature: ****** expect dE=-0.223E+03 dE for cont linesearch -0.584E-01
 ZBRENT: bracketing found
 ZBRENT: interpolating
 opt :   1.0821  next Energy=  -125.862004 (dE=-0.215E+00)
 bond charge predicted
       N       E                     dE             d eps       ncg     rms          rms(c)
DAV:   1    -0.124177542706E+03   -0.19828E+00   -0.82769E+02  8256   0.106E+02    0.514E+00
DAV:   2    -0.124225919638E+03   -0.48377E-01   -0.11845E+01  9024   0.144E+01    0.326E+00
DAV:   3    -0.124075543739E+03    0.15038E+00   -0.96047E-01 14880   0.339E+00    0.120E+00
DAV:   4    -0.124074347444E+03    0.11963E-02   -0.86155E-02 11616   0.111E+00    0.358E-01
DAV:   5    -0.124072890737E+03    0.14567E-02   -0.12582E-02 13248   0.304E-01    0.661E-02
DAV:   6    -0.124072779177E+03    0.11156E-03   -0.58221E-04 14112   0.795E-02    0.313E-02
DAV:   7    -0.124072798684E+03   -0.19507E-04   -0.17472E-04  9984   0.455E-02    0.187E-02
DAV:   8    -0.124072843468E+03   -0.44784E-04   -0.26421E-05 11088   0.126E-02    0.132E-02
DAV:   9    -0.124072927306E+03   -0.83837E-04   -0.18021E-05 11136   0.110E-02    0.592E-03
DAV:  10    -0.124073014775E+03   -0.87470E-04   -0.96512E-06 13296   0.747E-03    0.561E-03
DAV:  11    -0.124073093130E+03   -0.78355E-04   -0.74195E-06 13776   0.627E-03    0.286E-03
DAV:  12    -0.124073125683E+03   -0.32553E-04   -0.66753E-07 13152   0.266E-03    0.974E-04
DAV:  13    -0.124073142244E+03   -0.16560E-04   -0.29528E-07 13296   0.171E-03    0.850E-04
DAV:  14    -0.124073147180E+03   -0.49362E-05   -0.80821E-08 13920   0.906E-04    0.580E-04
DAV:  15    -0.124073149319E+03   -0.21396E-05   -0.53790E-08 12672   0.625E-04    0.131E-04
DAV:  16    -0.124073149761E+03   -0.44143E-06   -0.11190E-08 13632   0.318E-04
  31 F= -.12583195E+03 E0= -.12582856E+03  d E =-.185399E+00  mag=     0.0000
 curvature: ****** expect dE=-0.440E+02 dE for cont linesearch -0.322E-01
 ZBRENT: interpolating
 opt :   1.2290  next Energy=  -125.853358 (dE=-0.207E+00)
 bond charge predicted
       N       E                     dE             d eps       ncg     rms          rms(c)
DAV:   1    -0.124110264134E+03   -0.37115E-01   -0.30446E+02  8256   0.645E+01    0.310E+00
DAV:   2    -0.124084230271E+03    0.26034E-01   -0.39264E+00 11232   0.793E+00    0.193E+00
DAV:   3    -0.124028051339E+03    0.56179E-01   -0.38406E-01 14304   0.209E+00    0.564E-01
DAV:   4    -0.124028782234E+03   -0.73089E-03   -0.37449E-02 13152   0.683E-01    0.214E-01
DAV:   5    -0.124028070984E+03    0.71125E-03   -0.27448E-03 15552   0.145E-01    0.431E-02
DAV:   6    -0.124028011007E+03    0.59977E-04   -0.30393E-04 11040   0.511E-02    0.190E-02
DAV:   7    -0.124028104042E+03   -0.93035E-04   -0.11993E-04 11904   0.316E-02    0.124E-02
DAV:   8    -0.124028174509E+03   -0.70467E-04   -0.15927E-05  9792   0.108E-02    0.752E-03
DAV:   9    -0.124028241285E+03   -0.66776E-04   -0.15740E-05 11760   0.944E-03    0.331E-03
DAV:  10    -0.124028264133E+03   -0.22849E-04   -0.36280E-06 12096   0.469E-03    0.261E-03
DAV:  11    -0.124028281200E+03   -0.17067E-04   -0.36103E-06 12336   0.404E-03    0.159E-03
DAV:  12    -0.124028286992E+03   -0.57919E-05   -0.83637E-07 13728   0.238E-03    0.621E-04
DAV:  13    -0.124028289446E+03   -0.24540E-05   -0.28791E-07 13248   0.203E-03    0.327E-04
DAV:  14    -0.124028290290E+03   -0.84336E-06   -0.12413E-07 13440   0.146E-03
  32 F= -.12585008E+03 E0= -.12584694E+03  d E =-.203526E+00  mag=     0.0000
 curvature: -27.12 expect dE=-0.907E+01 dE for cont linesearch -0.497E-03
 ZBRENT: interpolating
 opt :   1.2590  next Energy=  -125.850847 (dE=-0.204E+00)
 bond charge predicted
       N       E                     dE             d eps       ncg     rms          rms(c)
DAV:   1    -0.124020474421E+03    0.78150E-02   -0.12821E+01  8256   0.133E+01    0.642E-01
DAV:   2    -0.124017584380E+03    0.28900E-02   -0.14902E-01 11424   0.152E+00    0.389E-01
DAV:   3    -0.124015404324E+03    0.21801E-02   -0.17813E-02 13344   0.450E-01    0.993E-02
DAV:   4    -0.124015418130E+03   -0.13806E-04   -0.20037E-03 14352   0.155E-01    0.406E-02
DAV:   5    -0.124015389885E+03    0.28245E-04   -0.82537E-05 14976   0.307E-02    0.784E-03
DAV:   6    -0.124015386530E+03    0.33550E-05   -0.14733E-05 11424   0.113E-02    0.370E-03
DAV:   7    -0.124015392577E+03   -0.60478E-05   -0.40322E-06 12336   0.655E-03    0.200E-03
DAV:   8    -0.124015398444E+03   -0.58670E-05   -0.11187E-06 11856   0.404E-03    0.174E-03
DAV:   9    -0.124015404452E+03   -0.60076E-05   -0.72556E-07 12864   0.296E-03    0.837E-04
DAV:  10    -0.124015411430E+03   -0.69785E-05   -0.86187E-07 12768   0.220E-03    0.520E-04
DAV:  11    -0.124015414234E+03   -0.28041E-05   -0.28858E-07 14304   0.165E-03    0.346E-04
DAV:  12    -0.124015415636E+03   -0.14016E-05   -0.18796E-07 13536   0.160E-03    0.190E-04
DAV:  13    -0.124015416220E+03   -0.58441E-06   -0.57981E-08 14256   0.877E-04
  33 F= -.12585101E+03 E0= -.12584795E+03  d E =-.204460E+00  mag=    -0.0000
 curvature: -42.10 expect dE=-0.145E+02 dE for cont linesearch -0.262E-04
 trial: gam= 2.01592 g(F)=  0.344E+00 g(S)=  0.000E+00 ort = 0.949E-02 (trialstep = 0.619E-01)
 search vector abs. value=  0.589E+03
 bond charge predicted
       N       E                     dE             d eps       ncg     rms          rms(c)
DAV:   1    -0.124027499072E+03   -0.12083E-01   -0.22088E+02  8256   0.550E+01    0.265E+00
DAV:   2    -0.124000360133E+03    0.27139E-01   -0.27813E+00 11616   0.666E+00    0.164E+00
DAV:   3    -0.123960996992E+03    0.39363E-01   -0.28017E-01 14784   0.179E+00    0.467E-01
DAV:   4    -0.123961062563E+03   -0.65570E-04   -0.27246E-02 13632   0.585E-01    0.177E-01
DAV:   5    -0.123960476986E+03    0.58558E-03   -0.18915E-03 15744   0.128E-01    0.360E-02
DAV:   6    -0.123960420297E+03    0.56690E-04   -0.25220E-04 10752   0.485E-02    0.164E-02
DAV:   7    -0.123960490100E+03   -0.69803E-04   -0.97374E-05 13152   0.302E-02    0.953E-03
DAV:   8    -0.123960549288E+03   -0.59188E-04   -0.18053E-05 10224   0.117E-02    0.644E-03
DAV:   9    -0.123960600542E+03   -0.51254E-04   -0.11192E-05 13056   0.873E-03    0.316E-03
DAV:  10    -0.123960623348E+03   -0.22806E-04   -0.39605E-06 12048   0.495E-03    0.232E-03
DAV:  11    -0.123960639508E+03   -0.16160E-04   -0.39084E-06 12768   0.441E-03    0.118E-03
DAV:  12    -0.123960643430E+03   -0.39222E-05   -0.58347E-07 13632   0.227E-03    0.605E-04
DAV:  13    -0.123960645277E+03   -0.18466E-05   -0.29663E-07 13536   0.219E-03    0.319E-04
DAV:  14    -0.123960646002E+03   -0.72510E-06   -0.15908E-07 14112   0.172E-03
  34 F= -.12585716E+03 E0= -.12585465E+03  d E =-.615344E-02  mag=    -0.0000
 trial-energy change:   -0.006153  1 .order   -0.004408   -0.022456    0.013641
 step:   0.0424(harm=  0.0385)  dis= 0.06754  next Energy=  -125.859259 (dE=-0.825E-02)
 bond charge predicted
       N       E                     dE             d eps       ncg     rms          rms(c)
DAV:   1    -0.123991337168E+03   -0.30692E-01   -0.22171E+01  8256   0.175E+01    0.846E-01
DAV:   2    -0.123985968381E+03    0.53688E-02   -0.25679E-01 12048   0.201E+00    0.511E-01
DAV:   3    -0.123982430364E+03    0.35380E-02   -0.30762E-02 12672   0.591E-01    0.132E-01
DAV:   4    -0.123982429732E+03    0.63154E-06   -0.32976E-03 12480   0.203E-01    0.546E-02
DAV:   5    -0.123982425311E+03    0.44214E-05   -0.15854E-04 10752   0.438E-02    0.109E-02
DAV:   6    -0.123982420417E+03    0.48935E-05   -0.32875E-05 10368   0.177E-02    0.489E-03
DAV:   7    -0.123982424072E+03   -0.36541E-05   -0.54586E-06  9552   0.861E-03    0.267E-03
DAV:   8    -0.123982429401E+03   -0.53291E-05   -0.18383E-06  8928   0.453E-03    0.248E-03
DAV:   9    -0.123982436667E+03   -0.72662E-05   -0.66139E-07 12528   0.233E-03    0.127E-03
DAV:  10    -0.123982446336E+03   -0.96690E-05   -0.65868E-07 13824   0.200E-03    0.612E-04
DAV:  11    -0.123982451493E+03   -0.51568E-05   -0.18873E-07 14160   0.126E-03    0.533E-04
DAV:  12    -0.123982455805E+03   -0.43122E-05   -0.15200E-07 13632   0.116E-03    0.303E-04
DAV:  13    -0.123982457734E+03   -0.19289E-05   -0.49555E-08 14064   0.724E-04    0.113E-04
DAV:  14    -0.123982458495E+03   -0.76112E-06   -0.20365E-08 13632   0.525E-04
  35 F= -.12585924E+03 E0= -.12585649E+03  d E =-.822726E-02  mag=    -0.0000
 curvature: -30.43 expect dE=-0.821E+01 dE for cont linesearch -0.558E-07
 trial: gam=-0.09904 g(F)=  0.270E+00 g(S)=  0.000E+00 ort = 0.104E-02 (trialstep = 0.580E-01)
 search vector abs. value=  0.605E+01
 bond charge predicted
       N       E                     dE             d eps       ncg     rms          rms(c)
DAV:   1    -0.124003037739E+03   -0.20580E-01   -0.20275E+00  8256   0.533E+00    0.257E-01
DAV:   2    -0.124002571327E+03    0.46641E-03   -0.24091E-02 12048   0.617E-01    0.157E-01
DAV:   3    -0.124002239843E+03    0.33148E-03   -0.30713E-03 14784   0.189E-01    0.432E-02
DAV:   4    -0.124002245122E+03   -0.52796E-05   -0.38097E-04 10608   0.699E-02    0.214E-02
DAV:   5    -0.124002246941E+03   -0.18192E-05   -0.15157E-05 13056   0.161E-02    0.581E-03
DAV:   6    -0.124002246356E+03    0.58516E-06   -0.45435E-06 12960   0.661E-03
  36 F= -.12587335E+03 E0= -.12587059E+03  d E =-.141159E-01  mag=     0.0000
 ZBRENT: can't locate minimum, use default step
 trial-energy change:   -0.014116  1 .order   -0.014123   -0.015640   -0.012606
 step:   0.2321(harm=  0.2990)  dis= 0.03292  next Energy=  -125.899541 (dE=-0.403E-01)
 bond charge predicted
       N       E                     dE             d eps       ncg     rms          rms(c)
DAV:   1    -0.124050406511E+03   -0.48160E-01   -0.18238E+01  8256   0.160E+01    0.770E-01
DAV:   2    -0.124046566943E+03    0.38396E-02   -0.21922E-01 15552   0.186E+00    0.469E-01
DAV:   3    -0.124043383225E+03    0.31837E-02   -0.25551E-02 13632   0.537E-01    0.127E-01
DAV:   4    -0.124043329611E+03    0.53614E-04   -0.32096E-03 12048   0.204E-01    0.622E-02
DAV:   5    -0.124043337194E+03   -0.75824E-05   -0.12260E-04 12528   0.445E-02    0.183E-02
DAV:   6    -0.124043331299E+03    0.58944E-05   -0.41506E-05 12912   0.199E-02    0.629E-03
DAV:   7    -0.124043333620E+03   -0.23202E-05   -0.36474E-06 10080   0.740E-03    0.344E-03
DAV:   8    -0.124043342230E+03   -0.86108E-05   -0.43849E-06 12384   0.676E-03    0.253E-03
DAV:   9    -0.124043346909E+03   -0.46792E-05   -0.49664E-07 11424   0.269E-03    0.217E-03
DAV:  10    -0.124043359116E+03   -0.12207E-04   -0.12145E-06 14448   0.303E-03    0.661E-04
DAV:  11    -0.124043364501E+03   -0.53852E-05   -0.19302E-07 13488   0.114E-03    0.558E-04
DAV:  12    -0.124043370204E+03   -0.57027E-05   -0.15560E-07 13632   0.969E-04    0.318E-04
DAV:  13    -0.124043372705E+03   -0.25007E-05   -0.64767E-08 13872   0.653E-04    0.162E-04
DAV:  14    -0.124043373409E+03   -0.70419E-06   -0.91929E-09 14256   0.279E-04
  37 F= -.12589762E+03 E0= -.12589479E+03  d E =-.383851E-01  mag=    -0.0000
 curvature:  -3.09 expect dE=-0.647E-01 dE for cont linesearch -0.196E-02
 ZBRENT: extrapolating
 opt :   0.3013  next Energy=  -125.899760 (dE=-0.405E-01)
 bond charge predicted
       N       E                     dE             d eps       ncg     rms          rms(c)
DAV:   1    -0.124053274132E+03   -0.99014E-02   -0.28841E+00  8256   0.635E+00    0.306E-01
DAV:   2    -0.124052629058E+03    0.64507E-03   -0.34337E-02 11904   0.735E-01    0.187E-01
DAV:   3    -0.124052145055E+03    0.48400E-03   -0.43925E-03 15840   0.226E-01    0.514E-02
DAV:   4    -0.124052149211E+03   -0.41560E-05   -0.53218E-04  9696   0.831E-02    0.258E-02
DAV:   5    -0.124052151462E+03   -0.22511E-05   -0.23087E-05 13248   0.200E-02    0.726E-03
DAV:   6    -0.124052150444E+03    0.10179E-05   -0.67692E-06 14304   0.803E-03    0.252E-03
DAV:   7    -0.124052150702E+03   -0.25784E-06   -0.55233E-07 11424   0.286E-03
  38 F= -.12589977E+03 E0= -.12589691E+03  d E =-.405312E-01  mag=     0.0000
 curvature:  -3.38 expect dE=-0.312E-01 dE for cont linesearch -0.141E-06
 trial: gam= 0.02236 g(F)=  0.923E-02 g(S)=  0.000E+00 ort = 0.503E-03 (trialstep = 0.107E+00)
 search vector abs. value=  0.123E-01
 bond charge predicted
       N       E                     dE             d eps       ncg     rms          rms(c)
DAV:   1    -0.124053275947E+03   -0.11255E-02   -0.13396E-02 10272   0.458E-01    0.238E-02
DAV:   2    -0.124053271020E+03    0.49272E-05   -0.15632E-04 16032   0.500E-02    0.139E-02
DAV:   3    -0.124053268604E+03    0.24152E-05   -0.16899E-05 13536   0.149E-02    0.335E-03
DAV:   4    -0.124053269686E+03   -0.10815E-05   -0.17996E-06 13680   0.509E-03    0.137E-03
DAV:   5    -0.124053270606E+03   -0.92006E-06   -0.91940E-08 13344   0.116E-03
  39 F= -.12590066E+03 E0= -.12589783E+03  d E =-.896361E-03  mag=    -0.0000
 trial-energy change:   -0.000896  1 .order   -0.000891   -0.000986   -0.000795
 step:   0.3781(harm=  0.5520)  dis= 0.00378  next Energy=  -125.901771 (dE=-0.200E-02)
 bond charge predicted
       N       E                     dE             d eps       ncg     rms          rms(c)
DAV:   1    -0.124055309539E+03   -0.20399E-02   -0.86633E-02  9984   0.116E+00    0.606E-02
DAV:   2    -0.124055272244E+03    0.37295E-04   -0.98293E-04 15648   0.126E-01    0.350E-02
DAV:   3    -0.124055249059E+03    0.23185E-04   -0.10908E-04 10752   0.379E-02    0.839E-03
DAV:   4    -0.124055250175E+03   -0.11160E-05   -0.12619E-05 12768   0.131E-02    0.331E-03
DAV:   5    -0.124055250788E+03   -0.61340E-06   -0.54149E-07 13344   0.266E-03
  40 F= -.12590208E+03 E0= -.12589929E+03  d E =-.230858E-02  mag=     0.0000
 curvature:  -0.31 expect dE=-0.181E-02 dE for cont linesearch -0.216E-03
 ZBRENT: increasing intervall
 opt :   0.9208  next Energy=  -125.901204 (dE=-0.144E-02)
 bond charge predicted
       N       E                     dE             d eps       ncg     rms          rms(c)
DAV:   1    -0.124055774566E+03   -0.52439E-03   -0.34651E-01 10176   0.233E+00    0.121E-01
DAV:   2    -0.124055614535E+03    0.16003E-03   -0.38253E-03 15264   0.248E-01    0.699E-02
DAV:   3    -0.124055520766E+03    0.93768E-04   -0.44715E-04 13632   0.762E-02    0.165E-02
DAV:   4    -0.124055522316E+03   -0.15497E-05   -0.45088E-05 12000   0.253E-02    0.663E-03
DAV:   5    -0.124055523240E+03   -0.92371E-06   -0.21198E-06 10464   0.543E-03
  41 F= -.12590122E+03 E0= -.12589852E+03  d E =-.144944E-02  mag=    -0.0000
 curvature:   1.25 expect dE= 0.413E-01 dE for cont linesearch  0.380E-02
 ZBRENT: bracketing found
 ZBRENT: interpolating
 opt :   0.5538  next Energy=  -125.902334 (dE=-0.257E-02)
 bond charge predicted
       N       E                     dE             d eps       ncg     rms          rms(c)
DAV:   1    -0.124055990239E+03   -0.46792E-03   -0.15805E-01  9984   0.157E+00    0.821E-02
DAV:   2    -0.124055919393E+03    0.70846E-04   -0.17623E-03 15648   0.168E-01    0.473E-02
DAV:   3    -0.124055875943E+03    0.43451E-04   -0.20083E-04 12960   0.512E-02    0.112E-02
DAV:   4    -0.124055876985E+03   -0.10424E-05   -0.20779E-05 11280   0.173E-02    0.444E-03
DAV:   5    -0.124055877576E+03   -0.59054E-06   -0.10094E-06 12624   0.414E-03
  42 F= -.12590234E+03 E0= -.12589958E+03  d E =-.256840E-02  mag=     0.0000
 curvature:  -0.08 expect dE=-0.887E-03 dE for cont linesearch -0.894E-09
 trial: gam= 1.13568 g(F)=  0.105E-01 g(S)=  0.000E+00 ort = 0.114E-04 (trialstep = 0.914E-01)
 search vector abs. value=  0.263E-01
 bond charge predicted
       N       E                     dE             d eps       ncg     rms          rms(c)
DAV:   1    -0.124056993425E+03   -0.11164E-02   -0.17704E-02  8256   0.524E-01    0.244E-02
DAV:   2    -0.124056990609E+03    0.28155E-05   -0.15289E-04 15552   0.510E-02    0.142E-02
DAV:   3    -0.124056988667E+03    0.19416E-05   -0.16575E-05  8880   0.142E-02    0.319E-03
DAV:   4    -0.124056989024E+03   -0.35674E-06   -0.18046E-06 12576   0.558E-03
  43 F= -.12590324E+03 E0= -.12590050E+03  d E =-.907885E-03  mag=     0.0000
 ZBRENT: can't locate minimum, use default step
 trial-energy change:   -0.000908  1 .order   -0.000907   -0.000959   -0.000855
 step:   0.3656(harm=  0.8421)  dis= 0.00594  next Energy=  -125.906756 (dE=-0.442E-02)
 bond charge predicted
       N       E                     dE             d eps       ncg     rms          rms(c)
DAV:   1    -0.124059740207E+03   -0.27515E-02   -0.15962E-01  8256   0.157E+00    0.736E-02
DAV:   2    -0.124059719093E+03    0.21114E-04   -0.13470E-03 15360   0.152E-01    0.426E-02
DAV:   3    -0.124059696870E+03    0.22223E-04   -0.15008E-04 12336   0.421E-02    0.932E-03
DAV:   4    -0.124059698215E+03   -0.13444E-05   -0.14041E-05 13584   0.144E-02    0.377E-03
DAV:   5    -0.124059698712E+03   -0.49675E-06   -0.83416E-07 11856   0.389E-03
  44 F= -.12590535E+03 E0= -.12590266E+03  d E =-.300898E-02  mag=    -0.0000
 curvature:  -0.63 expect dE=-0.291E-02 dE for cont linesearch -0.852E-03
 ZBRENT: increasing intervall
 opt :   0.9139  next Energy=  -125.906757 (dE=-0.442E-02)
 bond charge predicted
       N       E                     dE             d eps       ncg     rms          rms(c)
DAV:   1    -0.124062500887E+03   -0.28027E-02   -0.63825E-01  8256   0.314E+00    0.147E-01
DAV:   2    -0.124062424569E+03    0.76318E-04   -0.53509E-03 16320   0.302E-01    0.848E-02
DAV:   3    -0.124062322327E+03    0.10224E-03   -0.59269E-04 11520   0.834E-02    0.184E-02
DAV:   4    -0.124062326965E+03   -0.46379E-05   -0.55650E-05 15648   0.283E-02    0.736E-03
DAV:   5    -0.124062328066E+03   -0.11006E-05   -0.26405E-06 12384   0.605E-03    0.228E-03
DAV:   6    -0.124062328288E+03   -0.22222E-06   -0.73164E-07 12672   0.400E-03
  45 F= -.12590677E+03 E0= -.12590419E+03  d E =-.442909E-02  mag=    -0.0000
 curvature:  -1.04 expect dE=-0.809E-02 dE for cont linesearch -0.235E-04
 trial: gam= 0.81558 g(F)=  0.774E-02 g(S)=  0.000E+00 ort =-0.770E-03 (trialstep = 0.256E+00)
 search vector abs. value=  0.240E-01
 bond charge predicted
       N       E                     dE             d eps       ncg     rms          rms(c)
DAV:   1    -0.124064279564E+03   -0.19515E-02   -0.10181E-01  8256   0.126E+00    0.632E-02
DAV:   2    -0.124064244505E+03    0.35059E-04   -0.91101E-04 16416   0.122E-01    0.353E-02
DAV:   3    -0.124064226923E+03    0.17582E-04   -0.97526E-05  9792   0.333E-02    0.827E-03
DAV:   4    -0.124064228263E+03   -0.13405E-05   -0.10552E-05 13440   0.120E-02    0.300E-03
DAV:   5    -0.124064228818E+03   -0.55506E-06   -0.47004E-07 10416   0.288E-03
  46 F= -.12590829E+03 E0= -.12590564E+03  d E =-.152176E-02  mag=     0.0000
 trial-energy change:   -0.001522  1 .order   -0.001521   -0.001819   -0.001222
 step:   0.7796(harm=  0.7796)  dis= 0.00955  next Energy=  -125.909537 (dE=-0.277E-02)
 bond charge predicted
       N       E                     dE             d eps       ncg     rms          rms(c)
DAV:   1    -0.124066469868E+03   -0.22416E-02   -0.42677E-01  8256   0.259E+00    0.129E-01
DAV:   2    -0.124066325736E+03    0.14413E-03   -0.38284E-03 16464   0.248E-01    0.722E-02
DAV:   3    -0.124066246523E+03    0.79213E-04   -0.40809E-04 10848   0.678E-02    0.170E-02
DAV:   4    -0.124066249842E+03   -0.33189E-05   -0.41839E-05 15504   0.241E-02    0.613E-03
DAV:   5    -0.124066250753E+03   -0.91111E-06   -0.17734E-06  9984   0.580E-03
  47 F= -.12590954E+03 E0= -.12590675E+03  d E =-.277210E-02  mag=    -0.0000
 curvature:  -1.32 expect dE=-0.406E-02 dE for cont linesearch -0.265E-07
 trial: gam= 0.26888 g(F)=  0.308E-02 g(S)=  0.000E+00 ort =-0.220E-04 (trialstep = 0.361E+00)
 search vector abs. value=  0.481E-02
 bond charge predicted
       N       E                     dE             d eps       ncg     rms          rms(c)
DAV:   1    -0.124067224193E+03   -0.97435E-03   -0.35557E-02  8256   0.747E-01    0.452E-02
DAV:   2    -0.124067191818E+03    0.32375E-04   -0.51243E-04 16224   0.886E-02    0.245E-02
DAV:   3    -0.124067179716E+03    0.12102E-04   -0.52469E-05  9312   0.258E-02    0.727E-03
DAV:   4    -0.124067180104E+03   -0.38836E-06   -0.79326E-06 11088   0.119E-02
  48 F= -.12591040E+03 E0= -.12590756E+03  d E =-.859984E-03  mag=    -0.0000
 trial-energy change:   -0.000860  1 .order   -0.000859   -0.001110   -0.000608
 step:   0.7967(harm=  0.7967)  dis= 0.00221  next Energy=  -125.910764 (dE=-0.123E-02)
 bond charge predicted
       N       E                     dE             d eps       ncg     rms          rms(c)
DAV:   1    -0.124067696482E+03   -0.51677E-03   -0.52008E-02  8256   0.903E-01    0.550E-02
DAV:   2    -0.124067650348E+03    0.46134E-04   -0.74960E-04 16320   0.107E-01    0.298E-02
DAV:   3    -0.124067632855E+03    0.17492E-04   -0.75244E-05  9120   0.308E-02    0.895E-03
DAV:   4    -0.124067633320E+03   -0.46429E-06   -0.11312E-05 12624   0.140E-02    0.349E-03
DAV:   5    -0.124067633326E+03   -0.60954E-08   -0.17527E-06  8688   0.677E-03
  49 F= -.12591077E+03 E0= -.12590787E+03  d E =-.122888E-02  mag=     0.0000
 curvature:  -0.62 expect dE=-0.251E-02 dE for cont linesearch -0.454E-10
 trial: gam= 1.31983 g(F)=  0.403E-02 g(S)=  0.000E+00 ort =-0.592E-06 (trialstep = 0.174E+00)
 search vector abs. value=  0.124E-01
 bond charge predicted
       N       E                     dE             d eps       ncg     rms          rms(c)
DAV:   1    -0.124068291065E+03   -0.65775E-03   -0.21073E-02  8256   0.583E-01    0.268E-02
DAV:   2    -0.124068289768E+03    0.12967E-05   -0.15441E-04 14160   0.521E-02    0.162E-02
DAV:   3    -0.124068288474E+03    0.12942E-05   -0.21737E-05 10848   0.181E-02    0.298E-03
DAV:   4    -0.124068288297E+03    0.17693E-06   -0.52475E-06  8352   0.117E-02
  50 F= -.12591140E+03 E0= -.12590850E+03  d E =-.634940E-03  mag=     0.0000
 ZBRENT: can't locate minimum, use default step
 trial-energy change:   -0.000635  1 .order   -0.000634   -0.000700   -0.000569
 step:   0.6942(harm=  0.9258)  dis= 0.00472  next Energy=  -125.912633 (dE=-0.187E-02)
 bond charge predicted
       N       E                     dE             d eps       ncg     rms          rms(c)
DAV:   1    -0.124069495249E+03   -0.12068E-02   -0.18971E-01  8256   0.175E+00    0.807E-02
DAV:   2    -0.124069490520E+03    0.47282E-05   -0.13717E-03 15792   0.154E-01    0.487E-02
DAV:   3    -0.124069464221E+03    0.26299E-04   -0.17362E-04 11424   0.456E-02    0.861E-03
DAV:   4    -0.124069465244E+03   -0.10221E-05   -0.16689E-05  9696   0.187E-02    0.412E-03
DAV:   5    -0.124069466876E+03   -0.16329E-05   -0.52899E-06 10272   0.116E-02    0.175E-03
DAV:   6    -0.124069465316E+03    0.15606E-05   -0.40821E-06 11568   0.980E-03    0.724E-04
DAV:   7    -0.124069464637E+03    0.67939E-06   -0.65298E-07 11568   0.392E-03
  51 F= -.12591252E+03 E0= -.12590959E+03  d E =-.175300E-02  mag=    -0.0000
 curvature:  -1.29 expect dE=-0.365E-02 dE for cont linesearch -0.108E-03
 ZBRENT: extrapolating
 opt :   0.9287  next Energy=  -125.912639 (dE=-0.187E-02)
 bond charge predicted
       N       E                     dE             d eps       ncg     rms          rms(c)
DAV:   1    -0.124069615472E+03   -0.15016E-03   -0.38470E-02  8256   0.787E-01    0.362E-02
DAV:   2    -0.124069613153E+03    0.23188E-05   -0.27756E-04 15744   0.689E-02    0.218E-02
DAV:   3    -0.124069608207E+03    0.49460E-05   -0.34619E-05  9360   0.200E-02    0.387E-03
DAV:   4    -0.124069608558E+03   -0.35081E-06   -0.30526E-06 15504   0.663E-03
  52 F= -.12591264E+03 E0= -.12590970E+03  d E =-.187147E-02  mag=    -0.0000
 curvature:  -1.43 expect dE=-0.660E-02 dE for cont linesearch -0.899E-08
 trial: gam= 1.14312 g(F)=  0.462E-02 g(S)=  0.000E+00 ort =-0.883E-05 (trialstep = 0.194E+00)
 search vector abs. value=  0.208E-01
 bond charge predicted
       N       E                     dE             d eps       ncg     rms          rms(c)
DAV:   1    -0.124070352479E+03   -0.74427E-03   -0.45532E-02  8256   0.856E-01    0.425E-02
DAV:   2    -0.124070337669E+03    0.14810E-04   -0.37523E-04 16512   0.780E-02    0.246E-02
DAV:   3    -0.124070329507E+03    0.81614E-05   -0.47930E-05  9552   0.229E-02    0.523E-03
DAV:   4    -0.124070329973E+03   -0.46552E-06   -0.44363E-06 13872   0.796E-03
  53 F= -.12591335E+03 E0= -.12591044E+03  d E =-.716203E-03  mag=    -0.0000
 trial-energy change:   -0.000716  1 .order   -0.000715   -0.000892   -0.000539
 step:   0.4900(harm=  0.4900)  dis= 0.00413  next Energy=  -125.913767 (dE=-0.113E-02)
 bond charge predicted
       N       E                     dE             d eps       ncg     rms          rms(c)
DAV:   1    -0.124070804983E+03   -0.47548E-03   -0.10674E-01  8256   0.131E+00    0.649E-02
DAV:   2    -0.124070773045E+03    0.31939E-04   -0.87750E-04 16512   0.119E-01    0.376E-02
DAV:   3    -0.124070752584E+03    0.20460E-04   -0.11247E-04 10464   0.350E-02    0.793E-03
DAV:   4    -0.124070753453E+03   -0.86910E-06   -0.10113E-05 13440   0.124E-02    0.325E-03
DAV:   5    -0.124070753965E+03   -0.51132E-06   -0.91884E-07 11952   0.478E-03
  54 F= -.12591377E+03 E0= -.12591090E+03  d E =-.113330E-02  mag=     0.0000
 curvature:  -1.11 expect dE=-0.117E-02 dE for cont linesearch -0.187E-07
 trial: gam= 0.22387 g(F)=  0.106E-02 g(S)=  0.000E+00 ort = 0.188E-04 (trialstep = 0.253E+00)
 search vector abs. value=  0.211E-02
 bond charge predicted
       N       E                     dE             d eps       ncg     rms          rms(c)
DAV:   1    -0.124070919695E+03   -0.16624E-03   -0.91857E-03  9936   0.382E-01    0.255E-02
DAV:   2    -0.124070905785E+03    0.13910E-04   -0.13095E-04 15072   0.452E-02    0.130E-02
DAV:   3    -0.124070901887E+03    0.38978E-05   -0.18305E-05  9984   0.152E-02    0.376E-03
DAV:   4    -0.124070902041E+03   -0.15442E-06   -0.24478E-06 10272   0.723E-03
  55 F= -.12591396E+03 E0= -.12591111E+03  d E =-.183613E-03  mag=     0.0000
 trial-energy change:   -0.000184  1 .order   -0.000183   -0.000268   -0.000098
 step:   0.3994(harm=  0.3994)  dis= 0.00107  next Energy=  -125.913983 (dE=-0.212E-03)
 bond charge predicted
       N       E                     dE             d eps       ncg     rms          rms(c)
DAV:   1    -0.124070916136E+03   -0.14249E-04   -0.30862E-03 11376   0.222E-01    0.150E-02
DAV:   2    -0.124070911296E+03    0.48394E-05   -0.42060E-05 11952   0.257E-02    0.762E-03
DAV:   3    -0.124070910273E+03    0.10237E-05   -0.66870E-06  9792   0.972E-03    0.226E-03
DAV:   4    -0.124070910421E+03   -0.14860E-06   -0.13538E-06  8448   0.575E-03
  56 F= -.12591398E+03 E0= -.12591116E+03  d E =-.212546E-03  mag=     0.0000
 curvature:  -0.40 expect dE=-0.929E-04 dE for cont linesearch -0.897E-10
 trial: gam= 0.23159 g(F)=  0.234E-03 g(S)=  0.000E+00 ort =-0.690E-06 (trialstep = 0.282E+00)
 search vector abs. value=  0.347E-03
 bond charge predicted
       N       E                     dE             d eps       ncg     rms          rms(c)
DAV:   1    -0.124070909604E+03    0.66905E-06   -0.17793E-03  8256   0.168E-01    0.933E-03
DAV:   2    -0.124070907978E+03    0.16259E-05   -0.22112E-05 11664   0.184E-02    0.506E-03
DAV:   3    -0.124070907858E+03    0.11979E-06   -0.28735E-06 10224   0.648E-03
  57 F= -.12591404E+03 E0= -.12591123E+03  d E =-.580887E-04  mag=    -0.0000
 ZBRENT: can't locate minimum, use default step
 trial-energy change:   -0.000058  1 .order   -0.000058   -0.000066   -0.000050
 step:   1.1286(harm=  1.1415)  dis= 0.00127  next Energy=  -125.914117 (dE=-0.133E-03)
 bond charge predicted
       N       E                     dE             d eps       ncg     rms          rms(c)
DAV:   1    -0.124070822001E+03    0.85976E-04   -0.16020E-02  8256   0.503E-01    0.282E-02
DAV:   2    -0.124070807117E+03    0.14885E-04   -0.19385E-04 13392   0.534E-02    0.152E-02
DAV:   3    -0.124070803915E+03    0.32015E-05   -0.22496E-05 11376   0.163E-02    0.443E-03
DAV:   4    -0.124070804492E+03   -0.57633E-06   -0.38437E-06  8832   0.886E-03
  58 F= -.12591412E+03 E0= -.12591135E+03  d E =-.136802E-03  mag=    -0.0000
 curvature:  -0.85 expect dE=-0.245E-03 dE for cont linesearch -0.976E-07
 trial: gam= 1.20515 g(F)=  0.290E-03 g(S)=  0.000E+00 ort = 0.632E-05 (trialstep = 0.194E+00)
 search vector abs. value=  0.808E-03
 bond charge predicted
       N       E                     dE             d eps       ncg     rms          rms(c)
DAV:   1    -0.124070767670E+03    0.36246E-04   -0.21902E-03  8592   0.186E-01    0.890E-03
DAV:   2    -0.124070766610E+03    0.10603E-05   -0.20765E-05  9120   0.199E-02    0.534E-03
DAV:   3    -0.124070767308E+03   -0.69841E-06   -0.46967E-06 10752   0.994E-03
  59 F= -.12591417E+03 E0= -.12591140E+03  d E =-.524930E-04  mag=     0.0000
 ZBRENT: can't locate minimum, use default step
 trial-energy change:   -0.000052  1 .order   -0.000052   -0.000058   -0.000046
 step:   0.7743(harm=  0.9374)  dis= 0.00122  next Energy=  -125.914260 (dE=-0.139E-03)
 bond charge predicted
       N       E                     dE             d eps       ncg     rms          rms(c)
DAV:   1    -0.124070593124E+03    0.17349E-03   -0.19714E-02  8256   0.557E-01    0.267E-02
DAV:   2    -0.124070587183E+03    0.59418E-05   -0.17562E-04 12480   0.548E-02    0.159E-02
DAV:   3    -0.124070585679E+03    0.15040E-05   -0.26561E-05 12432   0.195E-02    0.365E-03
DAV:   4    -0.124070586228E+03   -0.54915E-06   -0.71560E-06  8592   0.135E-02
  60 F= -.12591426E+03 E0= -.12591149E+03  d E =-.140646E-03  mag=     0.0000
 curvature:  -1.21 expect dE=-0.252E-03 dE for cont linesearch -0.593E-05
 ZBRENT: extrapolating
 opt :   0.9852  next Energy=  -125.914268 (dE=-0.147E-03)
 bond charge predicted
       N       E                     dE             d eps       ncg     rms          rms(c)
DAV:   1    -0.124070495217E+03    0.90462E-04   -0.26058E-03 10416   0.203E-01    0.100E-02
DAV:   2    -0.124070493754E+03    0.14627E-05   -0.22404E-05  9264   0.206E-02    0.590E-03
DAV:   3    -0.124070494420E+03   -0.66562E-06   -0.52759E-06 10416   0.104E-02
  61 F= -.12591427E+03 E0= -.12591150E+03  d E =-.146676E-03  mag=    -0.0000
 curvature:  -1.36 expect dE=-0.441E-03 dE for cont linesearch -0.299E-07
 trial: gam= 1.18809 g(F)=  0.325E-03 g(S)=  0.000E+00 ort =-0.422E-05 (trialstep = 0.195E+00)
 search vector abs. value=  0.146E-02
 bond charge predicted
       N       E                     dE             d eps       ncg     rms          rms(c)
DAV:   1    -0.124070403962E+03    0.89793E-04   -0.40576E-03  8256   0.252E-01    0.125E-02
DAV:   2    -0.124070402225E+03    0.17371E-05   -0.44411E-05  9024   0.285E-02    0.759E-03
DAV:   3    -0.124070402619E+03   -0.39496E-06   -0.83173E-06 11712   0.128E-02
  62 F= -.12591432E+03 E0= -.12591155E+03  d E =-.504477E-04  mag=     0.0000
 trial-energy change:   -0.000050  1 .order   -0.000049   -0.000063   -0.000036
 step:   0.4659(harm=  0.4659)  dis= 0.00104  next Energy=  -125.914342 (dE=-0.745E-04)
 bond charge predicted
       N       E                     dE             d eps       ncg     rms          rms(c)
DAV:   1    -0.124070236124E+03    0.16610E-03   -0.77790E-03  9024   0.349E-01    0.176E-02
DAV:   2    -0.124070232563E+03    0.35604E-05   -0.80346E-05  9024   0.380E-02    0.106E-02
DAV:   3    -0.124070232973E+03   -0.40943E-06   -0.15142E-05 11472   0.168E-02    0.272E-03
DAV:   4    -0.124070233177E+03   -0.20363E-06   -0.79548E-06  8256   0.142E-02
  63 F= -.12591435E+03 E0= -.12591158E+03  d E =-.780621E-04  mag=     0.0000
 curvature:  -1.06 expect dE=-0.204E-03 dE for cont linesearch -0.299E-07
 trial: gam= 0.54845 g(F)=  0.192E-03 g(S)=  0.000E+00 ort = 0.641E-05 (trialstep = 0.250E+00)
 search vector abs. value=  0.637E-03
 bond charge predicted
       N       E                     dE             d eps       ncg     rms          rms(c)
DAV:   1    -0.124070136924E+03    0.96049E-04   -0.25225E-03 11616   0.196E-01    0.974E-03
DAV:   2    -0.124070135667E+03    0.12567E-05   -0.23552E-05  8448   0.199E-02    0.579E-03
DAV:   3    -0.124070135637E+03    0.30002E-07   -0.39204E-06  9744   0.820E-03
  64 F= -.12591439E+03 E0= -.12591164E+03  d E =-.432947E-04  mag=    -0.0000
 ZBRENT: can't locate minimum, use default step
 trial-energy change:   -0.000043  1 .order   -0.000045   -0.000049   -0.000041
 step:   0.9980(harm=  1.5000)  dis= 0.00153  next Energy=  -125.914492 (dE=-0.147E-03)
 bond charge predicted
       N       E                     dE             d eps       ncg     rms          rms(c)
DAV:   1    -0.124069811007E+03    0.32466E-03   -0.22641E-02  8256   0.587E-01    0.284E-02
DAV:   2    -0.124069805156E+03    0.58513E-05   -0.23690E-04  9024   0.626E-02    0.172E-02
DAV:   3    -0.124069802703E+03    0.24521E-05   -0.30957E-05 12144   0.205E-02    0.478E-03
DAV:   4    -0.124069803332E+03   -0.62871E-06   -0.65041E-06  8352   0.122E-02
  65 F= -.12591448E+03 E0= -.12591176E+03  d E =-.133761E-03  mag=    -0.0000
 curvature:  -2.05 expect dE=-0.348E-03 dE for cont linesearch -0.182E-04
 ZBRENT: increasing intervall
 opt :   2.4950  next Energy=  -125.914460 (dE=-0.115E-03)
 bond charge predicted
       N       E                     dE             d eps       ncg     rms          rms(c)
DAV:   1    -0.124068966809E+03    0.83589E-03   -0.90399E-02  8256   0.117E+00    0.565E-02
DAV:   2    -0.124068944907E+03    0.21902E-04   -0.94910E-04 11712   0.124E-01    0.341E-02
DAV:   3    -0.124068932545E+03    0.12361E-04   -0.11176E-04 12912   0.372E-02    0.937E-03
DAV:   4    -0.124068934044E+03   -0.14987E-05   -0.17872E-05  9264   0.193E-02    0.376E-03
DAV:   5    -0.124068934067E+03   -0.22842E-07   -0.71117E-06  8832   0.132E-02
  66 F= -.12591446E+03 E0= -.12591180E+03  d E =-.110669E-03  mag=    -0.0000
 curvature:   2.16 expect dE= 0.216E-02 dE for cont linesearch  0.398E-04
 ZBRENT: bracketing found
 ZBRENT: interpolating
 opt :   1.6116  next Energy=  -125.914502 (dE=-0.157E-03)
 bond charge predicted
       N       E                     dE             d eps       ncg     rms          rms(c)
DAV:   1    -0.124069490323E+03   -0.55628E-03   -0.31432E-02  8256   0.693E-01    0.330E-02
DAV:   2    -0.124069483427E+03    0.68954E-05   -0.34536E-04 11904   0.741E-02    0.202E-02
DAV:   3    -0.124069479102E+03    0.43253E-05   -0.39114E-05 12480   0.215E-02    0.548E-03
DAV:   4    -0.124069479630E+03   -0.52776E-06   -0.54964E-06 10368   0.102E-02
  67 F= -.12591450E+03 E0= -.12591181E+03  d E =-.156786E-03  mag=     0.0000
 curvature:  -1.25 expect dE=-0.483E-03 dE for cont linesearch -0.699E-09
 trial: gam= 2.06179 g(F)=  0.385E-03 g(S)=  0.000E+00 ort = 0.596E-06 (trialstep = 0.107E+00)
 search vector abs. value=  0.310E-02
 bond charge predicted
       N       E                     dE             d eps       ncg     rms          rms(c)
DAV:   1    -0.124069377080E+03    0.10202E-03   -0.23905E-03 10032   0.191E-01    0.906E-03
DAV:   2    -0.124069375837E+03    0.12425E-05   -0.26736E-05 12192   0.215E-02    0.550E-03
DAV:   3    -0.124069376000E+03   -0.16262E-06   -0.47256E-06 10656   0.943E-03
  68 F= -.12591454E+03 E0= -.12591186E+03  d E =-.386904E-04  mag=    -0.0000
 ZBRENT: can't locate minimum, use default step
 trial-energy change:   -0.000039  1 .order   -0.000038   -0.000041   -0.000035
 step:   0.4297(harm=  0.6684)  dis= 0.00182  next Energy=  -125.914631 (dE=-0.129E-03)
 bond charge predicted
       N       E                     dE             d eps       ncg     rms          rms(c)
DAV:   1    -0.124069035365E+03    0.34047E-03   -0.21588E-02  8256   0.572E-01    0.278E-02
DAV:   2    -0.124069030125E+03    0.52402E-05   -0.23640E-04  8736   0.631E-02    0.172E-02
DAV:   3    -0.124069027931E+03    0.21942E-05   -0.35248E-05 11760   0.226E-02    0.454E-03
DAV:   4    -0.124069028541E+03   -0.61000E-06   -0.87222E-06  8496   0.144E-02
  69 F= -.12591462E+03 E0= -.12591199E+03  d E =-.118604E-03  mag=    -0.0000
 curvature:  -2.19 expect dE=-0.438E-03 dE for cont linesearch -0.182E-04
 ZBRENT: increasing intervall
 opt :   1.0742  next Energy=  -125.914618 (dE=-0.116E-03)
 bond charge predicted
       N       E                     dE             d eps       ncg     rms          rms(c)
DAV:   1    -0.124068197154E+03    0.83078E-03   -0.86190E-02  8256   0.114E+00    0.555E-02
DAV:   2    -0.124068179092E+03    0.18063E-04   -0.94431E-04 13776   0.124E-01    0.340E-02
DAV:   3    -0.124068165218E+03    0.13874E-04   -0.12214E-04 11616   0.386E-02    0.856E-03
DAV:   4    -0.124068166188E+03   -0.97088E-06   -0.19833E-05  9216   0.199E-02    0.398E-03
DAV:   5    -0.124068166001E+03    0.18760E-06   -0.58636E-06  8736   0.122E-02
  70 F= -.12591461E+03 E0= -.12591208E+03  d E =-.111326E-03  mag=     0.0000
 curvature:   0.31 expect dE= 0.272E-03 dE for cont linesearch  0.341E-05
 ZBRENT: bracketing found
 ZBRENT: interpolating
 opt :   0.7289  next Energy=  -125.914645 (dE=-0.143E-03)
 bond charge predicted
       N       E                     dE             d eps       ncg     rms          rms(c)
DAV:   1    -0.124068663292E+03   -0.49710E-03   -0.24696E-02  8256   0.612E-01    0.293E-02
DAV:   2    -0.124068658188E+03    0.51041E-05   -0.28259E-04 12000   0.675E-02    0.182E-02
DAV:   3    -0.124068654728E+03    0.34600E-05   -0.36715E-05 11664   0.217E-02    0.463E-03
DAV:   4    -0.124068655226E+03   -0.49871E-06   -0.69055E-06 10416   0.123E-02
  71 F= -.12591464E+03 E0= -.12591206E+03  d E =-.142260E-03  mag=     0.0000
 curvature:  -2.17 expect dE=-0.808E-03 dE for cont linesearch -0.492E-09
 trial: gam= 0.93295 g(F)=  0.372E-03 g(S)=  0.000E+00 ort = 0.837E-06 (trialstep = 0.232E+00)
 search vector abs. value=  0.307E-02
 bond charge predicted
       N       E                     dE             d eps       ncg     rms          rms(c)
DAV:   1    -0.124068418064E+03    0.23666E-03   -0.11379E-02  8256   0.410E-01    0.194E-02
DAV:   2    -0.124068414727E+03    0.33367E-05   -0.12623E-04 12672   0.453E-02    0.118E-02
DAV:   3    -0.124068413518E+03    0.12088E-05   -0.15874E-05 11856   0.147E-02    0.307E-03
DAV:   4    -0.124068414249E+03   -0.73103E-06   -0.46439E-06  8448   0.107E-02
  72 F= -.12591473E+03 E0= -.12591218E+03  d E =-.824625E-04  mag=     0.0000
 ZBRENT: can't locate minimum, use default step
 trial-energy change:   -0.000082  1 .order   -0.000082   -0.000086   -0.000078
 step:   0.9269(harm=  2.4417)  dis= 0.00495  next Energy=  -125.915099 (dE=-0.455E-03)
 bond charge predicted
       N       E                     dE             d eps       ncg     rms          rms(c)
DAV:   1    -0.124067676518E+03    0.73700E-03   -0.10252E-01  8256   0.123E+00    0.599E-02
DAV:   2    -0.124067650806E+03    0.25711E-04   -0.10756E-03 10272   0.131E-01    0.360E-02
DAV:   3    -0.124067635878E+03    0.14929E-04   -0.13712E-04 12336   0.396E-02    0.921E-03
DAV:   4    -0.124067636895E+03   -0.10173E-05   -0.16639E-05  8880   0.164E-02    0.363E-03
DAV:   5    -0.124067637854E+03   -0.95894E-06   -0.39780E-06  9696   0.981E-03
  73 F= -.12591492E+03 E0= -.12591249E+03  d E =-.277440E-03  mag=     0.0000
 curvature:  -5.33 expect dE=-0.155E-02 dE for cont linesearch -0.868E-04
 ZBRENT: increasing intervall
 opt :   2.3172  next Energy=  -125.915075 (dE=-0.430E-03)
 bond charge predicted
       N       E                     dE             d eps       ncg     rms          rms(c)
DAV:   1    -0.124065999147E+03    0.16377E-02   -0.40994E-01  8256   0.246E+00    0.119E-01
DAV:   2    -0.124065903934E+03    0.95213E-04   -0.43207E-03 14544   0.259E-01    0.713E-02
DAV:   3    -0.124065833318E+03    0.70616E-04   -0.50389E-04 12960   0.726E-02    0.179E-02
DAV:   4    -0.124065834906E+03   -0.15883E-05   -0.52036E-05 11040   0.266E-02    0.693E-03
DAV:   5    -0.124065835678E+03   -0.77196E-06   -0.40570E-06 11184   0.874E-03
  74 F= -.12591507E+03 E0= -.12591287E+03  d E =-.422119E-03  mag=     0.0000
 curvature:  -9.39 expect dE=-0.854E-02 dE for cont linesearch -0.132E-05
 trial: gam= 2.39487 g(F)=  0.909E-03 g(S)=  0.000E+00 ort =-0.208E-04 (trialstep = 0.108E+00)
 search vector abs. value=  0.184E-01
 bond charge predicted
       N       E                     dE             d eps       ncg     rms          rms(c)
DAV:   1    -0.124065543702E+03    0.29120E-03   -0.15039E-02  8256   0.473E-01    0.226E-02
DAV:   2    -0.124065540746E+03    0.29564E-05   -0.17007E-04 11184   0.521E-02    0.136E-02
DAV:   3    -0.124065538914E+03    0.18319E-05   -0.17099E-05 11280   0.147E-02    0.402E-03
DAV:   4    -0.124065539174E+03   -0.25990E-06   -0.27446E-06 10128   0.720E-03
  75 F= -.12591515E+03 E0= -.12591299E+03  d E =-.835239E-04  mag=     0.0000
 ZBRENT: can't locate minimum, use default step
 trial-energy change:   -0.000084  1 .order   -0.000084   -0.000093   -0.000075
 step:   0.4326(harm=  0.5559)  dis= 0.00621  next Energy=  -125.915306 (dE=-0.239E-03)
 bond charge predicted
       N       E                     dE             d eps       ncg     rms          rms(c)
DAV:   1    -0.124064586964E+03    0.95195E-03   -0.13518E-01  8256   0.142E+00    0.687E-02
DAV:   2    -0.124064555845E+03    0.31120E-04   -0.14932E-03 12768   0.153E-01    0.410E-02
DAV:   3    -0.124064535892E+03    0.19952E-04   -0.14948E-04 12528   0.415E-02    0.117E-02
DAV:   4    -0.124064536985E+03   -0.10931E-05   -0.17899E-05 10176   0.159E-02    0.400E-03
DAV:   5    -0.124064537194E+03   -0.20882E-06   -0.20141E-06 12816   0.665E-03
  76 F= -.12591529E+03 E0= -.12591323E+03  d E =-.222781E-03  mag=     0.0000
 curvature:  -5.50 expect dE=-0.186E-02 dE for cont linesearch -0.799E-05
 ZBRENT: extrapolating
 opt :   0.5329  next Energy=  -125.915298 (dE=-0.231E-03)
 bond charge predicted
       N       E                     dE             d eps       ncg     rms          rms(c)
DAV:   1    -0.124064196035E+03    0.34095E-03   -0.12948E-02  8544   0.439E-01    0.210E-02
DAV:   2    -0.124064193368E+03    0.26679E-05   -0.14538E-04 13200   0.478E-02    0.126E-02
DAV:   3    -0.124064191660E+03    0.17072E-05   -0.13935E-05 11520   0.128E-02    0.365E-03
DAV:   4    -0.124064191889E+03   -0.22849E-06   -0.18855E-06 10416   0.539E-03
  77 F= -.12591530E+03 E0= -.12591326E+03  d E =-.230792E-03  mag=    -0.0000
 curvature:  -5.65 expect dE=-0.220E-02 dE for cont linesearch -0.251E-12
 trial: gam= 0.25242 g(F)=  0.390E-03 g(S)=  0.000E+00 ort = 0.286E-07 (trialstep = 0.193E+00)
 search vector abs. value=  0.156E-02
 bond charge predicted
       N       E                     dE             d eps       ncg     rms          rms(c)
DAV:   1    -0.124064060184E+03    0.13148E-03   -0.44225E-03  8640   0.261E-01    0.134E-02
DAV:   2    -0.124064058522E+03    0.16620E-05   -0.58747E-05 13344   0.304E-02    0.787E-03
DAV:   3    -0.124064057666E+03    0.85669E-06   -0.53350E-06 10080   0.861E-03
  78 F= -.12591536E+03 E0= -.12591333E+03  d E =-.602540E-04  mag=    -0.0000
 trial-energy change:   -0.000060  1 .order   -0.000060   -0.000075   -0.000045
 step:   0.4776(harm=  0.4776)  dis= 0.00250  next Energy=  -125.915391 (dE=-0.931E-04)
 bond charge predicted
       N       E                     dE             d eps       ncg     rms          rms(c)
DAV:   1    -0.124063810925E+03    0.24760E-03   -0.95985E-03  8352   0.384E-01    0.201E-02
DAV:   2    -0.124063807216E+03    0.37086E-05   -0.12615E-04 12672   0.448E-02    0.118E-02
DAV:   3    -0.124063805346E+03    0.18698E-05   -0.12045E-05 10704   0.129E-02    0.363E-03
DAV:   4    -0.124063805506E+03   -0.16009E-06   -0.23053E-06 10128   0.697E-03
  79 F= -.12591539E+03 E0= -.12591337E+03  d E =-.947068E-04  mag=     0.0000
 curvature:  -0.96 expect dE=-0.255E-03 dE for cont linesearch -0.320E-07
 trial: gam= 0.66598 g(F)=  0.266E-03 g(S)=  0.000E+00 ort = 0.723E-05 (trialstep = 0.250E+00)
 search vector abs. value=  0.969E-03
 bond charge predicted
       N       E                     dE             d eps       ncg     rms          rms(c)
DAV:   1    -0.124063676303E+03    0.12904E-03   -0.44080E-03  8592   0.259E-01    0.123E-02
DAV:   2    -0.124063675740E+03    0.56274E-06   -0.46406E-05 11712   0.278E-02    0.747E-03
DAV:   3    -0.124063675229E+03    0.51125E-06   -0.45928E-06  9888   0.798E-03
  80 F= -.12591545E+03 E0= -.12591344E+03  d E =-.604062E-04  mag=    -0.0000
 ZBRENT: can't locate minimum, use default step
 trial-energy change:   -0.000060  1 .order   -0.000060   -0.000068   -0.000053
 step:   1.0000(harm=  1.1134)  dis= 0.00499  next Energy=  -125.915543 (dE=-0.151E-03)
 bond charge predicted
       N       E                     dE             d eps       ncg     rms          rms(c)
DAV:   1    -0.124063207542E+03    0.46820E-03   -0.39676E-02  8256   0.778E-01    0.369E-02
DAV:   2    -0.124063201991E+03    0.55513E-05   -0.40517E-04 11856   0.816E-02    0.221E-02
DAV:   3    -0.124063196561E+03    0.54295E-05   -0.40870E-05 11472   0.226E-02    0.578E-03
DAV:   4    -0.124063196866E+03   -0.30462E-06   -0.56692E-06 11280   0.964E-03
  81 F= -.12591555E+03 E0= -.12591355E+03  d E =-.154450E-03  mag=    -0.0000
 curvature:  -1.95 expect dE=-0.644E-03 dE for cont linesearch -0.310E-05
 trial: gam= 1.13226 g(F)=  0.330E-03 g(S)=  0.000E+00 ort = 0.392E-04 (trialstep = 0.233E+00)
 search vector abs. value=  0.166E-02
 bond charge predicted
       N       E                     dE             d eps       ncg     rms          rms(c)
DAV:   1    -0.124063059421E+03    0.13714E-03   -0.63762E-03  8256   0.313E-01    0.145E-02
DAV:   2    -0.124063059820E+03   -0.39906E-06   -0.66936E-05 10608   0.342E-02    0.894E-03
DAV:   3    -0.124063059254E+03    0.56596E-06   -0.67342E-06  9888   0.106E-02
  82 F= -.12591562E+03 E0= -.12591365E+03  d E =-.781802E-04  mag=     0.0000
 ZBRENT: can't locate minimum, use default step
 trial-energy change:   -0.000078  1 .order   -0.000078   -0.000087   -0.000068
 step:   0.9336(harm=  1.0779)  dis= 0.00630  next Energy=  -125.915748 (dE=-0.202E-03)
 bond charge predicted
       N       E                     dE             d eps       ncg     rms          rms(c)
DAV:   1    -0.124062545836E+03    0.51398E-03   -0.57306E-02  8256   0.939E-01    0.433E-02
DAV:   2    -0.124062547042E+03   -0.12056E-05   -0.57389E-04 13056   0.991E-02    0.265E-02
DAV:   3    -0.124062539719E+03    0.73230E-05   -0.54276E-05 11136   0.271E-02    0.685E-03
DAV:   4    -0.124062540134E+03   -0.41522E-06   -0.88993E-06 11088   0.131E-02
  83 F= -.12591575E+03 E0= -.12591385E+03  d E =-.206904E-03  mag=    -0.0000
 curvature:  -2.32 expect dE=-0.732E-03 dE for cont linesearch -0.676E-05
 ZBRENT: extrapolating
 opt :   1.1513  next Energy=  -125.915761 (dE=-0.214E-03)
 bond charge predicted
       N       E                     dE             d eps       ncg     rms          rms(c)
DAV:   1    -0.124062345923E+03    0.19380E-03   -0.55536E-03  9024   0.292E-01    0.139E-02
DAV:   2    -0.124062346187E+03   -0.26440E-06   -0.56422E-05 12144   0.314E-02    0.854E-03
DAV:   3    -0.124062345757E+03    0.43055E-06   -0.56832E-06 10656   0.980E-03
  84 F= -.12591576E+03 E0= -.12591388E+03  d E =-.214092E-03  mag=    -0.0000
 curvature:  -2.60 expect dE=-0.131E-02 dE for cont linesearch -0.537E-07
 trial: gam= 1.81820 g(F)=  0.506E-03 g(S)=  0.000E+00 ort =-0.586E-05 (trialstep = 0.116E+00)
 search vector abs. value=  0.598E-02
 bond charge predicted
       N       E                     dE             d eps       ncg     rms          rms(c)
DAV:   1    -0.124062193928E+03    0.15226E-03   -0.54309E-03  8736   0.290E-01    0.135E-02
DAV:   2    -0.124062194700E+03   -0.77140E-06   -0.55959E-05 11808   0.314E-02    0.843E-03
DAV:   3    -0.124062194266E+03    0.43340E-06   -0.50778E-06 10224   0.960E-03
  85 F= -.12591581E+03 E0= -.12591395E+03  d E =-.516460E-04  mag=     0.0000
 ZBRENT: can't locate minimum, use default step
 trial-energy change:   -0.000052  1 .order   -0.000051   -0.000057   -0.000044
 step:   0.4636(harm=  0.5064)  dis= 0.00595  next Energy=  -125.915886 (dE=-0.125E-03)
 bond charge predicted
       N       E                     dE             d eps       ncg     rms          rms(c)
DAV:   1    -0.124061659153E+03    0.53555E-03   -0.48730E-02  8256   0.868E-01    0.396E-02
DAV:   2    -0.124061664630E+03   -0.54767E-05   -0.49503E-04 12624   0.920E-02    0.246E-02
DAV:   3    -0.124061658551E+03    0.60791E-05   -0.41504E-05 11616   0.241E-02    0.656E-03
DAV:   4    -0.124061658899E+03   -0.34773E-06   -0.72799E-06 11952   0.121E-02
  86 F= -.12591589E+03 E0= -.12591408E+03  d E =-.126060E-03  mag=    -0.0000
 curvature:  -3.02 expect dE=-0.653E-03 dE for cont linesearch -0.819E-06
 trial: gam= 0.20534 g(F)=  0.216E-03 g(S)=  0.000E+00 ort = 0.402E-04 (trialstep = 0.185E+00)
 search vector abs. value=  0.485E-03
 bond charge predicted
       N       E                     dE             d eps       ncg     rms          rms(c)
DAV:   1    -0.124061615268E+03    0.43283E-04   -0.11557E-03  9120   0.134E-01    0.808E-03
DAV:   2    -0.124061614294E+03    0.97397E-06   -0.17780E-05 13008   0.168E-02    0.452E-03
DAV:   3    -0.124061614034E+03    0.26030E-06   -0.18566E-06  8880   0.559E-03
  87 F= -.12591592E+03 E0= -.12591411E+03  d E =-.366037E-04  mag=    -0.0000
 ZBRENT: can't locate minimum, use default step
 trial-energy change:   -0.000037  1 .order   -0.000037   -0.000042   -0.000032
 step:   0.7418(harm=  0.8319)  dis= 0.00214  next Energy=  -125.915980 (dE=-0.934E-04)
 bond charge predicted
       N       E                     dE             d eps       ncg     rms          rms(c)
DAV:   1    -0.124061437473E+03    0.17682E-03   -0.10351E-02  8832   0.402E-01    0.234E-02
DAV:   2    -0.124061428186E+03    0.92869E-05   -0.14919E-04 11952   0.475E-02    0.127E-02
DAV:   3    -0.124061425682E+03    0.25041E-05   -0.14533E-05 11328   0.135E-02    0.419E-03
DAV:   4    -0.124061425773E+03   -0.91439E-07   -0.25499E-06 10704   0.705E-03
  88 F= -.12591598E+03 E0= -.12591416E+03  d E =-.927192E-04  mag=    -0.0000
 curvature:  -0.88 expect dE=-0.102E-03 dE for cont linesearch -0.143E-05
 ZBRENT: extrapolating
 opt :   0.8486  next Energy=  -125.915981 (dE=-0.942E-04)
 bond charge predicted
       N       E                     dE             d eps       ncg     rms          rms(c)
DAV:   1    -0.124061380705E+03    0.44977E-04   -0.38114E-04  9072   0.773E-02    0.466E-03
DAV:   2    -0.124061380422E+03    0.28337E-06   -0.59365E-06 12528   0.991E-03
  89 F= -.12591598E+03 E0= -.12591416E+03  d E =-.942678E-04  mag=    -0.0000
 curvature:  -0.92 expect dE=-0.136E-03 dE for cont linesearch -0.252E-07
 trial: gam= 0.72305 g(F)=  0.148E-03 g(S)=  0.000E+00 ort = 0.364E-05 (trialstep = 0.318E+00)
 search vector abs. value=  0.406E-03
 bond charge predicted
       N       E                     dE             d eps       ncg     rms          rms(c)
DAV:   1    -0.124061300976E+03    0.79729E-04   -0.32263E-03  8640   0.228E-01    0.115E-02
DAV:   2    -0.124061300267E+03    0.70845E-06   -0.37717E-05 10944   0.255E-02    0.679E-03
DAV:   3    -0.124061300003E+03    0.26392E-06   -0.39552E-06  9648   0.815E-03
  90 F= -.12591602E+03 E0= -.12591420E+03  d E =-.381477E-04  mag=    -0.0000
 trial-energy change:   -0.000038  1 .order   -0.000038   -0.000048   -0.000028
 step:   0.7726(harm=  0.7726)  dis= 0.00169  next Energy=  -125.916039 (dE=-0.580E-04)
 bond charge predicted
       N       E                     dE             d eps       ncg     rms          rms(c)
DAV:   1    -0.124061154359E+03    0.14591E-03   -0.66299E-03  8448   0.327E-01    0.162E-02
DAV:   2    -0.124061153274E+03    0.10847E-05   -0.76793E-05 10992   0.365E-02    0.960E-03
DAV:   3    -0.124061152686E+03    0.58873E-06   -0.78506E-06 10272   0.113E-02
  91 F= -.12591604E+03 E0= -.12591422E+03  d E =-.602660E-04  mag=    -0.0000
 curvature:  -1.05 expect dE=-0.114E-03 dE for cont linesearch -0.309E-07
 trial: gam= 0.69445 g(F)=  0.109E-03 g(S)=  0.000E+00 ort = 0.347E-05 (trialstep = 0.409E+00)
 search vector abs. value=  0.310E-03
 bond charge predicted
       N       E                     dE             d eps       ncg     rms          rms(c)
DAV:   1    -0.124061067514E+03    0.85760E-04   -0.41037E-03  8448   0.257E-01    0.128E-02
DAV:   2    -0.124061066636E+03    0.87840E-06   -0.48109E-05 10320   0.290E-02    0.760E-03
DAV:   3    -0.124061066438E+03    0.19816E-06   -0.53677E-06  9648   0.973E-03
  92 F= -.12591608E+03 E0= -.12591427E+03  d E =-.352295E-04  mag=     0.0000
 trial-energy change:   -0.000035  1 .order   -0.000034   -0.000046   -0.000023
 step:   0.8181(harm=  0.8181)  dis= 0.00156  next Energy=  -125.916087 (dE=-0.456E-04)
 bond charge predicted
       N       E                     dE             d eps       ncg     rms          rms(c)
DAV:   1    -0.124060959181E+03    0.10745E-03   -0.41170E-03  8352   0.258E-01    0.129E-02
DAV:   2    -0.124060958283E+03    0.89807E-06   -0.48543E-05 10704   0.296E-02    0.763E-03
DAV:   3    -0.124060958226E+03    0.57638E-07   -0.58074E-06  9504   0.106E-02
  93 F= -.12591609E+03 E0= -.12591429E+03  d E =-.486464E-04  mag=    -0.0000
 curvature:  -1.14 expect dE=-0.756E-04 dE for cont linesearch -0.444E-08
 trial: gam= 0.64032 g(F)=  0.665E-04 g(S)=  0.000E+00 ort = 0.110E-05 (trialstep = 0.491E+00)
 search vector abs. value=  0.195E-03
 bond charge predicted
       N       E                     dE             d eps       ncg     rms          rms(c)
DAV:   1    -0.124060865130E+03    0.93153E-04   -0.34166E-03  8352   0.237E-01    0.126E-02
DAV:   2    -0.124060863063E+03    0.20671E-05   -0.48060E-05  9984   0.286E-02    0.716E-03
DAV:   3    -0.124060862937E+03    0.12535E-06   -0.50201E-06  8448   0.998E-03
  94 F= -.12591611E+03 E0= -.12591431E+03  d E =-.224819E-04  mag=     0.0000
 trial-energy change:   -0.000022  1 .order   -0.000022   -0.000033   -0.000011
 step:   0.7345(harm=  0.7345)  dis= 0.00117  next Energy=  -125.916115 (dE=-0.247E-04)
 bond charge predicted
       N       E                     dE             d eps       ncg     rms          rms(c)
DAV:   1    -0.124060808399E+03    0.54663E-04   -0.84530E-04  8928   0.118E-01    0.665E-03
DAV:   2    -0.124060807423E+03    0.97657E-06   -0.13423E-05  8688   0.166E-02    0.379E-03
DAV:   3    -0.124060807802E+03   -0.37912E-06   -0.29514E-06  8544   0.849E-03
  95 F= -.12591612E+03 E0= -.12591431E+03  d E =-.258287E-04  mag=    -0.0000
 curvature:  -1.07 expect dE=-0.522E-04 dE for cont linesearch -0.108E-08
 trial: gam= 0.75572 g(F)=  0.490E-04 g(S)=  0.000E+00 ort = 0.444E-06 (trialstep = 0.540E+00)
 search vector abs. value=  0.161E-03
 bond charge predicted
       N       E                     dE             d eps       ncg     rms          rms(c)
DAV:   1    -0.124060699362E+03    0.10806E-03   -0.32918E-03  8256   0.236E-01    0.104E-02
DAV:   2    -0.124060699780E+03   -0.41819E-06   -0.36722E-05  9072   0.261E-02    0.672E-03
DAV:   3    -0.124060699875E+03   -0.95002E-07   -0.39107E-06  9072   0.952E-03
  96 F= -.12591614E+03 E0= -.12591432E+03  d E =-.203176E-04  mag=     0.0000
 trial-energy change:   -0.000020  1 .order   -0.000020   -0.000027   -0.000014
 step:   1.1368(harm=  1.1368)  dis= 0.00178  next Energy=  -125.916144 (dE=-0.281E-04)
 bond charge predicted
       N       E                     dE             d eps       ncg     rms          rms(c)
DAV:   1    -0.124060565781E+03    0.13400E-03   -0.40369E-03  8256   0.261E-01    0.115E-02
DAV:   2    -0.124060566263E+03   -0.48177E-06   -0.44807E-05  8544   0.292E-02    0.745E-03
DAV:   3    -0.124060566625E+03   -0.36185E-06   -0.53484E-06 10608   0.114E-02
  97 F= -.12591614E+03 E0= -.12591432E+03  d E =-.290561E-04  mag=    -0.0000
 curvature:  -1.85 expect dE=-0.203E-03 dE for cont linesearch -0.563E-08
 trial: gam= 2.20507 g(F)=  0.109E-03 g(S)=  0.000E+00 ort = 0.699E-06 (trialstep = 0.119E+00)
 search vector abs. value=  0.895E-03
 bond charge predicted
       N       E                     dE             d eps       ncg     rms          rms(c)
DAV:   1    -0.124060511876E+03    0.54387E-04   -0.88536E-04  8256   0.123E-01    0.559E-03
DAV:   2    -0.124060511435E+03    0.44133E-06   -0.12539E-05  8448   0.173E-02    0.368E-03
DAV:   3    -0.124060512255E+03   -0.81998E-06   -0.36495E-06  8640   0.987E-03
  98 F= -.12591616E+03 E0= -.12591433E+03  d E =-.125388E-04  mag=     0.0000
 ZBRENT: can't locate minimum, use default step
 trial-energy change:   -0.000013  1 .order   -0.000012   -0.000013   -0.000011
 step:   0.4740(harm=  0.7254)  dis= 0.00177  next Energy=  -125.916185 (dE=-0.402E-04)
 bond charge predicted
       N       E                     dE             d eps       ncg     rms          rms(c)
DAV:   1    -0.124060332653E+03    0.17878E-03   -0.79156E-03  8256   0.365E-01    0.158E-02
DAV:   2    -0.124060334278E+03   -0.16256E-05   -0.87359E-05  9456   0.396E-02    0.102E-02
DAV:   3    -0.124060333982E+03    0.29647E-06   -0.76179E-06 10032   0.126E-02
  99 F= -.12591618E+03 E0= -.12591433E+03  d E =-.350502E-04  mag=    -0.0000
 curvature:  -2.43 expect dE=-0.140E-03 dE for cont linesearch -0.302E-05
 ZBRENT: increasing intervall
 opt :   1.1851  next Energy=  -125.916161 (dE=-0.165E-04)
 bond charge predicted
       N       E                     dE             d eps       ncg     rms          rms(c)
DAV:   1    -0.124059913193E+03    0.42109E-03   -0.31696E-02  8256   0.730E-01    0.318E-02
DAV:   2    -0.124059920313E+03   -0.71206E-05   -0.34329E-04 10128   0.774E-02    0.206E-02
DAV:   3    -0.124059917884E+03    0.24290E-05   -0.27050E-05 12432   0.221E-02    0.635E-03
DAV:   4    -0.124059918992E+03   -0.11073E-05   -0.94402E-06  9024   0.158E-02    0.219E-03
DAV:   5    -0.124059917569E+03    0.14228E-05   -0.60397E-06  9120   0.121E-02    0.107E-03
DAV:   6    -0.124059916745E+03    0.82418E-06   -0.13580E-06 12048   0.567E-03
 100 F= -.12591616E+03 E0= -.12591429E+03  d E =-.195377E-04  mag=     0.0000
 curvature:  14.89 expect dE= 0.565E-02 dE for cont linesearch  0.102E-03
 ZBRENT: bracketing found
 ZBRENT: interpolating
 opt :   0.6865  next Energy=  -125.916183 (dE=-0.386E-04)
 bond charge predicted
       N       E                     dE             d eps       ncg     rms          rms(c)
DAV:   1    -0.124060215682E+03   -0.29811E-03   -0.15570E-02  8256   0.512E-01    0.220E-02
DAV:   2    -0.124060219537E+03   -0.38542E-05   -0.16901E-04 12576   0.528E-02    0.142E-02
DAV:   3    -0.124060218061E+03    0.14755E-05   -0.10576E-05 12576   0.117E-02    0.429E-03
DAV:   4    -0.124060218205E+03   -0.14396E-06   -0.12874E-06 10992   0.420E-03
 101 F= -.12591618E+03 E0= -.12591433E+03  d E =-.392965E-04  mag=     0.0000
 curvature:  -0.52 expect dE=-0.534E-04 dE for cont linesearch -0.393E-08
 trial: gam= 0.98940 g(F)=  0.103E-03 g(S)=  0.000E+00 ort = 0.261E-05 (trialstep = 0.211E+00)
 search vector abs. value=  0.985E-03
 bond charge predicted
       N       E                     dE             d eps       ncg     rms          rms(c)
DAV:   1    -0.124060114178E+03    0.10388E-03   -0.30493E-03  8448   0.226E-01    0.937E-03
DAV:   2    -0.124060114850E+03   -0.67153E-06   -0.31457E-05  8928   0.228E-02    0.619E-03
DAV:   3    -0.124060114702E+03    0.14761E-06   -0.23313E-06 11568   0.568E-03
 102 F= -.12591621E+03 E0= -.12591435E+03  d E =-.211048E-04  mag=    -0.0000
 ZBRENT: can't locate minimum, use default step
 trial-energy change:   -0.000021  1 .order   -0.000021   -0.000022   -0.000019
 step:   0.8441(harm=  1.6333)  dis= 0.00320  next Energy=  -125.916271 (dE=-0.864E-04)
 bond charge predicted
       N       E                     dE             d eps       ncg     rms          rms(c)
DAV:   1    -0.124059784641E+03    0.33021E-03   -0.27536E-02  8256   0.680E-01    0.287E-02
DAV:   2    -0.124059791924E+03   -0.72834E-05   -0.27910E-04  9216   0.680E-02    0.189E-02
DAV:   3    -0.124059789547E+03    0.23775E-05   -0.20029E-05 12624   0.163E-02    0.548E-03
DAV:   4    -0.124059789789E+03   -0.24237E-06   -0.22084E-06  8448   0.574E-03
 103 F= -.12591625E+03 E0= -.12591439E+03  d E =-.701554E-04  mag=    -0.0000
 curvature:  -5.26 expect dE=-0.325E-03 dE for cont linesearch -0.192E-04
 ZBRENT: increasing intervall
 opt :   2.1102  next Energy=  -125.916289 (dE=-0.105E-03)
 bond charge predicted
       N       E                     dE             d eps       ncg     rms          rms(c)
DAV:   1    -0.124059057114E+03    0.73243E-03   -0.11017E-01  8256   0.136E+00    0.569E-02
DAV:   2    -0.124059085966E+03   -0.28852E-04   -0.11050E-03  8304   0.136E-01    0.373E-02
DAV:   3    -0.124059075758E+03    0.10208E-04   -0.82610E-05 13200   0.335E-02    0.110E-02
DAV:   4    -0.124059076010E+03   -0.25165E-06   -0.86157E-06 13632   0.113E-02
 104 F= -.12591629E+03 E0= -.12591440E+03  d E =-.105050E-03  mag=    -0.0000
 curvature:  -9.61 expect dE=-0.164E-02 dE for cont linesearch -0.357E-06
 trial: gam= 1.70327 g(F)=  0.170E-03 g(S)=  0.000E+00 ort =-0.605E-05 (trialstep = 0.194E+00)
 search vector abs. value=  0.301E-02
 bond charge predicted
       N       E                     dE             d eps       ncg     rms          rms(c)
DAV:   1    -0.124058899095E+03    0.17666E-03   -0.80233E-03  8448   0.368E-01    0.154E-02
DAV:   2    -0.124058901884E+03   -0.27893E-05   -0.89374E-05  9168   0.388E-02    0.102E-02
DAV:   3    -0.124058901253E+03    0.63066E-06   -0.60039E-06 11376   0.104E-02
 105 F= -.12591632E+03 E0= -.12591442E+03  d E =-.267102E-04  mag=     0.0000
 trial-energy change:   -0.000027  1 .order   -0.000026   -0.000031   -0.000021
 step:   0.6183(harm=  0.6183)  dis= 0.00365  next Energy=  -125.916339 (dE=-0.494E-04)
 bond charge predicted
       N       E                     dE             d eps       ncg     rms          rms(c)
DAV:   1    -0.124058478406E+03    0.42348E-03   -0.38538E-02  8256   0.807E-01    0.343E-02
DAV:   2    -0.124058489514E+03   -0.11108E-04   -0.41800E-04 10656   0.835E-02    0.227E-02
DAV:   3    -0.124058486064E+03    0.34507E-05   -0.25814E-05 10800   0.203E-02    0.731E-03
DAV:   4    -0.124058486357E+03   -0.29334E-06   -0.60839E-06 12288   0.118E-02
 106 F= -.12591634E+03 E0= -.12591442E+03  d E =-.540804E-04  mag=     0.0000
 curvature:  -5.82 expect dE=-0.627E-03 dE for cont linesearch -0.160E-06
 trial: gam= 0.49336 g(F)=  0.108E-03 g(S)=  0.000E+00 ort = 0.910E-05 (trialstep = 0.278E+00)
 search vector abs. value=  0.849E-03
 bond charge predicted
       N       E                     dE             d eps       ncg     rms          rms(c)
DAV:   1    -0.124058360794E+03    0.12527E-03   -0.47696E-03  8352   0.286E-01    0.120E-02
DAV:   2    -0.124058362328E+03   -0.15332E-05   -0.52605E-05 11184   0.310E-02    0.805E-03
DAV:   3    -0.124058362312E+03    0.15672E-07   -0.49794E-06 10656   0.107E-02
 107 F= -.12591637E+03 E0= -.12591444E+03  d E =-.269709E-04  mag=    -0.0000
 trial-energy change:   -0.000027  1 .order   -0.000027   -0.000031   -0.000022
 step:   0.9190(harm=  0.9190)  dis= 0.00209  next Energy=  -125.916395 (dE=-0.516E-04)
 bond charge predicted
       N       E                     dE             d eps       ncg     rms          rms(c)
DAV:   1    -0.124058036584E+03    0.32574E-03   -0.25186E-02  8256   0.657E-01    0.275E-02
DAV:   2    -0.124058043839E+03   -0.72542E-05   -0.26708E-04 10896   0.679E-02    0.184E-02
DAV:   3    -0.124058042247E+03    0.15914E-05   -0.20359E-05 10704   0.198E-02    0.558E-03
DAV:   4    -0.124058043324E+03   -0.10767E-05   -0.94255E-06  9120   0.158E-02    0.203E-03
DAV:   5    -0.124058041406E+03    0.19175E-05   -0.52138E-06  9024   0.112E-02    0.964E-04
DAV:   6    -0.124058041146E+03    0.26065E-06   -0.86227E-07 12912   0.453E-03
 108 F= -.12591640E+03 E0= -.12591443E+03  d E =-.532559E-04  mag=     0.0000
 curvature:  -3.47 expect dE=-0.337E-03 dE for cont linesearch -0.443E-07
 trial: gam= 0.98695 g(F)=  0.971E-04 g(S)=  0.000E+00 ort = 0.329E-05 (trialstep = 0.371E+00)
 search vector abs. value=  0.930E-03
 bond charge predicted
       N       E                     dE             d eps       ncg     rms          rms(c)
DAV:   1    -0.124057864310E+03    0.17710E-03   -0.94372E-03  8256   0.402E-01    0.168E-02
