Lattice                                 
           1
     4.196759    2.423000    0.000000
    -4.196759    2.423000    0.000000
     0.000000    0.000000   15.000000
   B    C 
     4    11
Direct configuration=     1
   0.00415361  0.00267210  0.12034134
   0.35695335  0.00285503  0.09748893
   0.00423858  0.35550699  0.09749256
   0.65142295  0.65006557  0.09747688
   0.32808646  0.32671938  0.10030508
   0.68027775  0.00278085  0.10027562
   0.00416530  0.67883808  0.10026559
   0.16666600  0.33333300  0.33720000
   0.33333300  0.16666600  0.33720000
   0.16666600  0.83333300  0.33720000
   0.33333300  0.66666600  0.33720000
   0.66666600  0.33333300  0.33720000
   0.83333300  0.16666600  0.33720000
   0.66666600  0.83333300  0.33720000
   0.83333300  0.66666600  0.33720000
Direct configuration=     2
   0.00418470  0.00275043  0.11897678
   0.35589059  0.00280326  0.09784975
   0.00419522  0.35445721  0.09785262
   0.65245696  0.65106816  0.09784530
   0.32471422  0.32331138  0.10032135
   0.68367023  0.00280185  0.10030244
   0.00420265  0.68225699  0.10029610
   0.16659296  0.33342339  0.33726127
   0.33342383  0.16659569  0.33726232
   0.16682161  0.83339292  0.33726403
   0.33333491  0.66667220  0.33711386
   0.66667134  0.33333137  0.33711385
   0.83339026  0.16681922  0.33726391
   0.66657359  0.83317559  0.33726167
   0.83317092  0.66657434  0.33726074
Direct configuration=     3
   0.00416991  0.00271317  0.11962586
   0.35639611  0.00282788  0.09767812
   0.00421585  0.35495656  0.09768135
   0.65196512  0.65059126  0.09767005
   0.32631829  0.32493246  0.10031361
   0.68205653  0.00279186  0.10028968
   0.00418489  0.68063072  0.10028159
   0.16662770  0.33338040  0.33723213
   0.33338063  0.16662913  0.33723267
   0.16674759  0.83336442  0.33723357
   0.33333400  0.66666925  0.33715484
   0.66666880  0.33333215  0.33715483
   0.83336302  0.16674634  0.33723351
   0.66661755  0.83325046  0.33723234
   0.83324802  0.66661794  0.33723185
