  15  15   0   4
  0.1987017E+02  0.4790000E-09  0.4790000E-09  0.1500000E-08  0.5000000E-15
  1.000000000000000E-004
  CAR 
 Lattice                                 
     10.57552132    -21.90161000  301     -0.22275515      1.00000000
    -21.902  0.0000E+00  0.0000E+00  0.0000E+00  0.0000E+00
    -21.793  0.0000E+00  0.0000E+00  0.0000E+00  0.0000E+00
    -21.685  0.0000E+00  0.0000E+00  0.0000E+00  0.0000E+00
    -21.577  0.0000E+00  0.0000E+00  0.0000E+00  0.0000E+00
    -21.469  0.0000E+00  0.0000E+00  0.0000E+00  0.0000E+00
    -21.360  0.0000E+00  0.0000E+00  0.0000E+00  0.0000E+00
    -21.252  0.0000E+00  0.0000E+00  0.0000E+00  0.0000E+00
    -21.144  0.0000E+00  0.0000E+00  0.0000E+00  0.0000E+00
    -21.036  0.0000E+00  0.0000E+00  0.0000E+00  0.0000E+00
    -20.927  0.3357E-15  0.3357E-15  0.3634E-16  0.3634E-16
    -20.819  0.7460E-11  0.7460E-11  0.8076E-12  0.8076E-12
    -20.711  0.1867E-07  0.1867E-07  0.2022E-08  0.2022E-08
    -20.603  0.5824E-05  0.5824E-05  0.6325E-06  0.6325E-06
    -20.494  0.2551E-03  0.2551E-03  0.2824E-04  0.2824E-04
    -20.386  0.1928E-02  0.1928E-02  0.2369E-03  0.2369E-03
    -20.278  0.4082E-02  0.4082E-02  0.6788E-03  0.6788E-03
    -20.169  0.4414E-02  0.4414E-02  0.1157E-02  0.1157E-02
    -20.061  0.4863E-02  0.4863E-02  0.1683E-02  0.1683E-02
    -19.953  0.4034E-02  0.4034E-02  0.2120E-02  0.2120E-02
    -19.845  0.5283E-02  0.5283E-02  0.2692E-02  0.2692E-02
    -19.736  0.4183E-02  0.4183E-02  0.3145E-02  0.3145E-02
    -19.628  0.4050E-02  0.4050E-02  0.3583E-02  0.3583E-02
    -19.520  0.5938E-02  0.5938E-02  0.4226E-02  0.4226E-02
    -19.412  0.3854E-02  0.3854E-02  0.4643E-02  0.4643E-02
    -19.303  0.3617E-02  0.3617E-02  0.5035E-02  0.5035E-02
    -19.195  0.5972E-02  0.5972E-02  0.5681E-02  0.5681E-02
    -19.087  0.5245E-02  0.5245E-02  0.6249E-02  0.6249E-02
    -18.979  0.3023E-02  0.3023E-02  0.6576E-02  0.6576E-02
    -18.870  0.3892E-02  0.3892E-02  0.6998E-02  0.6998E-02
    -18.762  0.6858E-02  0.6858E-02  0.7740E-02  0.7740E-02
    -18.654  0.4675E-02  0.4675E-02  0.8246E-02  0.8246E-02
    -18.546  0.3800E-02  0.3800E-02  0.8658E-02  0.8658E-02
    -18.437  0.2775E-02  0.2775E-02  0.8958E-02  0.8958E-02
    -18.329  0.6034E-02  0.6034E-02  0.9611E-02  0.9611E-02
    -18.221  0.6838E-02  0.6838E-02  0.1035E-01  0.1035E-01
    -18.113  0.3810E-02  0.3810E-02  0.1076E-01  0.1076E-01
    -18.004  0.2992E-02  0.2992E-02  0.1109E-01  0.1109E-01
    -17.896  0.3939E-02  0.3939E-02  0.1151E-01  0.1151E-01
    -17.788  0.5618E-02  0.5618E-02  0.1212E-01  0.1212E-01
    -17.680  0.6883E-02  0.6883E-02  0.1287E-01  0.1287E-01
    -17.571  0.5012E-02  0.5012E-02  0.1341E-01  0.1341E-01
    -17.463  0.4028E-02  0.4028E-02  0.1385E-01  0.1385E-01
    -17.355  0.7240E-02  0.7240E-02  0.1463E-01  0.1463E-01
    -17.247  0.1317E-01  0.1317E-01  0.1606E-01  0.1606E-01
    -17.138  0.1455E-01  0.1455E-01  0.1763E-01  0.1763E-01
    -17.030  0.1459E-01  0.1459E-01  0.1921E-01  0.1921E-01
    -16.922  0.1655E-01  0.1655E-01  0.2100E-01  0.2100E-01
    -16.814  0.2034E-01  0.2034E-01  0.2320E-01  0.2320E-01
    -16.705  0.1294E-01  0.1294E-01  0.2460E-01  0.2460E-01
    -16.597  0.7408E-02  0.7408E-02  0.2541E-01  0.2541E-01
    -16.489  0.8959E-02  0.8959E-02  0.2638E-01  0.2638E-01
    -16.380  0.4916E-02  0.4916E-02  0.2691E-01  0.2691E-01
    -16.272  0.4199E-02  0.4199E-02  0.2736E-01  0.2736E-01
    -16.164  0.3626E-02  0.3626E-02  0.2775E-01  0.2775E-01
    -16.056  0.4052E-02  0.4052E-02  0.2819E-01  0.2819E-01
    -15.947  0.3042E-02  0.3042E-02  0.2852E-01  0.2852E-01
    -15.839  0.6374E-02  0.6374E-02  0.2921E-01  0.2921E-01
    -15.731  0.8822E-02  0.8822E-02  0.3017E-01  0.3017E-01
    -15.623  0.4855E-02  0.4855E-02  0.3069E-01  0.3069E-01
    -15.514  0.3649E-02  0.3649E-02  0.3109E-01  0.3109E-01
    -15.406  0.3229E-02  0.3229E-02  0.3144E-01  0.3144E-01
    -15.298  0.3808E-02  0.3808E-02  0.3185E-01  0.3185E-01
    -15.190  0.5409E-02  0.5409E-02  0.3244E-01  0.3244E-01
    -15.081  0.7043E-02  0.7043E-02  0.3320E-01  0.3320E-01
    -14.973  0.1021E-01  0.1021E-01  0.3430E-01  0.3430E-01
    -14.865  0.1519E-01  0.1519E-01  0.3595E-01  0.3595E-01
    -14.757  0.1682E-01  0.1682E-01  0.3777E-01  0.3777E-01
    -14.648  0.1661E-01  0.1661E-01  0.3957E-01  0.3957E-01
    -14.540  0.1020E-01  0.1020E-01  0.4067E-01  0.4067E-01
    -14.432  0.8608E-02  0.8608E-02  0.4160E-01  0.4160E-01
    -14.324  0.1646E-01  0.1646E-01  0.4338E-01  0.4338E-01
    -14.215  0.1294E-01  0.1294E-01  0.4479E-01  0.4479E-01
    -14.107  0.8956E-02  0.8956E-02  0.4575E-01  0.4575E-01
    -13.999  0.1118E-01  0.1118E-01  0.4697E-01  0.4697E-01
    -13.891  0.1242E-01  0.1242E-01  0.4831E-01  0.4831E-01
    -13.782  0.1991E-01  0.1991E-01  0.5047E-01  0.5047E-01
    -13.674  0.2186E-01  0.2186E-01  0.5283E-01  0.5283E-01
    -13.566  0.1770E-01  0.1770E-01  0.5475E-01  0.5475E-01
    -13.458  0.1345E-01  0.1345E-01  0.5620E-01  0.5620E-01
    -13.349  0.5255E-02  0.5255E-02  0.5677E-01  0.5677E-01
    -13.241  0.3779E-02  0.3779E-02  0.5718E-01  0.5718E-01
    -13.133  0.5873E-02  0.5873E-02  0.5782E-01  0.5782E-01
    -13.025  0.7010E-02  0.7010E-02  0.5858E-01  0.5858E-01
    -12.916  0.5024E-02  0.5024E-02  0.5912E-01  0.5912E-01
    -12.808  0.5672E-02  0.5672E-02  0.5973E-01  0.5973E-01
    -12.700  0.6170E-02  0.6170E-02  0.6040E-01  0.6040E-01
    -12.591  0.6368E-02  0.6368E-02  0.6109E-01  0.6109E-01
    -12.483  0.5357E-02  0.5357E-02  0.6167E-01  0.6167E-01
    -12.375  0.4003E-02  0.4003E-02  0.6210E-01  0.6210E-01
    -12.267  0.4780E-02  0.4780E-02  0.6262E-01  0.6262E-01
    -12.158  0.7955E-02  0.7955E-02  0.6348E-01  0.6348E-01
    -12.050  0.4524E-02  0.4524E-02  0.6397E-01  0.6397E-01
    -11.942  0.3341E-02  0.3341E-02  0.6433E-01  0.6433E-01
    -11.834  0.3537E-02  0.3537E-02  0.6472E-01  0.6472E-01
    -11.725  0.4062E-02  0.4062E-02  0.6516E-01  0.6516E-01
    -11.617  0.6617E-02  0.6617E-02  0.6587E-01  0.6587E-01
    -11.509  0.5839E-02  0.5839E-02  0.6650E-01  0.6650E-01
    -11.401  0.2264E-02  0.2264E-02  0.6675E-01  0.6675E-01
    -11.292  0.3206E-02  0.3206E-02  0.6710E-01  0.6710E-01
    -11.184  0.5906E-02  0.5906E-02  0.6774E-01  0.6774E-01
    -11.076  0.7248E-02  0.7248E-02  0.6852E-01  0.6852E-01
    -10.968  0.6266E-02  0.6266E-02  0.6920E-01  0.6920E-01
    -10.859  0.5770E-02  0.5770E-02  0.6982E-01  0.6982E-01
    -10.751  0.3498E-02  0.3498E-02  0.7020E-01  0.7020E-01
    -10.643  0.4897E-02  0.4897E-02  0.7073E-01  0.7073E-01
    -10.535  0.8540E-02  0.8540E-02  0.7166E-01  0.7166E-01
    -10.426  0.1385E-01  0.1385E-01  0.7316E-01  0.7316E-01
    -10.318  0.1758E-01  0.1758E-01  0.7506E-01  0.7506E-01
    -10.210  0.1342E-01  0.1342E-01  0.7651E-01  0.7651E-01
    -10.102  0.1407E-01  0.1407E-01  0.7804E-01  0.7804E-01
     -9.993  0.2047E-01  0.2047E-01  0.8025E-01  0.8025E-01
     -9.885  0.1334E-01  0.1334E-01  0.8170E-01  0.8170E-01
     -9.777  0.5658E-02  0.5658E-02  0.8231E-01  0.8231E-01
     -9.669  0.8064E-02  0.8064E-02  0.8318E-01  0.8318E-01
     -9.560  0.1897E-01  0.1897E-01  0.8524E-01  0.8524E-01
     -9.452  0.1813E-01  0.1813E-01  0.8720E-01  0.8720E-01
     -9.344  0.1214E-01  0.1214E-01  0.8851E-01  0.8851E-01
     -9.236  0.1299E-01  0.1299E-01  0.8992E-01  0.8992E-01
     -9.127  0.1372E-01  0.1372E-01  0.9140E-01  0.9140E-01
     -9.019  0.7359E-02  0.7359E-02  0.9220E-01  0.9220E-01
     -8.911  0.1107E-01  0.1107E-01  0.9340E-01  0.9340E-01
     -8.803  0.1839E-01  0.1839E-01  0.9539E-01  0.9539E-01
     -8.694  0.2026E-01  0.2026E-01  0.9758E-01  0.9758E-01
     -8.586  0.1320E-01  0.1320E-01  0.9901E-01  0.9901E-01
     -8.478  0.7930E-02  0.7930E-02  0.9987E-01  0.9987E-01
     -8.369  0.1419E-01  0.1419E-01  0.1014E+00  0.1014E+00
     -8.261  0.2585E-01  0.2585E-01  0.1042E+00  0.1042E+00
     -8.153  0.1514E-01  0.1514E-01  0.1058E+00  0.1058E+00
     -8.045  0.1049E-01  0.1049E-01  0.1070E+00  0.1070E+00
     -7.936  0.1899E-01  0.1899E-01  0.1090E+00  0.1090E+00
     -7.828  0.2489E-01  0.2489E-01  0.1117E+00  0.1117E+00
     -7.720  0.2282E-01  0.2282E-01  0.1142E+00  0.1142E+00
     -7.612  0.1632E-01  0.1632E-01  0.1160E+00  0.1160E+00
     -7.503  0.1230E-01  0.1230E-01  0.1173E+00  0.1173E+00
     -7.395  0.1758E-01  0.1758E-01  0.1192E+00  0.1192E+00
     -7.287  0.1513E-01  0.1513E-01  0.1208E+00  0.1208E+00
     -7.179  0.1257E-01  0.1257E-01  0.1222E+00  0.1222E+00
     -7.070  0.1419E-01  0.1419E-01  0.1237E+00  0.1237E+00
     -6.962  0.1627E-01  0.1627E-01  0.1255E+00  0.1255E+00
     -6.854  0.1585E-01  0.1585E-01  0.1272E+00  0.1272E+00
     -6.746  0.1615E-01  0.1615E-01  0.1290E+00  0.1290E+00
     -6.637  0.2451E-01  0.2451E-01  0.1316E+00  0.1316E+00
     -6.529  0.1997E-01  0.1997E-01  0.1338E+00  0.1338E+00
     -6.421  0.1723E-01  0.1723E-01  0.1356E+00  0.1356E+00
     -6.313  0.1781E-01  0.1781E-01  0.1376E+00  0.1376E+00
     -6.204  0.1404E-01  0.1404E-01  0.1391E+00  0.1391E+00
     -6.096  0.2291E-01  0.2291E-01  0.1416E+00  0.1416E+00
     -5.988  0.2558E-01  0.2558E-01  0.1443E+00  0.1443E+00
     -5.880  0.2480E-01  0.2480E-01  0.1470E+00  0.1470E+00
     -5.771  0.2674E-01  0.2674E-01  0.1499E+00  0.1499E+00
     -5.663  0.2018E-01  0.2018E-01  0.1521E+00  0.1521E+00
     -5.555  0.1838E-01  0.1838E-01  0.1541E+00  0.1541E+00
     -5.447  0.2724E-01  0.2724E-01  0.1570E+00  0.1570E+00
     -5.338  0.2786E-01  0.2786E-01  0.1601E+00  0.1601E+00
     -5.230  0.3257E-01  0.3257E-01  0.1636E+00  0.1636E+00
     -5.122  0.2377E-01  0.2377E-01  0.1662E+00  0.1662E+00
     -5.014  0.1062E-01  0.1062E-01  0.1673E+00  0.1673E+00
     -4.905  0.7165E-02  0.7165E-02  0.1681E+00  0.1681E+00
     -4.797  0.1300E-01  0.1300E-01  0.1695E+00  0.1695E+00
     -4.689  0.1474E-01  0.1474E-01  0.1711E+00  0.1711E+00
     -4.580  0.1176E-01  0.1176E-01  0.1724E+00  0.1724E+00
     -4.472  0.7963E-02  0.7963E-02  0.1732E+00  0.1732E+00
     -4.364  0.8577E-02  0.8577E-02  0.1742E+00  0.1742E+00
     -4.256  0.1764E-01  0.1764E-01  0.1761E+00  0.1761E+00
     -4.147  0.1743E-01  0.1743E-01  0.1779E+00  0.1779E+00
     -4.039  0.1922E-01  0.1922E-01  0.1800E+00  0.1800E+00
     -3.931  0.2534E-01  0.2534E-01  0.1828E+00  0.1828E+00
     -3.823  0.2630E-01  0.2630E-01  0.1856E+00  0.1856E+00
     -3.714  0.2091E-01  0.2091E-01  0.1879E+00  0.1879E+00
     -3.606  0.1633E-01  0.1633E-01  0.1897E+00  0.1897E+00
     -3.498  0.1744E-01  0.1744E-01  0.1915E+00  0.1915E+00
     -3.390  0.1664E-01  0.1664E-01  0.1933E+00  0.1933E+00
     -3.281  0.1636E-01  0.1636E-01  0.1951E+00  0.1951E+00
     -3.173  0.1475E-01  0.1475E-01  0.1967E+00  0.1967E+00
     -3.065  0.1733E-01  0.1733E-01  0.1986E+00  0.1986E+00
     -2.957  0.1705E-01  0.1705E-01  0.2004E+00  0.2004E+00
     -2.848  0.1226E-01  0.1226E-01  0.2018E+00  0.2018E+00
     -2.740  0.1245E-01  0.1245E-01  0.2031E+00  0.2031E+00
     -2.632  0.7411E-02  0.7411E-02  0.2039E+00  0.2039E+00
     -2.524  0.1156E-01  0.1156E-01  0.2052E+00  0.2052E+00
     -2.415  0.2004E-01  0.2004E-01  0.2073E+00  0.2073E+00
     -2.307  0.1177E-01  0.1177E-01  0.2086E+00  0.2086E+00
     -2.199  0.3549E-02  0.3549E-02  0.2090E+00  0.2090E+00
     -2.091  0.5007E-02  0.5007E-02  0.2095E+00  0.2095E+00
     -1.982  0.1047E-01  0.1047E-01  0.2107E+00  0.2107E+00
     -1.874  0.1026E-01  0.1026E-01  0.2118E+00  0.2118E+00
     -1.766  0.1106E-01  0.1106E-01  0.2130E+00  0.2130E+00
     -1.658  0.1131E-01  0.1131E-01  0.2142E+00  0.2142E+00
     -1.549  0.8698E-02  0.8698E-02  0.2151E+00  0.2151E+00
     -1.441  0.6857E-02  0.6857E-02  0.2159E+00  0.2159E+00
     -1.333  0.4542E-02  0.4542E-02  0.2164E+00  0.2164E+00
     -1.225  0.3692E-02  0.3692E-02  0.2168E+00  0.2168E+00
     -1.116  0.3981E-02  0.3981E-02  0.2172E+00  0.2172E+00
     -1.008  0.3995E-02  0.3995E-02  0.2176E+00  0.2176E+00
     -0.900  0.5826E-02  0.5826E-02  0.2183E+00  0.2183E+00
     -0.791  0.2810E-02  0.2810E-02  0.2186E+00  0.2186E+00
     -0.683  0.5974E-03  0.5974E-03  0.2186E+00  0.2186E+00
     -0.575  0.6421E-04  0.6421E-04  0.2186E+00  0.2186E+00
     -0.467  0.1748E-05  0.1748E-05  0.2186E+00  0.2186E+00
     -0.358  0.5639E-04  0.5639E-04  0.2186E+00  0.2186E+00
     -0.250  0.6449E-03  0.6449E-03  0.2187E+00  0.2187E+00
     -0.142  0.1045E-02  0.1045E-02  0.2188E+00  0.2188E+00
     -0.034  0.2493E-03  0.2493E-03  0.2189E+00  0.2189E+00
      0.075  0.7949E-05  0.7949E-05  0.2189E+00  0.2189E+00
      0.183  0.9655E-07  0.9655E-07  0.2189E+00  0.2189E+00
      0.291  0.2009E-04  0.2009E-04  0.2189E+00  0.2189E+00
      0.399  0.6953E-03  0.6953E-03  0.2189E+00  0.2189E+00
      0.508  0.3116E-02  0.3116E-02  0.2193E+00  0.2193E+00
      0.616  0.2045E-02  0.2045E-02  0.2195E+00  0.2195E+00
      0.724  0.1007E-02  0.1007E-02  0.2196E+00  0.2196E+00
      0.832  0.3280E-02  0.3280E-02  0.2200E+00  0.2200E+00
      0.941  0.5194E-02  0.5193E-02  0.2205E+00  0.2205E+00
      1.049  0.8332E-02  0.8332E-02  0.2214E+00  0.2214E+00
      1.157  0.2386E-01  0.2386E-01  0.2240E+00  0.2240E+00
      1.265  0.2218E-01  0.2218E-01  0.2264E+00  0.2264E+00
      1.374  0.5576E-02  0.5576E-02  0.2270E+00  0.2270E+00
      1.482  0.3673E-02  0.3673E-02  0.2274E+00  0.2274E+00
      1.590  0.7541E-02  0.7541E-02  0.2282E+00  0.2282E+00
      1.698  0.1202E-01  0.1202E-01  0.2295E+00  0.2295E+00
      1.807  0.1853E-01  0.1853E-01  0.2315E+00  0.2315E+00
      1.915  0.1551E-01  0.1551E-01  0.2332E+00  0.2332E+00
      2.023  0.7313E-02  0.7313E-02  0.2340E+00  0.2340E+00
      2.131  0.7460E-02  0.7460E-02  0.2348E+00  0.2348E+00
      2.240  0.9896E-02  0.9896E-02  0.2359E+00  0.2359E+00
      2.348  0.7275E-02  0.7275E-02  0.2367E+00  0.2367E+00
      2.456  0.9343E-02  0.9343E-02  0.2377E+00  0.2377E+00
      2.564  0.7971E-02  0.7971E-02  0.2385E+00  0.2385E+00
      2.673  0.7036E-02  0.7036E-02  0.2393E+00  0.2393E+00
      2.781  0.1075E-01  0.1075E-01  0.2405E+00  0.2405E+00
      2.889  0.9573E-02  0.9573E-02  0.2415E+00  0.2415E+00
      2.998  0.7039E-02  0.7039E-02  0.2423E+00  0.2423E+00
      3.106  0.9178E-02  0.9178E-02  0.2433E+00  0.2433E+00
      3.214  0.1072E-01  0.1072E-01  0.2444E+00  0.2444E+00
      3.322  0.9666E-02  0.9666E-02  0.2455E+00  0.2455E+00
      3.431  0.1006E-01  0.1006E-01  0.2466E+00  0.2466E+00
      3.539  0.9068E-02  0.9067E-02  0.2475E+00  0.2475E+00
      3.647  0.9061E-02  0.9061E-02  0.2485E+00  0.2485E+00
      3.755  0.1510E-01  0.1510E-01  0.2502E+00  0.2502E+00
      3.864  0.2046E-01  0.2046E-01  0.2524E+00  0.2524E+00
      3.972  0.1631E-01  0.1631E-01  0.2541E+00  0.2541E+00
      4.080  0.1343E-01  0.1343E-01  0.2556E+00  0.2556E+00
      4.188  0.1777E-01  0.1777E-01  0.2575E+00  0.2575E+00
      4.297  0.2569E-01  0.2569E-01  0.2603E+00  0.2603E+00
      4.405  0.2267E-01  0.2267E-01  0.2627E+00  0.2627E+00
      4.513  0.2273E-01  0.2273E-01  0.2652E+00  0.2652E+00
      4.621  0.2580E-01  0.2580E-01  0.2680E+00  0.2680E+00
      4.730  0.2950E-01  0.2950E-01  0.2712E+00  0.2712E+00
      4.838  0.2372E-01  0.2372E-01  0.2738E+00  0.2738E+00
      4.946  0.2432E-01  0.2432E-01  0.2764E+00  0.2764E+00
      5.054  0.2456E-01  0.2456E-01  0.2791E+00  0.2791E+00
      5.163  0.2625E-01  0.2625E-01  0.2819E+00  0.2819E+00
      5.271  0.2549E-01  0.2548E-01  0.2847E+00  0.2847E+00
      5.379  0.2460E-01  0.2460E-01  0.2873E+00  0.2873E+00
      5.487  0.2140E-01  0.2140E-01  0.2896E+00  0.2896E+00
      5.596  0.2339E-01  0.2339E-01  0.2922E+00  0.2922E+00
      5.704  0.2359E-01  0.2359E-01  0.2947E+00  0.2947E+00
      5.812  0.2379E-01  0.2379E-01  0.2973E+00  0.2973E+00
      5.920  0.2358E-01  0.2358E-01  0.2999E+00  0.2999E+00
      6.029  0.1892E-01  0.1892E-01  0.3019E+00  0.3019E+00
      6.137  0.1577E-01  0.1577E-01  0.3036E+00  0.3036E+00
      6.245  0.1789E-01  0.1789E-01  0.3055E+00  0.3055E+00
      6.353  0.2361E-01  0.2361E-01  0.3081E+00  0.3081E+00
      6.462  0.2154E-01  0.2154E-01  0.3104E+00  0.3104E+00
      6.570  0.1609E-01  0.1609E-01  0.3122E+00  0.3122E+00
      6.678  0.2290E-01  0.2290E-01  0.3146E+00  0.3146E+00
      6.787  0.2815E-01  0.2815E-01  0.3177E+00  0.3177E+00
      6.895  0.2608E-01  0.2607E-01  0.3205E+00  0.3205E+00
      7.003  0.2535E-01  0.2535E-01  0.3233E+00  0.3233E+00
      7.111  0.2867E-01  0.2867E-01  0.3264E+00  0.3264E+00
      7.220  0.2775E-01  0.2775E-01  0.3294E+00  0.3294E+00
      7.328  0.2026E-01  0.2026E-01  0.3316E+00  0.3316E+00
      7.436  0.2466E-01  0.2466E-01  0.3342E+00  0.3342E+00
      7.544  0.1949E-01  0.1949E-01  0.3363E+00  0.3363E+00
      7.653  0.1972E-01  0.1973E-01  0.3385E+00  0.3385E+00
      7.761  0.2482E-01  0.2482E-01  0.3412E+00  0.3412E+00
      7.869  0.1770E-01  0.1770E-01  0.3431E+00  0.3431E+00
      7.977  0.2354E-01  0.2355E-01  0.3456E+00  0.3456E+00
      8.086  0.3169E-01  0.3169E-01  0.3491E+00  0.3491E+00
      8.194  0.3055E-01  0.3055E-01  0.3524E+00  0.3524E+00
      8.302  0.3606E-01  0.3606E-01  0.3563E+00  0.3563E+00
      8.410  0.3163E-01  0.3162E-01  0.3597E+00  0.3597E+00
      8.519  0.3047E-01  0.3047E-01  0.3630E+00  0.3630E+00
      8.627  0.3198E-01  0.3198E-01  0.3665E+00  0.3665E+00
      8.735  0.2653E-01  0.2653E-01  0.3693E+00  0.3693E+00
      8.843  0.2295E-01  0.2295E-01  0.3718E+00  0.3718E+00
      8.952  0.1687E-01  0.1687E-01  0.3736E+00  0.3736E+00
      9.060  0.7894E-02  0.7894E-02  0.3745E+00  0.3745E+00
      9.168  0.3855E-02  0.3855E-02  0.3749E+00  0.3749E+00
      9.276  0.7781E-03  0.7781E-03  0.3750E+00  0.3750E+00
      9.385  0.2516E-04  0.2516E-04  0.3750E+00  0.3750E+00
      9.493  0.9997E-07  0.9997E-07  0.3750E+00  0.3750E+00
      9.601  0.4404E-10  0.4403E-10  0.3750E+00  0.3750E+00
      9.709  0.2039E-14  0.2039E-14  0.3750E+00  0.3750E+00
      9.818  0.0000E+00  0.0000E+00  0.3750E+00  0.3750E+00
      9.926  0.0000E+00  0.0000E+00  0.3750E+00  0.3750E+00
     10.034  0.0000E+00  0.0000E+00  0.3750E+00  0.3750E+00
     10.142  0.0000E+00  0.0000E+00  0.3750E+00  0.3750E+00
     10.251  0.0000E+00  0.0000E+00  0.3750E+00  0.3750E+00
     10.359  0.0000E+00  0.0000E+00  0.3750E+00  0.3750E+00
     10.467  0.0000E+00  0.0000E+00  0.3750E+00  0.3750E+00
     10.576  0.0000E+00  0.0000E+00  0.3750E+00  0.3750E+00
