    2    2  256    1
  0.3953031E+02  0.2467000E-09  0.2467000E-09  0.1500000E-08  0.5000000E-15
  1.000000000000000E-004
  CAR 
 Lattice                                 
      8    108     48
 
  0.0000000E+00  0.0000000E+00  0.0000000E+00  0.9182736E-03
      1        -21.757115   1.000000
      2         -9.860607   1.000000
      3         -5.282621   1.000000
      4         -5.282564   1.000000
      5          1.008418   0.000000
      6          1.913514   0.000000
      7          2.448744   0.000000
      8          4.340558   0.000000
      9          5.099348   0.000000
     10          6.062987   0.000000
     11          6.063050   0.000000
     12          8.238051   0.000000
     13          9.161210   0.000000
     14          9.351696   0.000000
     15         10.217859   0.000000
     16         13.562828   0.000000
     17         15.072380   0.000000
     18         20.126495   0.000000
     19         20.225938   0.000000
     20         22.222039   0.000000
     21         25.917973   0.000000
     22         25.917998   0.000000
     23         27.117335   0.000000
     24         29.332490   0.000000
     25         29.332500   0.000000
     26         30.721635   0.000000
     27         31.454084   0.000000
     28         32.945890   0.000000
     29         32.945898   0.000000
     30         33.452282   0.000000
     31         33.452282   0.000000
     32         33.940847   0.000000
     33         34.197673   0.000000
     34         34.480001   0.000000
     35         35.128472   0.000000
     36         35.128477   0.000000
     37         35.220178   0.000000
     38         35.220205   0.000000
     39         35.273086   0.000000
     40         35.273105   0.000000
     41         35.302971   0.000000
     42         35.402864   0.000000
     43         35.415799   0.000000
     44         35.415805   0.000000
     45         35.637044   0.000000
     46         36.742709   0.000000
     47         37.341038   0.000000
     48         37.455164   0.000000
 
  0.3030303E-01  0.2651498E-17  0.0000000E+00  0.5509642E-02
      1        -21.735417   1.000000
      2         -9.834754   1.000000
      3         -5.372581   1.000000
      4         -5.330107   1.000000
      5          1.037858   0.000000
      6          1.943192   0.000000
      7          2.478727   0.000000
      8          4.370042   0.000000
      9          5.128064   0.000000
     10          6.078114   0.000000
     11          6.158644   0.000000
     12          8.266638   0.000000
     13          9.084533   0.000000
     14          9.381509   0.000000
     15         10.256284   0.000000
     16         13.589215   0.000000
     17         15.101655   0.000000
     18         20.142561   0.000000
     19         20.297803   0.000000
     20         22.250359   0.000000
     21         25.684282   0.000000
     22         25.693409   0.000000
     23         26.965070   0.000000
     24         29.392300   0.000000
     25         29.618692   0.000000
     26         30.748199   0.000000
     27         31.577293   0.000000
     28         31.925738   0.000000
     29         32.226319   0.000000
     30         32.969958   0.000000
     31         33.090966   0.000000
     32         33.339707   0.000000
     33         34.066421   0.000000
     34         34.169878   0.000000
     35         34.310096   0.000000
     36         34.337997   0.000000
     37         34.383086   0.000000
     38         34.785657   0.000000
     39         35.361670   0.000000
     40         35.590607   0.000000
     41         35.879797   0.000000
     42         36.073135   0.000000
     43         36.264107   0.000000
     44         36.266436   0.000000
     45         36.456002   0.000000
     46         36.487803   0.000000
     47         36.572060   0.000000
     48         36.902974   0.000000
 
  0.6060606E-01  0.5302997E-17  0.0000000E+00  0.5509642E-02
      1        -21.670343   1.000000
      2         -9.757132   1.000000
      3         -5.635518   1.000000
      4         -5.467539   1.000000
      5          1.126188   0.000000
      6          2.032256   0.000000
      7          2.568683   0.000000
      8          4.458534   0.000000
      9          5.214171   0.000000
     10          6.111905   0.000000
     11          6.437705   0.000000
     12          8.352435   0.000000
     13          8.858702   0.000000
     14          9.470764   0.000000
     15         10.375665   0.000000
     16         13.668306   0.000000
     17         15.189275   0.000000
     18         20.185955   0.000000
     19         20.506511   0.000000
     20         22.335887   0.000000
     21         24.957748   0.000000
     22         25.137157   0.000000
     23         26.914779   0.000000
     24         29.476472   0.000000
     25         29.834382   0.000000
     26         30.316266   0.000000
     27         30.828857   0.000000
     28         31.351742   0.000000
     29         31.355479   0.000000
     30         31.439394   0.000000
     31         32.196370   0.000000
     32         33.054160   0.000000
     33         33.147366   0.000000
     34         33.371921   0.000000
     35         33.432102   0.000000
     36         33.522338   0.000000
     37         33.898244   0.000000
     38         33.919964   0.000000
     39         35.234183   0.000000
     40         35.520478   0.000000
     41         35.701347   0.000000
     42         35.945888   0.000000
     43         35.952652   0.000000
     44         36.117576   0.000000
     45         36.859521   0.000000
     46         37.351042   0.000000
     47         37.383904   0.000000
     48         37.406776   0.000000
 
  0.9090909E-01  0.5983008E-17  0.0000000E+00  0.5509642E-02
      1        -21.561993   1.000000
      2         -9.628046   1.000000
      3         -6.050302   1.000000
      4         -5.679788   1.000000
      5          1.273423   0.000000
      6          2.180620   0.000000
      7          2.718624   0.000000
      8          4.605900   0.000000
      9          5.357182   0.000000
     10          6.143660   0.000000
     11          6.885361   0.000000
     12          8.480707   0.000000
     13          8.509812   0.000000
     14          9.618884   0.000000
     15         10.584646   0.000000
     16         13.798768   0.000000
     17         15.334668   0.000000
     18         20.236399   0.000000
     19         20.829023   0.000000
     20         22.480612   0.000000
     21         23.981878   0.000000
     22         24.477884   0.000000
     23         27.057147   0.000000
     24         28.114551   0.000000
     25         29.343224   0.000000
     26         29.630853   0.000000
     27         29.827852   0.000000
     28         30.529817   0.000000
     29         30.958121   0.000000
     30         31.175947   0.000000
     31         31.380013   0.000000
     32         31.909841   0.000000
     33         32.168083   0.000000
     34         32.529145   0.000000
     35         32.663321   0.000000
     36         32.702332   0.000000
     37         32.744234   0.000000
     38         34.410152   0.000000
     39         34.824416   0.000000
     40         34.852930   0.000000
     41         35.144039   0.000000
     42         35.372381   0.000000
     43         36.039588   0.000000
     44         36.060915   0.000000
     45         36.358014   0.000000
     46         37.356827   0.000000
     47         38.075615   0.000000
     48         38.328620   0.000000
 
  0.1212121E+00  0.1060599E-16  0.0000000E+00  0.5509642E-02
      1        -21.410516   1.000000
      2         -9.447935   1.000000
      3         -6.590407   1.000000
      4         -5.948058   1.000000
      5          1.479555   0.000000
      6          2.388155   0.000000
      7          2.928554   0.000000
      8          4.811916   0.000000
      9          5.554701   0.000000
     10          6.156658   0.000000
     11          7.481617   0.000000
     12          8.008346   0.000000
     13          8.696060   0.000000
     14          9.825026   0.000000
     15         10.887927   0.000000
     16         13.978540   0.000000
     17         15.537068   0.000000
     18         20.242745   0.000000
     19         21.222549   0.000000
     20         22.688719   0.000000
     21         23.044618   0.000000
     22         23.801614   0.000000
     23         26.458114   0.000000
     24         27.140992   0.000000
     25         27.878243   0.000000
     26         27.969889   0.000000
     27         29.662813   0.000000
     28         29.758202   0.000000
     29         30.326331   0.000000
     30         30.373318   0.000000
     31         30.774754   0.000000
     32         31.164701   0.000000
     33         31.525336   0.000000
     34         31.745047   0.000000
     35         31.968367   0.000000
     36         32.017669   0.000000
     37         32.551670   0.000000
     38         33.926488   0.000000
     39         34.051857   0.000000
     40         34.426842   0.000000
     41         34.429357   0.000000
     42         34.639202   0.000000
     43         34.788137   0.000000
     44         35.988458   0.000000
     45         37.470224   0.000000
     46         37.932972   0.000000
     47         38.068765   0.000000
     48         38.135168   0.000000
 
  0.1515152E+00  0.6126244E-17  0.0000000E+00  0.5509642E-02
      1        -21.216148   1.000000
      2         -9.217515   1.000000
      3         -7.227019   1.000000
      4         -6.252325   1.000000
      5          1.744520   0.000000
      6          2.654595   0.000000
      7          3.198451   0.000000
      8          5.075985   0.000000
      9          5.792815   0.000000
     10          6.151197   0.000000
     11          7.417751   0.000000
     12          8.201376   0.000000
     13          8.951968   0.000000
     14         10.088465   0.000000
     15         11.279277   0.000000
     16         14.203925   0.000000
     17         15.795591   0.000000
     18         20.088698   0.000000
     19         21.602257   0.000000
     20         22.334953   0.000000
     21         22.962926   0.000000
     22         23.146888   0.000000
     23         24.911739   0.000000
     24         26.065860   0.000000
     25         26.196932   0.000000
     26         27.476973   0.000000
     27         28.765600   0.000000
     28         28.942057   0.000000
     29         29.042360   0.000000
     30         29.650022   0.000000
     31         30.017758   0.000000
     32         30.948654   0.000000
     33         31.020532   0.000000
     34         31.231935   0.000000
     35         31.424807   0.000000
     36         31.556489   0.000000
     37         32.739188   0.000000
     38         32.920815   0.000000
     39         33.146329   0.000000
     40         33.332988   0.000000
     41         33.805583   0.000000
     42         34.041468   0.000000
     43         34.130547   0.000000
     44         36.684721   0.000000
     45         37.350475   0.000000
     46         37.729584   0.000000
     47         37.855733   0.000000
     48         38.120308   0.000000
 
  0.1818182E+00  0.4283863E-17  0.0000000E+00  0.5509642E-02
      1        -20.979174   1.000000
      2         -8.937718   1.000000
      3         -7.933477   1.000000
      4         -6.574258   1.000000
      5          2.068214   0.000000
      6          2.979459   0.000000
      7          3.528261   0.000000
      8          5.396074   0.000000
      9          5.952145   0.000000
     10          6.247254   0.000000
     11          6.745018   0.000000
     12          9.024124   0.000000
     13          9.263502   0.000000
     14         10.408842   0.000000
     15         11.741714   0.000000
     16         14.468946   0.000000
     17         16.109309   0.000000
     18         19.647817   0.000000
     19         21.747692   0.000000
     20         21.980609   0.000000
     21         22.530712   0.000000
     22         23.213297   0.000000
     23         23.692376   0.000000
     24         24.574308   0.000000
     25         24.636003   0.000000
     26         26.701705   0.000000
     27         27.222326   0.000000
     28         28.260179   0.000000
     29         28.383389   0.000000
     30         29.369417   0.000000
     31         29.529671   0.000000
     32         30.314288   0.000000
     33         30.355865   0.000000
     34         30.577936   0.000000
     35         31.214645   0.000000
     36         31.402882   0.000000
     37         31.428299   0.000000
     38         31.716994   0.000000
     39         32.671221   0.000000
     40         32.797100   0.000000
     41         33.405524   0.000000
     42         33.429254   0.000000
     43         34.991769   0.000000
     44         36.282491   0.000000
     45         36.688706   0.000000
     46         36.836819   0.000000
     47         36.844834   0.000000
     48         37.263935   0.000000
 
  0.2121212E+00  0.2925000E-16  0.0000000E+00  0.5509642E-02
      1        -20.700002   1.000000
      2         -8.688006   1.000000
      3         -8.609908   1.000000
      4         -6.899083   1.000000
      5          2.450439   0.000000
      6          3.361443   0.000000
      7          3.917849   0.000000
      8          5.737677   0.000000
      9          5.906515   0.000000
     10          6.042910   0.000000
     11          6.579013   0.000000
     12          9.629391   0.000000
     13          9.929300   0.000000
     14         10.785949   0.000000
     15         12.246466   0.000000
     16         14.762005   0.000000
     17         16.476934   0.000000
     18         18.992662   0.000000
     19         21.111287   0.000000
     20         21.798197   0.000000
     21         21.961556   0.000000
     22         22.627780   0.000000
     23         23.249749   0.000000
     24         23.303967   0.000000
     25         23.954098   0.000000
     26         25.425498   0.000000
     27         25.813306   0.000000
     28         27.781549   0.000000
     29         27.859579   0.000000
     30         28.764519   0.000000
     31         29.314877   0.000000
     32         29.722367   0.000000
     33         29.751102   0.000000
     34         29.795310   0.000000
     35         30.149206   0.000000
     36         30.416069   0.000000
     37         30.945744   0.000000
     38         32.057235   0.000000
     39         32.067030   0.000000
     40         32.246399   0.000000
     41         32.842239   0.000000
     42         33.276688   0.000000
     43         35.212532   0.000000
     44         35.422817   0.000000
     45         35.906761   0.000000
     46         36.080272   0.000000
     47         36.364306   0.000000
     48         37.020154   0.000000
 
  0.2424242E+00  0.1258278E-16  0.0000000E+00  0.5509642E-02
      1        -20.379133   1.000000
      2         -9.472413   1.000000
      3         -8.235994   1.000000
      4         -7.214371   1.000000
      5          2.890903   0.000000
      6          3.794970   0.000000
      7          4.366878   0.000000
      8          5.194085   0.000000
      9          5.804715   0.000000
     10          6.241147   0.000000
     11          7.008223   0.000000
     12         10.047893   0.000000
     13         10.898196   0.000000
     14         11.219522   0.000000
     15         12.757893   0.000000
     16         15.059185   0.000000
     17         16.896506   0.000000
     18         18.283633   0.000000
     19         19.910148   0.000000
     20         21.155522   0.000000
     21         21.307901   0.000000
     22         21.443984   0.000000
     23         22.503433   0.000000
     24         23.080647   0.000000
     25         24.050536   0.000000
     26         24.248384   0.000000
     27         24.950682   0.000000
     28         27.158910   0.000000
     29         27.236978   0.000000
     30         28.073864   0.000000
     31         28.668741   0.000000
     32         28.711953   0.000000
     33         29.185036   0.000000
     34         29.206266   0.000000
     35         29.526279   0.000000
     36         30.147146   0.000000
     37         30.674616   0.000000
     38         31.520514   0.000000
     39         31.722537   0.000000
     40         32.156827   0.000000
     41         32.629676   0.000000
     42         33.120486   0.000000
     43         34.041271   0.000000
     44         34.162333   0.000000
     45         35.524572   0.000000
     46         35.822111   0.000000
     47         36.224776   0.000000
     48         36.584831   0.000000
 
  0.2727273E+00  0.3754892E-16  0.0000000E+00  0.5509642E-02
      1        -20.017198   1.000000
      2        -10.272244   1.000000
      3         -7.818506   1.000000
      4         -7.511120   1.000000
      5          3.389122   0.000000
      6          4.155122   0.000000
      7          4.514120   0.000000
      8          4.873982   0.000000
      9          5.690515   0.000000
     10          6.732224   0.000000
     11          7.502926   0.000000
     12         10.516394   0.000000
     13         11.708993   0.000000
     14         11.911726   0.000000
     15         13.219592   0.000000
     16         15.303393   0.000000
     17         17.362967   0.000000
     18         17.617980   0.000000
     19         18.662416   0.000000
     20         19.911014   0.000000
     21         20.035045   0.000000
     22         20.980630   0.000000
     23         21.945401   0.000000
     24         22.320486   0.000000
     25         23.596066   0.000000
     26         23.894741   0.000000
     27         25.135675   0.000000
     28         26.212106   0.000000
     29         26.749279   0.000000
     30         27.028802   0.000000
     31         28.018751   0.000000
     32         28.098159   0.000000
     33         28.705522   0.000000
     34         28.721283   0.000000
     35         29.040453   0.000000
     36         29.876207   0.000000
     37         30.611880   0.000000
     38         31.031262   0.000000
     39         31.249338   0.000000
     40         31.703652   0.000000
     41         32.633845   0.000000
     42         32.645495   0.000000
     43         33.155845   0.000000
     44         33.609106   0.000000
     45         35.019241   0.000000
     46         35.416425   0.000000
     47         36.098888   0.000000
     48         36.314967   0.000000
 
  0.3030303E+00  0.7003908E-17  0.0000000E+00  0.5509642E-02
      1        -19.615076   1.000000
      2        -11.075857   1.000000
      3         -7.782240   1.000000
      4         -7.361506   1.000000
      5          3.481581   0.000000
      6          3.944016   0.000000
      7          4.904996   0.000000
      8          5.414787   0.000000
      9          5.601521   0.000000
     10          7.284841   0.000000
     11          8.058012   0.000000
     12         11.030013   0.000000
     13         12.253193   0.000000
     14         12.946681   0.000000
     15         13.536967   0.000000
     16         15.351575   0.000000
     17         17.084916   0.000000
     18         17.479237   0.000000
     19         17.900258   0.000000
     20         18.602062   0.000000
     21         18.946764   0.000000
     22         20.573133   0.000000
     23         21.022902   0.000000
     24         21.168671   0.000000
     25         23.452716   0.000000
     26         23.871972   0.000000
     27         25.281819   0.000000
     28         25.329527   0.000000
     29         26.212982   0.000000
     30         26.317811   0.000000
     31         27.584702   0.000000
     32         27.622194   0.000000
     33         28.285045   0.000000
     34         28.296040   0.000000
     35         28.617582   0.000000
     36         29.377844   0.000000
     37         30.451786   0.000000
     38         30.598584   0.000000
     39         30.832411   0.000000
     40         31.089548   0.000000
     41         31.602822   0.000000
     42         32.286698   0.000000
     43         33.324334   0.000000
     44         33.672605   0.000000
     45         34.560023   0.000000
     46         35.021118   0.000000
     47         35.667599   0.000000
     48         36.432888   0.000000
 
  0.3333333E+00  0.3386416E-16  0.0000000E+00  0.5509642E-02
      1        -19.173944   1.000000
      2        -11.873903   1.000000
      3         -8.022549   1.000000
      4         -6.870862   1.000000
      5          2.649824   0.000000
      6          4.551846   0.000000
      7          5.449845   0.000000
      8          5.511736   0.000000
      9          6.088637   0.000000
     10          7.894130   0.000000
     11          8.671664   0.000000
     12         11.579739   0.000000
     13         12.848349   0.000000
     14         13.543309   0.000000
     15         13.979777   0.000000
     16         15.004304   0.000000
     17         16.475347   0.000000
     18         16.711958   0.000000
     19         17.457328   0.000000
     20         18.097604   0.000000
     21         18.453560   0.000000
     22         20.052136   0.000000
     23         20.108729   0.000000
     24         20.222582   0.000000
     25         23.063858   0.000000
     26         23.509158   0.000000
     27         24.901558   0.000000
     28         24.967343   0.000000
     29         25.941625   0.000000
     30         26.247999   0.000000
     31         27.105331   0.000000
     32         27.370387   0.000000
     33         27.924170   0.000000
     34         27.930373   0.000000
     35         28.246847   0.000000
     36         28.746105   0.000000
     37         30.052382   0.000000
     38         30.092353   0.000000
     39         30.221477   0.000000
     40         30.473747   0.000000
     41         31.045843   0.000000
     42         32.401322   0.000000
     43         33.039268   0.000000
     44         34.139896   0.000000
     45         34.258089   0.000000
     46         34.672392   0.000000
     47         35.323959   0.000000
     48         36.153166   0.000000
 
  0.3636364E+00  0.3107472E-16  0.0000000E+00  0.5509642E-02
      1        -18.695515   1.000000
      2        -12.657971   1.000000
      3         -8.227894   1.000000
      4         -6.355953   1.000000
      5          1.830601   0.000000
      6          5.159951   0.000000
      7          5.416262   0.000000
      8          6.182768   0.000000
      9          6.773139   0.000000
     10          8.557668   0.000000
     11          9.342635   0.000000
     12         12.141896   0.000000
     13         13.075202   0.000000
     14         13.518216   0.000000
     15         14.314722   0.000000
     16         14.980333   0.000000
     17         15.451367   0.000000
     18         16.202250   0.000000
     19         16.701809   0.000000
     20         17.608097   0.000000
     21         18.878140   0.000000
     22         19.269898   0.000000
     23         19.471667   0.000000
     24         19.929661   0.000000
     25         22.296852   0.000000
     26         22.695087   0.000000
     27         24.696798   0.000000
     28         25.132721   0.000000
     29         25.620048   0.000000
     30         26.352020   0.000000
     31         26.604665   0.000000
     32         27.339370   0.000000
     33         27.623188   0.000000
     34         27.624186   0.000000
     35         27.907544   0.000000
     36         28.118780   0.000000
     37         29.139316   0.000000
     38         29.669645   0.000000
     39         29.899132   0.000000
     40         30.174220   0.000000
     41         30.684541   0.000000
     42         32.515893   0.000000
     43         32.859891   0.000000
     44         33.749282   0.000000
     45         34.378297   0.000000
     46         34.609116   0.000000
     47         35.213396   0.000000
     48         35.595881   0.000000
 
  0.3939394E+00  0.3353387E-16  0.0000000E+00  0.5509642E-02
      1        -18.182748   1.000000
      2        -13.420403   1.000000
      3         -8.395294   1.000000
      4         -5.832988   1.000000
      5          1.053613   0.000000
      6          5.233070   0.000000
      7          5.986644   0.000000
      8          6.911072   0.000000
      9          7.520359   0.000000
     10          9.272315   0.000000
     11         10.069487   0.000000
     12         12.289223   0.000000
     13         12.593523   0.000000
     14         13.565064   0.000000
     15         14.201854   0.000000
     16         14.344346   0.000000
     17         15.476037   0.000000
     18         15.904660   0.000000
     19         16.099149   0.000000
     20         17.236395   0.000000
     21         18.446928   0.000000
     22         19.223764   0.000000
     23         19.685891   0.000000
     24         19.694861   0.000000
     25         21.557856   0.000000
     26         21.820158   0.000000
     27         24.561577   0.000000
     28         25.257451   0.000000
     29         25.352899   0.000000
     30         26.204405   0.000000
     31         26.233199   0.000000
     32         27.333203   0.000000
     33         27.377486   0.000000
     34         27.382271   0.000000
     35         27.532757   0.000000
     36         27.686632   0.000000
     37         28.694556   0.000000
     38         29.367787   0.000000
     39         29.631197   0.000000
     40         29.934279   0.000000
     41         30.405999   0.000000
     42         32.131146   0.000000
     43         33.001331   0.000000
     44         33.377571   0.000000
     45         34.141592   0.000000
     46         34.391576   0.000000
     47         34.697736   0.000000
     48         35.260354   0.000000
 
  0.4242424E+00  0.5850001E-16  0.0000000E+00  0.5509642E-02
      1        -17.641802   1.000000
      2        -14.151495   1.000000
      3         -8.522681   1.000000
      4         -5.331515   1.000000
      5          0.355503   0.000000
      6          5.177161   0.000000
      7          6.758894   0.000000
      8          7.693267   0.000000
      9          8.327392   0.000000
     10         10.030824   0.000000
     11         10.847798   0.000000
     12         11.351237   0.000000
     13         12.216117   0.000000
     14         13.219035   0.000000
     15         13.504740   0.000000
     16         14.721667   0.000000
     17         14.940191   0.000000
     18         15.331459   0.000000
     19         16.694791   0.000000
     20         16.848765   0.000000
     21         18.148411   0.000000
     22         19.093014   0.000000
     23         19.518448   0.000000
     24         20.119657   0.000000
     25         21.161706   0.000000
     26         21.224981   0.000000
     27         24.367698   0.000000
     28         24.782292   0.000000
     29         25.141309   0.000000
     30         26.011323   0.000000
     31         26.286463   0.000000
     32         26.781473   0.000000
     33         27.190543   0.000000
     34         27.201507   0.000000
     35         27.386289   0.000000
     36         27.555679   0.000000
     37         28.985237   0.000000
     38         29.125580   0.000000
     39         29.418815   0.000000
     40         29.754158   0.000000
     41         30.205792   0.000000
     42         31.578965   0.000000
     43         33.024503   0.000000
     44         33.025147   0.000000
     45         33.496670   0.000000
     46         33.963440   0.000000
     47         34.393288   0.000000
     48         35.341631   0.000000
 
  0.4545455E+00  0.2795499E-16  0.0000000E+00  0.5509642E-02
      1        -17.090512   1.000000
      2        -14.830863   1.000000
      3         -8.608313   1.000000
      4         -4.905736   1.000000
      5         -0.203746   0.000000
      6          5.134935   0.000000
      7          7.590520   0.000000
      8          8.525356   0.000000
      9          9.193057   0.000000
     10         10.370423   0.000000
     11         10.783249   0.000000
     12         11.363565   0.000000
     13         11.685791   0.000000
     14         12.135656   0.000000
     15         13.386833   0.000000
     16         14.415842   0.000000
     17         14.448187   0.000000
     18         15.721094   0.000000
     19         16.512126   0.000000
     20         17.287061   0.000000
     21         17.808403   0.000000
     22         18.809771   0.000000
     23         19.400775   0.000000
     24         20.098168   0.000000
     25         21.244702   0.000000
     26         21.330431   0.000000
     27         24.095528   0.000000
     28         24.096990   0.000000
     29         24.991106   0.000000
     30         25.742558   0.000000
     31         26.325970   0.000000
     32         26.427258   0.000000
     33         27.064408   0.000000
     34         27.080975   0.000000
     35         27.279689   0.000000
     36         27.763692   0.000000
     37         28.906086   0.000000
     38         29.267836   0.000000
     39         29.549268   0.000000
     40         29.634023   0.000000
     41         30.118764   0.000000
     42         31.016462   0.000000
     43         32.522099   0.000000
     44         32.728594   0.000000
     45         32.963215   0.000000
     46         33.844457   0.000000
     47         34.259445   0.000000
     48         34.986804   0.000000
 
  0.4848485E+00  0.2516556E-16  0.0000000E+00  0.5509642E-02
      1        -16.614378   1.000000
      2        -15.371420   1.000000
      3         -8.651367   1.000000
      4         -4.646363   1.000000
      5         -0.530638   0.000000
      6          5.113126   0.000000
      7          8.470120   0.000000
      8          9.394541   0.000000