Automatically generated mesh
     108
Reciprocal lattice
    0.00000000000000    0.00000000000000    0.00000000000000             1
    0.03030303030303    0.00000000000000    0.00000000000000             6
    0.06060606060606    0.00000000000000    0.00000000000000             6
    0.09090909090909    0.00000000000000    0.00000000000000             6
    0.12121212121212    0.00000000000000    0.00000000000000             6
    0.15151515151515    0.00000000000000    0.00000000000000             6
    0.18181818181818    0.00000000000000    0.00000000000000             6
    0.21212121212121    0.00000000000000    0.00000000000000             6
    0.24242424242424    0.00000000000000    0.00000000000000             6
    0.27272727272727    0.00000000000000    0.00000000000000             6
    0.30303030303030    0.00000000000000    0.00000000000000             6
    0.33333333333334    0.00000000000000    0.00000000000000             6
    0.36363636363637    0.00000000000000    0.00000000000000             6
    0.39393939393939    0.00000000000000    0.00000000000000             6
    0.42424242424242    0.00000000000000    0.00000000000000             6
    0.45454545454545    0.00000000000000    0.00000000000000             6
    0.48484848484848    0.00000000000000    0.00000000000000             6
    0.03030303030303    0.03030303030303    0.00000000000000             6
    0.06060606060606    0.03030303030303    0.00000000000000            12
    0.09090909090909    0.03030303030303    0.00000000000000            12
    0.12121212121212    0.03030303030303    0.00000000000000            12
    0.15151515151515    0.03030303030303    0.00000000000000            12
    0.18181818181818    0.03030303030303    0.00000000000000            12
    0.21212121212121    0.03030303030303    0.00000000000000            12
    0.24242424242424    0.03030303030303    0.00000000000000            12
    0.27272727272727    0.03030303030303    0.00000000000000            12
    0.30303030303030    0.03030303030303    0.00000000000000            12
    0.33333333333334    0.03030303030303    0.00000000000000            12
    0.36363636363637    0.03030303030303    0.00000000000000            12
    0.39393939393939    0.03030303030303    0.00000000000000            12
    0.42424242424242    0.03030303030303    0.00000000000000            12
    0.45454545454545    0.03030303030303    0.00000000000000            12
    0.48484848484848    0.03030303030303    0.00000000000000             6
    0.06060606060606    0.06060606060606    0.00000000000000             6
    0.09090909090909    0.06060606060606    0.00000000000000            12
    0.12121212121212    0.06060606060606    0.00000000000000            12
    0.15151515151515    0.06060606060606    0.00000000000000            12
    0.18181818181818    0.06060606060606    0.00000000000000            12
    0.21212121212121    0.06060606060606    0.00000000000000            12
    0.24242424242424    0.06060606060606    0.00000000000000            12
    0.27272727272727    0.06060606060606    0.00000000000000            12
    0.30303030303030    0.06060606060606    0.00000000000000            12
    0.33333333333334    0.06060606060606    0.00000000000000            12
    0.36363636363637    0.06060606060606    0.00000000000000            12
    0.39393939393939    0.06060606060606    0.00000000000000            12
    0.42424242424242    0.06060606060606    0.00000000000000            12
    0.45454545454545    0.06060606060606    0.00000000000000            12
    0.09090909090909    0.09090909090909    0.00000000000000             6
    0.12121212121212    0.09090909090909    0.00000000000000            12
    0.15151515151515    0.09090909090909    0.00000000000000            12
    0.18181818181818    0.09090909090909    0.00000000000000            12
    0.21212121212121    0.09090909090909    0.00000000000000            12
    0.24242424242424    0.09090909090909    0.00000000000000            12
    0.27272727272727    0.09090909090909    0.00000000000000            12
    0.30303030303030    0.09090909090909    0.00000000000000            12
    0.33333333333334    0.09090909090909    0.00000000000000            12
    0.36363636363637    0.09090909090909    0.00000000000000            12
    0.39393939393939    0.09090909090909    0.00000000000000            12
    0.42424242424242    0.09090909090909    0.00000000000000            12
    0.45454545454545    0.09090909090909    0.00000000000000             6
    0.12121212121212    0.12121212121212    0.00000000000000             6
    0.15151515151515    0.12121212121212    0.00000000000000            12
    0.18181818181818    0.12121212121212    0.00000000000000            12
    0.21212121212121    0.12121212121212    0.00000000000000            12
    0.24242424242424    0.12121212121212    0.00000000000000            12
    0.27272727272727    0.12121212121212    0.00000000000000            12
    0.30303030303030    0.12121212121212    0.00000000000000            12
    0.33333333333334    0.12121212121212    0.00000000000000            12
    0.36363636363637    0.12121212121212    0.00000000000000            12
    0.39393939393939    0.12121212121212    0.00000000000000            12
    0.42424242424242    0.12121212121212    0.00000000000000            12
    0.15151515151515    0.15151515151515    0.00000000000000             6
    0.18181818181818    0.15151515151515    0.00000000000000            12
    0.21212121212121    0.15151515151515    0.00000000000000            12
    0.24242424242424    0.15151515151515    0.00000000000000            12
    0.27272727272727    0.15151515151515    0.00000000000000            12
    0.30303030303030    0.15151515151515    0.00000000000000            12
    0.33333333333334    0.15151515151515    0.00000000000000            12
    0.36363636363637    0.15151515151515    0.00000000000000            12
    0.39393939393939    0.15151515151515    0.00000000000000            12
    0.42424242424242    0.15151515151515    0.00000000000000             6
    0.18181818181818    0.18181818181818    0.00000000000000             6
    0.21212121212121    0.18181818181818    0.00000000000000            12
    0.24242424242424    0.18181818181818    0.00000000000000            12
    0.27272727272727    0.18181818181818    0.00000000000000            12
    0.30303030303030    0.18181818181818    0.00000000000000            12
    0.33333333333334    0.18181818181818    0.00000000000000            12
    0.36363636363637    0.18181818181818    0.00000000000000            12
    0.39393939393939    0.18181818181818    0.00000000000000            12
    0.21212121212121    0.21212121212121    0.00000000000000             6
    0.24242424242424    0.21212121212121    0.00000000000000            12
    0.27272727272727    0.21212121212121    0.00000000000000            12
    0.30303030303030    0.21212121212121    0.00000000000000            12
    0.33333333333334    0.21212121212121    0.00000000000000            12
    0.36363636363637    0.21212121212121    0.00000000000000            12
    0.39393939393939    0.21212121212121    0.00000000000000             6
    0.24242424242424    0.24242424242424    0.00000000000000             6
    0.27272727272727    0.24242424242424    0.00000000000000            12
    0.30303030303030    0.24242424242424    0.00000000000000            12
    0.33333333333334    0.24242424242424    0.00000000000000            12
    0.36363636363637    0.24242424242424    0.00000000000000            12
    0.27272727272727    0.27272727272727    0.00000000000000             6
    0.30303030303030    0.27272727272727    0.00000000000000            12
    0.33333333333334    0.27272727272727    0.00000000000000            12
    0.36363636363637    0.27272727272727    0.00000000000000             6
    0.30303030303030    0.30303030303030    0.00000000000000             6
    0.33333333333334    0.30303030303030    0.00000000000000            12
    0.33333333333334    0.33333333333334    0.00000000000000             2
